 vasp.5.4.4.18Apr17-6-g9f103f2a35 (build Oct 25 2017 14:42:18) complex          
  
 executed on             LinuxIFC date 2021.05.28  04:50:03
 running on   24 total cores
 distrk:  each k-point on   12 cores,    2 groups
 distr:  one band on NCORES_PER_BAND=   6 cores,    2 groups


--------------------------------------------------------------------------------------------------------


 INCAR:
 POTCAR:    PAW_PBE Li_sv 10Sep2004               
 POTCAR:    PAW_PBE O 08Apr2002                   
 POTCAR:    PAW_PBE S 06Sep2000                   
 POTCAR:    PAW_PBE Fe_pv 02Aug2007               

 ----------------------------------------------------------------------------- 
|                                                                             |
|           W    W    AA    RRRRR   N    N  II  N    N   GGGG   !!!           |
|           W    W   A  A   R    R  NN   N  II  NN   N  G    G  !!!           |
|           W    W  A    A  R    R  N N  N  II  N N  N  G       !!!           |
|           W WW W  AAAAAA  RRRRR   N  N N  II  N  N N  G  GGG   !            |
|           WW  WW  A    A  R   R   N   NN  II  N   NN  G    G                |
|           W    W  A    A  R    R  N    N  II  N    N   GGGG   !!!           |
|                                                                             |
|      You have enabled k-point parallelism (KPAR>1).                         |
|      This developmental code was originally  written by Paul Kent at ORNL,  |
|      and carefully double checked in Vienna.                                |
|      GW as well as linear response parallelism added by Martijn Marsman     |
|      and Georg Kresse.                                                      |
|      Carefully verify results versus KPAR=1.                                |
|      Report problems to Paul Kent and Vienna.                               |
|                                                                             |
 ----------------------------------------------------------------------------- 

 POTCAR:    PAW_PBE Li_sv 10Sep2004               
  local pseudopotential read in
  atomic valenz-charges read in
  non local Contribution for L=           0  read in
    real space projection operators read in
  non local Contribution for L=           0  read in
    real space projection operators read in
  non local Contribution for L=           1  read in
    real space projection operators read in
    PAW grid and wavefunctions read in
 
   number of l-projection  operators is LMAX  =           3
   number of lm-projection operators is LMMAX =           5
 
 POTCAR:    PAW_PBE O 08Apr2002                   
  local pseudopotential read in
  partial core-charges read in
  partial kinetic energy density read in
  kinetic energy density of atom read in
  atomic valenz-charges read in
  non local Contribution for L=           0  read in
    real space projection operators read in
  non local Contribution for L=           0  read in
    real space projection operators read in
  non local Contribution for L=           1  read in
    real space projection operators read in
  non local Contribution for L=           1  read in
    real space projection operators read in
    PAW grid and wavefunctions read in
 
   number of l-projection  operators is LMAX  =           4
   number of lm-projection operators is LMMAX =           8
 
 POTCAR:    PAW_PBE S 06Sep2000                   
  local pseudopotential read in
  partial core-charges read in
  partial kinetic energy density read in
  atomic valenz-charges read in
  non local Contribution for L=           0  read in
    real space projection operators read in
  non local Contribution for L=           0  read in
    real space projection operators read in
  non local Contribution for L=           1  read in
    real space projection operators read in
  non local Contribution for L=           1  read in
    real space projection operators read in
    PAW grid and wavefunctions read in
 
   number of l-projection  operators is LMAX  =           4
   number of lm-projection operators is LMMAX =           8
 
 POTCAR:    PAW_PBE Fe_pv 02Aug2007               
  local pseudopotential read in
  partial core-charges read in
  partial kinetic energy density read in
  atomic valenz-charges read in
  non local Contribution for L=           1  read in
    real space projection operators read in
  non local Contribution for L=           1  read in
    real space projection operators read in
  non local Contribution for L=           2  read in
    real space projection operators read in
  non local Contribution for L=           2  read in
    real space projection operators read in
  non local Contribution for L=           0  read in
    real space projection operators read in
  non local Contribution for L=           0  read in
    real space projection operators read in
    PAW grid and wavefunctions read in
 
   number of l-projection  operators is LMAX  =           6
   number of lm-projection operators is LMMAX =          18
 

 ----------------------------------------------------------------------------- 
|                                                                             |
|  ADVICE TO THIS USER RUNNING 'VASP/VAMP'   (HEAR YOUR MASTER'S VOICE ...):  |
|                                                                             |
|      You have a (more or less) 'large supercell' and for larger cells       |
|      it might be more efficient to use real space projection opertators     |
|      So try LREAL= Auto  in the INCAR   file.                               |
|      Mind:          For very  accurate calculation you might also keep the  |
|      reciprocal projection scheme          (i.e. LREAL=.FALSE.)             |
|                                                                             |
 ----------------------------------------------------------------------------- 

  PAW_PBE Li_sv 10Sep2004               :
 energy of atom  1       EATOM= -202.7858
 kinetic energy error for atom=    0.0072 (will be added to EATOM!!)
  PAW_PBE O 08Apr2002                   :
 energy of atom  2       EATOM= -432.3788
 kinetic energy error for atom=    0.0129 (will be added to EATOM!!)
  PAW_PBE S 06Sep2000                   :
 energy of atom  3       EATOM= -276.8230
 kinetic energy error for atom=    0.0008 (will be added to EATOM!!)
  PAW_PBE Fe_pv 02Aug2007               :
 energy of atom  4       EATOM=-2457.4239
 kinetic energy error for atom=    0.0041 (will be added to EATOM!!)
 
 
 POSCAR: # Compound: Li18O18S27Fe36. Old comment:
  positions in direct lattice
  No initial velocities read in
 exchange correlation table for  LEXCH =        8
   RHO(1)=    0.500       N(1)  =     2000
   RHO(2)=  100.500       N(2)  =     4000
 


--------------------------------------------------------------------------------------------------------


 ion  position               nearest neighbor table
   1  0.202  0.242  0.832-  31 1.98  28 1.99  56 2.61  55 2.61
   2  0.536  0.242  0.832-  32 1.98  29 1.99  57 2.61  56 2.61
   3  0.869  0.242  0.832-  33 1.98  30 1.99  55 2.61  57 2.61
   4  0.202  0.575  0.832-  34 1.98  31 1.99  59 2.61  58 2.61
   5  0.536  0.575  0.832-  35 1.98  32 1.99  60 2.61  59 2.61
   6  0.869  0.575  0.832-  36 1.98  33 1.99  58 2.61  60 2.61
   7  0.202  0.909  0.832-  28 1.98  34 1.99  62 2.61  61 2.61
   8  0.536  0.909  0.832-  29 1.98  35 1.99  63 2.61  62 2.61
   9  0.869  0.909  0.832-  30 1.98  36 1.99  61 2.61  63 2.61
  10  0.091  0.131  0.168-  21 1.98  19 1.99  61 2.61  55 2.61
  11  0.425  0.131  0.168-  19 1.98  20 1.99  62 2.61  56 2.61
  12  0.758  0.131  0.168-  20 1.98  21 1.99  63 2.61  57 2.61
  13  0.091  0.464  0.168-  24 1.98  22 1.99  55 2.61  58 2.61
  14  0.425  0.464  0.168-  22 1.98  23 1.99  56 2.61  59 2.61
  15  0.758  0.464  0.168-  23 1.98  24 1.99  57 2.61  60 2.61
  16  0.091  0.798  0.168-  27 1.98  25 1.99  58 2.61  61 2.61
  17  0.425  0.798  0.168-  25 1.98  26 1.99  59 2.61  62 2.61
  18  0.758  0.798  0.168-  26 1.98  27 1.99  60 2.61  63 2.61
  19  0.263  0.136  0.197-  11 1.98  10 1.99  97 2.01  64 2.01  91 2.01
  20  0.596  0.136  0.197-  12 1.98  11 1.99  98 2.01  65 2.01  92 2.01
  21  0.930  0.136  0.197-  10 1.98  12 1.99  99 2.01  66 2.01  93 2.01
  22  0.263  0.469  0.197-  14 1.98  13 1.99  91 2.01  67 2.01  94 2.01
  23  0.596  0.469  0.197-  15 1.98  14 1.99  92 2.01  68 2.01  95 2.01
  24  0.930  0.469  0.197-  13 1.98  15 1.99  93 2.01  69 2.01  96 2.01
  25  0.263  0.803  0.197-  17 1.98  16 1.99  94 2.01  70 2.01  97 2.01
  26  0.596  0.803  0.197-  18 1.98  17 1.99  95 2.01  71 2.01  98 2.01
  27  0.930  0.803  0.197-  16 1.98  18 1.99  96 2.01  72 2.01  99 2.01
  28  0.197  0.070  0.803-   7 1.98   1 1.99  83 2.01  73 2.01  82 2.01
  29  0.531  0.070  0.803-   8 1.98   2 1.99  84 2.01  74 2.01  83 2.01
  30  0.864  0.070  0.803-   9 1.98   3 1.99  82 2.01  75 2.01  84 2.01
  31  0.197  0.404  0.803-   1 1.98   4 1.99  86 2.01  76 2.01  85 2.01
  32  0.531  0.404  0.803-   2 1.98   5 1.99  87 2.01  77 2.01  86 2.01
  33  0.864  0.404  0.803-   3 1.98   6 1.99  85 2.01  78 2.01  87 2.01
  34  0.197  0.737  0.803-   4 1.98   7 1.99  89 2.01  79 2.01  88 2.01
  35  0.531  0.737  0.803-   5 1.98   8 1.99  90 2.01  80 2.01  89 2.01
  36  0.864  0.737  0.803-   6 1.98   9 1.99  88 2.01  81 2.01  90 2.01
  37  0.003  0.207  0.629-  66 2.41  73 2.70  75 2.76
  38  0.336  0.207  0.629-  64 2.41  74 2.70  73 2.76
  39  0.669  0.207  0.629-  65 2.41  75 2.70  74 2.76
  40  0.003  0.540  0.629-  69 2.41  76 2.70  78 2.76
  41  0.336  0.540  0.629-  67 2.41  77 2.70  76 2.76
  42  0.669  0.540  0.629-  68 2.41  78 2.70  77 2.76
  43  0.003  0.873  0.629-  72 2.41  79 2.70  81 2.76
  44  0.336  0.873  0.629-  70 2.41  80 2.70  79 2.76
  45  0.669  0.873  0.629-  71 2.41  81 2.70  80 2.76
  46  0.127  0.331  0.371-  76 2.41  64 2.70  67 2.76
  47  0.460  0.331  0.371-  77 2.41  65 2.70  68 2.76
  48  0.793  0.331  0.371-  78 2.41  66 2.70  69 2.76
  49  0.127  0.664  0.371-  79 2.41  67 2.70  70 2.76
  50  0.460  0.664  0.371-  80 2.41  68 2.70  71 2.76
  51  0.793  0.664  0.371-  81 2.41  69 2.70  72 2.76
  52  0.127  0.997  0.371-  73 2.41  70 2.70  64 2.77
  53  0.460  0.997  0.371-  74 2.41  71 2.70  65 2.76
  54  0.793  0.997  0.371-  75 2.41  72 2.70  66 2.76
  55  0.064  0.270  0.000-  85 2.52  93 2.52  82 2.52  91 2.52  13 2.61   3 2.61  10 2.61   1 2.61

  56  0.397  0.270  0.000-  86 2.52  91 2.52  83 2.52  92 2.52  14 2.61   1 2.61  11 2.61   2 2.61

  57  0.730  0.270  0.000-  87 2.52  92 2.52  84 2.52  93 2.52  15 2.61   2 2.61  12 2.61   3 2.61

  58  0.064  0.603  0.000-  88 2.52  96 2.52  85 2.52  94 2.52  16 2.61   6 2.61  13 2.61   4 2.61

  59  0.397  0.603  0.000-  89 2.52  94 2.52  86 2.52  95 2.52  17 2.61   4 2.61  14 2.61   5 2.61

  60  0.730  0.603  0.000-  90 2.52  95 2.52  87 2.52  96 2.52  18 2.61   5 2.61  15 2.61   6 2.61

  61  0.064  0.936  0.000-  82 2.52  99 2.52  88 2.52  97 2.52  10 2.61   9 2.61  16 2.61   7 2.61

  62  0.397  0.936  0.000-  83 2.52  97 2.52  89 2.52  98 2.52  11 2.61   7 2.61  17 2.61   8 2.61

  63  0.730  0.936  0.000-  84 2.52  98 2.52  90 2.52  99 2.52  12 2.61   8 2.61  18 2.61   9 2.61

  64  0.291  0.172  0.394-  19 2.01  38 2.41  46 2.70  52 2.77
  65  0.624  0.172  0.394-  20 2.01  39 2.41  47 2.70  53 2.76
  66  0.957  0.172  0.394-  21 2.01  37 2.41  48 2.70  54 2.76
  67  0.290  0.505  0.394-  22 2.01  41 2.41  49 2.70  46 2.76
  68  0.624  0.505  0.394-  23 2.01  42 2.41  50 2.70  47 2.76
  69  0.957  0.505  0.394-  24 2.01  40 2.41  51 2.70  48 2.76
  70  0.290  0.839  0.394-  25 2.01  44 2.41  52 2.70  49 2.76
  71  0.624  0.839  0.394-  26 2.01  45 2.41  53 2.70  50 2.76
  72  0.957  0.839  0.394-  27 2.01  43 2.41  54 2.70  51 2.76
  73  0.161  0.043  0.606-  28 2.01  52 2.41  37 2.70  38 2.76
  74  0.495  0.043  0.606-  29 2.01  53 2.41  38 2.70  39 2.76
  75  0.828  0.043  0.606-  30 2.01  54 2.41  39 2.70  37 2.76
  76  0.161  0.376  0.606-  31 2.01  46 2.41  40 2.70  41 2.76
  77  0.495  0.376  0.606-  32 2.01  47 2.41  41 2.70  42 2.76
  78  0.828  0.376  0.606-  33 2.01  48 2.41  42 2.70  40 2.76
  79  0.161  0.710  0.606-  34 2.01  49 2.41  43 2.70  44 2.76
  80  0.495  0.710  0.606-  35 2.01  50 2.41  44 2.70  45 2.76
  81  0.828  0.710  0.606-  36 2.01  51 2.41  45 2.70  43 2.76
  82  0.038  0.077  0.845-  30 2.01  28 2.01  61 2.52  55 2.52
  83  0.371  0.077  0.845-  28 2.01  29 2.01  62 2.52  56 2.52
  84  0.704  0.077  0.845-  29 2.01  30 2.01  63 2.52  57 2.52
  85  0.038  0.411  0.845-  33 2.01  31 2.01  55 2.52  58 2.52
  86  0.371  0.411  0.845-  31 2.01  32 2.01  56 2.52  59 2.52
  87  0.704  0.411  0.845-  32 2.01  33 2.01  57 2.52  60 2.52
  88  0.038  0.744  0.845-  36 2.01  34 2.01  58 2.52  61 2.52
  89  0.371  0.744  0.845-  34 2.01  35 2.01  59 2.52  62 2.52
  90  0.704  0.744  0.845-  35 2.01  36 2.01  60 2.52  63 2.52
  91  0.256  0.296  0.155-  22 2.01  19 2.01  56 2.52  55 2.52
  92  0.589  0.296  0.155-  23 2.01  20 2.01  57 2.52  56 2.52
  93  0.923  0.296  0.155-  24 2.01  21 2.01  55 2.52  57 2.52
  94  0.256  0.629  0.155-  25 2.01  22 2.01  59 2.52  58 2.52
  95  0.589  0.629  0.155-  26 2.01  23 2.01  60 2.52  59 2.52
  96  0.923  0.629  0.155-  27 2.01  24 2.01  58 2.52  60 2.52
  97  0.256  0.962  0.155-  19 2.01  25 2.01  62 2.52  61 2.52
  98  0.589  0.962  0.155-  20 2.01  26 2.01  63 2.52  62 2.52
  99  0.923  0.962  0.155-  21 2.01  27 2.01  61 2.52  63 2.52
 

IMPORTANT INFORMATION: All symmetrisations will be switched off!
NOSYMM: (Re-)initialisation of all symmetry stuff for point group C_1.

 
 
 KPOINTS: # No comment                            

Automatic generation of k-mesh.
Space group operators:
 irot       det(A)        alpha          n_x          n_y          n_z        tau_x        tau_y        tau_z
    1     1.000000     0.000001     1.000000     0.000000     0.000000     0.000000     0.000000     0.000000
 
 Subroutine IBZKPT returns following result:
 ===========================================
 
 Found     14 irreducible k-points:
 
 Following reciprocal coordinates:
            Coordinates               Weight
  0.000000  0.000000  0.000000      1.000000
  0.333333 -0.000000 -0.000000      2.000000
  0.000000  0.333333  0.000000      2.000000
  0.333333  0.333333  0.000000      2.000000
 -0.333333  0.333333  0.000000      2.000000
 -0.000000 -0.000000  0.333333      2.000000
  0.333333 -0.000000  0.333333      2.000000
 -0.333333 -0.000000  0.333333      2.000000
 -0.000000  0.333333  0.333333      2.000000
  0.333333  0.333333  0.333333      2.000000
 -0.333333  0.333333  0.333333      2.000000
 -0.000000 -0.333333  0.333333      2.000000
  0.333333 -0.333333  0.333333      2.000000
 -0.333333 -0.333333  0.333333      2.000000
 
 Following cartesian coordinates:
            Coordinates               Weight
  0.000000  0.000000  0.000000      1.000000
  0.028270  0.000040  0.005614      2.000000
 -0.000053  0.028270  0.005614      2.000000
  0.028217  0.028310  0.011229      2.000000
 -0.028323  0.028230 -0.000000      2.000000
 -0.000192 -0.000192  0.032649      2.000000
  0.028078 -0.000153  0.038263      2.000000
 -0.028462 -0.000232  0.027035      2.000000
 -0.000245  0.028078  0.038263      2.000000
  0.028025  0.028117  0.043878      2.000000
 -0.028515  0.028038  0.032649      2.000000
 -0.000138 -0.028462  0.027035      2.000000
  0.028132 -0.028423  0.032649      2.000000
 -0.028408 -0.028502  0.021421      2.000000
 


--------------------------------------------------------------------------------------------------------




 Dimension of arrays:
   k-points           NKPTS =     14   k-points in BZ     NKDIM =     14   number of bands    NBANDS=    606
   number of dos      NEDOS =    301   number of ions     NIONS =     99
   non local maximal  LDIM  =      6   non local SUM 2l+1 LMDIM =     18
   total plane-waves  NPLWV = 864360
   max r-space proj   IRMAX =      1   max aug-charges    IRDMAX= 154021
   dimension x,y,z NGX =    98 NGY =   98 NGZ =   90
   dimension x,y,z NGXF=   196 NGYF=  196 NGZF=  180
   support grid    NGXF=   392 NGYF=  392 NGZF=  360
   ions per type =              18  18  27  36
   NGX,Y,Z   is equivalent  to a cutoff of  13.83, 13.83, 14.14 a.u.
   NGXF,Y,Z  is equivalent  to a cutoff of  27.67, 27.67, 28.28 a.u.

 SYSTEM =  unknown system                          
 POSCAR =  # Compound: Li18O18S27Fe36. Old comment:

 Startparameter for this run:
   NWRITE =      1    write-flag & timer
   PREC   = accura    normal or accurate (medium, high low for compatibility)
   ISTART =      0    job   : 0-new  1-cont  2-samecut
   ICHARG =      1    charge: 1-file 2-atom 10-const
   ISPIN  =      2    spin polarized calculation?
   LNONCOLLINEAR =      F non collinear calculations
   LSORBIT =      F    spin-orbit coupling
   INIWAV =      1    electr: 0-lowe 1-rand  2-diag
   LASPH  =      T    aspherical Exc in radial PAW
   METAGGA=      F    non-selfconsistent MetaGGA calc.

 Electronic Relaxation 1
   ENCUT  =  650.0 eV  47.77 Ry    6.91 a.u.  24.48 24.48 21.99*2*pi/ulx,y,z
   ENINI  =  650.0     initial cutoff
   ENAUG  =  628.9 eV  augmentation charge cutoff
   NELM   =    200;   NELMIN=  8; NELMDL=  0     # of ELM steps 
   EDIFF  = 0.1E-05   stopping-criterion for ELM
   LREAL  =      F    real-space projection
   NLSPLINE    = F    spline interpolate recip. space projectors
   LCOMPAT=      F    compatible to vasp.4.4
   GGA_COMPAT  = T    GGA compatible to vasp.4.4-vasp.4.6
   LMAXPAW     = -100 max onsite density
   LMAXMIX     =    4 max onsite mixed and CHGCAR
   VOSKOWN=      0    Vosko Wilk Nusair interpolation
   ROPT   =    0.00000   0.00000   0.00000   0.00000
 Ionic relaxation
   EDIFFG = 0.1E-04   stopping-criterion for IOM
   NSW    =      0    number of steps for IOM
   NBLOCK =      1;   KBLOCK =      1    inner block; outer block 
   IBRION =     -1    ionic relax: 0-MD 1-quasi-New 2-CG
   NFREE  =      0    steps in history (QN), initial steepest desc. (CG)
   ISIF   =      2    stress and relaxation
   IWAVPR =     10    prediction:  0-non 1-charg 2-wave 3-comb
   ISYM   =      0    0-nonsym 1-usesym 2-fastsym
   LCORR  =      T    Harris-Foulkes like correction to forces

   POTIM  = 0.5000    time-step for ionic-motion
   TEIN   =    0.0    initial temperature
   TEBEG  =    0.0;   TEEND  =   0.0 temperature during run
   SMASS  =  -3.00    Nose mass-parameter (am)
   estimated Nose-frequenzy (Omega)   =  0.10E-29 period in steps =****** mass=  -0.317E-26a.u.
   SCALEE = 1.0000    scale energy and forces
   NPACO  =    256;   APACO  = 16.0  distance and # of slots for P.C.
   PSTRESS=    0.0 pullay stress

  Mass of Ions in am
   POMASS =   7.01 16.00 32.07 55.85
  Ionic Valenz
   ZVAL   =   3.00  6.00  6.00 14.00
  Atomic Wigner-Seitz radii
   RWIGS  =  -1.00 -1.00 -1.00 -1.00
  virtual crystal weights 
   VCA    =   1.00  1.00  1.00  1.00
   NELECT =     828.0000    total number of electrons
   NUPDOWN=      -1.0000    fix difference up-down

 DOS related values:
   EMIN   =  10.00;   EMAX   =-10.00  energy-range for DOS
   EFERMI =   0.00
   ISMEAR =     0;   SIGMA  =   0.05  broadening in eV -4-tet -1-fermi 0-gaus

 Electronic relaxation 2 (details)
   IALGO  =     38    algorithm
   LDIAG  =      T    sub-space diagonalisation (order eigenvalues)
   LSUBROT=      F    optimize rotation matrix (better conditioning)
   TURBO    =      0    0=normal 1=particle mesh
   IRESTART =      0    0=no restart 2=restart with 2 vectors
   NREBOOT  =      0    no. of reboots
   NMIN     =      0    reboot dimension
   EREF     =   0.00    reference energy to select bands
   IMIX   =      4    mixing-type and parameters
     AMIX     =   0.40;   BMIX     =  1.00
     AMIX_MAG =   1.60;   BMIX_MAG =  1.00
     AMIN     =   0.10
     WC   =   100.;   INIMIX=   1;  MIXPRE=   1;  MAXMIX= -45

 Intra band minimization:
   WEIMIN = 0.0000     energy-eigenvalue tresh-hold
   EBREAK =  0.41E-09  absolut break condition
   DEPER  =   0.30     relativ break condition  

   TIME   =   0.40     timestep for ELM

  volume/ion in A,a.u.               =      14.30        96.53
  Fermi-wavevector in a.u.,A,eV,Ry     =   1.368946  2.586933 25.497507  1.874014
  Thomas-Fermi vector in A             =   2.494865
 
 Write flags
   LWAVE        =      F    write WAVECAR
   LDOWNSAMPLE  =      F    k-point downsampling of WAVECAR
   LCHARG       =      T    write CHGCAR
   LVTOT        =      F    write LOCPOT, total local potential
   LVHAR        =      F    write LOCPOT, Hartree potential only
   LELF         =      F    write electronic localiz. function (ELF)
   LORBIT       =      0    0 simple, 1 ext, 2 COOP (PROOUT), +10 PAW based schemes


 Dipole corrections
   LMONO  =      F    monopole corrections only (constant potential shift)
   LDIPOL =      F    correct potential (dipole corrections)
   IDIPOL =      0    1-x, 2-y, 3-z, 4-all directions 
   EPSILON=  1.0000000 bulk dielectric constant

 LDA+U is selected, type is set to LDAUTYPE =  2
   angular momentum for each species LDAUL =    -1   -1   -1    2
   U (eV)           for each species LDAUU =   0.0  0.0  0.0  4.0
   J (eV)           for each species LDAUJ =   0.0  0.0  0.0  0.0
 Exchange correlation treatment:
   GGA     =    PE    GGA type
   LEXCH   =     8    internal setting for exchange type
   VOSKOWN=      0    Vosko Wilk Nusair interpolation
   LHFCALC =     F    Hartree Fock is set to
   LHFONE  =     F    Hartree Fock one center treatment
   AEXX    =    0.0000 exact exchange contribution

 Linear response parameters
   LEPSILON=     F    determine dielectric tensor
   LRPA    =     F    only Hartree local field effects (RPA)
   LNABLA  =     F    use nabla operator in PAW spheres
   LVEL    =     F    velocity operator in full k-point grid
   LINTERFAST=   F  fast interpolation
   KINTER  =     0    interpolate to denser k-point grid
   CSHIFT  =0.1000    complex shift for real part using Kramers Kronig
   OMEGAMAX=  -1.0    maximum frequency
   DEG_THRESHOLD= 0.2000000E-02 threshold for treating states as degnerate
   RTIME   =   -0.100 relaxation time in fs
  (WPLASMAI=    0.000 imaginary part of plasma frequency in eV, 0.658/RTIME)
   DFIELD  = 0.0000000 0.0000000 0.0000000 field for delta impulse in time
 
 Orbital magnetization related:
   ORBITALMAG=     F  switch on orbital magnetization
   LCHIMAG   =     F  perturbation theory with respect to B field
   DQ        =  0.001000  dq finite difference perturbation B field
   LLRAUG    =     F  two centre corrections for induced B field



--------------------------------------------------------------------------------------------------------


 Static calculation
 charge density and potential will be updated during run
 spin polarized calculation
 Variant of blocked Davidson
 Davidson routine will perform the subspace rotation
 perform sub-space diagonalisation
    after iterative eigenvector-optimisation
 modified Broyden-mixing scheme, WC =      100.0
 initial mixing is a Kerker type mixing with AMIX =  0.4000 and BMIX =      1.0000
 Hartree-type preconditioning will be used
 using additional bands          192
 reciprocal scheme for non local part
 use partial core corrections
 calculate Harris-corrections to forces 
   (improved forces if not selfconsistent)
 use gradient corrections 
 use of overlap-Matrix (Vanderbilt PP)
 Gauss-broadening in eV      SIGMA  =   0.05


--------------------------------------------------------------------------------------------------------


  energy-cutoff  :      650.00
  volume of cell :     1416.11
      direct lattice vectors                 reciprocal lattice vectors
    11.777269740  0.008488710  0.069233160     0.084810225  0.000119058  0.016842962
    -0.030282480 11.777233860  0.069233160    -0.000160141  0.084810158  0.016842962
    -2.020002310 -2.026663200 10.185746220    -0.000575372 -0.000577269  0.097947445

  length of vectors
    11.777476292 11.777476285 10.580037765     0.086466605  0.086466605  0.097950836


 
 k-points in units of 2pi/SCALE and weight: # No comment                            
   0.00000000  0.00000000  0.00000000       0.037
   0.02827008  0.00003969  0.00561432       0.074
  -0.00005338  0.02827005  0.00561432       0.074
   0.02821669  0.02830974  0.01122864       0.074
  -0.02832346  0.02823037 -0.00000000       0.074
  -0.00019179 -0.00019242  0.03264915       0.074
   0.02807828 -0.00015274  0.03826347       0.074
  -0.02846187 -0.00023211  0.02703483       0.074
  -0.00024517  0.02807763  0.03826347       0.074
   0.02802490  0.02811732  0.04387779       0.074
  -0.02851525  0.02803794  0.03264915       0.074
  -0.00013841 -0.02846248  0.02703483       0.074
   0.02813166 -0.02842279  0.03264915       0.074
  -0.02840849 -0.02850216  0.02142051       0.074
 
 k-points in reciprocal lattice and weights: # No comment                            
   0.00000000  0.00000000  0.00000000       0.037
   0.33333333 -0.00000000 -0.00000000       0.074
   0.00000000  0.33333333  0.00000000       0.074
   0.33333333  0.33333333  0.00000000       0.074
  -0.33333333  0.33333333  0.00000000       0.074
  -0.00000000 -0.00000000  0.33333333       0.074
   0.33333333 -0.00000000  0.33333333       0.074
  -0.33333333 -0.00000000  0.33333333       0.074
  -0.00000000  0.33333333  0.33333333       0.074
   0.33333333  0.33333333  0.33333333       0.074
  -0.33333333  0.33333333  0.33333333       0.074
  -0.00000000 -0.33333333  0.33333333       0.074
   0.33333333 -0.33333333  0.33333333       0.074
  -0.33333333 -0.33333333  0.33333333       0.074
 
 position of ions in fractional coordinates (direct lattice) 
   0.20224939  0.24206952  0.83183419
   0.53558272  0.24206952  0.83183419
   0.86891606  0.24206952  0.83183419
   0.20224939  0.57540285  0.83183419
   0.53558272  0.57540285  0.83183419
   0.86891606  0.57540285  0.83183419
   0.20224939  0.90873619  0.83183419
   0.53558272  0.90873619  0.83183419
   0.86891606  0.90873619  0.83183419
   0.09126381  0.13108394  0.16816581
   0.42459715  0.13108394  0.16816581
   0.75793048  0.13108394  0.16816581
   0.09126381  0.46441728  0.16816581
   0.42459715  0.46441728  0.16816581
   0.75793048  0.46441728  0.16816581
   0.09126381  0.79775061  0.16816581
   0.42459715  0.79775061  0.16816581
   0.75793048  0.79775061  0.16816581
   0.26311007  0.13598816  0.19686089
   0.59644341  0.13598816  0.19686089
   0.92977674  0.13598816  0.19686089
   0.26311007  0.46932149  0.19686089
   0.59644341  0.46932149  0.19686089
   0.92977674  0.46932149  0.19686089
   0.26311007  0.80265483  0.19686089
   0.59644341  0.80265483  0.19686089
   0.92977674  0.80265483  0.19686089
   0.19734517  0.07022326  0.80313911
   0.53067851  0.07022326  0.80313911
   0.86401184  0.07022326  0.80313911
   0.19734517  0.40355659  0.80313911
   0.53067851  0.40355659  0.80313911
   0.86401184  0.40355659  0.80313911
   0.19734517  0.73688993  0.80313911
   0.53067851  0.73688993  0.80313911
   0.86401184  0.73688993  0.80313911
   0.00253935  0.20657296  0.62920335
   0.33587268  0.20657296  0.62920335
   0.66920601  0.20657296  0.62920335
   0.00253935  0.53990630  0.62920335
   0.33587268  0.53990630  0.62920335
   0.66920601  0.53990630  0.62920335
   0.00253935  0.87323963  0.62920335
   0.33587268  0.87323963  0.62920335
   0.66920601  0.87323963  0.62920335
   0.12676037  0.33079399  0.37079665
   0.46009370  0.33079399  0.37079665
   0.79342704  0.33079399  0.37079665
   0.12676037  0.66412732  0.37079665
   0.46009370  0.66412732  0.37079665
   0.79342704  0.66412732  0.37079665
   0.12676037  0.99746065  0.37079665
   0.46009370  0.99746065  0.37079665
   0.79342704  0.99746065  0.37079665
   0.06350899  0.26982435  0.00000000
   0.39684232  0.26982435  0.00000000
   0.73017565  0.26982435  0.00000000
   0.06350899  0.60315768  0.00000000
   0.39684232  0.60315768  0.00000000
   0.73017565  0.60315768  0.00000000
   0.06350899  0.93649101  0.00000000
   0.39684232  0.93649101  0.00000000
   0.73017565  0.93649101  0.00000000
   0.29112182  0.17214940  0.39352170
   0.62360607  0.17214940  0.39352170
   0.95693941  0.17214940  0.39352170
   0.29027274  0.50548273  0.39352170
   0.62360607  0.50548273  0.39352170
   0.95693941  0.50548273  0.39352170
   0.29027274  0.83881607  0.39352170
   0.62360607  0.83881607  0.39352170
   0.95693941  0.83881607  0.39352170
   0.16118393  0.04306059  0.60647830
   0.49451727  0.04306059  0.60647830
   0.82785060  0.04306059  0.60647830
   0.16118393  0.37639393  0.60647830
   0.49451727  0.37639393  0.60647830
   0.82785060  0.37639393  0.60647830
   0.16118393  0.70972726  0.60647830
   0.49451727  0.70972726  0.60647830
   0.82785060  0.70972726  0.60647830
   0.03761391  0.07731307  0.84542777
   0.37094724  0.07731307  0.84542777
   0.70428057  0.07731307  0.84542777
   0.03761391  0.41064640  0.84542777
   0.37094724  0.41064640  0.84542777
   0.70428057  0.41064640  0.84542777
   0.03761391  0.74397973  0.84542777
   0.37094724  0.74397973  0.84542777
   0.70428057  0.74397973  0.84542777
   0.25602027  0.29571943  0.15457223
   0.58935360  0.29571943  0.15457223
   0.92268693  0.29571943  0.15457223
   0.25602027  0.62905276  0.15457223
   0.58935360  0.62905276  0.15457223
   0.92268693  0.62905276  0.15457223
   0.25602027  0.96238609  0.15457223
   0.58935360  0.96238609  0.15457223
   0.92268693  0.96238609  0.15457223
 
 position of ions in cartesian coordinates  (Angst):
   0.69430817  1.16677844  8.50361356
   4.62006475  1.16960801  8.52669128
   8.54582133  1.17243758  8.54976900
   0.68421401  5.09252306  8.52669128
   4.60997059  5.09535263  8.54976900
   8.53572717  5.09818220  8.57284672
   0.67411985  9.01826768  8.54976900
   4.59987643  9.02109725  8.57284672
   8.52563301  9.02392682  8.59592444
   0.73117368  1.20376551  1.72828810
   4.65693026  1.20659508  1.75136582
   8.58268684  1.20942465  1.77444354
   0.72107952  5.12951013  1.75136582
   4.64683610  5.13233970  1.77444354
   8.57259268  5.13516927  1.79752126
   0.71098536  9.05525475  1.77444354
   4.63674194  9.05808432  1.79752126
   8.56249852  9.06091389  1.82059898
   2.69694079  1.20482711  2.03280590
   6.62269737  1.20765668  2.05588362
  10.54845395  1.21048625  2.07896134
   2.68684663  5.13057173  2.05588362
   6.61260321  5.13340130  2.07896134
  10.53835979  5.13623087  2.10203906
   2.67675247  9.05631635  2.07896134
   6.60250905  9.05914592  2.10203906
  10.52826563  9.06197549  2.12511678
   0.69971795 -0.79898152  8.19909576
   4.62547453 -0.79615195  8.22217348
   8.55123111 -0.79332238  8.24525120
   0.68962379  3.12676310  8.22217348
   4.61538037  3.12959267  8.24525120
   8.54113695  3.13242224  8.26832892
   0.67952963  7.05250772  8.24525120
   4.60528621  7.05533729  8.26832892
   8.53104279  7.05816686  8.29140664
  -1.24734119  1.15769638  6.42338315
   2.67841539  1.16052595  6.44646087
   6.60417197  1.16335552  6.46953859
  -1.25743535  5.08344100  6.44646087
   2.66832123  5.08627057  6.46953859
   6.59407781  5.08910014  6.49261631
  -1.26752951  9.00918562  6.46953859
   2.65822707  9.01201519  6.49261631
   6.58398365  9.01484476  6.51569403
   0.73386372  3.14543425  3.80851851
   4.65962030  3.14826382  3.83159623
   8.58537688  3.15109339  3.85467395
   0.72376956  7.07117887  3.83159623
   4.64952614  7.07400844  3.85467395
   8.57528272  7.07683801  3.87775167
   0.71367540 10.99692349  3.85467395
   4.63943198 10.99975306  3.87775167
   8.56518856 11.00258263  3.90082939
   0.73979152  3.17832354  0.02307772
   4.66554810  3.18115311  0.04615544
   8.59130468  3.18398268  0.06923316
   0.72969736  7.10406816  0.04615544
   4.65545394  7.10689773  0.06923316
   8.58121052  7.10972730  0.09231088
   0.71960320 11.02981278  0.06923316
   4.64535978 11.03264235  0.09231088
   8.57111636 11.03547192  0.11538860
   2.62849233  1.23237904  4.04038590
   6.54424908  1.23520141  4.06340483
  10.47000566  1.23803098  4.08648255
   2.60839834  5.15811646  4.06340483
   6.53415492  5.16094603  4.08648255
  10.45991150  5.16377560  4.10956027
   2.59830418  9.08386108  4.08648255
   6.52406076  9.08669065  4.10956027
  10.44981734  9.08952022  4.13263799
   0.67191511 -0.72062433  6.19157455
   4.59767169 -0.71779476  6.21465227
   8.52342827 -0.71496519  6.23772999
   0.66182095  3.20512029  6.21465227
   4.58757753  3.20794986  6.23772999
   8.51333411  3.21077943  6.26080771
   0.65172679  7.13086491  6.23772999
   4.57748337  7.13369448  6.26080771
   8.50323995  7.13652405  6.28388543
  -1.26711815 -0.80254399  8.61926947
   2.65863843 -0.79971442  8.64234719
   6.58439500 -0.79688485  8.66542491
  -1.27721231  3.12320063  8.64234719
   2.64854427  3.12603020  8.66542491
   6.57430084  3.12885977  8.68850263
  -1.28730647  7.04894525  8.66542491
   2.63845011  7.05177482  8.68850263
   6.56420668  7.05460439  8.71158035
   2.69402836  3.17166428  1.61263219
   6.61978494  3.17449385  1.63570991
  10.54554152  3.17732342  1.65878763
   2.68393420  7.09740890  1.63570991
   6.60969078  7.10023847  1.65878763
  10.53544736  7.10306804  1.68186535
   2.67384004 11.02315352  1.65878763
   6.59959662 11.02598309  1.68186535
  10.52535320 11.02881266  1.70494307
 


--------------------------------------------------------------------------------------------------------


 k-point  1 :   0.0000 0.0000 0.0000  plane waves:   53279
 k-point  2 :   0.3333-0.0000-0.0000  plane waves:   53283
 k-point  3 :   0.0000 0.3333 0.0000  plane waves:   53283
 k-point  4 :   0.3333 0.3333 0.0000  plane waves:   53248
 k-point  5 :  -0.3333 0.3333 0.0000  plane waves:   53268
 k-point  6 :  -0.0000-0.0000 0.3333  plane waves:   53317
 k-point  7 :   0.3333-0.0000 0.3333  plane waves:   53290
 k-point  8 :  -0.3333-0.0000 0.3333  plane waves:   53280
 k-point  9 :  -0.0000 0.3333 0.3333  plane waves:   53290
 k-point 10 :   0.3333 0.3333 0.3333  plane waves:   53292
 k-point 11 :  -0.3333 0.3333 0.3333  plane waves:   53261
 k-point 12 :  -0.0000-0.3333 0.3333  plane waves:   53280
 k-point 13 :   0.3333-0.3333 0.3333  plane waves:   53261
 k-point 14 :  -0.3333-0.3333 0.3333  plane waves:   53313

 maximum and minimum number of plane-waves per node :      8936     8841

 maximum number of plane-waves:     53317
 maximum index in each direction: 
   IXMAX=   24   IYMAX=   24   IZMAX=   21
   IXMIN=  -24   IYMIN=  -24   IZMIN=  -22


 parallel 3D FFT for wavefunctions:
    minimum data exchange during FFTs selected (reduces bandwidth)
 parallel 3D FFT for charge:
    minimum data exchange during FFTs selected (reduces bandwidth)


 total amount of memory used by VASP MPI-rank0  1508757. kBytes
=======================================================================

   base      :      30000. kBytes
   nonl-proj :      85790. kBytes
   fftplans  :      89726. kBytes
   grid      :      70158. kBytes
   one-center:        528. kBytes
   wavefun   :    1232555. kBytes
 
     INWAV:  cpu time    0.0000: real time    0.0000
 Broyden mixing: mesh for mixing (old mesh)
   NGX = 49   NGY = 49   NGZ = 43
  (NGX  =196   NGY  =196   NGZ  =180)
  gives a total of 103243 points

 initial charge density was supplied:
 number of electron     828.0000017 magnetization     144.0000076
 keeping initial charge density in first step


--------------------------------------------------------------------------------------------------------


 Maximum index for augmentation-charges        13331 (set IRDMAX)


--------------------------------------------------------------------------------------------------------


 First call to EWALD:  gamma=   0.158
 Maximum number of real-space cells 3x 3x 3
 Maximum number of reciprocal cells 3x 3x 3

    FEWALD:  cpu time    0.0058: real time    0.0058


--------------------------------------- Iteration      1(   1)  ---------------------------------------


    POTLOK:  cpu time    1.1305: real time    1.1593
    SETDIJ:  cpu time    2.5846: real time    2.5932
     EDDAV:  cpu time  438.5867: real time  446.8389
       DOS:  cpu time    0.0086: real time    0.0087
    --------------------------------------------
      LOOP:  cpu time  442.3104: real time  450.6000

 eigenvalue-minimisations  : 34880
 total energy-change (2. order) : 0.1170593E+05  (-0.4628324E+05)
 number of electron     828.0000017 magnetization     144.0000076
 augmentation part      828.0000017 magnetization     144.0000076

 Free energy of the ion-electron system (eV)
  ---------------------------------------------------
  alpha Z        PSCENC =      2606.24521607
  Ewald energy   TEWEN  =    -65007.72971554
  -Hartree energ DENC   =    -34081.88798735
  -exchange      EXHF   =         0.00000000
  -V(xc)+E(xc)   XCENC  =      3632.83692349
  PAW double counting   =    104149.30743192  -107360.85880398
  entropy T*S    EENTRO =        -0.01816003
  eigenvalues    EBANDS =       394.12367564
  atomic energy  EATOM  =    107373.91467324
  Solvation  Ediel_sol  =         0.00000000
  ---------------------------------------------------
  free energy    TOTEN  =     11705.93325347 eV

  energy without entropy =    11705.95141350  energy(sigma->0) =    11705.94233348


--------------------------------------------------------------------------------------------------------




--------------------------------------- Iteration      1(   2)  ---------------------------------------


     EDDAV:  cpu time  431.1501: real time  439.1728
       DOS:  cpu time    0.0097: real time    0.0098
    --------------------------------------------
      LOOP:  cpu time  431.1598: real time  439.1825

 eigenvalue-minimisations  : 33936
 total energy-change (2. order) :-0.1037723E+05  (-0.9729273E+04)
 number of electron     828.0000017 magnetization     144.0000076
 augmentation part      828.0000017 magnetization     144.0000076

 Free energy of the ion-electron system (eV)
  ---------------------------------------------------
  alpha Z        PSCENC =      2606.24521607
  Ewald energy   TEWEN  =    -65007.72971554
  -Hartree energ DENC   =    -34081.88798735
  -exchange      EXHF   =         0.00000000
  -V(xc)+E(xc)   XCENC  =      3632.83692349
  PAW double counting   =    104149.30743192  -107360.85880398
  entropy T*S    EENTRO =        -0.06711538
  eigenvalues    EBANDS =     -9983.05426834
  atomic energy  EATOM  =    107373.91467324
  Solvation  Ediel_sol  =         0.00000000
  ---------------------------------------------------
  free energy    TOTEN  =      1328.70635413 eV

  energy without entropy =     1328.77346951  energy(sigma->0) =     1328.73991182


--------------------------------------------------------------------------------------------------------




--------------------------------------- Iteration      1(   3)  ---------------------------------------


     EDDAV:  cpu time  454.7169: real time  463.3931
       DOS:  cpu time    0.0031: real time    0.0031
    --------------------------------------------
      LOOP:  cpu time  454.7200: real time  463.3962

 eigenvalue-minimisations  : 36440
 total energy-change (2. order) :-0.1674317E+04  (-0.1441944E+04)
 number of electron     828.0000017 magnetization     144.0000076
 augmentation part      828.0000017 magnetization     144.0000076

 Free energy of the ion-electron system (eV)
  ---------------------------------------------------
  alpha Z        PSCENC =      2606.24521607
  Ewald energy   TEWEN  =    -65007.72971554
  -Hartree energ DENC   =    -34081.88798735
  -exchange      EXHF   =         0.00000000
  -V(xc)+E(xc)   XCENC  =      3632.83692349
  PAW double counting   =    104149.30743192  -107360.85880398
  entropy T*S    EENTRO =        -0.00000000
  eigenvalues    EBANDS =    -11657.43790033
  atomic energy  EATOM  =    107373.91467324
  Solvation  Ediel_sol  =         0.00000000
  ---------------------------------------------------
  free energy    TOTEN  =      -345.61016247 eV

  energy without entropy =     -345.61016247  energy(sigma->0) =     -345.61016247


--------------------------------------------------------------------------------------------------------




--------------------------------------- Iteration      1(   4)  ---------------------------------------


     EDDAV:  cpu time  487.4668: real time  496.5133
       DOS:  cpu time    0.0029: real time    0.0029
    --------------------------------------------
      LOOP:  cpu time  487.4697: real time  496.5161

 eigenvalue-minimisations  : 39776
 total energy-change (2. order) :-0.1902673E+03  (-0.1871423E+03)
 number of electron     828.0000017 magnetization     144.0000076
 augmentation part      828.0000017 magnetization     144.0000076

 Free energy of the ion-electron system (eV)
  ---------------------------------------------------
  alpha Z        PSCENC =      2606.24521607
  Ewald energy   TEWEN  =    -65007.72971554
  -Hartree energ DENC   =    -34081.88798735
  -exchange      EXHF   =         0.00000000
  -V(xc)+E(xc)   XCENC  =      3632.83692349
  PAW double counting   =    104149.30743192  -107360.85880398
  entropy T*S    EENTRO =        -0.00000000
  eigenvalues    EBANDS =    -11847.70516065
  atomic energy  EATOM  =    107373.91467324
  Solvation  Ediel_sol  =         0.00000000
  ---------------------------------------------------
  free energy    TOTEN  =      -535.87742280 eV

  energy without entropy =     -535.87742280  energy(sigma->0) =     -535.87742280


--------------------------------------------------------------------------------------------------------




--------------------------------------- Iteration      1(   5)  ---------------------------------------


     EDDAV:  cpu time  637.9982: real time  649.2224
       DOS:  cpu time    0.0031: real time    0.0033
    CHARGE:  cpu time   11.9215: real time   12.2878
    MIXING:  cpu time    0.0268: real time    0.0276
    --------------------------------------------
      LOOP:  cpu time  649.9496: real time  661.5412

 eigenvalue-minimisations  : 55320
 total energy-change (2. order) :-0.1391148E+02  (-0.1377099E+02)
 number of electron     828.0000018 magnetization     144.0000050
 augmentation part      313.2909704 magnetization      94.6588165

 Broyden mixing:
  rms(total) = 0.21896E+00    rms(broyden)= 0.21883E+00
  rms(prec ) = 0.22229E+00
  weight for this iteration     100.00

 Free energy of the ion-electron system (eV)
  ---------------------------------------------------
  alpha Z        PSCENC =      2606.24521607
  Ewald energy   TEWEN  =    -65007.72971554
  -Hartree energ DENC   =    -34081.88798735
  -exchange      EXHF   =         0.00000000
  -V(xc)+E(xc)   XCENC  =      3632.83692349
  PAW double counting   =    104149.30743192  -107360.85880398
  entropy T*S    EENTRO =        -0.00000000
  eigenvalues    EBANDS =    -11861.61663660
  atomic energy  EATOM  =    107373.91467324
  Solvation  Ediel_sol  =         0.00000000
  ---------------------------------------------------
  free energy    TOTEN  =      -549.78889875 eV

  energy without entropy =     -549.78889875  energy(sigma->0) =     -549.78889875


--------------------------------------------------------------------------------------------------------




--------------------------------------- Iteration      1(   6)  ---------------------------------------


    POTLOK:  cpu time    1.1148: real time    1.1392
    SETDIJ:  cpu time    2.5663: real time    2.5779
     EDDAV:  cpu time  571.9509: real time  582.6752
       DOS:  cpu time    0.0029: real time    0.0030
    CHARGE:  cpu time   12.0574: real time   12.3188
    MIXING:  cpu time    0.0274: real time    0.0284
    --------------------------------------------
      LOOP:  cpu time  587.7196: real time  598.7426

 eigenvalue-minimisations  : 48384
 total energy-change (2. order) :-0.5331628E+00  (-0.5452897E+00)
 number of electron     828.0000017 magnetization     144.0000039
 augmentation part      312.7276850 magnetization      94.7033601

 Broyden mixing:
  rms(total) = 0.11023E+00    rms(broyden)= 0.11012E+00
  rms(prec ) = 0.11096E+00
  weight for this iteration     100.00

 eigenvalues of (default mixing * dielectric matrix)
  average eigenvalue GAMMA=   0.6396
  0.6396

 Free energy of the ion-electron system (eV)
  ---------------------------------------------------
  alpha Z        PSCENC =      2606.24521607
  Ewald energy   TEWEN  =    -65007.72971554
  -Hartree energ DENC   =    -34079.96464299
  -exchange      EXHF   =         0.00000000
  -V(xc)+E(xc)   XCENC  =      3632.51411656
  PAW double counting   =    103983.02198175  -107192.77380885
  entropy T*S    EENTRO =        -0.00000000
  eigenvalues    EBANDS =    -11865.54988181
  atomic energy  EATOM  =    107373.91467324
  Solvation  Ediel_sol  =         0.00000000
  ---------------------------------------------------
  free energy    TOTEN  =      -550.32206157 eV

  energy without entropy =     -550.32206157  energy(sigma->0) =     -550.32206157


--------------------------------------------------------------------------------------------------------




--------------------------------------- Iteration      1(   7)  ---------------------------------------


    POTLOK:  cpu time    1.1047: real time    1.1499
    SETDIJ:  cpu time    2.5221: real time    2.6071
     EDDAV:  cpu time  596.9056: real time  607.2373
       DOS:  cpu time    0.0033: real time    0.0035
    CHARGE:  cpu time   12.0683: real time   12.2808
    MIXING:  cpu time    0.0288: real time    0.0291
    --------------------------------------------
      LOOP:  cpu time  612.6327: real time  623.3077

 eigenvalue-minimisations  : 51144
 total energy-change (2. order) :-0.1921702E-01  (-0.1954119E-01)
 number of electron     828.0000017 magnetization     144.0000034
 augmentation part      312.6395919 magnetization      94.6959053

 Broyden mixing:
  rms(total) = 0.61964E-01    rms(broyden)= 0.61934E-01
  rms(prec ) = 0.63377E-01
  weight for this iteration     100.00

 eigenvalues of (default mixing * dielectric matrix)
  average eigenvalue GAMMA=   0.5781
  0.5781  0.5781

 Free energy of the ion-electron system (eV)
  ---------------------------------------------------
  alpha Z        PSCENC =      2606.24521607
  Ewald energy   TEWEN  =    -65007.72971554
  -Hartree energ DENC   =    -34080.88299217
  -exchange      EXHF   =         0.00000000
  -V(xc)+E(xc)   XCENC  =      3632.59933680
  PAW double counting   =    104042.50768250  -107252.87003674
  entropy T*S    EENTRO =        -0.00000000
  eigenvalues    EBANDS =    -11864.12544276
  atomic energy  EATOM  =    107373.91467324
  Solvation  Ediel_sol  =         0.00000000
  ---------------------------------------------------
  free energy    TOTEN  =      -550.34127859 eV

  energy without entropy =     -550.34127859  energy(sigma->0) =     -550.34127859


--------------------------------------------------------------------------------------------------------




--------------------------------------- Iteration      1(   8)  ---------------------------------------


    POTLOK:  cpu time    1.1205: real time    1.1399
    SETDIJ:  cpu time    2.5435: real time    2.5649
     EDDAV:  cpu time  575.5200: real time  586.2449
       DOS:  cpu time    0.0034: real time    0.0036
    CHARGE:  cpu time   12.0685: real time   12.3065
    MIXING:  cpu time    0.0306: real time    0.6959
    --------------------------------------------
      LOOP:  cpu time  591.2865: real time  602.9558

 eigenvalue-minimisations  : 48944
 total energy-change (2. order) : 0.4490599E-03  (-0.4156682E-03)
 number of electron     828.0000017 magnetization     144.0000030
 augmentation part      312.6312784 magnetization      94.6988899

 Broyden mixing:
  rms(total) = 0.54160E-01    rms(broyden)= 0.54157E-01
  rms(prec ) = 0.55413E-01
  weight for this iteration     100.00

 eigenvalues of (default mixing * dielectric matrix)
  average eigenvalue GAMMA=   0.5538
  0.6004  0.6004  0.4606

 Free energy of the ion-electron system (eV)
  ---------------------------------------------------
  alpha Z        PSCENC =      2606.24521607
  Ewald energy   TEWEN  =    -65007.72971554
  -Hartree energ DENC   =    -34080.87231571
  -exchange      EXHF   =         0.00000000
  -V(xc)+E(xc)   XCENC  =      3632.63235545
  PAW double counting   =    104057.76193978  -107268.27775986
  entropy T*S    EENTRO =        -0.00000000
  eigenvalues    EBANDS =    -11864.01522296
  atomic energy  EATOM  =    107373.91467324
  Solvation  Ediel_sol  =         0.00000000
  ---------------------------------------------------
  free energy    TOTEN  =      -550.34082953 eV

  energy without entropy =     -550.34082953  energy(sigma->0) =     -550.34082953


--------------------------------------------------------------------------------------------------------




--------------------------------------- Iteration      1(   9)  ---------------------------------------


    POTLOK:  cpu time    1.1118: real time    1.1372
    SETDIJ:  cpu time    2.5500: real time    2.5628
     EDDAV:  cpu time  635.2474: real time  646.2288
       DOS:  cpu time    0.0033: real time    0.0033
    CHARGE:  cpu time   12.0335: real time   12.1909
    MIXING:  cpu time    0.0331: real time    0.0331
    --------------------------------------------
      LOOP:  cpu time  650.9790: real time  662.1560

 eigenvalue-minimisations  : 55112
 total energy-change (2. order) : 0.6358398E-03  (-0.2512297E-04)
 number of electron     828.0000017 magnetization     144.0000011
 augmentation part      312.6342378 magnetization      94.6993227

 Broyden mixing:
  rms(total) = 0.44848E-01    rms(broyden)= 0.44847E-01
  rms(prec ) = 0.45838E-01
  weight for this iteration     100.00

 eigenvalues of (default mixing * dielectric matrix)
  average eigenvalue GAMMA=   1.1030
  1.9951  1.1413  0.6378  0.6378

 Free energy of the ion-electron system (eV)
  ---------------------------------------------------
  alpha Z        PSCENC =      2606.24521607
  Ewald energy   TEWEN  =    -65007.72971554
  -Hartree energ DENC   =    -34081.00154204
  -exchange      EXHF   =         0.00000000
  -V(xc)+E(xc)   XCENC  =      3632.67051052
  PAW double counting   =    104070.96225305  -107281.65603501
  entropy T*S    EENTRO =        -0.00000000
  eigenvalues    EBANDS =    -11863.74555398
  atomic energy  EATOM  =    107373.91467324
  Solvation  Ediel_sol  =         0.00000000
  ---------------------------------------------------
  free energy    TOTEN  =      -550.34019369 eV

  energy without entropy =     -550.34019369  energy(sigma->0) =     -550.34019369


--------------------------------------------------------------------------------------------------------




--------------------------------------- Iteration      1(  10)  ---------------------------------------


    POTLOK:  cpu time    1.1222: real time    1.1305
    SETDIJ:  cpu time    2.5603: real time    2.5722
     EDDAV:  cpu time  634.3697: real time  645.5320
       DOS:  cpu time    0.0031: real time    0.0031
    CHARGE:  cpu time   11.9647: real time   12.1447
    MIXING:  cpu time    0.0250: real time    0.0328
    --------------------------------------------
      LOOP:  cpu time  650.0450: real time  661.4153

 eigenvalue-minimisations  : 55032
 total energy-change (2. order) : 0.1087472E-02  (-0.1974488E-03)
 number of electron     828.0000017 magnetization     144.0000007
 augmentation part      312.6529092 magnetization      94.7013800

 Broyden mixing:
  rms(total) = 0.83763E-02    rms(broyden)= 0.83733E-02
  rms(prec ) = 0.84038E-02
  weight for this iteration     100.00

 eigenvalues of (default mixing * dielectric matrix)
  average eigenvalue GAMMA=   1.0442
  2.4899  0.9300  0.6417  0.6417  0.5176

 Free energy of the ion-electron system (eV)
  ---------------------------------------------------
  alpha Z        PSCENC =      2606.24521607
  Ewald energy   TEWEN  =    -65007.72971554
  -Hartree energ DENC   =    -34081.83661950
  -exchange      EXHF   =         0.00000000
  -V(xc)+E(xc)   XCENC  =      3632.84012391
  PAW double counting   =    104131.57388114  -107343.07385247
  entropy T*S    EENTRO =        -0.00000000
  eigenvalues    EBANDS =    -11862.27281306
  atomic energy  EATOM  =    107373.91467324
  Solvation  Ediel_sol  =         0.00000000
  ---------------------------------------------------
  free energy    TOTEN  =      -550.33910622 eV

  energy without entropy =     -550.33910622  energy(sigma->0) =     -550.33910622


--------------------------------------------------------------------------------------------------------




--------------------------------------- Iteration      1(  11)  ---------------------------------------


    POTLOK:  cpu time    1.1180: real time    1.1392
    SETDIJ:  cpu time    2.5647: real time    2.5694
     EDDAV:  cpu time  519.4877: real time  529.4669
       DOS:  cpu time    0.0031: real time    0.0031
    CHARGE:  cpu time   11.9805: real time   12.2494
    MIXING:  cpu time    0.0373: real time    0.0378
    --------------------------------------------
      LOOP:  cpu time  535.1914: real time  545.4659

 eigenvalue-minimisations  : 43024
 total energy-change (2. order) :-0.8144010E-04  (-0.5841298E-04)
 number of electron     828.0000017 magnetization     144.0000007
 augmentation part      312.6568185 magnetization      94.7011577

 Broyden mixing:
  rms(total) = 0.60746E-02    rms(broyden)= 0.60726E-02
  rms(prec ) = 0.63542E-02
  weight for this iteration     100.00

 eigenvalues of (default mixing * dielectric matrix)
  average eigenvalue GAMMA=   0.9672
  2.5271  0.8954  0.5690  0.5690  0.6212  0.6212

 Free energy of the ion-electron system (eV)
  ---------------------------------------------------
  alpha Z        PSCENC =      2606.24521607
  Ewald energy   TEWEN  =    -65007.72971554
  -Hartree energ DENC   =    -34081.96085019
  -exchange      EXHF   =         0.00000000
  -V(xc)+E(xc)   XCENC  =      3632.86297736
  PAW double counting   =    104143.71365837  -107355.33619983
  entropy T*S    EENTRO =        -0.00000000
  eigenvalues    EBANDS =    -11862.04894714
  atomic energy  EATOM  =    107373.91467324
  Solvation  Ediel_sol  =         0.00000000
  ---------------------------------------------------
  free energy    TOTEN  =      -550.33918766 eV

  energy without entropy =     -550.33918766  energy(sigma->0) =     -550.33918766


--------------------------------------------------------------------------------------------------------




--------------------------------------- Iteration      1(  12)  ---------------------------------------


    POTLOK:  cpu time    1.1185: real time    1.1495
    SETDIJ:  cpu time    2.5482: real time    2.5729
     EDDAV:  cpu time  556.9807: real time  567.2910
       DOS:  cpu time    0.0030: real time    0.0030
    CHARGE:  cpu time   11.9690: real time   12.0091
    MIXING:  cpu time    0.0502: real time    0.0517
    --------------------------------------------
      LOOP:  cpu time  572.6696: real time  583.0772

 eigenvalue-minimisations  : 46888
 total energy-change (2. order) : 0.5476977E-05  (-0.5243152E-05)
 number of electron     828.0000017 magnetization     144.0000006
 augmentation part      312.6590781 magnetization      94.7011017

 Broyden mixing:
  rms(total) = 0.55175E-02    rms(broyden)= 0.55161E-02
  rms(prec ) = 0.57729E-02
  weight for this iteration     100.00

 eigenvalues of (default mixing * dielectric matrix)
  average eigenvalue GAMMA=   1.0771
  2.5345  1.1685  1.1685  0.8901  0.6339  0.6339  0.5103

 Free energy of the ion-electron system (eV)
  ---------------------------------------------------
  alpha Z        PSCENC =      2606.24521607
  Ewald energy   TEWEN  =    -65007.72971554
  -Hartree energ DENC   =    -34081.95006563
  -exchange      EXHF   =         0.00000000
  -V(xc)+E(xc)   XCENC  =      3632.85901263
  PAW double counting   =    104144.46191827  -107356.07004465
  entropy T*S    EENTRO =        -0.00000000
  eigenvalues    EBANDS =    -11862.07017657
  atomic energy  EATOM  =    107373.91467324
  Solvation  Ediel_sol  =         0.00000000
  ---------------------------------------------------
  free energy    TOTEN  =      -550.33918218 eV

  energy without entropy =     -550.33918218  energy(sigma->0) =     -550.33918218


--------------------------------------------------------------------------------------------------------




--------------------------------------- Iteration      1(  13)  ---------------------------------------


    POTLOK:  cpu time    1.1146: real time    1.1286
    SETDIJ:  cpu time    2.5567: real time    2.5956
     EDDAV:  cpu time  484.8982: real time  493.0720
       DOS:  cpu time    0.0030: real time    0.0031
    CHARGE:  cpu time   12.0079: real time   12.2571
    MIXING:  cpu time    0.0418: real time    0.0428
    --------------------------------------------
      LOOP:  cpu time  500.6222: real time  509.0992

 eigenvalue-minimisations  : 39584
 total energy-change (2. order) : 0.1632415E-04  (-0.1818476E-05)
 number of electron     828.0000017 magnetization     144.0000005
 augmentation part      312.6576475 magnetization      94.7008952

 Broyden mixing:
  rms(total) = 0.18761E-02    rms(broyden)= 0.18725E-02
  rms(prec ) = 0.19351E-02
  weight for this iteration     100.00

 eigenvalues of (default mixing * dielectric matrix)
  average eigenvalue GAMMA=   1.1684
  2.3911  2.1863  1.1386  1.1071  0.7273  0.6157  0.5906  0.5906

 Free energy of the ion-electron system (eV)
  ---------------------------------------------------
  alpha Z        PSCENC =      2606.24521607
  Ewald energy   TEWEN  =    -65007.72971554
  -Hartree energ DENC   =    -34081.88645458
  -exchange      EXHF   =         0.00000000
  -V(xc)+E(xc)   XCENC  =      3632.84166070
  PAW double counting   =    104145.81159166  -107357.35848835
  entropy T*S    EENTRO =        -0.00000000
  eigenvalues    EBANDS =    -11862.17764906
  atomic energy  EATOM  =    107373.91467324
  Solvation  Ediel_sol  =         0.00000000
  ---------------------------------------------------
  free energy    TOTEN  =      -550.33916586 eV

  energy without entropy =     -550.33916586  energy(sigma->0) =     -550.33916586


--------------------------------------------------------------------------------------------------------




--------------------------------------- Iteration      1(  14)  ---------------------------------------


    POTLOK:  cpu time    1.1150: real time    1.1365
    SETDIJ:  cpu time    2.5616: real time    2.5635
     EDDAV:  cpu time  450.5601: real time  459.0104
       DOS:  cpu time    0.0031: real time    0.0031
    CHARGE:  cpu time   11.9533: real time   12.2269
    MIXING:  cpu time    0.0361: real time    0.0376
    --------------------------------------------
      LOOP:  cpu time  466.2293: real time  474.9780

 eigenvalue-minimisations  : 36088
 total energy-change (2. order) :-0.6561022E-05  (-0.2769920E-05)
 number of electron     828.0000017 magnetization     144.0000005
 augmentation part      312.6555879 magnetization      94.7007228

 Broyden mixing:
  rms(total) = 0.10056E-02    rms(broyden)= 0.99867E-03
  rms(prec ) = 0.10445E-02
  weight for this iteration     100.00

 eigenvalues of (default mixing * dielectric matrix)
  average eigenvalue GAMMA=   1.1207
  2.8560  1.5553  1.5553  0.8601  0.7428  0.7428  0.6264  0.6264  0.5208

 Free energy of the ion-electron system (eV)
  ---------------------------------------------------
  alpha Z        PSCENC =      2606.24521607
  Ewald energy   TEWEN  =    -65007.72971554
  -Hartree energ DENC   =    -34081.87484348
  -exchange      EXHF   =         0.00000000
  -V(xc)+E(xc)   XCENC  =      3632.83383316
  PAW double counting   =    104147.70090837  -107359.22898248
  entropy T*S    EENTRO =        -0.00000000
  eigenvalues    EBANDS =    -11862.20026176
  atomic energy  EATOM  =    107373.91467324
  Solvation  Ediel_sol  =         0.00000000
  ---------------------------------------------------
  free energy    TOTEN  =      -550.33917242 eV

  energy without entropy =     -550.33917242  energy(sigma->0) =     -550.33917242


--------------------------------------------------------------------------------------------------------




--------------------------------------- Iteration      1(  15)  ---------------------------------------


    POTLOK:  cpu time    1.1061: real time    1.1384
    SETDIJ:  cpu time    2.5295: real time    2.5799
     EDDAV:  cpu time  438.0064: real time  445.8065
       DOS:  cpu time    0.0030: real time    0.0036
    CHARGE:  cpu time   11.9476: real time   12.1067
    MIXING:  cpu time    0.0397: real time    0.0399
    --------------------------------------------
      LOOP:  cpu time  453.6322: real time  461.6749

 eigenvalue-minimisations  : 34728
 total energy-change (2. order) : 0.2292116E-05  (-0.4662458E-06)
 number of electron     828.0000017 magnetization     144.0000005
 augmentation part      312.6552725 magnetization      94.7007454

 Broyden mixing:
  rms(total) = 0.53042E-03    rms(broyden)= 0.51739E-03
  rms(prec ) = 0.53812E-03
  weight for this iteration     100.00

 eigenvalues of (default mixing * dielectric matrix)
  average eigenvalue GAMMA=   1.0777
  2.7582  1.5759  1.5759  0.9680  0.7684  0.7684  0.6651  0.6002  0.5487  0.5487

 Free energy of the ion-electron system (eV)
  ---------------------------------------------------
  alpha Z        PSCENC =      2606.24521607
  Ewald energy   TEWEN  =    -65007.72971554
  -Hartree energ DENC   =    -34081.88625035
  -exchange      EXHF   =         0.00000000
  -V(xc)+E(xc)   XCENC  =      3632.83737927
  PAW double counting   =    104148.45815600  -107360.00401877
  entropy T*S    EENTRO =        -0.00000000
  eigenvalues    EBANDS =    -11862.17461004
  atomic energy  EATOM  =    107373.91467324
  Solvation  Ediel_sol  =         0.00000000
  ---------------------------------------------------
  free energy    TOTEN  =      -550.33917013 eV

  energy without entropy =     -550.33917013  energy(sigma->0) =     -550.33917013


--------------------------------------------------------------------------------------------------------




--------------------------------------- Iteration      1(  16)  ---------------------------------------


    POTLOK:  cpu time    1.1572: real time    1.1611
    SETDIJ:  cpu time    2.5186: real time    2.5360
     EDDAV:  cpu time  321.1977: real time  327.2185
       DOS:  cpu time    0.0030: real time    0.0032
    --------------------------------------------
      LOOP:  cpu time  324.8766: real time  330.9188

 eigenvalue-minimisations  : 22536
 total energy-change (2. order) : 0.2380693E-07  (-0.7177724E-07)
 number of electron     828.0000017 magnetization     144.0000005
 augmentation part      312.6552725 magnetization      94.7007454

 Free energy of the ion-electron system (eV)
  ---------------------------------------------------
  alpha Z        PSCENC =      2606.24521607
  Ewald energy   TEWEN  =    -65007.72971554
  -Hartree energ DENC   =    -34081.88305335
  -exchange      EXHF   =         0.00000000
  -V(xc)+E(xc)   XCENC  =      3632.83722806
  PAW double counting   =    104148.54594392  -107360.09259767
  entropy T*S    EENTRO =        -0.00000000
  eigenvalues    EBANDS =    -11862.17686484
  atomic energy  EATOM  =    107373.91467324
  Solvation  Ediel_sol  =         0.00000000
  ---------------------------------------------------
  free energy    TOTEN  =      -550.33917010 eV

  energy without entropy =     -550.33917010  energy(sigma->0) =     -550.33917010


--------------------------------------------------------------------------------------------------------




 average (electrostatic) potential at core
  the test charge radii are     0.7079  0.7215  0.9698  0.9500
  (the norm of the test charge is              1.0000)
       1 -58.9460       2 -58.9460       3 -58.9456       4 -58.9455       5 -58.9461
       6 -58.9459       7 -58.9459       8 -58.9459       9 -58.9459      10 -58.9433
      11 -58.9483      12 -58.9458      13 -58.9448      14 -58.9467      15 -58.9464
      16 -58.9446      17 -58.9469      18 -58.9457      19 -69.8197      20 -69.8206
      21 -69.8178      22 -69.8191      23 -69.8205      24 -69.8180      25 -69.8191
      26 -69.8204      27 -69.8180      28 -69.8190      29 -69.8196      30 -69.8191
      31 -69.8189      32 -69.8196      33 -69.8191      34 -69.8190      35 -69.8194
      36 -69.8191      37 -85.5576      38 -85.5590      39 -85.5596      40 -85.5579
      41 -85.5587      42 -85.5595      43 -85.5579      44 -85.5587      45 -85.5594
      46 -85.5526      47 -85.5645      48 -85.5587      49 -85.5576      50 -85.5597
      51 -85.5587      52 -85.5529      53 -85.5642      54 -85.5587      55 -85.6455
      56 -85.6467      57 -85.6463      58 -85.6457      59 -85.6464      60 -85.6462
      61 -85.6455      62 -85.6466      63 -85.6462      64 -78.5666      65 -78.5684
      66 -78.5650      67 -78.5665      68 -78.5687      69 -78.5650      70 -78.5665
      71 -78.5687      72 -78.5650      73 -78.5651      74 -78.5682      75 -78.5667
      76 -78.5649      77 -78.5684      78 -78.5667      79 -78.5663      80 -78.5671
      81 -78.5667      82 -78.5824      83 -78.5832      84 -78.5831      85 -78.5824
      86 -78.5832      87 -78.5832      88 -78.5824      89 -78.5831      90 -78.5831
      91 -78.5830      92 -78.5840      93 -78.5819      94 -78.5829      95 -78.5836
      96 -78.5823      97 -78.5830      98 -78.5840      99 -78.5819
 
 
 
 E-fermi :   5.2632     XC(G=0): -10.4947     alpha+bet :-11.8267


 spin component 1

 k-point     1 :       0.0000    0.0000    0.0000
  band No.  band energies     occupation 
      1     -51.0516      1.00000
      2     -51.0514      1.00000
      3     -51.0510      1.00000
      4     -51.0508      1.00000
      5     -51.0500      1.00000
      6     -51.0498      1.00000
      7     -51.0496      1.00000
      8     -51.0495      1.00000
      9     -51.0493      1.00000
     10     -51.0491      1.00000
     11     -51.0488      1.00000
     12     -51.0483      1.00000
     13     -51.0482      1.00000
     14     -51.0478      1.00000
     15     -51.0470      1.00000
     16     -51.0466      1.00000
     17     -51.0465      1.00000
     18     -51.0453      1.00000
     19     -51.0381      1.00000
     20     -51.0372      1.00000
     21     -51.0371      1.00000
     22     -51.0371      1.00000
     23     -51.0371      1.00000
     24     -51.0371      1.00000
     25     -51.0370      1.00000
     26     -51.0363      1.00000
     27     -51.0362      1.00000
     28     -51.0362      1.00000
     29     -51.0361      1.00000
     30     -51.0360      1.00000
     31     -51.0359      1.00000
     32     -51.0357      1.00000
     33     -51.0355      1.00000
     34     -51.0355      1.00000
     35     -51.0350      1.00000
     36     -51.0348      1.00000
     37     -49.6904      1.00000
     38     -49.6903      1.00000
     39     -49.6900      1.00000
     40     -49.6897      1.00000
     41     -49.6897      1.00000
     42     -49.6897      1.00000
     43     -49.6896      1.00000
     44     -49.6893      1.00000
     45     -49.6892      1.00000
     46     -49.6892      1.00000
     47     -49.6890      1.00000
     48     -49.6889      1.00000
     49     -49.6889      1.00000
     50     -49.6889      1.00000
     51     -49.6884      1.00000
     52     -49.6882      1.00000
     53     -49.6881      1.00000
     54     -49.6880      1.00000
     55     -49.5924      1.00000
     56     -49.5921      1.00000
     57     -49.5912      1.00000
     58     -49.5911      1.00000
     59     -49.5908      1.00000
     60     -49.5906      1.00000
     61     -49.5903      1.00000
     62     -49.5901      1.00000
     63     -49.5899      1.00000
     64     -49.5899      1.00000
     65     -49.5898      1.00000
     66     -49.5890      1.00000
     67     -49.5888      1.00000
     68     -49.5883      1.00000
     69     -49.5881      1.00000
     70     -49.5872      1.00000
     71     -49.5869      1.00000
     72     -49.5869      1.00000
     73     -49.5633      1.00000
     74     -49.5632      1.00000
     75     -49.5612      1.00000
     76     -49.5612      1.00000
     77     -49.5611      1.00000
     78     -49.5606      1.00000
     79     -49.5601      1.00000
     80     -49.5600      1.00000
     81     -49.5597      1.00000
     82     -49.5595      1.00000
     83     -49.5592      1.00000
     84     -49.5586      1.00000
     85     -49.5586      1.00000
     86     -49.5585      1.00000
     87     -49.5574      1.00000
     88     -49.5572      1.00000
     89     -49.5568      1.00000
     90     -49.5567      1.00000
     91     -49.5494      1.00000
     92     -49.5486      1.00000
     93     -49.5485      1.00000
     94     -49.5484      1.00000
     95     -49.5484      1.00000
     96     -49.5481      1.00000
     97     -49.5479      1.00000
     98     -49.5476      1.00000
     99     -49.5471      1.00000
    100     -49.5471      1.00000
    101     -49.5470      1.00000
    102     -49.5469      1.00000
    103     -49.5469      1.00000
    104     -49.5465      1.00000
    105     -49.5464      1.00000
    106     -49.5464      1.00000
    107     -49.5461      1.00000
    108     -49.5459      1.00000
    109     -39.8650      1.00000
    110     -39.8636      1.00000
    111     -39.8634      1.00000
    112     -39.8632      1.00000
    113     -39.8629      1.00000
    114     -39.8629      1.00000
    115     -39.8628      1.00000
    116     -39.8625      1.00000
    117     -39.8624      1.00000
    118     -39.8624      1.00000
    119     -39.8622      1.00000
    120     -39.8622      1.00000
    121     -39.8622      1.00000
    122     -39.8620      1.00000
    123     -39.8619      1.00000
    124     -39.8615      1.00000
    125     -39.8612      1.00000
    126     -39.8598      1.00000
    127     -13.2357      1.00000
    128     -13.2349      1.00000
    129     -13.2348      1.00000
    130     -13.2342      1.00000
    131     -13.2259      1.00000
    132     -13.1987      1.00000
    133     -13.0557      1.00000
    134     -13.0555      1.00000
    135     -13.0542      1.00000
    136     -13.0541      1.00000
    137     -13.0424      1.00000
    138     -13.0423      1.00000
    139     -13.0411      1.00000
    140     -13.0410      1.00000
    141     -13.0188      1.00000
    142     -13.0187      1.00000
    143     -13.0185      1.00000
    144     -13.0184      1.00000
    145      -7.6148      1.00000
    146      -7.4115      1.00000
    147      -7.3756      1.00000
    148      -7.3751      1.00000
    149      -7.3750      1.00000
    150      -7.3744      1.00000
    151      -7.1814      1.00000
    152      -7.1812      1.00000
    153      -7.1718      1.00000
    154      -7.1716      1.00000
    155      -7.1528      1.00000
    156      -7.1512      1.00000
    157      -7.1512      1.00000
    158      -7.1496      1.00000
    159      -6.9846      1.00000
    160      -6.9656      1.00000
    161      -6.9645      1.00000
    162      -6.9308      1.00000
    163      -6.9298      1.00000
    164      -6.8730      1.00000
    165      -6.8713      1.00000
    166      -6.8713      1.00000
    167      -6.8696      1.00000
    168      -6.8078      1.00000
    169      -6.8065      1.00000
    170      -6.7809      1.00000
    171      -6.7797      1.00000
    172      -1.8368      1.00000
    173      -1.8368      1.00000
    174      -1.8367      1.00000
    175      -1.8366      1.00000
    176      -1.8162      1.00000
    177      -1.8162      1.00000
    178      -1.8035      1.00000
    179      -1.8035      1.00000
    180      -1.7663      1.00000
    181      -1.7663      1.00000
    182      -1.7536      1.00000
    183      -1.7535      1.00000
    184      -1.2808      1.00000
    185      -1.1977      1.00000
    186      -1.1975      1.00000
    187      -1.1973      1.00000
    188      -1.1968      1.00000
    189      -1.0050      1.00000
    190      -1.0047      1.00000
    191      -0.9743      1.00000
    192      -0.9739      1.00000
    193      -0.9588      1.00000
    194      -0.9586      1.00000
    195      -0.9469      1.00000
    196      -0.9385      1.00000
    197      -0.9312      1.00000
    198      -0.9284      1.00000
    199      -0.9281      1.00000
    200      -0.8852      1.00000
    201      -0.8844      1.00000
    202      -0.8843      1.00000
    203      -0.8839      1.00000
    204      -0.8716      1.00000
    205      -0.8712      1.00000
    206      -0.8675      1.00000
    207      -0.8672      1.00000
    208      -0.8672      1.00000
    209      -0.8668      1.00000
    210      -0.8595      1.00000
    211      -0.8593      1.00000
    212      -0.7005      1.00000
    213      -0.7003      1.00000
    214      -0.7001      1.00000
    215      -0.6999      1.00000
    216      -0.6714      1.00000
    217      -0.6711      1.00000
    218      -0.6232      1.00000
    219      -0.6228      1.00000
    220      -0.6227      1.00000
    221      -0.6222      1.00000
    222      -0.6221      1.00000
    223      -0.6218      1.00000
    224      -0.3523      1.00000
    225      -0.3521      1.00000
    226      -0.3520      1.00000
    227      -0.3517      1.00000
    228      -0.3219      1.00000
    229      -0.3216      1.00000
    230      -0.2916      1.00000
    231      -0.2912      1.00000
    232      -0.2649      1.00000
    233      -0.2639      1.00000
    234      -0.2638      1.00000
    235      -0.2634      1.00000
    236      -0.2607      1.00000
    237      -0.2603      1.00000
    238      -0.2577      1.00000
    239      -0.2488      1.00000
    240      -0.2483      1.00000
    241      -0.2426      1.00000
    242      -0.2205      1.00000
    243      -0.1407      1.00000
    244      -0.1404      1.00000
    245      -0.1402      1.00000
    246      -0.1398      1.00000
    247      -0.1393      1.00000
    248      -0.1391      1.00000
    249      -0.1234      1.00000
    250      -0.1229      1.00000
    251      -0.1228      1.00000
    252      -0.1223      1.00000
    253      -0.1202      1.00000
    254      -0.1197      1.00000
    255      -0.0779      1.00000
    256      -0.0775      1.00000
    257      -0.0595      1.00000
    258      -0.0118      1.00000
    259      -0.0114      1.00000
    260       0.0158      1.00000
    261       0.0160      1.00000
    262       0.0261      1.00000
    263       0.0262      1.00000
    264       0.0422      1.00000
    265       0.0432      1.00000
    266       0.0432      1.00000
    267       0.0441      1.00000
    268       0.0607      1.00000
    269       0.0610      1.00000
    270       0.1491      1.00000
    271       0.1501      1.00000
    272       0.1502      1.00000
    273       0.1507      1.00000
    274       0.1583      1.00000
    275       0.1639      1.00000
    276       0.1655      1.00000
    277       0.1825      1.00000
    278       0.1827      1.00000
    279       0.1923      1.00000
    280       0.1965      1.00000
    281       0.1968      1.00000
    282       0.2077      1.00000
    283       0.2082      1.00000
    284       0.2581      1.00000
    285       0.2582      1.00000
    286       0.2583      1.00000
    287       0.2586      1.00000
    288       0.2784      1.00000
    289       0.2786      1.00000
    290       0.3393      1.00000
    291       0.3394      1.00000
    292       0.3596      1.00000
    293       0.3600      1.00000
    294       0.3600      1.00000
    295       0.3603      1.00000
    296       0.3802      1.00000
    297       0.3832      1.00000
    298       0.4898      1.00000
    299       0.4899      1.00000
    300       0.4899      1.00000
    301       0.4901      1.00000
    302       0.5159      1.00000
    303       0.5172      1.00000
    304       0.5173      1.00000
    305       0.5182      1.00000
    306       0.5586      1.00000
    307       0.5590      1.00000
    308       0.6087      1.00000
    309       0.6089      1.00000
    310       0.6150      1.00000
    311       0.6303      1.00000
    312       0.6312      1.00000
    313       0.6312      1.00000
    314       0.6316      1.00000
    315       0.7523      1.00000
    316       0.7524      1.00000
    317       0.7612      1.00000
    318       0.7614      1.00000
    319       0.7623      1.00000
    320       0.7628      1.00000
    321       0.7906      1.00000
    322       0.7909      1.00000
    323       0.7934      1.00000
    324       0.8461      1.00000
    325       0.8461      1.00000
    326       0.8550      1.00000
    327       0.8552      1.00000
    328       0.9689      1.00000
    329       0.9690      1.00000
    330       0.9692      1.00000
    331       0.9695      1.00000
    332       0.9794      1.00000
    333       1.2397      1.00000
    334       1.2399      1.00000
    335       1.2400      1.00000
    336       1.2406      1.00000
    337       1.2640      1.00000
    338       1.2926      1.00000
    339       1.2928      1.00000
    340       1.3305      1.00000
    341       1.3307      1.00000
    342       1.3583      1.00000
    343       1.3588      1.00000
    344       1.3588      1.00000
    345       1.3594      1.00000
    346       1.4363      1.00000
    347       1.4372      1.00000
    348       1.4642      1.00000
    349       1.4755      1.00000
    350       1.4869      1.00000
    351       1.4879      1.00000
    352       1.5475      1.00000
    353       1.6788      1.00000
    354       1.6800      1.00000
    355       1.6803      1.00000
    356       1.7237      1.00000
    357       1.7237      1.00000
    358       1.7238      1.00000
    359       1.7243      1.00000
    360       1.7655      1.00000
    361       1.7657      1.00000
    362       1.8143      1.00000
    363       1.8144      1.00000
    364       1.8147      1.00000
    365       1.8153      1.00000
    366       1.8265      1.00000
    367       1.8271      1.00000
    368       1.8277      1.00000
    369       1.8283      1.00000
    370       1.8395      1.00000
    371       1.8760      1.00000
    372       1.8866      1.00000
    373       1.9029      1.00000
    374       1.9031      1.00000
    375       1.9177      1.00000
    376       1.9177      1.00000
    377       1.9634      1.00000
    378       1.9637      1.00000
    379       1.9900      1.00000
    380       1.9901      1.00000
    381       1.9989      1.00000
    382       1.9991      1.00000
    383       1.9992      1.00000
    384       1.9995      1.00000
    385       2.0712      1.00000
    386       2.0717      1.00000
    387       2.0810      1.00000
    388       2.0816      1.00000
    389       2.0817      1.00000
    390       2.0821      1.00000
    391       2.0941      1.00000
    392       2.0948      1.00000
    393       2.1161      1.00000
    394       2.1163      1.00000
    395       2.1164      1.00000
    396       2.1169      1.00000
    397       2.1954      1.00000
    398       2.1960      1.00000
    399       2.2884      1.00000
    400       2.2888      1.00000
    401       2.4162      1.00000
    402       2.4166      1.00000
    403       2.4406      1.00000
    404       2.4409      1.00000
    405       2.4411      1.00000
    406       2.4411      1.00000
    407       2.4996      1.00000
    408       2.5157      1.00000
    409       2.5163      1.00000
    410       2.5165      1.00000
    411       2.5168      1.00000
    412       2.5589      1.00000
    413       2.5598      1.00000
    414       2.5653      1.00000
    415       2.7183      1.00000
[...]
   -.221E+01 0.668E+01 -.124E+03   0.229E+01 -.697E+01 0.129E+03   -.737E-01 0.287E+00 -.454E+01   -.726E-05 -.226E-04 0.114E-03
   -.227E+01 0.676E+01 -.124E+03   0.235E+01 -.705E+01 0.129E+03   -.759E-01 0.285E+00 -.454E+01   -.260E-04 -.681E-05 0.135E-03
   -.235E+01 0.672E+01 -.124E+03   0.243E+01 -.701E+01 0.129E+03   -.797E-01 0.286E+00 -.454E+01   -.117E-03 0.838E-04 0.114E-03
   -.223E+01 0.676E+01 -.124E+03   0.230E+01 -.705E+01 0.129E+03   -.740E-01 0.284E+00 -.454E+01   -.327E-04 0.298E-04 0.157E-03
   -.226E+01 0.668E+01 -.124E+03   0.234E+01 -.696E+01 0.129E+03   -.759E-01 0.286E+00 -.454E+01   -.417E-04 -.420E-04 0.178E-03
   -.235E+01 0.673E+01 -.124E+03   0.242E+01 -.701E+01 0.129E+03   -.796E-01 0.286E+00 -.454E+01   -.712E-04 -.669E-04 0.135E-03
   -.224E+01 0.672E+01 -.124E+03   0.232E+01 -.701E+01 0.129E+03   -.748E-01 0.286E+00 -.454E+01   -.139E-04 -.759E-04 0.157E-03
   -.227E+01 0.673E+01 -.124E+03   0.235E+01 -.701E+01 0.129E+03   -.761E-01 0.286E+00 -.454E+01   -.714E-04 -.175E-04 0.178E-03
   -.231E+01 0.672E+01 -.124E+03   0.239E+01 -.700E+01 0.129E+03   -.800E-01 0.285E+00 -.454E+01   -.892E-04 -.591E-04 0.140E-03
   0.448E+01 -.113E+02 -.317E+02   -.456E+01 0.114E+02 0.322E+02   0.812E-01 -.135E+00 -.497E+00   -.375E-04 -.153E-04 0.145E-03
   0.551E+01 -.113E+02 -.319E+02   -.560E+01 0.114E+02 0.324E+02   0.952E-01 -.134E+00 -.497E+00   0.228E-03 -.217E-04 0.538E-04
   0.447E+01 -.113E+02 -.320E+02   -.456E+01 0.114E+02 0.325E+02   0.811E-01 -.134E+00 -.501E+00   -.402E-04 -.653E-05 0.645E-04
   0.463E+01 -.112E+02 -.318E+02   -.471E+01 0.114E+02 0.323E+02   0.817E-01 -.134E+00 -.497E+00   -.722E-05 -.885E-05 0.110E-03
   0.479E+01 -.113E+02 -.319E+02   -.488E+01 0.114E+02 0.324E+02   0.861E-01 -.134E+00 -.499E+00   -.159E-04 0.189E-05 0.980E-04
   0.462E+01 -.113E+02 -.319E+02   -.470E+01 0.115E+02 0.324E+02   0.816E-01 -.135E+00 -.501E+00   -.368E-05 -.345E-04 0.921E-04
   0.464E+01 -.113E+02 -.318E+02   -.472E+01 0.115E+02 0.323E+02   0.819E-01 -.135E+00 -.497E+00   0.844E-05 0.806E-05 0.781E-04
   0.479E+01 -.113E+02 -.319E+02   -.487E+01 0.114E+02 0.324E+02   0.858E-01 -.134E+00 -.499E+00   0.391E-05 -.113E-05 0.950E-04
   0.462E+01 -.112E+02 -.319E+02   -.470E+01 0.114E+02 0.324E+02   0.818E-01 -.134E+00 -.501E+00   -.543E-05 0.347E-05 0.111E-03
   0.110E+02 -.374E+01 0.318E+02   -.111E+02 0.381E+01 -.323E+02   0.132E+00 -.697E-01 0.499E+00   0.122E-04 0.470E-04 -.183E-03
   0.110E+02 -.544E+01 0.320E+02   -.111E+02 0.553E+01 -.325E+02   0.129E+00 -.977E-01 0.499E+00   -.688E-06 -.431E-04 -.488E-04
   0.111E+02 -.464E+01 0.319E+02   -.112E+02 0.472E+01 -.324E+02   0.130E+00 -.828E-01 0.499E+00   0.545E-05 -.427E-05 -.911E-04
   0.113E+02 -.464E+01 0.319E+02   -.115E+02 0.472E+01 -.324E+02   0.136E+00 -.828E-01 0.499E+00   -.362E-05 0.200E-04 -.115E-03
   0.113E+02 -.464E+01 0.319E+02   -.115E+02 0.473E+01 -.324E+02   0.136E+00 -.829E-01 0.499E+00   0.174E-04 -.461E-05 -.117E-03
   0.112E+02 -.464E+01 0.319E+02   -.114E+02 0.472E+01 -.324E+02   0.132E+00 -.830E-01 0.499E+00   0.295E-04 0.103E-05 -.903E-04
   0.111E+02 -.547E+01 0.318E+02   -.112E+02 0.556E+01 -.323E+02   0.131E+00 -.978E-01 0.498E+00   0.151E-04 -.338E-04 -.166E-03
   0.110E+02 -.390E+01 0.320E+02   -.111E+02 0.398E+01 -.325E+02   0.129E+00 -.675E-01 0.499E+00   -.709E-05 0.703E-04 -.439E-04
   0.111E+02 -.464E+01 0.319E+02   -.113E+02 0.473E+01 -.324E+02   0.131E+00 -.829E-01 0.499E+00   -.176E-05 0.986E-05 -.989E-04
   0.167E-02 0.597E-01 -.705E-01   0.127E-02 -.630E-01 0.712E-01   -.259E-02 0.326E-02 -.108E-02   -.229E-04 0.204E-04 -.161E-04
   0.417E-01 -.313E-01 0.971E-01   -.389E-01 0.281E-01 -.979E-01   -.253E-02 0.316E-02 0.130E-02   0.129E-05 0.199E-04 0.294E-04
   -.979E-01 0.154E-01 -.276E-01   0.102E+00 -.187E-01 0.279E-01   -.458E-02 0.327E-02 -.423E-03   -.165E-04 -.886E-05 -.132E-04
   -.710E-02 0.201E-01 -.525E-02   0.102E-01 -.234E-01 0.526E-02   -.289E-02 0.327E-02 -.375E-04   -.434E-05 0.309E-04 -.393E-04
   0.175E-01 0.138E-01 0.190E-01   -.147E-01 -.170E-01 -.192E-01   -.256E-02 0.320E-02 0.386E-03   -.192E-05 0.225E-05 0.731E-05
   -.540E-01 0.936E-02 -.138E-01   0.580E-01 -.127E-01 0.140E-01   -.443E-02 0.325E-02 -.382E-03   -.296E-04 0.430E-04 -.561E-06
   0.877E-02 -.353E-01 -.811E-01   -.584E-02 0.320E-01 0.819E-01   -.260E-02 0.332E-02 -.112E-02   -.153E-04 0.225E-04 0.230E-05
   0.266E-01 0.596E-01 0.950E-01   -.238E-01 -.630E-01 -.959E-01   -.248E-02 0.337E-02 0.141E-02   -.171E-04 0.465E-05 0.185E-04
   -.897E-01 0.183E-01 -.149E-01   0.937E-01 -.216E-01 0.152E-01   -.449E-02 0.327E-02 -.366E-03   -.990E-05 0.256E-04 0.523E-05
   -.271E-01 0.422E+01 -.185E+03   -.654E+00 -.383E+01 0.183E+03   0.660E+00 -.389E+00 0.230E+01   0.306E-02 0.877E-04 -.208E-03
   -.379E+01 0.423E+01 -.185E+03   0.311E+01 -.384E+01 0.183E+03   0.676E+00 -.389E+00 0.229E+01   -.315E-03 0.481E-04 -.988E-04
   -.378E+01 0.423E+01 -.185E+03   0.311E+01 -.384E+01 0.183E+03   0.676E+00 -.390E+00 0.230E+01   -.272E-03 0.121E-03 -.288E-03
   -.229E+01 0.423E+01 -.185E+03   0.159E+01 -.385E+01 0.183E+03   0.701E+00 -.388E+00 0.230E+01   0.252E-03 -.660E-04 -.706E-04
   -.288E+01 0.406E+01 -.185E+03   0.221E+01 -.366E+01 0.183E+03   0.676E+00 -.400E+00 0.229E+01   -.187E-03 -.157E-03 -.300E-03
   -.288E+01 0.440E+01 -.185E+03   0.221E+01 -.402E+01 0.183E+03   0.677E+00 -.381E+00 0.230E+01   -.112E-03 0.573E-04 -.160E-03
   -.230E+01 0.423E+01 -.185E+03   0.159E+01 -.384E+01 0.183E+03   0.702E+00 -.390E+00 0.230E+01   0.224E-03 0.963E-05 -.165E-03
   -.288E+01 0.439E+01 -.185E+03   0.221E+01 -.402E+01 0.183E+03   0.675E+00 -.379E+00 0.229E+01   -.187E-03 0.793E-04 -.238E-03
   -.288E+01 0.406E+01 -.185E+03   0.221E+01 -.366E+01 0.183E+03   0.676E+00 -.397E+00 0.230E+01   -.126E-03 -.978E-04 -.210E-03
   -.424E+01 0.211E+01 0.186E+03   0.385E+01 -.142E+01 -.184E+03   0.393E+00 -.687E+00 -.228E+01   0.464E-04 -.198E-03 0.473E-03
   -.429E+01 0.328E+01 0.185E+03   0.390E+01 -.260E+01 -.182E+03   0.393E+00 -.687E+00 -.231E+01   0.413E-04 0.145E-03 -.175E-03
   -.456E+01 0.270E+01 0.185E+03   0.417E+01 -.201E+01 -.183E+03   0.388E+00 -.687E+00 -.230E+01   -.220E-03 -.388E-04 0.193E-03
   -.425E+01 0.327E+01 0.186E+03   0.385E+01 -.259E+01 -.184E+03   0.393E+00 -.686E+00 -.228E+01   0.299E-04 0.166E-03 0.522E-03
   -.428E+01 0.213E+01 0.185E+03   0.388E+01 -.144E+01 -.182E+03   0.393E+00 -.689E+00 -.231E+01   0.713E-04 -.190E-03 -.992E-04
   -.455E+01 0.270E+01 0.185E+03   0.417E+01 -.202E+01 -.183E+03   0.388E+00 -.687E+00 -.230E+01   -.206E-03 0.124E-04 0.156E-03
   -.417E+01 0.270E+01 0.185E+03   0.377E+01 -.201E+01 -.183E+03   0.393E+00 -.687E+00 -.229E+01   0.506E-04 0.266E-04 0.269E-03
   -.419E+01 0.271E+01 0.185E+03   0.380E+01 -.202E+01 -.183E+03   0.393E+00 -.687E+00 -.230E+01   0.502E-04 0.444E-04 0.932E-04
   -.436E+01 0.270E+01 0.185E+03   0.397E+01 -.201E+01 -.183E+03   0.388E+00 -.687E+00 -.230E+01   -.130E-03 0.256E-04 0.111E-03
   0.375E+01 0.502E+01 -.201E+03   -.383E+01 -.504E+01 0.203E+03   0.800E-01 0.121E-01 -.198E+01   0.164E-04 -.103E-04 0.300E-03
   0.399E+01 0.507E+01 -.201E+03   -.407E+01 -.508E+01 0.203E+03   0.814E-01 0.131E-01 -.198E+01   -.665E-04 0.401E-04 0.355E-03
   0.361E+01 0.511E+01 -.202E+03   -.369E+01 -.512E+01 0.204E+03   0.794E-01 0.130E-01 -.198E+01   0.499E-04 0.243E-04 0.275E-03
   0.373E+01 0.513E+01 -.201E+03   -.381E+01 -.514E+01 0.203E+03   0.797E-01 0.135E-01 -.198E+01   0.880E-04 0.806E-04 0.316E-03
   0.398E+01 0.505E+01 -.201E+03   -.406E+01 -.506E+01 0.203E+03   0.816E-01 0.116E-01 -.198E+01   -.113E-05 0.291E-04 0.367E-03
   0.365E+01 0.503E+01 -.202E+03   -.372E+01 -.504E+01 0.204E+03   0.795E-01 0.124E-01 -.198E+01   -.990E-04 0.111E-04 0.254E-03
   0.378E+01 0.505E+01 -.201E+03   -.386E+01 -.506E+01 0.203E+03   0.800E-01 0.123E-01 -.198E+01   0.107E-03 -.123E-03 0.351E-03
   0.387E+01 0.509E+01 -.201E+03   -.395E+01 -.510E+01 0.203E+03   0.811E-01 0.132E-01 -.198E+01   -.302E-04 -.772E-04 0.355E-03
   0.370E+01 0.507E+01 -.202E+03   -.378E+01 -.508E+01 0.204E+03   0.800E-01 0.126E-01 -.198E+01   -.455E-04 -.676E-04 0.312E-03
   -.418E+01 -.383E+01 0.202E+03   0.418E+01 0.391E+01 -.204E+03   -.238E-02 -.819E-01 0.198E+01   0.327E-03 -.131E-03 -.277E-03
   -.534E+01 -.396E+01 0.202E+03   0.535E+01 0.404E+01 -.204E+03   -.165E-01 -.807E-01 0.199E+01   -.206E-03 0.162E-03 -.252E-03
   -.537E+01 -.362E+01 0.201E+03   0.539E+01 0.370E+01 -.203E+03   -.170E-01 -.802E-01 0.198E+01   -.119E-03 -.272E-04 -.356E-03
   -.492E+01 -.379E+01 0.202E+03   0.493E+01 0.387E+01 -.203E+03   -.106E-01 -.804E-01 0.198E+01   0.173E-03 0.107E-03 -.347E-03
   -.512E+01 -.380E+01 0.202E+03   0.513E+01 0.388E+01 -.203E+03   -.126E-01 -.806E-01 0.198E+01   -.131E-03 -.703E-04 -.337E-03
   -.513E+01 -.379E+01 0.201E+03   0.515E+01 0.387E+01 -.203E+03   -.134E-01 -.803E-01 0.198E+01   -.533E-04 0.271E-04 -.295E-03
   -.422E+01 -.377E+01 0.202E+03   0.422E+01 0.385E+01 -.204E+03   -.346E-02 -.790E-01 0.198E+01   0.308E-03 0.373E-04 -.302E-03
   -.533E+01 -.363E+01 0.202E+03   0.535E+01 0.371E+01 -.204E+03   -.160E-01 -.800E-01 0.199E+01   -.155E-03 -.741E-04 -.250E-03
   -.535E+01 -.397E+01 0.201E+03   0.537E+01 0.405E+01 -.203E+03   -.165E-01 -.808E-01 0.198E+01   -.134E-03 0.631E-05 -.369E-03
 -----------------------------------------------------------------------------------------------
   -.941E+01 0.941E+01 -.990E-02   -.426E-13 0.639E-13 0.313E-12   0.941E+01 -.941E+01 0.999E-02   0.174E-02 0.394E-03 -.917E-04
 
 
 POSITION                                       TOTAL-FORCE (eV/Angst)
 -----------------------------------------------------------------------------------
      0.69431      1.16678      8.50361        -0.000739      0.000541      0.000341
      4.62006      1.16961      8.52669        -0.000242      0.000517     -0.000120
      8.54582      1.17244      8.54977         0.000415      0.000525      0.000190
      0.68421      5.09252      8.52669        -0.000206     -0.000636     -0.000107
      4.60997      5.09535      8.54977        -0.000026     -0.000528     -0.000031
      8.53573      5.09818      8.57285         0.000298     -0.000595     -0.000016
      0.67412      9.01827      8.54977        -0.000288      0.000417      0.000026
      4.59988      9.02110      8.57285         0.000022      0.000333      0.000085
      8.52563      9.02393      8.59592         0.000318      0.000396      0.000146
      0.73117      1.20377      1.72829         0.001469      0.000151      0.005107
      4.65693      1.20660      1.75137         0.002453      0.000011     -0.004437
      8.58269      1.20942      1.77444         0.000162      0.000063     -0.000008
      0.72108      5.12951      1.75137        -0.000755     -0.000762      0.001021
      4.64684      5.13234      1.77444         0.000142      0.000632     -0.000895
      8.57259      5.13517      1.79752         0.000114     -0.000045     -0.000008
      0.71099      9.05525      1.77444        -0.000758      0.000574      0.000974
      4.63674      9.05808      1.79752         0.000194     -0.000664     -0.000858
      8.56250      9.06091      1.82060         0.000093     -0.000048     -0.000020
      2.69694      1.20483      2.03281         0.006898     -0.000038     -0.001824
      6.62270      1.20766      2.05588        -0.001580      0.000088      0.000868
     10.54845      1.21049      2.07896        -0.001924     -0.000059     -0.001053
      2.68685      5.13057      2.05588         0.001568     -0.000002     -0.000073
      6.61260      5.13340      2.07896        -0.001495     -0.001263      0.001135
     10.53836      5.13623      2.10204        -0.001786      0.001155     -0.001208
      2.67675      9.05632      2.07896         0.001510     -0.000036     -0.000056
      6.60251      9.05915      2.10204        -0.001419      0.001055      0.001076
     10.52827      9.06198      2.12512        -0.001701     -0.001096     -0.001160
      0.69972     -0.79898      8.19910         0.001158      0.000674      0.000557
      4.62547     -0.79615      8.22217         0.000408      0.000186     -0.000302
      8.55123     -0.79332      8.24525        -0.000947      0.000369     -0.000064
      0.68962      3.12676      8.22217         0.001038     -0.000126      0.000611
      4.61538      3.12959      8.24525         0.000408      0.000351     -0.000458
      8.54114      3.13242      8.26833        -0.000931      0.000196     -0.000053
      0.67953      7.05251      8.24525         0.000763      0.000235      0.000093
      4.60529      7.05534      8.26833         0.000325      0.000248      0.000012
      8.53104      7.05817      8.29141        -0.001074      0.000212     -0.000063
     -1.24734      1.15770      6.42338        -0.000934      0.000029      0.000953
      2.67842      1.16053      6.44646         0.002532      0.000044      0.001201
      6.60417      1.16336      6.46954        -0.001005      0.000145     -0.001004
     -1.25744      5.08344      6.44646        -0.000764      0.000658      0.000921
      2.66832      5.08627      6.46954         0.001274      0.000085      0.000127
      6.59408      5.08910      6.49262        -0.000829     -0.000479     -0.001010
     -1.26753      9.00919      6.46954        -0.000707     -0.000498      0.000804
      2.65823      9.01202      6.49262         0.001152      0.000105      0.000181
      6.58398      9.01484      6.51569        -0.000763      0.000632     -0.000902
      0.73386      3.14543      3.80852         0.001948      0.000355      0.001020
      4.65962      3.14826      3.83160        -0.000528     -0.002865     -0.000578
      8.58538      3.15109      3.85467        -0.001876      0.000079      0.000003
      0.72377      7.07118      3.83160         0.000687      0.000075      0.000220
      4.64953      7.07401      3.85467         0.000753     -0.000006     -0.000082
      8.57528      7.07684      3.87775        -0.001398      0.000013      0.000006
      0.71368     10.99692      3.85467         0.000104     -0.001820      0.000775
      4.63943     10.99975      3.87775        -0.001681      0.003581     -0.000437
      8.56519     11.00258      3.90083        -0.001828     -0.000003     -0.000001
      0.73979      3.17832      0.02308         0.000320     -0.000023     -0.000371
      4.66555      3.18115      0.04616         0.000318     -0.000036      0.000499
      8.59130      3.18398      0.06923        -0.000546      0.000001     -0.000164
      0.72970      7.10407      0.04616         0.000159     -0.000008     -0.000064
      4.65545      7.10690      0.06923         0.000293     -0.000034      0.000192
      8.58121      7.10973      0.09231        -0.000457     -0.000018     -0.000146
      0.71960     11.02981      0.06923         0.000312      0.000011     -0.000379
      4.64536     11.03264      0.09231         0.000361      0.000030      0.000532
      8.57112     11.03547      0.11539        -0.000511     -0.000015     -0.000137
      2.62849      1.23238      4.04039        -0.018944      0.000835     -0.000229
      6.54425      1.23520      4.06340         0.004323     -0.000164      0.000322
     10.47001      1.23803      4.08648         0.004172     -0.000090     -0.000338
      2.60840      5.15812      4.06340        -0.003269     -0.000163     -0.000178
      6.53415      5.16095      4.08648         0.003248      0.002291      0.000423
     10.45991      5.16378      4.10956         0.003092     -0.002037     -0.000466
      2.59830      9.08386      4.08648        -0.003264      0.000091     -0.000177
      6.52406      9.08669      4.10956         0.003198     -0.002031      0.000408
     10.44982      9.08952      4.13264         0.003131      0.001844     -0.000387
      0.67192     -0.72062      6.19157         0.000176      0.001133     -0.004955
      4.59767     -0.71779      6.21465         0.000368     -0.001411      0.004719
      8.52343     -0.71497      6.23773         0.001019     -0.000107      0.000162
      0.66182      3.20512      6.21465         0.000098     -0.001449     -0.005072
      4.58758      3.20795      6.23773         0.000252      0.001001      0.004841
      8.51333      3.21078      6.26081         0.001025     -0.000261      0.000122
      0.65173      7.13086      6.23773        -0.000684     -0.000245     -0.000502
      4.57748      7.13369      6.26081        -0.000474     -0.000276      0.000637
      8.50324      7.13652      6.28389         0.001103     -0.000231      0.000126
     -1.26712     -0.80254      8.61927         0.000183      0.000019     -0.000123
      2.65864     -0.79971      8.64235        -0.000080     -0.000225     -0.000214
      6.58440     -0.79688      8.66542         0.000494     -0.000151      0.000342
     -1.27721      3.12320      8.64235         0.000267     -0.000203     -0.000131
      2.64854      3.12603      8.66542        -0.000192      0.000185     -0.000158
      6.57430      3.12886      8.68850         0.000523     -0.000001      0.000387
     -1.28731      7.04895      8.66542         0.000147     -0.000013     -0.000195
      2.63845      7.05177      8.68850        -0.000088     -0.000158     -0.000254
      6.56421      7.05460      8.71158         0.000366     -0.000044      0.000378
      2.69403      3.17166      1.61263        -0.003389      0.000182     -0.000217
      6.61978      3.17449      1.63571         0.001452     -0.000286     -0.001527
     10.54554      3.17732      1.65879         0.001615     -0.000191      0.001278
      2.68393      7.09741      1.63571        -0.000492     -0.000084     -0.000096
      6.60969      7.10024      1.65879         0.000236     -0.000033     -0.000418
     10.53545      7.10307      1.68187         0.000396     -0.000138      0.000256
      2.67384     11.02315      1.65879        -0.003061     -0.000505     -0.000177
      6.59960     11.02598      1.68187         0.001294     -0.000099     -0.001389
     10.52535     11.02881      1.70494         0.001486     -0.000052      0.001216
 -----------------------------------------------------------------------------------
    total drift:                                0.000266     -0.000124     -0.000008


--------------------------------------------------------------------------------------------------------



  FREE ENERGIE OF THE ION-ELECTRON SYSTEM (eV)
  ---------------------------------------------------
  free  energy   TOTEN  =      -550.33917010 eV

  energy  without entropy=     -550.33917010  energy(sigma->0) =     -550.33917010
 


--------------------------------------------------------------------------------------------------------


    POTLOK:  cpu time    3.6964: real time    3.7162


--------------------------------------------------------------------------------------------------------


     LOOP+:  cpu time 9163.5043: real time 9327.8365
    4ORBIT:  cpu time    0.0000: real time    0.0000

 total amount of memory used by VASP MPI-rank0  1508757. kBytes
=======================================================================

   base      :      30000. kBytes
   nonl-proj :      85790. kBytes
   fftplans  :      89726. kBytes
   grid      :      70158. kBytes
   one-center:        528. kBytes
   wavefun   :    1232555. kBytes
 
  
  
 General timing and accounting informations for this job:
 ========================================================
  
                  Total CPU time used (sec):     9287.528
                            User time (sec):     9171.527
                          System time (sec):      116.001
                         Elapsed time (sec):     9454.793
  
                   Maximum memory used (kb):     1707172.
                   Average memory used (kb):           0.
  
                          Minor page faults:      1305951
                          Major page faults:           19
                 Voluntary context switches:        90076
