<?xml version="1.0" encoding="ISO-8859-1"?>
<modeling>
 <generator>
  <i name="program" type="string">vasp </i>
  <i name="version" type="string">5.4.4.18Apr17-6-g9f103f2a35  </i>
  <i name="subversion" type="string">(build Oct 25 2017 14:42:18) complex            parallel </i>
  <i name="platform" type="string">LinuxIFC </i>
  <i name="date" type="string">2021 05 28 </i>
  <i name="time" type="string">04:50:03 </i>
 </generator>
 <incar>
  <i type="string" name="PREC">accurate</i>
  <i type="string" name="ALGO"> normal</i>
  <i type="logical" name="ADDGRID"> T  </i>
  <i type="int" name="ISPIN">     2</i>
  <i type="int" name="ICHARG">     1</i>
  <i type="int" name="NELM">   200</i>
  <i type="int" name="NELMIN">     8</i>
  <i name="EDIFF">      0.00000100</i>
  <i type="int" name="ISYM">     0</i>
  <i name="ENCUT">    650.00000000</i>
  <v name="MAGMOM">      0.60000000      0.60000000      0.60000000      0.60000000      0.60000000      0.60000000      0.60000000      0.60000000      0.60000000      0.60000000      0.60000000      0.60000000      0.60000000      0.60000000      0.60000000      0.60000000      0.60000000      0.60000000      0.60000000      0.60000000
      0.60000000      0.60000000      0.60000000      0.60000000      0.60000000      0.60000000      0.60000000      0.60000000      0.60000000      0.60000000      0.60000000      0.60000000      0.60000000      0.60000000      0.60000000      0.60000000      0.60000000      0.60000000      0.60000000      0.60000000
      0.60000000      0.60000000      0.60000000      0.60000000      0.60000000      0.60000000      0.60000000      0.60000000      0.60000000      0.60000000      0.60000000      0.60000000      0.60000000      0.60000000      0.60000000      0.60000000      0.60000000      0.60000000      0.60000000      0.60000000
      0.60000000      0.60000000      0.60000000      5.00000000      5.00000000      5.00000000      5.00000000      5.00000000      5.00000000      5.00000000      5.00000000      5.00000000      5.00000000      5.00000000      5.00000000      5.00000000      5.00000000      5.00000000      5.00000000      5.00000000
      5.00000000      5.00000000      5.00000000      5.00000000      5.00000000      5.00000000      5.00000000      5.00000000      5.00000000      5.00000000      5.00000000      5.00000000      5.00000000      5.00000000      5.00000000      5.00000000      5.00000000      5.00000000      5.00000000</v>
  <i type="logical" name="LREAL"> F  </i>
  <i type="int" name="ISMEAR">     0</i>
  <i name="SIGMA">      0.05000000</i>
  <i type="int" name="NWRITE">     1</i>
  <i type="int" name="LMAXMIX">     4</i>
  <i type="logical" name="LWAVE"> F  </i>
  <i type="logical" name="LASPH"> T  </i>
  <v type="int" name="KPOINT_BSE">    -1     0     0     0</v>
  <i type="int" name="NELM">   200</i>
  <i type="string" name="GGA"> pe</i>
  <i type="logical" name="LDAU"> T  </i>
  <v type="int" name="LDAUTYPE">     2</v>
  <v type="int" name="LDAUL">    -1    -1    -1     2</v>
  <v name="LDAUU">      0.00000000      0.00000000      0.00000000      4.00000000</v>
  <v name="LDAUJ">      0.00000000      0.00000000      0.00000000      0.00000000</v>
  <i type="logical" name="LASPH"> T  </i>
 </incar>
 <structure name="primitive_cell" >
  <crystal>
   <varray name="basis" >
    <v>      11.77726974       0.00848871       0.06923316 </v>
    <v>      -0.03028248      11.77723386       0.06923316 </v>
    <v>      -2.02000231      -2.02666320      10.18574622 </v>
   </varray>
   <i name="volume">   1416.10551572 </i>
   <varray name="rec_basis" >
    <v>       0.08481023       0.00011906       0.01684296 </v>
    <v>      -0.00016014       0.08481016       0.01684296 </v>
    <v>      -0.00057537      -0.00057727       0.09794744 </v>
   </varray>
  </crystal>
  <varray name="positions" >
   <v>       0.20224939       0.24206952      -0.16816581 </v>
   <v>       0.19734517       0.40355659      -0.19686089 </v>
   <v>       0.19734517       0.07022326      -0.19686089 </v>
   <v>       0.39684232       0.26982435       0.00000000 </v>
   <v>       0.06350899       0.26982435       0.00000000 </v>
   <v>       0.37094724       0.41064640      -0.15457223 </v>
   <v>       0.03761391       0.41064640      -0.15457223 </v>
   <v>       0.03761391       0.07731307      -0.15457223 </v>
   <v>       0.37094724       0.07731307      -0.15457223 </v>
   <v>       0.00253935       0.20657296      -0.37079665 </v>
   <v>       0.33587268       0.20657296      -0.37079665 </v>
   <v>       0.16118393       0.04306059      -0.39352170 </v>
   <v>       0.16118393       0.37639393      -0.39352170 </v>
   <v>       0.25602027       0.29571943       0.15457223 </v>
   <v>       0.20224939      -0.42459715      -0.16816581 </v>
   <v>       0.20224939      -0.09126381      -0.16816581 </v>
   <v>      -0.13108394       0.24206952      -0.16816581 </v>
   <v>      -0.46441728       0.24206952      -0.16816581 </v>
   <v>       0.26311007       0.46932149       0.19686089 </v>
   <v>       0.26311007       0.13598816       0.19686089 </v>
   <v>      -0.46932149       0.40355659      -0.19686089 </v>
   <v>      -0.13598816       0.07022326      -0.19686089 </v>
   <v>      -0.13598816       0.40355659      -0.19686089 </v>
   <v>      -0.46932149       0.07022326      -0.19686089 </v>
   <v>       0.42459715       0.46441728       0.16816581 </v>
   <v>       0.42459715       0.13108394       0.16816581 </v>
   <v>       0.09126381       0.46441728       0.16816581 </v>
   <v>       0.09126381       0.13108394       0.16816581 </v>
   <v>       0.39684232      -0.39684232       0.00000000 </v>
   <v>       0.06350899      -0.39684232       0.00000000 </v>
   <v>       0.06350899      -0.06350899       0.00000000 </v>
   <v>       0.39684232      -0.06350899       0.00000000 </v>
   <v>       0.00253935      -0.46009370      -0.37079665 </v>
   <v>       0.33587268      -0.46009370      -0.37079665 </v>
   <v>       0.00253935      -0.12676037      -0.37079665 </v>
   <v>       0.29112182       0.17214940       0.39352170 </v>
   <v>       0.33587268      -0.12676037      -0.37079665 </v>
   <v>       0.49451727       0.04306059      -0.39352170 </v>
   <v>      -0.04306059       0.17214940       0.39352170 </v>
   <v>       0.49451727       0.37639393      -0.39352170 </v>
   <v>      -0.17214940       0.04306059      -0.39352170 </v>
   <v>      -0.17214940       0.37639393      -0.39352170 </v>
   <v>       0.12676037       0.33079399       0.37079665 </v>
   <v>       0.12676037      -0.00253935       0.37079665 </v>
   <v>       0.25602027      -0.37094724       0.15457223 </v>
   <v>      -0.41064640       0.29571943       0.15457223 </v>
   <v>      -0.07731307       0.29571943       0.15457223 </v>
   <v>       0.25602027      -0.03761391       0.15457223 </v>
   <v>      -0.46441728      -0.42459715      -0.16816581 </v>
   <v>      -0.13108394      -0.09126381      -0.16816581 </v>
   <v>      -0.13108394      -0.42459715      -0.16816581 </v>
   <v>      -0.46441728      -0.09126381      -0.16816581 </v>
   <v>      -0.40355659       0.46932149       0.19686089 </v>
   <v>      -0.07022326       0.13598816       0.19686089 </v>
   <v>      -0.07022326       0.46932149       0.19686089 </v>
   <v>      -0.40355659       0.13598816       0.19686089 </v>
   <v>       0.46009370       0.33079399       0.37079665 </v>
   <v>       0.19734517      -0.26311007      -0.19686089 </v>
   <v>       0.29027274      -0.49451727       0.39352170 </v>
   <v>      -0.26982435       0.26982435       0.00000000 </v>
   <v>       0.37094724      -0.25602027      -0.15457223 </v>
   <v>      -0.29571943       0.41064640      -0.15457223 </v>
   <v>       0.03761391      -0.25602027      -0.15457223 </v>
   <v>      -0.29571943       0.07731307      -0.15457223 </v>
   <v>       0.29027274      -0.16118393       0.39352170 </v>
   <v>      -0.33079399       0.20657296      -0.37079665 </v>
   <v>      -0.04306059      -0.16118393       0.39352170 </v>
   <v>       0.16118393      -0.29027274      -0.39352170 </v>
   <v>      -0.04306059      -0.49451727       0.39352170 </v>
   <v>      -0.20657296       0.33079399       0.37079665 </v>
   <v>      -0.20657296      -0.00253935       0.37079665 </v>
   <v>      -0.41064640      -0.37094724       0.15457223 </v>
   <v>       0.46009370      -0.00253935       0.37079665 </v>
   <v>      -0.07731307      -0.03761391       0.15457223 </v>
   <v>      -0.07731307      -0.37094724       0.15457223 </v>
   <v>      -0.41064640      -0.03761391       0.15457223 </v>
   <v>       0.26311007      -0.19734517       0.19686089 </v>
   <v>       0.12676037      -0.33587268       0.37079665 </v>
   <v>       0.46009370      -0.33587268       0.37079665 </v>
   <v>      -0.46932149      -0.26311007      -0.19686089 </v>
   <v>      -0.13598816      -0.26311007      -0.19686089 </v>
   <v>       0.42459715      -0.20224939       0.16816581 </v>
   <v>      -0.24206952       0.46441728       0.16816581 </v>
   <v>       0.09126381      -0.20224939       0.16816581 </v>
   <v>      -0.24206952       0.13108394       0.16816581 </v>
   <v>      -0.37639393       0.17214940       0.39352170 </v>
   <v>      -0.37639393      -0.49451727       0.39352170 </v>
   <v>      -0.26982435      -0.39684232       0.00000000 </v>
   <v>      -0.26982435      -0.06350899       0.00000000 </v>
   <v>      -0.33079399      -0.46009370      -0.37079665 </v>
   <v>      -0.33079399      -0.12676037      -0.37079665 </v>
   <v>       0.49451727      -0.29027274      -0.39352170 </v>
   <v>      -0.17214940      -0.29027274      -0.39352170 </v>
   <v>      -0.07022326      -0.19734517       0.19686089 </v>
   <v>      -0.40355659      -0.19734517       0.19686089 </v>
   <v>      -0.37639393      -0.16118393       0.39352170 </v>
   <v>      -0.29571943      -0.25602027      -0.15457223 </v>
   <v>      -0.20657296      -0.33587268       0.37079665 </v>
   <v>      -0.24206952      -0.20224939       0.16816581 </v>
  </varray>
 </structure>
 <varray name="primitive_index" >
  <v type="int" >        1 </v>
  <v type="int" >       31 </v>
  <v type="int" >       28 </v>
  <v type="int" >       56 </v>
  <v type="int" >       55 </v>
  <v type="int" >       86 </v>
  <v type="int" >       85 </v>
  <v type="int" >       82 </v>
  <v type="int" >       83 </v>
  <v type="int" >       37 </v>
  <v type="int" >       38 </v>
  <v type="int" >       73 </v>
  <v type="int" >       76 </v>
  <v type="int" >       91 </v>
  <v type="int" >        4 </v>
  <v type="int" >        7 </v>
  <v type="int" >        3 </v>
  <v type="int" >        2 </v>
  <v type="int" >       22 </v>
  <v type="int" >       19 </v>
  <v type="int" >       32 </v>
  <v type="int" >       30 </v>
  <v type="int" >       33 </v>
  <v type="int" >       29 </v>
  <v type="int" >       14 </v>
  <v type="int" >       11 </v>
  <v type="int" >       13 </v>
  <v type="int" >       10 </v>
  <v type="int" >       59 </v>
  <v type="int" >       58 </v>
  <v type="int" >       61 </v>
  <v type="int" >       62 </v>
  <v type="int" >       40 </v>
  <v type="int" >       41 </v>
  <v type="int" >       43 </v>
  <v type="int" >       64 </v>
  <v type="int" >       44 </v>
  <v type="int" >       74 </v>
  <v type="int" >       66 </v>
  <v type="int" >       77 </v>
  <v type="int" >       75 </v>
  <v type="int" >       78 </v>
  <v type="int" >       46 </v>
  <v type="int" >       52 </v>
  <v type="int" >       94 </v>
  <v type="int" >       92 </v>
  <v type="int" >       93 </v>
  <v type="int" >       97 </v>
  <v type="int" >        5 </v>
  <v type="int" >        9 </v>
  <v type="int" >        6 </v>
  <v type="int" >        8 </v>
  <v type="int" >       23 </v>
  <v type="int" >       21 </v>
  <v type="int" >       24 </v>
  <v type="int" >       20 </v>
  <v type="int" >       47 </v>
  <v type="int" >       34 </v>
  <v type="int" >       67 </v>
  <v type="int" >       57 </v>
  <v type="int" >       89 </v>
  <v type="int" >       87 </v>
  <v type="int" >       88 </v>
  <v type="int" >       84 </v>
  <v type="int" >       70 </v>
  <v type="int" >       39 </v>
  <v type="int" >       72 </v>
  <v type="int" >       79 </v>
  <v type="int" >       69 </v>
  <v type="int" >       48 </v>
  <v type="int" >       54 </v>
  <v type="int" >       95 </v>
  <v type="int" >       53 </v>
  <v type="int" >       99 </v>
  <v type="int" >       96 </v>
  <v type="int" >       98 </v>
  <v type="int" >       25 </v>
  <v type="int" >       49 </v>
  <v type="int" >       50 </v>
  <v type="int" >       35 </v>
  <v type="int" >       36 </v>
  <v type="int" >       17 </v>
  <v type="int" >       15 </v>
  <v type="int" >       16 </v>
  <v type="int" >       12 </v>
  <v type="int" >       65 </v>
  <v type="int" >       68 </v>
  <v type="int" >       60 </v>
  <v type="int" >       63 </v>
  <v type="int" >       42 </v>
  <v type="int" >       45 </v>
  <v type="int" >       80 </v>
  <v type="int" >       81 </v>
  <v type="int" >       27 </v>
  <v type="int" >       26 </v>
  <v type="int" >       71 </v>
  <v type="int" >       90 </v>
  <v type="int" >       51 </v>
  <v type="int" >       18 </v>
 </varray>
 <kpoints>
  <generation param="Gamma">
   <v type="int" name="divisions">       3        3        3 </v>
   <v name="usershift">      0.00000000       0.00000000       0.00000000 </v>
   <v name="genvec1">      0.33333333       0.00000000       0.00000000 </v>
   <v name="genvec2">      0.00000000       0.33333333       0.00000000 </v>
   <v name="genvec3">      0.00000000       0.00000000       0.33333333 </v>
   <v name="shift">      0.00000000       0.00000000       0.00000000 </v>
  </generation>
  <varray name="kpointlist" >
   <v>       0.00000000       0.00000000       0.00000000 </v>
   <v>       0.33333333      -0.00000000      -0.00000000 </v>
   <v>       0.00000000       0.33333333       0.00000000 </v>
   <v>       0.33333333       0.33333333       0.00000000 </v>
   <v>      -0.33333333       0.33333333       0.00000000 </v>
   <v>      -0.00000000      -0.00000000       0.33333333 </v>
   <v>       0.33333333      -0.00000000       0.33333333 </v>
   <v>      -0.33333333      -0.00000000       0.33333333 </v>
   <v>      -0.00000000       0.33333333       0.33333333 </v>
   <v>       0.33333333       0.33333333       0.33333333 </v>
   <v>      -0.33333333       0.33333333       0.33333333 </v>
   <v>      -0.00000000      -0.33333333       0.33333333 </v>
   <v>       0.33333333      -0.33333333       0.33333333 </v>
   <v>      -0.33333333      -0.33333333       0.33333333 </v>
  </varray>
  <varray name="weights" >
   <v>       0.03703704 </v>
   <v>       0.07407407 </v>
   <v>       0.07407407 </v>
   <v>       0.07407407 </v>
   <v>       0.07407407 </v>
   <v>       0.07407407 </v>
   <v>       0.07407407 </v>
   <v>       0.07407407 </v>
   <v>       0.07407407 </v>
   <v>       0.07407407 </v>
   <v>       0.07407407 </v>
   <v>       0.07407407 </v>
   <v>       0.07407407 </v>
   <v>       0.07407407 </v>
  </varray>
 </kpoints>
 <parameters>
  <separator name="general" >
   <i type="string" name="SYSTEM">unknown system</i>
   <i type="logical" name="LCOMPAT"> F  </i>
  </separator>
  <separator name="electronic" >
   <i type="string" name="PREC">accura</i>
   <i name="ENMAX">    650.00000000</i>
   <i name="ENAUG">    628.94500000</i>
   <i name="EDIFF">      0.00000100</i>
   <i type="int" name="IALGO">    38</i>
   <i type="int" name="IWAVPR">    10</i>
   <i type="int" name="NBANDS">   606</i>
   <i name="NELECT">    828.00000000</i>
   <i type="int" name="TURBO">     0</i>
   <i type="int" name="IRESTART">     0</i>
   <i type="int" name="NREBOOT">     0</i>
   <i type="int" name="NMIN">     0</i>
   <i name="EREF">      0.00000000</i>
   <separator name="electronic smearing" >
    <i type="int" name="ISMEAR">     0</i>
    <i name="SIGMA">      0.05000000</i>
    <i name="KSPACING">      0.50000000</i>
    <i type="logical" name="KGAMMA"> T  </i>
   </separator>
   <separator name="electronic projectors" >
    <i type="logical" name="LREAL"> F  </i>
    <v name="ROPT">      0.00000000      0.00000000      0.00000000      0.00000000</v>
    <i type="int" name="LMAXPAW">  -100</i>
    <i type="int" name="LMAXMIX">     4</i>
    <i type="logical" name="NLSPLINE"> F  </i>
   </separator>
   <separator name="electronic startup" >
    <i type="int" name="ISTART">     0</i>
    <i type="int" name="ICHARG">     1</i>
    <i type="int" name="INIWAV">     1</i>
   </separator>
   <separator name="electronic spin" >
    <i type="int" name="ISPIN">     2</i>
    <i type="logical" name="LNONCOLLINEAR"> F  </i>
    <v name="MAGMOM">      0.60000000      0.60000000      0.60000000      0.60000000      0.60000000      0.60000000      0.60000000      0.60000000      0.60000000      0.60000000      0.60000000      0.60000000      0.60000000      0.60000000      0.60000000      0.60000000      0.60000000      0.60000000      0.60000000      0.60000000
      0.60000000      0.60000000      0.60000000      0.60000000      0.60000000      0.60000000      0.60000000      0.60000000      0.60000000      0.60000000      0.60000000      0.60000000      0.60000000      0.60000000      0.60000000      0.60000000      0.60000000      0.60000000      0.60000000      0.60000000
      0.60000000      0.60000000      0.60000000      0.60000000      0.60000000      0.60000000      0.60000000      0.60000000      0.60000000      0.60000000      0.60000000      0.60000000      0.60000000      0.60000000      0.60000000      0.60000000      0.60000000      0.60000000      0.60000000      0.60000000
      0.60000000      0.60000000      0.60000000      5.00000000      5.00000000      5.00000000      5.00000000      5.00000000      5.00000000      5.00000000      5.00000000      5.00000000      5.00000000      5.00000000      5.00000000      5.00000000      5.00000000      5.00000000      5.00000000      5.00000000
      5.00000000      5.00000000      5.00000000      5.00000000      5.00000000      5.00000000      5.00000000      5.00000000      5.00000000      5.00000000      5.00000000      5.00000000      5.00000000      5.00000000      5.00000000      5.00000000      5.00000000      5.00000000      5.00000000</v>
    <i name="NUPDOWN">     -1.00000000</i>
    <i type="logical" name="LSORBIT"> F  </i>
    <v name="SAXIS">      0.00000000      0.00000000      1.00000000</v>
    <i type="logical" name="LSPIRAL"> F  </i>
    <v name="QSPIRAL">      0.00000000      0.00000000      0.00000000</v>
    <i type="logical" name="LZEROZ"> F  </i>
   </separator>
   <separator name="electronic exchange-correlation" >
    <i type="logical" name="LASPH"> T  </i>
    <i type="logical" name="LMETAGGA"> F  </i>
   </separator>
   <separator name="electronic convergence" >
    <i type="int" name="NELM">   200</i>
    <i type="int" name="NELMDL">     0</i>
    <i type="int" name="NELMIN">     8</i>
    <i name="ENINI">    650.00000000</i>
    <separator name="electronic convergence detail" >
     <i type="logical" name="LDIAG"> T  </i>
     <i type="logical" name="LSUBROT"> F  </i>
     <i name="WEIMIN">      0.00000000</i>
     <i name="EBREAK">      0.00000000</i>
     <i name="DEPER">      0.30000000</i>
     <i type="int" name="NRMM">     4</i>
     <i name="TIME">      0.40000000</i>
    </separator>
   </separator>
   <separator name="electronic mixer" >
    <i name="AMIX">      0.40000000</i>
    <i name="BMIX">      1.00000000</i>
    <i name="AMIN">      0.10000000</i>
    <i name="AMIX_MAG">      1.60000000</i>
    <i name="BMIX_MAG">      1.00000000</i>
    <separator name="electronic mixer details" >
     <i type="int" name="IMIX">     4</i>
     <i type="logical" name="MIXFIRST"> F  </i>
     <i type="int" name="MAXMIX">   -45</i>
     <i name="WC">    100.00000000</i>
     <i type="int" name="INIMIX">     1</i>
     <i type="int" name="MIXPRE">     1</i>
     <i type="int" name="MREMOVE">     5</i>
    </separator>
   </separator>
   <separator name="electronic dipolcorrection" >
    <i type="logical" name="LDIPOL"> F  </i>
    <i type="logical" name="LMONO"> F  </i>
    <i type="int" name="IDIPOL">     0</i>
    <i name="EPSILON">      1.00000000</i>
    <v name="DIPOL">   -100.00000000   -100.00000000   -100.00000000</v>
    <i name="EFIELD">      0.00000000</i>
   </separator>
  </separator>
  <separator name="grids" >
   <i type="int" name="NGX">    98</i>
   <i type="int" name="NGY">    98</i>
   <i type="int" name="NGZ">    90</i>
   <i type="int" name="NGXF">   196</i>
   <i type="int" name="NGYF">   196</i>
   <i type="int" name="NGZF">   180</i>
   <i type="logical" name="ADDGRID"> T  </i>
  </separator>
  <separator name="ionic" >
   <i type="int" name="NSW">     0</i>
   <i type="int" name="IBRION">    -1</i>
   <i type="int" name="MDALGO">     0</i>
   <i type="int" name="ISIF">     2</i>
   <i name="PSTRESS">      0.00000000</i>
   <i name="EDIFFG">      0.00001000</i>
   <i type="int" name="NFREE">     0</i>
   <i name="POTIM">      0.50000000</i>
   <i name="SMASS">     -3.00000000</i>
   <i name="SCALEE">      1.00000000</i>
  </separator>
  <separator name="ionic md" >
   <i name="TEBEG">      0.00010000</i>
   <i name="TEEND">      0.00010000</i>
   <i type="int" name="NBLOCK">     1</i>
   <i type="int" name="KBLOCK">     1</i>
   <i type="int" name="NPACO">   256</i>
   <i name="APACO">     16.00000000</i>
  </separator>
  <separator name="symmetry" >
   <i type="int" name="ISYM">     0</i>
   <i name="SYMPREC">      0.00001000</i>
  </separator>
  <separator name="dos" >
   <i type="int" name="LORBIT">     0</i>
   <v name="RWIGS">     -1.00000000     -1.00000000     -1.00000000     -1.00000000</v>
   <i type="int" name="NEDOS">   301</i>
   <i name="EMIN">     10.00000000</i>
   <i name="EMAX">    -10.00000000</i>
   <i name="EFERMI">      0.00000000</i>
  </separator>
  <separator name="writing" >
   <i type="int" name="NWRITE">     1</i>
   <i type="logical" name="LWAVE"> F  </i>
   <i type="logical" name="LDOWNSAMPLE"> F  </i>
   <i type="logical" name="LCHARG"> T  </i>
   <i type="logical" name="LPARD"> F  </i>
   <i type="logical" name="LVTOT"> F  </i>
   <i type="logical" name="LVHAR"> F  </i>
   <i type="logical" name="LELF"> F  </i>
   <i type="logical" name="LOPTICS"> F  </i>
   <v name="STM">      0.00000000      0.00000000      0.00000000      0.00000000      0.00000000      0.00000000      0.00000000</v>
  </separator>
  <separator name="performance" >
   <i type="int" name="NPAR">     2</i>
   <i type="int" name="NSIM">     4</i>
   <i type="int" name="NBLK">    -1</i>
   <i type="logical" name="LPLANE"> T  </i>
   <i type="logical" name="LSCALAPACK"> T  </i>
   <i type="logical" name="LSCAAWARE"> F  </i>
   <i type="logical" name="LSCALU"> F  </i>
   <i type="logical" name="LASYNC"> F  </i>
   <i type="logical" name="LORBITALREAL"> F  </i>
  </separator>
  <separator name="miscellaneous" >
   <i type="int" name="IDIOT">     3</i>
   <i type="int" name="ISPECIAL">     0</i>
   <i type="logical" name="LMUSIC"> F  </i>
   <v name="POMASS">      7.01000000     16.00000000     32.06600000     55.84700000</v>
   <v name="DARWINR">      0.00000000      0.00000000      0.00000000      0.00000000</v>
   <v name="DARWINV">      1.00000000      1.00000000      1.00000000      1.00000000</v>
   <i type="logical" name="LCORR"> T  </i>
  </separator>
  <i type="logical" name="GGA_COMPAT"> T  </i>
  <i type="logical" name="LBERRY"> F  </i>
  <i type="int" name="ICORELEVEL">     0</i>
  <i type="logical" name="LDAU"> T  </i>
  <v type="int" name="LDAUTYPE">     2</v>
  <v type="int" name="LDAUL">    -1</v>
  <v name="LDAUU">      0.00000000</v>
  <v name="LDAUJ">      0.00000000</v>
  <i type="int" name="LDAUPRINT">     0</i>
  <i type="int" name="I_CONSTRAINED_M">     0</i>
  <separator name="electronic exchange-correlation" >
   <i type="string" name="GGA">PE</i>
   <i type="int" name="VOSKOWN">     0</i>
   <i type="logical" name="LHFCALC"> F  </i>
   <i type="string" name="PRECFOCK"></i>
   <i type="logical" name="LSYMGRAD"> F  </i>
   <i type="logical" name="LHFONE"> F  </i>
   <i type="logical" name="LRHFCALC"> F  </i>
   <i type="logical" name="LTHOMAS"> F  </i>
   <i type="logical" name="LMODELHF"> F  </i>
   <i name="ENCUT4O">     -1.00000000</i>
   <i type="int" name="EXXOEP">     0</i>
   <i type="int" name="FOURORBIT">     0</i>
   <i name="AEXX">      0.00000000</i>
   <i name="HFALPHA">      0.00000000</i>
   <i name="MCALPHA">      0.00000000</i>
   <i name="ALDAX">      1.00000000</i>
   <i name="AGGAX">      1.00000000</i>
   <i name="ALDAC">      1.00000000</i>
   <i name="AGGAC">      1.00000000</i>
   <i type="int" name="NKREDX">     1</i>
   <i type="int" name="NKREDY">     1</i>
   <i type="int" name="NKREDZ">     1</i>
   <i type="logical" name="SHIFTRED"> F  </i>
   <i type="logical" name="ODDONLY"> F  </i>
   <i type="logical" name="EVENONLY"> F  </i>
   <i type="int" name="LMAXFOCK">     0</i>
   <i type="int" name="NMAXFOCKAE">     0</i>
   <i type="logical" name="LFOCKAEDFT"> F  </i>
   <i name="HFSCREEN">      0.00000000</i>
   <i name="HFSCREENC">      0.00000000</i>
   <i type="int" name="NBANDSGWLOW">     0</i>
  </separator>
  <separator name="vdW DFT" >
   <i type="logical" name="LUSE_VDW"> F  </i>
   <i name="Zab_VDW">     -0.84910000</i>
   <i name="PARAM1">      0.12340000</i>
   <i name="PARAM2">      1.00000000</i>
   <i name="PARAM3">      0.00000000</i>
  </separator>
  <separator name="model GW" >
   <i type="int" name="MODEL_GW">     0</i>
   <i name="MODEL_EPS0">      8.58245767</i>
   <i name="MODEL_ALPHA">      1.00000000</i>
  </separator>
  <separator name="linear response parameters" >
   <i type="logical" name="LEPSILON"> F  </i>
   <i type="logical" name="LRPA"> F  </i>
   <i type="logical" name="LNABLA"> F  </i>
   <i type="logical" name="LVEL"> F  </i>
   <i type="int" name="KINTER">     0</i>
   <i name="CSHIFT">      0.10000000</i>
   <i name="OMEGAMAX">     -1.00000000</i>
   <i name="DEG_THRESHOLD">      0.00200000</i>
   <i name="RTIME">     -0.10000000</i>
   <i name="WPLASMAI">      0.00000000</i>
   <v name="DFIELD">      0.00000000      0.00000000      0.00000000</v>
   <v name="WPLASMA">      0.00000000      0.00000000      0.00000000      0.00000000      0.00000000      0.00000000      0.00000000      0.00000000      0.00000000</v>
  </separator>
  <separator name="orbital magnetization" >
   <i type="logical" name="NUCIND"> F  </i>
   <v name="MAGPOS">      0.00000000      0.00000000      0.00000000</v>
   <i type="logical" name="LNICSALL"> T  </i>
   <i type="logical" name="ORBITALMAG"> F  </i>
   <i type="logical" name="LMAGBLOCH"> F  </i>
   <i type="logical" name="LCHIMAG"> F  </i>
   <i type="logical" name="LGAUGE"> T  </i>
   <i type="int" name="MAGATOM">     0</i>
   <v name="MAGDIPOL">      0.00000000      0.00000000      0.00000000</v>
   <v name="AVECCONST">      0.00000000      0.00000000      0.00000000</v>
  </separator>
  <separator name="response functions" >
   <i type="logical" name="LADDER"> F  </i>
   <i type="logical" name="LRPAFORCE"> F  </i>
   <i type="logical" name="LFXC"> F  </i>
   <i type="logical" name="LHARTREE"> T  </i>
   <i type="int" name="IBSE">     0</i>
   <v type="int" name="KPOINT">    -1     0     0     0</v>
   <i type="logical" name="LTCTE"> F  </i>
   <i type="logical" name="LTETE"> F  </i>
   <i type="logical" name="LTRIPLET"> F  </i>
   <i type="logical" name="LFXCEPS"> F  </i>
   <i type="logical" name="LFXHEG"> F  </i>
   <i type="int" name="NATURALO">     2</i>
   <i type="logical" name="L2ORDER"> F  </i>
   <i type="logical" name="LMP2LT"> F  </i>
   <i type="logical" name="LUSEW"> F  </i>
   <i name="ENCUTGW">     -2.00000000</i>
   <i name="ENCUTGWSOFT">     -2.00000000</i>
   <i name="ENCUTLF">     -1.00000000</i>
   <i type="int" name="LMAXMP2">    -1</i>
   <i name="SCISSOR">      0.00000000</i>
   <i type="int" name="NOMEGA">     0</i>
   <i type="int" name="NOMEGAR">     0</i>
   <i type="int" name="NBANDSGW">    -1</i>
   <i type="int" name="NBANDSO">    -1</i>
   <i type="int" name="NBANDSV">    -1</i>
   <i type="int" name="NELM">   200</i>
   <i type="int" name="NELMHF">     1</i>
   <i type="int" name="DIM">     3</i>
   <i type="int" name="ANTIRES">     0</i>
   <i name="OMEGAMAX">    -30.00000000</i>
   <i name="OMEGAMIN">    -30.00000000</i>
   <i name="OMEGATL">   -200.00000000</i>
   <i type="int" name="OMEGAGRID">   140</i>
   <i name="CSHIFT">     -0.10000000</i>
   <i type="logical" name="SELFENERGY"> F  </i>
   <i type="logical" name="LSPECTRAL"> F  </i>
   <i type="logical" name="LSPECTRALGW"> F  </i>
   <i type="logical" name="LSINGLES"> F  </i>
   <i type="logical" name="LFERMIGW"> F  </i>
   <i type="logical" name="ODDONLYGW"> F  </i>
   <i type="logical" name="EVENONLYGW"> F  </i>
   <i type="int" name="NKREDLFX">     1</i>
   <i type="int" name="NKREDLFY">     1</i>
   <i type="int" name="NKREDLFZ">     1</i>
   <i type="int" name="MAXMEM">  2800</i>
   <i type="int" name="TELESCOPE">     0</i>
   <i type="int" name="TAUPAR">     1</i>
   <i type="int" name="OMEGAPAR">    -1</i>
   <i name="LAMBDA">      1.00000000</i>
  </separator>
  <separator name="External order field" >
   <i name="OFIELD_KAPPA">      0.00000000</i>
   <v name="OFIELD_K">      0.00000000      0.00000000      0.00000000</v>
   <i name="OFIELD_Q6_NEAR">      0.00000000</i>
   <i name="OFIELD_Q6_FAR">      0.00000000</i>
   <i name="OFIELD_A">      0.00000000</i>
  </separator>
 </parameters>
 <atominfo>
  <atoms>      99 </atoms>
  <types>       4 </types>
  <array name="atoms" >
   <dimension dim="1">ion</dimension>
   <field type="string">element</field>
   <field type="int">atomtype</field>
   <set>
    <rc><c>Li</c><c>   1</c></rc>
    <rc><c>Li</c><c>   1</c></rc>
    <rc><c>Li</c><c>   1</c></rc>
    <rc><c>Li</c><c>   1</c></rc>
    <rc><c>Li</c><c>   1</c></rc>
    <rc><c>Li</c><c>   1</c></rc>
    <rc><c>Li</c><c>   1</c></rc>
    <rc><c>Li</c><c>   1</c></rc>
    <rc><c>Li</c><c>   1</c></rc>
    <rc><c>Li</c><c>   1</c></rc>
    <rc><c>Li</c><c>   1</c></rc>
    <rc><c>Li</c><c>   1</c></rc>
    <rc><c>Li</c><c>   1</c></rc>
    <rc><c>Li</c><c>   1</c></rc>
    <rc><c>Li</c><c>   1</c></rc>
    <rc><c>Li</c><c>   1</c></rc>
    <rc><c>Li</c><c>   1</c></rc>
    <rc><c>Li</c><c>   1</c></rc>
    <rc><c>O </c><c>   2</c></rc>
    <rc><c>O </c><c>   2</c></rc>
    <rc><c>O </c><c>   2</c></rc>
    <rc><c>O </c><c>   2</c></rc>
    <rc><c>O </c><c>   2</c></rc>
    <rc><c>O </c><c>   2</c></rc>
    <rc><c>O </c><c>   2</c></rc>
    <rc><c>O </c><c>   2</c></rc>
    <rc><c>O </c><c>   2</c></rc>
    <rc><c>O </c><c>   2</c></rc>
    <rc><c>O </c><c>   2</c></rc>
    <rc><c>O </c><c>   2</c></rc>
    <rc><c>O </c><c>   2</c></rc>
    <rc><c>O </c><c>   2</c></rc>
    <rc><c>O </c><c>   2</c></rc>
    <rc><c>O </c><c>   2</c></rc>
    <rc><c>O </c><c>   2</c></rc>
    <rc><c>O </c><c>   2</c></rc>
    <rc><c>S </c><c>   3</c></rc>
    <rc><c>S </c><c>   3</c></rc>
    <rc><c>S </c><c>   3</c></rc>
    <rc><c>S </c><c>   3</c></rc>
    <rc><c>S </c><c>   3</c></rc>
    <rc><c>S </c><c>   3</c></rc>
    <rc><c>S </c><c>   3</c></rc>
    <rc><c>S </c><c>   3</c></rc>
    <rc><c>S </c><c>   3</c></rc>
    <rc><c>S </c><c>   3</c></rc>
    <rc><c>S </c><c>   3</c></rc>
    <rc><c>S </c><c>   3</c></rc>
    <rc><c>S </c><c>   3</c></rc>
    <rc><c>S </c><c>   3</c></rc>
    <rc><c>S </c><c>   3</c></rc>
    <rc><c>S </c><c>   3</c></rc>
    <rc><c>S </c><c>   3</c></rc>
    <rc><c>S </c><c>   3</c></rc>
    <rc><c>S </c><c>   3</c></rc>
    <rc><c>S </c><c>   3</c></rc>
    <rc><c>S </c><c>   3</c></rc>
    <rc><c>S </c><c>   3</c></rc>
    <rc><c>S </c><c>   3</c></rc>
    <rc><c>S </c><c>   3</c></rc>
    <rc><c>S </c><c>   3</c></rc>
    <rc><c>S </c><c>   3</c></rc>
    <rc><c>S </c><c>   3</c></rc>
    <rc><c>Fe</c><c>   4</c></rc>
    <rc><c>Fe</c><c>   4</c></rc>
    <rc><c>Fe</c><c>   4</c></rc>
    <rc><c>Fe</c><c>   4</c></rc>
    <rc><c>Fe</c><c>   4</c></rc>
    <rc><c>Fe</c><c>   4</c></rc>
    <rc><c>Fe</c><c>   4</c></rc>
    <rc><c>Fe</c><c>   4</c></rc>
    <rc><c>Fe</c><c>   4</c></rc>
    <rc><c>Fe</c><c>   4</c></rc>
    <rc><c>Fe</c><c>   4</c></rc>
    <rc><c>Fe</c><c>   4</c></rc>
    <rc><c>Fe</c><c>   4</c></rc>
    <rc><c>Fe</c><c>   4</c></rc>
    <rc><c>Fe</c><c>   4</c></rc>
    <rc><c>Fe</c><c>   4</c></rc>
    <rc><c>Fe</c><c>   4</c></rc>
    <rc><c>Fe</c><c>   4</c></rc>
    <rc><c>Fe</c><c>   4</c></rc>
    <rc><c>Fe</c><c>   4</c></rc>
    <rc><c>Fe</c><c>   4</c></rc>
    <rc><c>Fe</c><c>   4</c></rc>
    <rc><c>Fe</c><c>   4</c></rc>
    <rc><c>Fe</c><c>   4</c></rc>
    <rc><c>Fe</c><c>   4</c></rc>
    <rc><c>Fe</c><c>   4</c></rc>
    <rc><c>Fe</c><c>   4</c></rc>
    <rc><c>Fe</c><c>   4</c></rc>
    <rc><c>Fe</c><c>   4</c></rc>
    <rc><c>Fe</c><c>   4</c></rc>
    <rc><c>Fe</c><c>   4</c></rc>
    <rc><c>Fe</c><c>   4</c></rc>
    <rc><c>Fe</c><c>   4</c></rc>
    <rc><c>Fe</c><c>   4</c></rc>
    <rc><c>Fe</c><c>   4</c></rc>
    <rc><c>Fe</c><c>   4</c></rc>
   </set>
  </array>
  <array name="atomtypes" >
   <dimension dim="1">type</dimension>
   <field type="int">atomspertype</field>
   <field type="string">element</field>
   <field>mass</field>
   <field>valence</field>
   <field type="string">pseudopotential</field>
   <set>
    <rc><c>  18</c><c>Li</c><c>      7.01000000</c><c>      3.00000000</c><c>  PAW_PBE Li_sv 10Sep2004               </c></rc>
    <rc><c>  18</c><c>O </c><c>     16.00000000</c><c>      6.00000000</c><c>  PAW_PBE O 08Apr2002                   </c></rc>
    <rc><c>  27</c><c>S </c><c>     32.06600000</c><c>      6.00000000</c><c>  PAW_PBE S 06Sep2000                   </c></rc>
    <rc><c>  36</c><c>Fe</c><c>     55.84700000</c><c>     14.00000000</c><c>  PAW_PBE Fe_pv 02Aug2007               </c></rc>
   </set>
  </array>
 </atominfo>
 <structure name="initialpos" >
  <crystal>
   <varray name="basis" >
    <v>      11.77726974       0.00848871       0.06923316 </v>
    <v>      -0.03028248      11.77723386       0.06923316 </v>
    <v>      -2.02000231      -2.02666320      10.18574622 </v>
   </varray>
   <i name="volume">   1416.10551572 </i>
   <varray name="rec_basis" >
    <v>       0.08481023       0.00011906       0.01684296 </v>
    <v>      -0.00016014       0.08481016       0.01684296 </v>
    <v>      -0.00057537      -0.00057727       0.09794744 </v>
   </varray>
  </crystal>
  <varray name="positions" >
   <v>       0.20224939       0.24206952       0.83183419 </v>
   <v>       0.53558272       0.24206952       0.83183419 </v>
   <v>       0.86891606       0.24206952       0.83183419 </v>
   <v>       0.20224939       0.57540285       0.83183419 </v>
   <v>       0.53558272       0.57540285       0.83183419 </v>
   <v>       0.86891606       0.57540285       0.83183419 </v>
   <v>       0.20224939       0.90873619       0.83183419 </v>
   <v>       0.53558272       0.90873619       0.83183419 </v>
   <v>       0.86891606       0.90873619       0.83183419 </v>
   <v>       0.09126381       0.13108394       0.16816581 </v>
   <v>       0.42459715       0.13108394       0.16816581 </v>
   <v>       0.75793048       0.13108394       0.16816581 </v>
   <v>       0.09126381       0.46441728       0.16816581 </v>
   <v>       0.42459715       0.46441728       0.16816581 </v>
   <v>       0.75793048       0.46441728       0.16816581 </v>
   <v>       0.09126381       0.79775061       0.16816581 </v>
   <v>       0.42459715       0.79775061       0.16816581 </v>
   <v>       0.75793048       0.79775061       0.16816581 </v>
   <v>       0.26311007       0.13598816       0.19686089 </v>
   <v>       0.59644341       0.13598816       0.19686089 </v>
   <v>       0.92977674       0.13598816       0.19686089 </v>
   <v>       0.26311007       0.46932149       0.19686089 </v>
   <v>       0.59644341       0.46932149       0.19686089 </v>
   <v>       0.92977674       0.46932149       0.19686089 </v>
   <v>       0.26311007       0.80265483       0.19686089 </v>
   <v>       0.59644341       0.80265483       0.19686089 </v>
   <v>       0.92977674       0.80265483       0.19686089 </v>
   <v>       0.19734517       0.07022326       0.80313911 </v>
   <v>       0.53067851       0.07022326       0.80313911 </v>
   <v>       0.86401184       0.07022326       0.80313911 </v>
   <v>       0.19734517       0.40355659       0.80313911 </v>
   <v>       0.53067851       0.40355659       0.80313911 </v>
   <v>       0.86401184       0.40355659       0.80313911 </v>
   <v>       0.19734517       0.73688993       0.80313911 </v>
   <v>       0.53067851       0.73688993       0.80313911 </v>
   <v>       0.86401184       0.73688993       0.80313911 </v>
   <v>       0.00253935       0.20657296       0.62920335 </v>
   <v>       0.33587268       0.20657296       0.62920335 </v>
   <v>       0.66920601       0.20657296       0.62920335 </v>
   <v>       0.00253935       0.53990630       0.62920335 </v>
   <v>       0.33587268       0.53990630       0.62920335 </v>
   <v>       0.66920601       0.53990630       0.62920335 </v>
   <v>       0.00253935       0.87323963       0.62920335 </v>
   <v>       0.33587268       0.87323963       0.62920335 </v>
   <v>       0.66920601       0.87323963       0.62920335 </v>
   <v>       0.12676037       0.33079399       0.37079665 </v>
   <v>       0.46009370       0.33079399       0.37079665 </v>
   <v>       0.79342704       0.33079399       0.37079665 </v>
   <v>       0.12676037       0.66412732       0.37079665 </v>
   <v>       0.46009370       0.66412732       0.37079665 </v>
   <v>       0.79342704       0.66412732       0.37079665 </v>
   <v>       0.12676037       0.99746065       0.37079665 </v>
   <v>       0.46009370       0.99746065       0.37079665 </v>
   <v>       0.79342704       0.99746065       0.37079665 </v>
   <v>       0.06350899       0.26982435       0.00000000 </v>
   <v>       0.39684232       0.26982435       0.00000000 </v>
   <v>       0.73017565       0.26982435       0.00000000 </v>
   <v>       0.06350899       0.60315768       0.00000000 </v>
   <v>       0.39684232       0.60315768       0.00000000 </v>
   <v>       0.73017565       0.60315768       0.00000000 </v>
   <v>       0.06350899       0.93649101       0.00000000 </v>
   <v>       0.39684232       0.93649101       0.00000000 </v>
   <v>       0.73017565       0.93649101       0.00000000 </v>
   <v>       0.29112182       0.17214940       0.39352170 </v>
   <v>       0.62360607       0.17214940       0.39352170 </v>
   <v>       0.95693941       0.17214940       0.39352170 </v>
   <v>       0.29027274       0.50548273       0.39352170 </v>
   <v>       0.62360607       0.50548273       0.39352170 </v>
   <v>       0.95693941       0.50548273       0.39352170 </v>
   <v>       0.29027274       0.83881607       0.39352170 </v>
   <v>       0.62360607       0.83881607       0.39352170 </v>
   <v>       0.95693941       0.83881607       0.39352170 </v>
   <v>       0.16118393       0.04306059       0.60647830 </v>
   <v>       0.49451727       0.04306059       0.60647830 </v>
   <v>       0.82785060       0.04306059       0.60647830 </v>
   <v>       0.16118393       0.37639393       0.60647830 </v>
   <v>       0.49451727       0.37639393       0.60647830 </v>
   <v>       0.82785060       0.37639393       0.60647830 </v>
   <v>       0.16118393       0.70972726       0.60647830 </v>
   <v>       0.49451727       0.70972726       0.60647830 </v>
   <v>       0.82785060       0.70972726       0.60647830 </v>
   <v>       0.03761391       0.07731307       0.84542777 </v>
   <v>       0.37094724       0.07731307       0.84542777 </v>
   <v>       0.70428057       0.07731307       0.84542777 </v>
   <v>       0.03761391       0.41064640       0.84542777 </v>
   <v>       0.37094724       0.41064640       0.84542777 </v>
   <v>       0.70428057       0.41064640       0.84542777 </v>
   <v>       0.03761391       0.74397973       0.84542777 </v>
   <v>       0.37094724       0.74397973       0.84542777 </v>
   <v>       0.70428057       0.74397973       0.84542777 </v>
   <v>       0.25602027       0.29571943       0.15457223 </v>
   <v>       0.58935360       0.29571943       0.15457223 </v>
   <v>       0.92268693       0.29571943       0.15457223 </v>
   <v>       0.25602027       0.62905276       0.15457223 </v>
   <v>       0.58935360       0.62905276       0.15457223 </v>
   <v>       0.92268693       0.62905276       0.15457223 </v>
   <v>       0.25602027       0.96238609       0.15457223 </v>
   <v>       0.58935360       0.96238609       0.15457223 </v>
   <v>       0.92268693       0.96238609       0.15457223 </v>
  </varray>
 </structure>
 <calculation>
  <scstep>
   <time name="dav">  438.59  446.84</time>
   <time name="total">  442.31  450.60</time>
   <energy>
    <i name="alphaZ">   2606.24521607 </i>
    <i name="ewald"> -65007.72971554 </i>
    <i name="hartreedc"> -34081.88798735 </i>
    <i name="XCdc">   3632.83692349 </i>
    <i name="pawpsdc"> 104149.30743192 </i>
    <i name="pawaedc">-107360.85880398 </i>
    <i name="eentropy">     -0.01816003 </i>
    <i name="bandstr">    394.12367564 </i>
    <i name="atom"> 107373.91467324 </i>
    <i name="e_fr_energy">  11705.93325347 </i>
    <i name="e_wo_entrp">  11705.95141350 </i>
    <i name="e_0_energy">  11705.94233348 </i>
   </energy>
  </scstep>
  <scstep>
   <time name="dav">  431.15  439.17</time>
   <time name="total">  431.16  439.18</time>
   <energy>
    <i name="e_fr_energy">   1328.70635413 </i>
    <i name="e_wo_entrp">   1328.77346951 </i>
    <i name="e_0_energy">   1328.73991182 </i>
   </energy>
  </scstep>
  <scstep>
   <time name="dav">  454.72  463.39</time>
   <time name="total">  454.72  463.40</time>
   <energy>
    <i name="e_fr_energy">   -345.61016247 </i>
    <i name="e_wo_entrp">   -345.61016247 </i>
    <i name="e_0_energy">   -345.61016247 </i>
   </energy>
  </scstep>
  <scstep>
   <time name="dav">  487.47  496.51</time>
   <time name="total">  487.47  496.52</time>
   <energy>
    <i name="e_fr_energy">   -535.87742280 </i>
    <i name="e_wo_entrp">   -535.87742280 </i>
    <i name="e_0_energy">   -535.87742280 </i>
   </energy>
  </scstep>
  <scstep>
   <time name="dav">  638.00  649.22</time>
   <time name="total">  649.95  661.54</time>
   <energy>
    <i name="e_fr_energy">   -549.78889875 </i>
    <i name="e_wo_entrp">   -549.78889875 </i>
    <i name="e_0_energy">   -549.78889875 </i>
   </energy>
  </scstep>
  <scstep>
   <time name="dav">  571.95  582.68</time>
   <time name="total">  587.72  598.74</time>
   <energy>
    <i name="e_fr_energy">   -550.32206157 </i>
    <i name="e_wo_entrp">   -550.32206157 </i>
    <i name="e_0_energy">   -550.32206157 </i>
   </energy>
  </scstep>
  <scstep>
   <time name="dav">  596.91  607.24</time>
   <time name="total">  612.63  623.31</time>
   <energy>
    <i name="e_fr_energy">   -550.34127859 </i>
    <i name="e_wo_entrp">   -550.34127859 </i>
    <i name="e_0_energy">   -550.34127859 </i>
   </energy>
  </scstep>
  <scstep>
   <time name="dav">  575.52  586.24</time>
   <time name="total">  591.29  602.96</time>
   <energy>
    <i name="e_fr_energy">   -550.34082953 </i>
    <i name="e_wo_entrp">   -550.34082953 </i>
    <i name="e_0_energy">   -550.34082953 </i>
   </energy>
  </scstep>
  <scstep>
   <time name="dav">  635.25  646.23</time>
   <time name="total">  650.98  662.16</time>
   <energy>
    <i name="e_fr_energy">   -550.34019369 </i>
    <i name="e_wo_entrp">   -550.34019369 </i>
    <i name="e_0_energy">   -550.34019369 </i>
   </energy>
  </scstep>
  <scstep>
   <time name="dav">  634.37  645.53</time>
   <time name="total">  650.05  661.42</time>
   <energy>
    <i name="e_fr_energy">   -550.33910622 </i>
    <i name="e_wo_entrp">   -550.33910622 </i>
    <i name="e_0_energy">   -550.33910622 </i>
   </energy>
  </scstep>
  <scstep>
   <time name="dav">  519.49  529.47</time>
   <time name="total">  535.19  545.47</time>
   <energy>
    <i name="e_fr_energy">   -550.33918766 </i>
    <i name="e_wo_entrp">   -550.33918766 </i>
    <i name="e_0_energy">   -550.33918766 </i>
   </energy>
  </scstep>
  <scstep>
   <time name="dav">  556.98  567.29</time>
   <time name="total">  572.67  583.08</time>
   <energy>
    <i name="e_fr_energy">   -550.33918218 </i>
    <i name="e_wo_entrp">   -550.33918218 </i>
    <i name="e_0_energy">   -550.33918218 </i>
   </energy>
  </scstep>
  <scstep>
   <time name="dav">  484.90  493.07</time>
   <time name="total">  500.62  509.10</time>
   <energy>
    <i name="e_fr_energy">   -550.33916586 </i>
    <i name="e_wo_entrp">   -550.33916586 </i>
    <i name="e_0_energy">   -550.33916586 </i>
   </energy>
  </scstep>
  <scstep>
   <time name="dav">  450.56  459.01</time>
   <time name="total">  466.23  474.98</time>
   <energy>
    <i name="e_fr_energy">   -550.33917242 </i>
    <i name="e_wo_entrp">   -550.33917242 </i>
    <i name="e_0_energy">   -550.33917242 </i>
   </energy>
  </scstep>
  <scstep>
   <time name="dav">  438.01  445.81</time>
   <time name="total">  453.63  461.67</time>
   <energy>
    <i name="e_fr_energy">   -550.33917013 </i>
    <i name="e_wo_entrp">   -550.33917013 </i>
    <i name="e_0_energy">   -550.33917013 </i>
   </energy>
  </scstep>
  <scstep>
   <time name="dav">  321.20  327.22</time>
   <time name="total">  324.88  330.92</time>
   <energy>
    <i name="alphaZ">   2606.24521607 </i>
    <i name="ewald"> -65007.72971554 </i>
    <i name="hartreedc"> -34081.88305335 </i>
    <i name="XCdc">   3632.83722806 </i>
    <i name="pawpsdc"> 104148.54594392 </i>
    <i name="pawaedc">-107360.09259767 </i>
    <i name="eentropy">     -0.00000000 </i>
    <i name="bandstr"> -11862.17686484 </i>
    <i name="atom"> 107373.91467324 </i>
    <i name="e_fr_energy">   -550.33917010 </i>
    <i name="e_wo_entrp">   -550.33917010 </i>
    <i name="e_0_energy">   -550.33917010 </i>
   </energy>
  </scstep>
  <structure>
   <crystal>
    <varray name="basis" >
     <v>      11.77726974       0.00848871       0.06923316 </v>
     <v>      -0.03028248      11.77723386       0.06923316 </v>
     <v>      -2.02000231      -2.02666320      10.18574622 </v>
    </varray>
    <i name="volume">   1416.10551572 </i>
    <varray name="rec_basis" >
     <v>       0.08481023       0.00011906       0.01684296 </v>
     <v>      -0.00016014       0.08481016       0.01684296 </v>
     <v>      -0.00057537      -0.00057727       0.09794744 </v>
    </varray>
   </crystal>
   <varray name="positions" >
    <v>       0.20224939       0.24206952       0.83183419 </v>
    <v>       0.53558272       0.24206952       0.83183419 </v>
    <v>       0.86891606       0.24206952       0.83183419 </v>
    <v>       0.20224939       0.57540285       0.83183419 </v>
    <v>       0.53558272       0.57540285       0.83183419 </v>
    <v>       0.86891606       0.57540285       0.83183419 </v>
    <v>       0.20224939       0.90873619       0.83183419 </v>
    <v>       0.53558272       0.90873619       0.83183419 </v>
    <v>       0.86891606       0.90873619       0.83183419 </v>
    <v>       0.09126381       0.13108394       0.16816581 </v>
    <v>       0.42459715       0.13108394       0.16816581 </v>
    <v>       0.75793048       0.13108394       0.16816581 </v>
    <v>       0.09126381       0.46441728       0.16816581 </v>
    <v>       0.42459715       0.46441728       0.16816581 </v>
    <v>       0.75793048       0.46441728       0.16816581 </v>
    <v>       0.09126381       0.79775061       0.16816581 </v>
    <v>       0.42459715       0.79775061       0.16816581 </v>
    <v>       0.75793048       0.79775061       0.16816581 </v>
    <v>       0.26311007       0.13598816       0.19686089 </v>
    <v>       0.59644341       0.13598816       0.19686089 </v>
    <v>       0.92977674       0.13598816       0.19686089 </v>
    <v>       0.26311007       0.46932149       0.19686089 </v>
    <v>       0.59644341       0.46932149       0.19686089 </v>
    <v>       0.92977674       0.46932149       0.19686089 </v>
    <v>       0.26311007       0.80265483       0.19686089 </v>
    <v>       0.59644341       0.80265483       0.19686089 </v>
    <v>       0.92977674       0.80265483       0.19686089 </v>
    <v>       0.19734517       0.07022326       0.80313911 </v>
    <v>       0.53067851       0.07022326       0.80313911 </v>
    <v>       0.86401184       0.07022326       0.80313911 </v>
    <v>       0.19734517       0.40355659       0.80313911 </v>
    <v>       0.53067851       0.40355659       0.80313911 </v>
    <v>       0.86401184       0.40355659       0.80313911 </v>
    <v>       0.19734517       0.73688993       0.80313911 </v>
    <v>       0.53067851       0.73688993       0.80313911 </v>
    <v>       0.86401184       0.73688993       0.80313911 </v>
    <v>       0.00253935       0.20657296       0.62920335 </v>
    <v>       0.33587268       0.20657296       0.62920335 </v>
    <v>       0.66920601       0.20657296       0.62920335 </v>
    <v>       0.00253935       0.53990630       0.62920335 </v>
    <v>       0.33587268       0.53990630       0.62920335 </v>
    <v>       0.66920601       0.53990630       0.62920335 </v>
    <v>       0.00253935       0.87323963       0.62920335 </v>
    <v>       0.33587268       0.87323963       0.62920335 </v>
    <v>       0.66920601       0.87323963       0.62920335 </v>
    <v>       0.12676037       0.33079399       0.37079665 </v>
    <v>       0.46009370       0.33079399       0.37079665 </v>
    <v>       0.79342704       0.33079399       0.37079665 </v>
    <v>       0.12676037       0.66412732       0.37079665 </v>
    <v>       0.46009370       0.66412732       0.37079665 </v>
    <v>       0.79342704       0.66412732       0.37079665 </v>
    <v>       0.12676037       0.99746065       0.37079665 </v>
    <v>       0.46009370       0.99746065       0.37079665 </v>
    <v>       0.79342704       0.99746065       0.37079665 </v>
    <v>       0.06350899       0.26982435       0.00000000 </v>
    <v>       0.39684232       0.26982435       0.00000000 </v>
    <v>       0.73017565       0.26982435       0.00000000 </v>
    <v>       0.06350899       0.60315768       0.00000000 </v>
    <v>       0.39684232       0.60315768       0.00000000 </v>
    <v>       0.73017565       0.60315768       0.00000000 </v>
    <v>       0.06350899       0.93649101       0.00000000 </v>
    <v>       0.39684232       0.93649101       0.00000000 </v>
    <v>       0.73017565       0.93649101       0.00000000 </v>
    <v>       0.29112182       0.17214940       0.39352170 </v>
    <v>       0.62360607       0.17214940       0.39352170 </v>
    <v>       0.95693941       0.17214940       0.39352170 </v>
    <v>       0.29027274       0.50548273       0.39352170 </v>
    <v>       0.62360607       0.50548273       0.39352170 </v>
    <v>       0.95693941       0.50548273       0.39352170 </v>
    <v>       0.29027274       0.83881607       0.39352170 </v>
    <v>       0.62360607       0.83881607       0.39352170 </v>
    <v>       0.95693941       0.83881607       0.39352170 </v>
    <v>       0.16118393       0.04306059       0.60647830 </v>
    <v>       0.49451727       0.04306059       0.60647830 </v>
    <v>       0.82785060       0.04306059       0.60647830 </v>
    <v>       0.16118393       0.37639393       0.60647830 </v>
    <v>       0.49451727       0.37639393       0.60647830 </v>
    <v>       0.82785060       0.37639393       0.60647830 </v>
    <v>       0.16118393       0.70972726       0.60647830 </v>
    <v>       0.49451727       0.70972726       0.60647830 </v>
    <v>       0.82785060       0.70972726       0.60647830 </v>
    <v>       0.03761391       0.07731307       0.84542777 </v>
    <v>       0.37094724       0.07731307       0.84542777 </v>
    <v>       0.70428057       0.07731307       0.84542777 </v>
    <v>       0.03761391       0.41064640       0.84542777 </v>
    <v>       0.37094724       0.41064640       0.84542777 </v>
    <v>       0.70428057       0.41064640       0.84542777 </v>
    <v>       0.03761391       0.74397973       0.84542777 </v>
    <v>       0.37094724       0.74397973       0.84542777 </v>
    <v>       0.70428057       0.74397973       0.84542777 </v>
    <v>       0.25602027       0.29571943       0.15457223 </v>
    <v>       0.58935360       0.29571943       0.15457223 </v>
    <v>       0.92268693       0.29571943       0.15457223 </v>
    <v>       0.25602027       0.62905276       0.15457223 </v>
    <v>       0.58935360       0.62905276       0.15457223 </v>
    <v>       0.92268693       0.62905276       0.15457223 </v>
    <v>       0.25602027       0.96238609       0.15457223 </v>
    <v>       0.58935360       0.96238609       0.15457223 </v>
    <v>       0.92268693       0.96238609       0.15457223 </v>
   </varray>
  </structure>
  <varray name="forces" >
   <v>      -0.00073860       0.00054072       0.00034056 </v>
   <v>      -0.00024168       0.00051652      -0.00012019 </v>
   <v>       0.00041464       0.00052495       0.00018965 </v>
   <v>      -0.00020612      -0.00063588      -0.00010711 </v>
   <v>      -0.00002607      -0.00052821      -0.00003127 </v>
   <v>       0.00029754      -0.00059505      -0.00001650 </v>
   <v>      -0.00028843       0.00041735       0.00002610 </v>
   <v>       0.00002165       0.00033254       0.00008509 </v>
   <v>       0.00031774       0.00039582       0.00014562 </v>
   <v>       0.00146947       0.00015050       0.00510701 </v>
   <v>       0.00245280       0.00001138      -0.00443716 </v>
   <v>       0.00016246       0.00006278      -0.00000832 </v>
   <v>      -0.00075519      -0.00076151       0.00102144 </v>
   <v>       0.00014151       0.00063166      -0.00089505 </v>
   <v>       0.00011449      -0.00004475      -0.00000847 </v>
   <v>      -0.00075816       0.00057372       0.00097409 </v>
   <v>       0.00019428      -0.00066370      -0.00085819 </v>
   <v>       0.00009267      -0.00004796      -0.00001954 </v>
   <v>       0.00689842      -0.00003762      -0.00182422 </v>
   <v>      -0.00157970       0.00008770       0.00086828 </v>
   <v>      -0.00192385      -0.00005866      -0.00105306 </v>
   <v>       0.00156796      -0.00000205      -0.00007282 </v>
   <v>      -0.00149477      -0.00126258       0.00113528 </v>
   <v>      -0.00178616       0.00115494      -0.00120841 </v>
   <v>       0.00151027      -0.00003609      -0.00005559 </v>
   <v>      -0.00141912       0.00105550       0.00107561 </v>
   <v>      -0.00170109      -0.00109552      -0.00116025 </v>
   <v>       0.00115775       0.00067406       0.00055735 </v>
   <v>       0.00040806       0.00018609      -0.00030245 </v>
   <v>      -0.00094683       0.00036854      -0.00006366 </v>
   <v>       0.00103826      -0.00012561       0.00061058 </v>
   <v>       0.00040822       0.00035051      -0.00045751 </v>
   <v>      -0.00093134       0.00019564      -0.00005309 </v>
   <v>       0.00076269       0.00023467       0.00009316 </v>
   <v>       0.00032546       0.00024827       0.00001238 </v>
   <v>      -0.00107411       0.00021173      -0.00006311 </v>
   <v>      -0.00093409       0.00002885       0.00095308 </v>
   <v>       0.00253218       0.00004372       0.00120057 </v>
   <v>      -0.00100466       0.00014523      -0.00100431 </v>
   <v>      -0.00076401       0.00065776       0.00092137 </v>
   <v>       0.00127417       0.00008488       0.00012745 </v>
   <v>      -0.00082873      -0.00047896      -0.00100971 </v>
   <v>      -0.00070696      -0.00049771       0.00080381 </v>
   <v>       0.00115227       0.00010461       0.00018070 </v>
   <v>      -0.00076302       0.00063156      -0.00090214 </v>
   <v>       0.00194757       0.00035529       0.00102005 </v>
   <v>      -0.00052849      -0.00286524      -0.00057764 </v>
   <v>      -0.00187552       0.00007949       0.00000317 </v>
   <v>       0.00068746       0.00007467       0.00021989 </v>
   <v>       0.00075295      -0.00000579      -0.00008161 </v>
   <v>      -0.00139839       0.00001268       0.00000629 </v>
   <v>       0.00010350      -0.00182025       0.00077488 </v>
   <v>      -0.00168080       0.00358142      -0.00043652 </v>
   <v>      -0.00182787      -0.00000271      -0.00000066 </v>
   <v>       0.00031956      -0.00002287      -0.00037067 </v>
   <v>       0.00031822      -0.00003589       0.00049877 </v>
   <v>      -0.00054616       0.00000126      -0.00016410 </v>
   <v>       0.00015945      -0.00000827      -0.00006374 </v>
   <v>       0.00029301      -0.00003382       0.00019200 </v>
   <v>      -0.00045737      -0.00001805      -0.00014587 </v>
   <v>       0.00031167       0.00001074      -0.00037939 </v>
   <v>       0.00036109       0.00002963       0.00053226 </v>
   <v>      -0.00051097      -0.00001480      -0.00013718 </v>
   <v>      -0.01894439       0.00083539      -0.00022879 </v>
   <v>       0.00432308      -0.00016402       0.00032243 </v>
   <v>       0.00417203      -0.00008968      -0.00033849 </v>
   <v>      -0.00326924      -0.00016276      -0.00017750 </v>
   <v>       0.00324840       0.00229091       0.00042287 </v>
   <v>       0.00309225      -0.00203651      -0.00046627 </v>
   <v>      -0.00326406       0.00009129      -0.00017721 </v>
   <v>       0.00319818      -0.00203145       0.00040762 </v>
   <v>       0.00313147       0.00184429      -0.00038686 </v>
   <v>       0.00017633       0.00113338      -0.00495538 </v>
   <v>       0.00036771      -0.00141108       0.00471924 </v>
   <v>       0.00101885      -0.00010693       0.00016192 </v>
   <v>       0.00009793      -0.00144933      -0.00507241 </v>
   <v>       0.00025154       0.00100054       0.00484059 </v>
   <v>       0.00102510      -0.00026128       0.00012154 </v>
   <v>      -0.00068428      -0.00024456      -0.00050241 </v>
   <v>      -0.00047359      -0.00027643       0.00063659 </v>
   <v>       0.00110312      -0.00023140       0.00012642 </v>
   <v>       0.00018334       0.00001883      -0.00012289 </v>
   <v>      -0.00007952      -0.00022470      -0.00021386 </v>
   <v>       0.00049435      -0.00015082       0.00034241 </v>
   <v>       0.00026705      -0.00020253      -0.00013117 </v>
   <v>      -0.00019189       0.00018452      -0.00015754 </v>
   <v>       0.00052336      -0.00000142       0.00038707 </v>
   <v>       0.00014737      -0.00001317      -0.00019498 </v>
   <v>      -0.00008756      -0.00015821      -0.00025393 </v>
   <v>       0.00036562      -0.00004367       0.00037814 </v>
   <v>      -0.00338890       0.00018160      -0.00021720 </v>
   <v>       0.00145171      -0.00028622      -0.00152715 </v>
   <v>       0.00161450      -0.00019108       0.00127824 </v>
   <v>      -0.00049156      -0.00008422      -0.00009634 </v>
   <v>       0.00023604      -0.00003274      -0.00041756 </v>
   <v>       0.00039610      -0.00013772       0.00025644 </v>
   <v>      -0.00306077      -0.00050543      -0.00017702 </v>
   <v>       0.00129358      -0.00009942      -0.00138916 </v>
   <v>       0.00148558      -0.00005184       0.00121560 </v>
  </varray>
  <varray name="stress" >
   <v>      -0.17238449       0.00363038      -0.00539969 </v>
   <v>       0.00409975      -0.15001292      -0.00657173 </v>
   <v>       0.00421917       0.00335233      -0.14758583 </v>
  </varray>
  <energy>
   <i name="e_fr_energy">   -550.33917010 </i>
   <i name="e_wo_entrp">   -550.33917010 </i>
   <i name="e_0_energy">     -0.00000000 </i>
  </energy>
  <time name="totalsc"> 9163.50 9327.84</time>
  <eigenvalues>
   <array>
    <dimension dim="1">band</dimension>
    <dimension dim="2">kpoint</dimension>
    <dimension dim="3">spin</dimension>
    <field>eigene</field>
    <field>occ</field>
    <set>
     <set comment="spin 1">
      <set comment="kpoint 1">
       <r>  -51.0516    1.0000 </r>
       <r>  -51.0514    1.0000 </r>
       <r>  -51.0510    1.0000 </r>
       <r>  -51.0508    1.0000 </r>
       <r>  -51.0500    1.0000 </r>
       <r>  -51.0498    1.0000 </r>
       <r>  -51.0496    1.0000 </r>
       <r>  -51.0495    1.0000 </r>
       <r>  -51.0493    1.0000 </r>
       <r>  -51.0491    1.0000 </r>
       <r>  -51.0488    1.0000 </r>
       <r>  -51.0483    1.0000 </r>
       <r>  -51.0482    1.0000 </r>
       <r>  -51.0478    1.0000 </r>
       <r>  -51.0470    1.0000 </r>
       <r>  -51.0466    1.0000 </r>
       <r>  -51.0465    1.0000 </r>
       <r>  -51.0453    1.0000 </r>
       <r>  -51.0381    1.0000 </r>
       <r>  -51.0372    1.0000 </r>
       <r>  -51.0371    1.0000 </r>
       <r>  -51.0371    1.0000 </r>
       <r>  -51.0371    1.0000 </r>
       <r>  -51.0371    1.0000 </r>
       <r>  -51.0370    1.0000 </r>
       <r>  -51.0363    1.0000 </r>
       <r>  -51.0362    1.0000 </r>
       <r>  -51.0362    1.0000 </r>
       <r>  -51.0361    1.0000 </r>
       <r>  -51.0360    1.0000 </r>
       <r>  -51.0359    1.0000 </r>
       <r>  -51.0357    1.0000 </r>
       <r>  -51.0355    1.0000 </r>
       <r>  -51.0355    1.0000 </r>
       <r>  -51.0350    1.0000 </r>
       <r>  -51.0348    1.0000 </r>
       <r>  -49.6904    1.0000 </r>
       <r>  -49.6903    1.0000 </r>
       <r>  -49.6900    1.0000 </r>
       <r>  -49.6897    1.0000 </r>
       <r>  -49.6897    1.0000 </r>
       <r>  -49.6897    1.0000 </r>
       <r>  -49.6896    1.0000 </r>
       <r>  -49.6893    1.0000 </r>
       <r>  -49.6892    1.0000 </r>
       <r>  -49.6892    1.0000 </r>
       <r>  -49.6890    1.0000 </r>
       <r>  -49.6889    1.0000 </r>
       <r>  -49.6889    1.0000 </r>
       <r>  -49.6889    1.0000 </r>
       <r>  -49.6884    1.0000 </r>
       <r>  -49.6882    1.0000 </r>
       <r>  -49.6881    1.0000 </r>
       <r>  -49.6880    1.0000 </r>
       <r>  -49.5924    1.0000 </r>
       <r>  -49.5921    1.0000 </r>
       <r>  -49.5912    1.0000 </r>
       <r>  -49.5911    1.0000 </r>
       <r>  -49.5908    1.0000 </r>
       <r>  -49.5906    1.0000 </r>
       <r>  -49.5903    1.0000 </r>
       <r>  -49.5901    1.0000 </r>
       <r>  -49.5899    1.0000 </r>
       <r>  -49.5899    1.0000 </r>
       <r>  -49.5898    1.0000 </r>
       <r>  -49.5890    1.0000 </r>
       <r>  -49.5888    1.0000 </r>
       <r>  -49.5883    1.0000 </r>
       <r>  -49.5881    1.0000 </r>
       <r>  -49.5872    1.0000 </r>
       <r>  -49.5869    1.0000 </r>
       <r>  -49.5869    1.0000 </r>
       <r>  -49.5633    1.0000 </r>
       <r>  -49.5632    1.0000 </r>
       <r>  -49.5612    1.0000 </r>
       <r>  -49.5612    1.0000 </r>
       <r>  -49.5611    1.0000 </r>
       <r>  -49.5606    1.0000 </r>
       <r>  -49.5601    1.0000 </r>
       <r>  -49.5600    1.0000 </r>
       <r>  -49.5597    1.0000 </r>
       <r>  -49.5595    1.0000 </r>
       <r>  -49.5592    1.0000 </r>
       <r>  -49.5586    1.0000 </r>
       <r>  -49.5586    1.0000 </r>
       <r>  -49.5585    1.0000 </r>
       <r>  -49.5574    1.0000 </r>
       <r>  -49.5572    1.0000 </r>
       <r>  -49.5568    1.0000 </r>
       <r>  -49.5567    1.0000 </r>
       <r>  -49.5494    1.0000 </r>
       <r>  -49.5486    1.0000 </r>
       <r>  -49.5485    1.0000 </r>
       <r>  -49.5484    1.0000 </r>
       <r>  -49.5484    1.0000 </r>
       <r>  -49.5481    1.0000 </r>
       <r>  -49.5479    1.0000 </r>
       <r>  -49.5476    1.0000 </r>
       <r>  -49.5471    1.0000 </r>
       <r>  -49.5471    1.0000 </r>
       <r>  -49.5470    1.0000 </r>
       <r>  -49.5469    1.0000 </r>
       <r>  -49.5469    1.0000 </r>
       <r>  -49.5465    1.0000 </r>
       <r>  -49.5464    1.0000 </r>
       <r>  -49.5464    1.0000 </r>
       <r>  -49.5461    1.0000 </r>
       <r>  -49.5459    1.0000 </r>
       <r>  -39.8650    1.0000 </r>
       <r>  -39.8636    1.0000 </r>
       <r>  -39.8634    1.0000 </r>
       <r>  -39.8632    1.0000 </r>
       <r>  -39.8629    1.0000 </r>
       <r>  -39.8629    1.0000 </r>
       <r>  -39.8628    1.0000 </r>
       <r>  -39.8625    1.0000 </r>
       <r>  -39.8624    1.0000 </r>
       <r>  -39.8624    1.0000 </r>
       <r>  -39.8622    1.0000 </r>
       <r>  -39.8622    1.0000 </r>
       <r>  -39.8622    1.0000 </r>
       <r>  -39.8620    1.0000 </r>
       <r>  -39.8619    1.0000 </r>
       <r>  -39.8615    1.0000 </r>
       <r>  -39.8612    1.0000 </r>
       <r>  -39.8598    1.0000 </r>
       <r>  -13.2357    1.0000 </r>
       <r>  -13.2349    1.0000 </r>
       <r>  -13.2348    1.0000 </r>
       <r>  -13.2342    1.0000 </r>
       <r>  -13.2259    1.0000 </r>
       <r>  -13.1987    1.0000 </r>
       <r>  -13.0557    1.0000 </r>
       <r>  -13.0555    1.0000 </r>
       <r>  -13.0542    1.0000 </r>
       <r>  -13.0541    1.0000 </r>
       <r>  -13.0424    1.0000 </r>
       <r>  -13.0423    1.0000 </r>
       <r>  -13.0411    1.0000 </r>
       <r>  -13.0410    1.0000 </r>
       <r>  -13.0188    1.0000 </r>
       <r>  -13.0187    1.0000 </r>
       <r>  -13.0185    1.0000 </r>
       <r>  -13.0184    1.0000 </r>
       <r>   -7.6148    1.0000 </r>
       <r>   -7.4115    1.0000 </r>
       <r>   -7.3756    1.0000 </r>
       <r>   -7.3751    1.0000 </r>
       <r>   -7.3750    1.0000 </r>
       <r>   -7.3744    1.0000 </r>
       <r>   -7.1814    1.0000 </r>
       <r>   -7.1812    1.0000 </r>
       <r>   -7.1718    1.0000 </r>
       <r>   -7.1716    1.0000 </r>
       <r>   -7.1528    1.0000 </r>
       <r>   -7.1512    1.0000 </r>
       <r>   -7.1512    1.0000 </r>
       <r>   -7.1496    1.0000 </r>
       <r>   -6.9846    1.0000 </r>
       <r>   -6.9656    1.0000 </r>
       <r>   -6.9645    1.0000 </r>
       <r>   -6.9308    1.0000 </r>
       <r>   -6.9298    1.0000 </r>
       <r>   -6.8730    1.0000 </r>
       <r>   -6.8713    1.0000 </r>
       <r>   -6.8713    1.0000 </r>
       <r>   -6.8696    1.0000 </r>
       <r>   -6.8078    1.0000 </r>
       <r>   -6.8065    1.0000 </r>
       <r>   -6.7809    1.0000 </r>
       <r>   -6.7797    1.0000 </r>
       <r>   -1.8368    1.0000 </r>
       <r>   -1.8368    1.0000 </r>
       <r>   -1.8367    1.0000 </r>
       <r>   -1.8366    1.0000 </r>
       <r>   -1.8162    1.0000 </r>
       <r>   -1.8162    1.0000 </r>
       <r>   -1.8035    1.0000 </r>
       <r>   -1.8035    1.0000 </r>
       <r>   -1.7663    1.0000 </r>
       <r>   -1.7663    1.0000 </r>
       <r>   -1.7536    1.0000 </r>
       <r>   -1.7535    1.0000 </r>
       <r>   -1.2808    1.0000 </r>
       <r>   -1.1977    1.0000 </r>
       <r>   -1.1975    1.0000 </r>
       <r>   -1.1973    1.0000 </r>
       <r>   -1.1968    1.0000 </r>
       <r>   -1.0050    1.0000 </r>
       <r>   -1.0047    1.0000 </r>
       <r>   -0.9743    1.0000 </r>
       <r>   -0.9739    1.0000 </r>
       <r>   -0.9588    1.0000 </r>
       <r>   -0.9586    1.0000 </r>
       <r>   -0.9469    1.0000 </r>
       <r>   -0.9385    1.0000 </r>
       <r>   -0.9312    1.0000 </r>
       <r>   -0.9284    1.0000 </r>
       <r>   -0.9281    1.0000 </r>
       <r>   -0.8852    1.0000 </r>
       <r>   -0.8844    1.0000 </r>
       <r>   -0.8843    1.0000 </r>
       <r>   -0.8839    1.0000 </r>
       <r>   -0.8716    1.0000 </r>
       <r>   -0.8712    1.0000 </r>
       <r>   -0.8675    1.0000 </r>
       <r>   -0.8672    1.0000 </r>
       <r>   -0.8672    1.0000 </r>
       <r>   -0.8668    1.0000 </r>
       <r>   -0.8595    1.0000 </r>
       <r>   -0.8593    1.0000 </r>
       <r>   -0.7005    1.0000 </r>
       <r>   -0.7003    1.0000 </r>
       <r>   -0.7001    1.0000 </r>
       <r>   -0.6999    1.0000 </r>
       <r>   -0.6714    1.0000 </r>
       <r>   -0.6711    1.0000 </r>
       <r>   -0.6232    1.0000 </r>
       <r>   -0.6228    1.0000 </r>
       <r>   -0.6227    1.0000 </r>
       <r>   -0.6222    1.0000 </r>
       <r>   -0.6221    1.0000 </r>
       <r>   -0.6218    1.0000 </r>
       <r>   -0.3523    1.0000 </r>
       <r>   -0.3521    1.0000 </r>
       <r>   -0.3520    1.0000 </r>
       <r>   -0.3517    1.0000 </r>
       <r>   -0.3219    1.0000 </r>
       <r>   -0.3216    1.0000 </r>
       <r>   -0.2916    1.0000 </r>
       <r>   -0.2912    1.0000 </r>
       <r>   -0.2649    1.0000 </r>
       <r>   -0.2639    1.0000 </r>
       <r>   -0.2638    1.0000 </r>
       <r>   -0.2634    1.0000 </r>
       <r>   -0.2607    1.0000 </r>
       <r>   -0.2603    1.0000 </r>
       <r>   -0.2577    1.0000 </r>
       <r>   -0.2488    1.0000 </r>
       <r>   -0.2483    1.0000 </r>
       <r>   -0.2426    1.0000 </r>
       <r>   -0.2205    1.0000 </r>
       <r>   -0.1407    1.0000 </r>
       <r>   -0.1404    1.0000 </r>
       <r>   -0.1402    1.0000 </r>
       <r>   -0.1398    1.0000 </r>
       <r>   -0.1393    1.0000 </r>
       <r>   -0.1391    1.0000 </r>
       <r>   -0.1234    1.0000 </r>
       <r>   -0.1229    1.0000 </r>
       <r>   -0.1228    1.0000 </r>
       <r>   -0.1223    1.0000 </r>
       <r>   -0.1202    1.0000 </r>
       <r>   -0.1197    1.0000 </r>
       <r>   -0.0779    1.0000 </r>
       <r>   -0.0775    1.0000 </r>
       <r>   -0.0595    1.0000 </r>
       <r>   -0.0118    1.0000 </r>
       <r>   -0.0114    1.0000 </r>
       <r>    0.0158    1.0000 </r>
       <r>    0.0160    1.0000 </r>
       <r>    0.0261    1.0000 </r>
       <r>    0.0262    1.0000 </r>
       <r>    0.0422    1.0000 </r>
       <r>    0.0432    1.0000 </r>
       <r>    0.0432    1.0000 </r>
       <r>    0.0441    1.0000 </r>
       <r>    0.0607    1.0000 </r>
       <r>    0.0610    1.0000 </r>
       <r>    0.1491    1.0000 </r>
       <r>    0.1501    1.0000 </r>
       <r>    0.1502    1.0000 </r>
       <r>    0.1507    1.0000 </r>
       <r>    0.1583    1.0000 </r>
       <r>    0.1639    1.0000 </r>
       <r>    0.1655    1.0000 </r>
       <r>    0.1825    1.0000 </r>
       <r>    0.1827    1.0000 </r>
       <r>    0.1923    1.0000 </r>
       <r>    0.1965    1.0000 </r>
       <r>    0.1968    1.0000 </r>
       <r>    0.2077    1.0000 </r>
       <r>    0.2082    1.0000 </r>
       <r>    0.2581    1.0000 </r>
       <r>    0.2582    1.0000 </r>
       <r>    0.2583    1.0000 </r>
       <r>    0.2586    1.0000 </r>
       <r>    0.2784    1.0000 </r>
       <r>    0.2786    1.0000 </r>
       <r>    0.3393    1.0000 </r>
       <r>    0.3394    1.0000 </r>
       <r>    0.3596    1.0000 </r>
       <r>    0.3600    1.0000 </r>
       <r>    0.3600    1.0000 </r>
       <r>    0.3603    1.0000 </r>
       <r>    0.3802    1.0000 </r>
       <r>    0.3832    1.0000 </r>
       <r>    0.4898    1.0000 </r>
       <r>    0.4899    1.0000 </r>
       <r>    0.4899    1.0000 </r>
       <r>    0.4901    1.0000 </r>
       <r>    0.5159    1.0000 </r>
       <r>    0.5172    1.0000 </r>
       <r>    0.5173    1.0000 </r>
       <r>    0.5182    1.0000 </r>
       <r>    0.5586    1.0000 </r>
       <r>    0.5590    1.0000 </r>
       <r>    0.6087    1.0000 </r>
       <r>    0.6089    1.0000 </r>
       <r>    0.6150    1.0000 </r>
       <r>    0.6303    1.0000 </r>
       <r>    0.6312    1.0000 </r>
       <r>    0.6312    1.0000 </r>
       <r>    0.6316    1.0000 </r>
       <r>    0.7523    1.0000 </r>
       <r>    0.7524    1.0000 </r>
       <r>    0.7612    1.0000 </r>
       <r>    0.7614    1.0000 </r>
       <r>    0.7623    1.0000 </r>
       <r>    0.7628    1.0000 </r>
       <r>    0.7906    1.0000 </r>
       <r>    0.7909    1.0000 </r>
       <r>    0.7934    1.0000 </r>
       <r>    0.8461    1.0000 </r>
       <r>    0.8461    1.0000 </r>
       <r>    0.8550    1.0000 </r>
       <r>    0.8552    1.0000 </r>
       <r>    0.9689    1.0000 </r>
       <r>    0.9690    1.0000 </r>
       <r>    0.9692    1.0000 </r>
       <r>    0.9695    1.0000 </r>
       <r>    0.9794    1.0000 </r>
       <r>    1.2397    1.0000 </r>
       <r>    1.2399    1.0000 </r>
       <r>    1.2400    1.0000 </r>
       <r>    1.2406    1.0000 </r>
       <r>    1.2640    1.0000 </r>
       <r>    1.2926    1.0000 </r>
       <r>    1.2928    1.0000 </r>
       <r>    1.3305    1.0000 </r>
       <r>    1.3307    1.0000 </r>
       <r>    1.3583    1.0000 </r>
       <r>    1.3588    1.0000 </r>
       <r>    1.3588    1.0000 </r>
       <r>    1.3594    1.0000 </r>
       <r>    1.4363    1.0000 </r>
       <r>    1.4372    1.0000 </r>
       <r>    1.4642    1.0000 </r>
       <r>    1.4755    1.0000 </r>
       <r>    1.4869    1.0000 </r>
       <r>    1.4879    1.0000 </r>
       <r>    1.5475    1.0000 </r>
       <r>    1.6788    1.0000 </r>
       <r>    1.6800    1.0000 </r>
       <r>    1.6803    1.0000 </r>
       <r>    1.7237    1.0000 </r>
       <r>    1.7237    1.0000 </r>
       <r>    1.7238    1.0000 </r>
       <r>    1.7243    1.0000 </r>
       <r>    1.7655    1.0000 </r>
       <r>    1.7657    1.0000 </r>
       <r>    1.8143    1.0000 </r>
       <r>    1.8144    1.0000 </r>
       <r>    1.8147    1.0000 </r>
       <r>    1.8153    1.0000 </r>
       <r>    1.8265    1.0000 </r>
       <r>    1.8271    1.0000 </r>
       <r>    1.8277    1.0000 </r>
       <r>    1.8283    1.0000 </r>
       <r>    1.8395    1.0000 </r>
       <r>    1.8760    1.0000 </r>
       <r>    1.8866    1.0000 </r>
       <r>    1.9029    1.0000 </r>
       <r>    1.9031    1.0000 </r>
       <r>    1.9177    1.0000 </r>
       <r>    1.9177    1.0000 </r>
       <r>    1.9634    1.0000 </r>
       <r>    1.9637    1.0000 </r>
       <r>    1.9900    1.0000 </r>
       <r>    1.9901    1.0000 </r>
       <r>    1.9989    1.0000 </r>
       <r>    1.9991    1.0000 </r>
       <r>    1.9992    1.0000 </r>
       <r>    1.9995    1.0000 </r>
       <r>    2.0712    1.0000 </r>
       <r>    2.0717    1.0000 </r>
       <r>    2.0810    1.0000 </r>
       <r>    2.0816    1.0000 </r>
       <r>    2.0817    1.0000 </r>
       <r>    2.0821    1.0000 </r>
       <r>    2.0941    1.0000 </r>
       <r>    2.0948    1.0000 </r>
       <r>    2.1161    1.0000 </r>
       <r>    2.1163    1.0000 </r>
       <r>    2.1164    1.0000 </r>
       <r>    2.1169    1.0000 </r>
       <r>    2.1954    1.0000 </r>
       <r>    2.1960    1.0000 </r>
       <r>    2.2884    1.0000 </r>
       <r>    2.2888    1.0000 </r>
       <r>    2.4162    1.0000 </r>
       <r>    2.4166    1.0000 </r>
       <r>    2.4406    1.0000 </r>
       <r>    2.4409    1.0000 </r>
       <r>    2.4411    1.0000 </r>
       <r>    2.4411    1.0000 </r>
       <r>    2.4996    1.0000 </r>
       <r>    2.5157    1.0000 </r>
       <r>    2.5163    1.0000 </r>
       <r>    2.5165    1.0000 </r>
       <r>    2.5168    1.0000 </r>
       <r>    2.5589    1.0000 </r>
       <r>    2.5598    1.0000 </r>
       <r>    2.5653    1.0000 </r>
       <r>    2.7183    1.0000 </r>
       <r>    2.7187    1.0000 </r>
       <r>    2.7189    1.0000 </r>
       <r>    2.7191    1.0000 </r>
       <r>    2.7332    1.0000 </r>
       <r>    2.7337    1.0000 </r>
       <r>    2.7999    1.0000 </r>
       <r>    2.8007    1.0000 </r>
       <r>    3.0021    1.0000 </r>
       <r>    3.0025    1.0000 </r>
       <r>    3.0065    1.0000 </r>
       <r>    3.0067    1.0000 </r>
       <r>    3.1702    1.0000 </r>
       <r>    3.2190    1.0000 </r>
       <r>    3.2190    1.0000 </r>
       <r>    3.2219    1.0000 </r>
       <r>    3.2223    1.0000 </r>
       <r>    3.3593    1.0000 </r>
       <r>    3.3599    1.0000 </r>
       <r>    3.3599    1.0000 </r>
       <r>    3.3602    1.0000 </r>
       <r>    3.3930    1.0000 </r>
       <r>    3.4017    1.0000 </r>
       <r>    3.5017    1.0000 </r>
       <r>    3.5019    1.0000 </r>
       <r>    3.5875    1.0000 </r>
       <r>    3.5877    1.0000 </r>
       <r>    3.8158    1.0000 </r>
       <r>    3.8163    1.0000 </r>
       <r>    3.8300    1.0000 </r>
       <r>    3.8303    1.0000 </r>
       <r>    4.0029    1.0000 </r>
       <r>    4.0030    1.0000 </r>
       <r>    4.0033    1.0000 </r>
       <r>    4.0034    1.0000 </r>
       <r>    4.0314    1.0000 </r>
       <r>    4.0315    1.0000 </r>
       <r>    4.0317    1.0000 </r>
       <r>    4.0319    1.0000 </r>
       <r>    4.1062    1.0000 </r>
       <r>    4.1167    1.0000 </r>
       <r>    4.1219    1.0000 </r>
       <r>    4.1599    1.0000 </r>
       <r>    4.1601    1.0000 </r>
       <r>    4.2590    1.0000 </r>
       <r>    4.2591    1.0000 </r>
       <r>    4.2768    1.0000 </r>
       <r>    4.2770    1.0000 </r>
       <r>    4.3302    1.0000 </r>
       <r>    4.3309    1.0000 </r>
       <r>    4.3572    1.0000 </r>
       <r>    4.3586    1.0000 </r>
       <r>    4.3588    1.0000 </r>
       <r>    4.3602    1.0000 </r>
       <r>    4.4114    1.0000 </r>
       <r>    4.4119    1.0000 </r>
       <r>    4.4336    1.0000 </r>
       <r>    4.4343    1.0000 </r>
       <r>    4.5230    1.0000 </r>
       <r>    4.5236    1.0000 </r>
       <r>    4.5237    1.0000 </r>
       <r>    4.5240    1.0000 </r>
       <r>    4.5509    1.0000 </r>
       <r>    4.5511    1.0000 </r>
       <r>    4.8116    1.0000 </r>
       <r>    4.8119    1.0000 </r>
       <r>    4.8121    1.0000 </r>
       <r>    4.8124    1.0000 </r>
       <r>    4.8748    1.0000 </r>
       <r>    4.8750    1.0000 </r>
       <r>    4.8752    1.0000 </r>
       <r>    4.8753    1.0000 </r>
       <r>    7.3646    0.0000 </r>
       <r>    8.4303    0.0000 </r>
       <r>    8.6650    0.0000 </r>
       <r>    8.6655    0.0000 </r>
       <r>    8.8414    0.0000 </r>
       <r>    8.8416    0.0000 </r>
       <r>    8.8419    0.0000 </r>
       <r>    8.8422    0.0000 </r>
       <r>    8.9864    0.0000 </r>
       <r>    8.9865    0.0000 </r>
       <r>    9.3100    0.0000 </r>
       <r>    9.3111    0.0000 </r>
       <r>    9.3113    0.0000 </r>
       <r>    9.3124    0.0000 </r>
       <r>    9.3213    0.0000 </r>
       <r>    9.3217    0.0000 </r>
       <r>    9.4446    0.0000 </r>
       <r>    9.4452    0.0000 </r>
       <r>    9.5150    0.0000 </r>
       <r>    9.5156    0.0000 </r>
       <r>    9.5158    0.0000 </r>
       <r>    9.5169    0.0000 </r>
       <r>    9.8732    0.0000 </r>
       <r>    9.8787    0.0000 </r>
       <r>    9.9189    0.0000 </r>
       <r>    9.9191    0.0000 </r>
       <r>    9.9191    0.0000 </r>
       <r>    9.9193    0.0000 </r>
       <r>    9.9667    0.0000 </r>
       <r>    9.9671    0.0000 </r>
       <r>   10.0691    0.0000 </r>
       <r>   10.0698    0.0000 </r>
       <r>   10.4890    0.0000 </r>
       <r>   10.5025    0.0000 </r>
       <r>   10.5026    0.0000 </r>
       <r>   10.5196    0.0000 </r>
       <r>   10.5198    0.0000 </r>
       <r>   10.8013    0.0000 </r>
       <r>   10.8014    0.0000 </r>
       <r>   10.8015    0.0000 </r>
       <r>   10.8016    0.0000 </r>
       <r>   10.8753    0.0000 </r>
       <r>   10.8758    0.0000 </r>
       <r>   11.0178    0.0000 </r>
       <r>   11.0188    0.0000 </r>
       <r>   11.0512    0.0000 </r>
       <r>   11.2662    0.0000 </r>
       <r>   11.2667    0.0000 </r>
       <r>   11.3731    0.0000 </r>
       <r>   11.3735    0.0000 </r>
       <r>   11.3735    0.0000 </r>
       <r>   11.3744    0.0000 </r>
       <r>   11.3879    0.0000 </r>
       <r>   11.3880    0.0000 </r>
       <r>   11.3939    0.0000 </r>
       <r>   11.3943    0.0000 </r>
       <r>   11.3944    0.0000 </r>
       <r>   11.3950    0.0000 </r>
       <r>   11.4482    0.0000 </r>
       <r>   11.6174    0.0000 </r>
       <r>   11.6180    0.0000 </r>
       <r>   11.8009    0.0000 </r>
       <r>   11.8016    0.0000 </r>
[...]
       <r>   -45.9021    72.7349    53.5274 </r>
       <r>   -45.6610   225.9697   108.0000 </r>
       <r>   -45.4199     0.0000   108.0000 </r>
       <r>   -45.1789     0.0000   108.0000 </r>
       <r>   -44.9378     0.0000   108.0000 </r>
       <r>   -44.6967     0.0000   108.0000 </r>
       <r>   -44.4557     0.0000   108.0000 </r>
       <r>   -44.2146     0.0000   108.0000 </r>
       <r>   -43.9736     0.0000   108.0000 </r>
       <r>   -43.7325     0.0000   108.0000 </r>
       <r>   -43.4914     0.0000   108.0000 </r>
       <r>   -43.2504     0.0000   108.0000 </r>
       <r>   -43.0093     0.0000   108.0000 </r>
       <r>   -42.7683     0.0000   108.0000 </r>
       <r>   -42.5272     0.0000   108.0000 </r>
       <r>   -42.2861     0.0000   108.0000 </r>
       <r>   -42.0451     0.0000   108.0000 </r>
       <r>   -41.8040     0.0000   108.0000 </r>
       <r>   -41.5629     0.0000   108.0000 </r>
       <r>   -41.3219     0.0000   108.0000 </r>
       <r>   -41.0808     0.0000   108.0000 </r>
       <r>   -40.8398     0.0000   108.0000 </r>
       <r>   -40.5987     0.0000   108.0000 </r>
       <r>   -40.3576     0.0000   108.0000 </r>
       <r>   -40.1166     0.0000   108.0000 </r>
       <r>   -39.8755    24.9556   114.0158 </r>
       <r>   -39.6345    49.7142   126.0000 </r>
       <r>   -39.3934     0.0000   126.0000 </r>
       <r>   -39.1523     0.0000   126.0000 </r>
       <r>   -38.9113     0.0000   126.0000 </r>
       <r>   -38.6702     0.0000   126.0000 </r>
       <r>   -38.4291     0.0000   126.0000 </r>
       <r>   -38.1881     0.0000   126.0000 </r>
       <r>   -37.9470     0.0000   126.0000 </r>
       <r>   -37.7060     0.0000   126.0000 </r>
       <r>   -37.4649     0.0000   126.0000 </r>
       <r>   -37.2238     0.0000   126.0000 </r>
       <r>   -36.9828     0.0000   126.0000 </r>
       <r>   -36.7417     0.0000   126.0000 </r>
       <r>   -36.5007     0.0000   126.0000 </r>
       <r>   -36.2596     0.0000   126.0000 </r>
       <r>   -36.0185     0.0000   126.0000 </r>
       <r>   -35.7775     0.0000   126.0000 </r>
       <r>   -35.5364     0.0000   126.0000 </r>
       <r>   -35.2954     0.0000   126.0000 </r>
       <r>   -35.0543     0.0000   126.0000 </r>
       <r>   -34.8132     0.0000   126.0000 </r>
       <r>   -34.5722     0.0000   126.0000 </r>
       <r>   -34.3311     0.0000   126.0000 </r>
       <r>   -34.0900     0.0000   126.0000 </r>
       <r>   -33.8490     0.0000   126.0000 </r>
       <r>   -33.6079     0.0000   126.0000 </r>
       <r>   -33.3669     0.0000   126.0000 </r>
       <r>   -33.1258     0.0000   126.0000 </r>
       <r>   -32.8847     0.0000   126.0000 </r>
       <r>   -32.6437     0.0000   126.0000 </r>
       <r>   -32.4026     0.0000   126.0000 </r>
       <r>   -32.1616     0.0000   126.0000 </r>
       <r>   -31.9205     0.0000   126.0000 </r>
       <r>   -31.6794     0.0000   126.0000 </r>
       <r>   -31.4384     0.0000   126.0000 </r>
       <r>   -31.1973     0.0000   126.0000 </r>
       <r>   -30.9562     0.0000   126.0000 </r>
       <r>   -30.7152     0.0000   126.0000 </r>
       <r>   -30.4741     0.0000   126.0000 </r>
       <r>   -30.2331     0.0000   126.0000 </r>
       <r>   -29.9920     0.0000   126.0000 </r>
       <r>   -29.7509     0.0000   126.0000 </r>
       <r>   -29.5099     0.0000   126.0000 </r>
       <r>   -29.2688     0.0000   126.0000 </r>
       <r>   -29.0278     0.0000   126.0000 </r>
       <r>   -28.7867     0.0000   126.0000 </r>
       <r>   -28.5456     0.0000   126.0000 </r>
       <r>   -28.3046     0.0000   126.0000 </r>
       <r>   -28.0635     0.0000   126.0000 </r>
       <r>   -27.8224     0.0000   126.0000 </r>
       <r>   -27.5814     0.0000   126.0000 </r>
       <r>   -27.3403     0.0000   126.0000 </r>
       <r>   -27.0993     0.0000   126.0000 </r>
       <r>   -26.8582     0.0000   126.0000 </r>
       <r>   -26.6171     0.0000   126.0000 </r>
       <r>   -26.3761     0.0000   126.0000 </r>
       <r>   -26.1350     0.0000   126.0000 </r>
       <r>   -25.8940     0.0000   126.0000 </r>
       <r>   -25.6529     0.0000   126.0000 </r>
       <r>   -25.4118     0.0000   126.0000 </r>
       <r>   -25.1708     0.0000   126.0000 </r>
       <r>   -24.9297     0.0000   126.0000 </r>
       <r>   -24.6887     0.0000   126.0000 </r>
       <r>   -24.4476     0.0000   126.0000 </r>
       <r>   -24.2065     0.0000   126.0000 </r>
       <r>   -23.9655     0.0000   126.0000 </r>
       <r>   -23.7244     0.0000   126.0000 </r>
       <r>   -23.4833     0.0000   126.0000 </r>
       <r>   -23.2423     0.0000   126.0000 </r>
       <r>   -23.0012     0.0000   126.0000 </r>
       <r>   -22.7602     0.0000   126.0000 </r>
       <r>   -22.5191     0.0000   126.0000 </r>
       <r>   -22.2780     0.0000   126.0000 </r>
       <r>   -22.0370     0.0000   126.0000 </r>
       <r>   -21.7959     0.0000   126.0000 </r>
       <r>   -21.5549     0.0000   126.0000 </r>
       <r>   -21.3138     0.0000   126.0000 </r>
       <r>   -21.0727     0.0000   126.0000 </r>
       <r>   -20.8317     0.0000   126.0000 </r>
       <r>   -20.5906     0.0000   126.0000 </r>
       <r>   -20.3495     0.0000   126.0000 </r>
       <r>   -20.1085     0.0000   126.0000 </r>
       <r>   -19.8674     0.0000   126.0000 </r>
       <r>   -19.6264     0.0000   126.0000 </r>
       <r>   -19.3853     0.0000   126.0000 </r>
       <r>   -19.1442     0.0000   126.0000 </r>
       <r>   -18.9032     0.0000   126.0000 </r>
       <r>   -18.6621     0.0000   126.0000 </r>
       <r>   -18.4211     0.0000   126.0000 </r>
       <r>   -18.1800     0.0000   126.0000 </r>
       <r>   -17.9389     0.0000   126.0000 </r>
       <r>   -17.6979     0.0000   126.0000 </r>
       <r>   -17.4568     0.0000   126.0000 </r>
       <r>   -17.2158     0.0000   126.0000 </r>
       <r>   -16.9747     0.0000   126.0000 </r>
       <r>   -16.7336     0.0000   126.0000 </r>
       <r>   -16.4926     0.0000   126.0000 </r>
       <r>   -16.2515     0.0000   126.0000 </r>
       <r>   -16.0104     0.0000   126.0000 </r>
       <r>   -15.7694     0.0000   126.0000 </r>
       <r>   -15.5283     0.0000   126.0000 </r>
       <r>   -15.2873     0.0000   126.0000 </r>
       <r>   -15.0462     0.0000   126.0000 </r>
       <r>   -14.8051     0.0000   126.0000 </r>
       <r>   -14.5641     0.0000   126.0000 </r>
       <r>   -14.3230     0.0000   126.0000 </r>
       <r>   -14.0820     0.0000   126.0000 </r>
       <r>   -13.8409     0.0000   126.0000 </r>
       <r>   -13.5998     0.0000   126.0000 </r>
       <r>   -13.3588     0.0000   126.0000 </r>
       <r>   -13.1177     0.0000   126.0000 </r>
       <r>   -12.8766     0.7956   126.1918 </r>
       <r>   -12.6356    63.4284   141.4819 </r>
       <r>   -12.3945    10.4457   144.0000 </r>
       <r>   -12.1535     0.0000   144.0000 </r>
       <r>   -11.9124     0.0000   144.0000 </r>
       <r>   -11.6713     0.0000   144.0000 </r>
       <r>   -11.4303     0.0000   144.0000 </r>
       <r>   -11.1892     0.0000   144.0000 </r>
       <r>   -10.9482     0.0000   144.0000 </r>
       <r>   -10.7071     0.0000   144.0000 </r>
       <r>   -10.4660     0.0000   144.0000 </r>
       <r>   -10.2250     0.0000   144.0000 </r>
       <r>    -9.9839     0.0000   144.0000 </r>
       <r>    -9.7428     0.0000   144.0000 </r>
       <r>    -9.5018     0.0000   144.0000 </r>
       <r>    -9.2607     0.0000   144.0000 </r>
       <r>    -9.0197     0.0000   144.0000 </r>
       <r>    -8.7786     0.0000   144.0000 </r>
       <r>    -8.5375     0.0000   144.0000 </r>
       <r>    -8.2965     0.0000   144.0000 </r>
       <r>    -8.0554     0.0000   144.0000 </r>
       <r>    -7.8144     0.0000   144.0000 </r>
       <r>    -7.5733     0.0000   144.0000 </r>
       <r>    -7.3322     0.9461   144.2281 </r>
       <r>    -7.0912    22.0401   149.5411 </r>
       <r>    -6.8501    29.4776   156.6470 </r>
       <r>    -6.6091    28.2524   163.4576 </r>
       <r>    -6.3680    31.2630   170.9939 </r>
       <r>    -6.1269     0.0253   171.0000 </r>
       <r>    -5.8859     0.0000   171.0000 </r>
       <r>    -5.6448     0.0000   171.0000 </r>
       <r>    -5.4037     0.0000   171.0000 </r>
       <r>    -5.1627     0.0000   171.0000 </r>
       <r>    -4.9216     0.0000   171.0000 </r>
       <r>    -4.6806     0.0000   171.0000 </r>
       <r>    -4.4395     0.0000   171.0000 </r>
       <r>    -4.1984     0.0000   171.0000 </r>
       <r>    -3.9574     0.0000   171.0000 </r>
       <r>    -3.7163     0.0000   171.0000 </r>
       <r>    -3.4753     0.0000   171.0000 </r>
       <r>    -3.2342     0.0000   171.0000 </r>
       <r>    -2.9931     0.0000   171.0000 </r>
       <r>    -2.7521     0.0000   171.0000 </r>
       <r>    -2.5110     0.0000   171.0000 </r>
       <r>    -2.2699     0.0000   171.0000 </r>
       <r>    -2.0289     0.0000   171.0000 </r>
       <r>    -1.7878     0.0000   171.0000 </r>
       <r>    -1.5468     0.0000   171.0000 </r>
       <r>    -1.3057     0.0000   171.0000 </r>
       <r>    -1.0646     0.0000   171.0000 </r>
       <r>    -0.8236     0.0000   171.0000 </r>
       <r>    -0.5825     0.0019   171.0005 </r>
       <r>    -0.3415    11.7401   173.8306 </r>
       <r>    -0.1004    19.9762   178.6460 </r>
       <r>     0.1407    13.7381   181.9578 </r>
       <r>     0.3817    24.0478   187.7547 </r>
       <r>     0.6228    33.3142   195.7855 </r>
       <r>     0.8639    47.0957   207.1385 </r>
       <r>     1.1049    40.4924   216.8996 </r>
       <r>     1.3460    32.6122   224.7611 </r>
       <r>     1.5870    25.5152   230.9119 </r>
       <r>     1.8281    32.6369   238.7794 </r>
       <r>     2.0692    41.0532   248.6757 </r>
       <r>     2.3102    25.9677   254.9355 </r>
       <r>     2.5513    29.9531   262.1561 </r>
       <r>     2.7923    41.8139   272.2358 </r>
       <r>     3.0334    46.8150   283.5211 </r>
       <r>     3.2745    46.4707   294.7234 </r>
       <r>     3.5155    38.8683   304.0930 </r>
       <r>     3.7566     6.8427   305.7425 </r>
       <r>     3.9976    26.5599   312.1451 </r>
       <r>     4.2387    75.6562   330.3829 </r>
       <r>     4.4798    39.0298   339.7914 </r>
       <r>     4.7208     9.1618   342.0000 </r>
       <r>     4.9619     0.0000   342.0000 </r>
       <r>     5.2030     0.0000   342.0000 </r>
       <r>     5.4440     0.0000   342.0000 </r>
       <r>     5.6851     0.0000   342.0000 </r>
       <r>     5.9261     0.0000   342.0000 </r>
       <r>     6.1672     0.0000   342.0000 </r>
       <r>     6.4083     1.6867   342.4066 </r>
       <r>     6.6493     5.0962   343.6351 </r>
       <r>     6.8904    11.8371   346.4886 </r>
       <r>     7.1314    22.4816   351.9080 </r>
       <r>     7.3725    61.4774   366.7278 </r>
       <r>     7.6136    62.6363   381.8270 </r>
       <r>     7.8546    62.7913   396.9636 </r>
       <r>     8.0957    75.6196   415.1925 </r>
       <r>     8.3368    81.6063   434.8647 </r>
       <r>     8.5778    67.9906   451.2546 </r>
       <r>     8.8189    64.1700   466.7235 </r>
       <r>     9.0599    43.7757   477.2761 </r>
       <r>     9.3010    30.8226   484.7063 </r>
       <r>     9.5421     8.0085   486.6368 </r>
       <r>     9.7831     6.0846   488.1036 </r>
       <r>    10.0242    11.8617   490.9630 </r>
       <r>    10.2652    18.3167   495.3784 </r>
       <r>    10.5063    22.4235   500.7839 </r>
       <r>    10.7474    22.6756   506.2501 </r>
       <r>    10.9884    23.7441   511.9739 </r>
       <r>    11.2295    29.8404   519.1672 </r>
       <r>    11.4706    20.0304   523.9958 </r>
       <r>    11.7116    17.4962   528.2135 </r>
       <r>    11.9527    11.3468   530.9487 </r>
       <r>    12.1937    27.3712   537.5469 </r>
       <r>    12.4348    45.8721   548.6049 </r>
       <r>    12.6759    34.7515   556.9821 </r>
       <r>    12.9169    30.4519   564.3229 </r>
       <r>    13.1580    20.7093   569.3151 </r>
       <r>    13.3990    25.2870   575.4108 </r>
       <r>    13.6401    32.8117   583.3205 </r>
       <r>    13.8812    25.9810   589.5835 </r>
       <r>    14.1222    25.4324   595.7142 </r>
       <r>    14.3633    23.3687   601.3475 </r>
       <r>    14.6043    17.7339   605.6225 </r>
       <r>    14.8454     1.5661   606.0000 </r>
       <r>    15.0865     0.0000   606.0000 </r>
       <r>    15.3275     0.0000   606.0000 </r>
       <r>    15.5686     0.0000   606.0000 </r>
       <r>    15.8097     0.0000   606.0000 </r>
       <r>    16.0507     0.0000   606.0000 </r>
       <r>    16.2918     0.0000   606.0000 </r>
       <r>    16.5328     0.0000   606.0000 </r>
       <r>    16.7739     0.0000   606.0000 </r>
       <r>    17.0150     0.0000   606.0000 </r>
       <r>    17.2560     0.0000   606.0000 </r>
       <r>    17.4971     0.0000   606.0000 </r>
       <r>    17.7381     0.0000   606.0000 </r>
       <r>    17.9792     0.0000   606.0000 </r>
      </set>
     </set>
    </array>
   </total>
  </dos>
 </calculation>
 <structure name="finalpos" >
  <crystal>
   <varray name="basis" >
    <v>      11.77726974       0.00848871       0.06923316 </v>
    <v>      -0.03028248      11.77723386       0.06923316 </v>
    <v>      -2.02000231      -2.02666320      10.18574622 </v>
   </varray>
   <i name="volume">   1416.10551572 </i>
   <varray name="rec_basis" >
    <v>       0.08481023       0.00011906       0.01684296 </v>
    <v>      -0.00016014       0.08481016       0.01684296 </v>
    <v>      -0.00057537      -0.00057727       0.09794744 </v>
   </varray>
  </crystal>
  <varray name="positions" >
   <v>       0.20224939       0.24206952       0.83183419 </v>
   <v>       0.53558272       0.24206952       0.83183419 </v>
   <v>       0.86891606       0.24206952       0.83183419 </v>
   <v>       0.20224939       0.57540285       0.83183419 </v>
   <v>       0.53558272       0.57540285       0.83183419 </v>
   <v>       0.86891606       0.57540285       0.83183419 </v>
   <v>       0.20224939       0.90873619       0.83183419 </v>
   <v>       0.53558272       0.90873619       0.83183419 </v>
   <v>       0.86891606       0.90873619       0.83183419 </v>
   <v>       0.09126381       0.13108394       0.16816581 </v>
   <v>       0.42459715       0.13108394       0.16816581 </v>
   <v>       0.75793048       0.13108394       0.16816581 </v>
   <v>       0.09126381       0.46441728       0.16816581 </v>
   <v>       0.42459715       0.46441728       0.16816581 </v>
   <v>       0.75793048       0.46441728       0.16816581 </v>
   <v>       0.09126381       0.79775061       0.16816581 </v>
   <v>       0.42459715       0.79775061       0.16816581 </v>
   <v>       0.75793048       0.79775061       0.16816581 </v>
   <v>       0.26311007       0.13598816       0.19686089 </v>
   <v>       0.59644341       0.13598816       0.19686089 </v>
   <v>       0.92977674       0.13598816       0.19686089 </v>
   <v>       0.26311007       0.46932149       0.19686089 </v>
   <v>       0.59644341       0.46932149       0.19686089 </v>
   <v>       0.92977674       0.46932149       0.19686089 </v>
   <v>       0.26311007       0.80265483       0.19686089 </v>
   <v>       0.59644341       0.80265483       0.19686089 </v>
   <v>       0.92977674       0.80265483       0.19686089 </v>
   <v>       0.19734517       0.07022326       0.80313911 </v>
   <v>       0.53067851       0.07022326       0.80313911 </v>
   <v>       0.86401184       0.07022326       0.80313911 </v>
   <v>       0.19734517       0.40355659       0.80313911 </v>
   <v>       0.53067851       0.40355659       0.80313911 </v>
   <v>       0.86401184       0.40355659       0.80313911 </v>
   <v>       0.19734517       0.73688993       0.80313911 </v>
   <v>       0.53067851       0.73688993       0.80313911 </v>
   <v>       0.86401184       0.73688993       0.80313911 </v>
   <v>       0.00253935       0.20657296       0.62920335 </v>
   <v>       0.33587268       0.20657296       0.62920335 </v>
   <v>       0.66920601       0.20657296       0.62920335 </v>
   <v>       0.00253935       0.53990630       0.62920335 </v>
   <v>       0.33587268       0.53990630       0.62920335 </v>
   <v>       0.66920601       0.53990630       0.62920335 </v>
   <v>       0.00253935       0.87323963       0.62920335 </v>
   <v>       0.33587268       0.87323963       0.62920335 </v>
   <v>       0.66920601       0.87323963       0.62920335 </v>
   <v>       0.12676037       0.33079399       0.37079665 </v>
   <v>       0.46009370       0.33079399       0.37079665 </v>
   <v>       0.79342704       0.33079399       0.37079665 </v>
   <v>       0.12676037       0.66412732       0.37079665 </v>
   <v>       0.46009370       0.66412732       0.37079665 </v>
   <v>       0.79342704       0.66412732       0.37079665 </v>
   <v>       0.12676037       0.99746065       0.37079665 </v>
   <v>       0.46009370       0.99746065       0.37079665 </v>
   <v>       0.79342704       0.99746065       0.37079665 </v>
   <v>       0.06350899       0.26982435       0.00000000 </v>
   <v>       0.39684232       0.26982435       0.00000000 </v>
   <v>       0.73017565       0.26982435       0.00000000 </v>
   <v>       0.06350899       0.60315768       0.00000000 </v>
   <v>       0.39684232       0.60315768       0.00000000 </v>
   <v>       0.73017565       0.60315768       0.00000000 </v>
   <v>       0.06350899       0.93649101       0.00000000 </v>
   <v>       0.39684232       0.93649101       0.00000000 </v>
   <v>       0.73017565       0.93649101       0.00000000 </v>
   <v>       0.29112182       0.17214940       0.39352170 </v>
   <v>       0.62360607       0.17214940       0.39352170 </v>
   <v>       0.95693941       0.17214940       0.39352170 </v>
   <v>       0.29027274       0.50548273       0.39352170 </v>
   <v>       0.62360607       0.50548273       0.39352170 </v>
   <v>       0.95693941       0.50548273       0.39352170 </v>
   <v>       0.29027274       0.83881607       0.39352170 </v>
   <v>       0.62360607       0.83881607       0.39352170 </v>
   <v>       0.95693941       0.83881607       0.39352170 </v>
   <v>       0.16118393       0.04306059       0.60647830 </v>
   <v>       0.49451727       0.04306059       0.60647830 </v>
   <v>       0.82785060       0.04306059       0.60647830 </v>
   <v>       0.16118393       0.37639393       0.60647830 </v>
   <v>       0.49451727       0.37639393       0.60647830 </v>
   <v>       0.82785060       0.37639393       0.60647830 </v>
   <v>       0.16118393       0.70972726       0.60647830 </v>
   <v>       0.49451727       0.70972726       0.60647830 </v>
   <v>       0.82785060       0.70972726       0.60647830 </v>
   <v>       0.03761391       0.07731307       0.84542777 </v>
   <v>       0.37094724       0.07731307       0.84542777 </v>
   <v>       0.70428057       0.07731307       0.84542777 </v>
   <v>       0.03761391       0.41064640       0.84542777 </v>
   <v>       0.37094724       0.41064640       0.84542777 </v>
   <v>       0.70428057       0.41064640       0.84542777 </v>
   <v>       0.03761391       0.74397973       0.84542777 </v>
   <v>       0.37094724       0.74397973       0.84542777 </v>
   <v>       0.70428057       0.74397973       0.84542777 </v>
   <v>       0.25602027       0.29571943       0.15457223 </v>
   <v>       0.58935360       0.29571943       0.15457223 </v>
   <v>       0.92268693       0.29571943       0.15457223 </v>
   <v>       0.25602027       0.62905276       0.15457223 </v>
   <v>       0.58935360       0.62905276       0.15457223 </v>
   <v>       0.92268693       0.62905276       0.15457223 </v>
   <v>       0.25602027       0.96238609       0.15457223 </v>
   <v>       0.58935360       0.96238609       0.15457223 </v>
   <v>       0.92268693       0.96238609       0.15457223 </v>
  </varray>
 </structure>
</modeling>
