 126 126   0   0
  0.1357194E+02  0.1157659E-08  0.1157660E-08  0.1387803E-08  0.5000000E-15
  1.000000000000000E-004
  CAR 
 unknown system                          
     17.62680148    -54.41730133  301      5.40932238      1.00000000
    -54.417  0.0000E+00  0.0000E+00  0.0000E+00  0.0000E+00
    -54.177  0.0000E+00  0.0000E+00  0.0000E+00  0.0000E+00
    -53.937  0.0000E+00  0.0000E+00  0.0000E+00  0.0000E+00
    -53.697  0.0000E+00  0.0000E+00  0.0000E+00  0.0000E+00
    -53.457  0.0000E+00  0.0000E+00  0.0000E+00  0.0000E+00
    -53.217  0.0000E+00  0.0000E+00  0.0000E+00  0.0000E+00
    -52.976  0.0000E+00  0.0000E+00  0.0000E+00  0.0000E+00
    -52.736  0.0000E+00  0.0000E+00  0.0000E+00  0.0000E+00
    -52.496  0.0000E+00  0.0000E+00  0.0000E+00  0.0000E+00
    -52.256  0.0000E+00  0.0000E+00  0.0000E+00  0.0000E+00
    -52.016  0.0000E+00  0.0000E+00  0.0000E+00  0.0000E+00
    -51.776  0.0000E+00  0.0000E+00  0.0000E+00  0.0000E+00
    -51.536  0.0000E+00  0.0000E+00  0.0000E+00  0.0000E+00
    -51.295  0.7794E-03  0.0000E+00  0.1872E-03  0.0000E+00
    -51.055  0.1486E+03  0.0000E+00  0.3569E+02  0.0000E+00
    -50.815  0.1296E+01  0.0000E+00  0.3600E+02  0.0000E+00
    -50.575  0.0000E+00  0.0000E+00  0.3600E+02  0.0000E+00
    -50.335  0.0000E+00  0.0000E+00  0.3600E+02  0.0000E+00
    -50.095  0.0000E+00  0.0000E+00  0.3600E+02  0.0000E+00
    -49.855  0.1922E-05  0.0000E+00  0.3600E+02  0.0000E+00
    -49.614  0.2591E+03  0.0000E+00  0.9821E+02  0.0000E+00
    -49.374  0.4076E+02  0.0000E+00  0.1080E+03  0.0000E+00
    -49.134  0.0000E+00  0.0000E+00  0.1080E+03  0.0000E+00
    -48.894  0.0000E+00  0.0000E+00  0.1080E+03  0.0000E+00
    -48.654  0.0000E+00  0.0000E+00  0.1080E+03  0.0000E+00
    -48.414  0.0000E+00  0.0000E+00  0.1080E+03  0.0000E+00
    -48.173  0.0000E+00  0.0000E+00  0.1080E+03  0.0000E+00
    -47.933  0.0000E+00  0.0000E+00  0.1080E+03  0.0000E+00
    -47.693  0.0000E+00  0.0000E+00  0.1080E+03  0.0000E+00
    -47.453  0.0000E+00  0.0000E+00  0.1080E+03  0.0000E+00
    -47.213  0.0000E+00  0.0000E+00  0.1080E+03  0.0000E+00
    -46.973  0.0000E+00  0.0000E+00  0.1080E+03  0.0000E+00
    -46.733  0.0000E+00  0.0000E+00  0.1080E+03  0.0000E+00
    -46.492  0.0000E+00  0.3603E+00  0.1080E+03  0.8654E-01
    -46.252  0.0000E+00  0.1495E+03  0.1080E+03  0.3600E+02
    -46.012  0.0000E+00  0.4852E+01  0.1080E+03  0.3716E+02
    -45.772  0.0000E+00  0.2950E+03  0.1080E+03  0.1080E+03
    -45.532  0.0000E+00  0.0000E+00  0.1080E+03  0.1080E+03
    -45.292  0.0000E+00  0.0000E+00  0.1080E+03  0.1080E+03
    -45.052  0.0000E+00  0.0000E+00  0.1080E+03  0.1080E+03
    -44.811  0.0000E+00  0.0000E+00  0.1080E+03  0.1080E+03
    -44.571  0.0000E+00  0.0000E+00  0.1080E+03  0.1080E+03
    -44.331  0.0000E+00  0.0000E+00  0.1080E+03  0.1080E+03
    -44.091  0.0000E+00  0.0000E+00  0.1080E+03  0.1080E+03
    -43.851  0.0000E+00  0.0000E+00  0.1080E+03  0.1080E+03
    -43.611  0.0000E+00  0.0000E+00  0.1080E+03  0.1080E+03
    -43.371  0.0000E+00  0.0000E+00  0.1080E+03  0.1080E+03
    -43.130  0.0000E+00  0.0000E+00  0.1080E+03  0.1080E+03
    -42.890  0.0000E+00  0.0000E+00  0.1080E+03  0.1080E+03
    -42.650  0.0000E+00  0.0000E+00  0.1080E+03  0.1080E+03
    -42.410  0.0000E+00  0.0000E+00  0.1080E+03  0.1080E+03
    -42.170  0.0000E+00  0.0000E+00  0.1080E+03  0.1080E+03
    -41.930  0.0000E+00  0.0000E+00  0.1080E+03  0.1080E+03
    -41.690  0.0000E+00  0.0000E+00  0.1080E+03  0.1080E+03
    -41.449  0.0000E+00  0.0000E+00  0.1080E+03  0.1080E+03
    -41.209  0.0000E+00  0.0000E+00  0.1080E+03  0.1080E+03
    -40.969  0.0000E+00  0.0000E+00  0.1080E+03  0.1080E+03
    -40.729  0.0000E+00  0.0000E+00  0.1080E+03  0.1080E+03
    -40.489  0.0000E+00  0.0000E+00  0.1080E+03  0.1080E+03
    -40.249  0.0000E+00  0.0000E+00  0.1080E+03  0.1080E+03
    -40.008  0.0000E+00  0.0000E+00  0.1080E+03  0.1080E+03
    -39.768  0.2097E-02  0.1938E-02  0.1080E+03  0.1080E+03
    -39.528  0.1479E+03  0.1478E+03  0.1435E+03  0.1435E+03
    -39.288  0.2040E+01  0.2116E+01  0.1440E+03  0.1440E+03
    -39.048  0.0000E+00  0.0000E+00  0.1440E+03  0.1440E+03
    -38.808  0.0000E+00  0.0000E+00  0.1440E+03  0.1440E+03
    -38.568  0.0000E+00  0.0000E+00  0.1440E+03  0.1440E+03
    -38.327  0.0000E+00  0.0000E+00  0.1440E+03  0.1440E+03
    -38.087  0.0000E+00  0.0000E+00  0.1440E+03  0.1440E+03
    -37.847  0.0000E+00  0.0000E+00  0.1440E+03  0.1440E+03
    -37.607  0.0000E+00  0.0000E+00  0.1440E+03  0.1440E+03
    -37.367  0.0000E+00  0.0000E+00  0.1440E+03  0.1440E+03
    -37.127  0.0000E+00  0.0000E+00  0.1440E+03  0.1440E+03
    -36.887  0.0000E+00  0.0000E+00  0.1440E+03  0.1440E+03
    -36.646  0.0000E+00  0.0000E+00  0.1440E+03  0.1440E+03
    -36.406  0.0000E+00  0.0000E+00  0.1440E+03  0.1440E+03
    -36.166  0.0000E+00  0.0000E+00  0.1440E+03  0.1440E+03
    -35.926  0.0000E+00  0.0000E+00  0.1440E+03  0.1440E+03
    -35.686  0.0000E+00  0.0000E+00  0.1440E+03  0.1440E+03
    -35.446  0.0000E+00  0.0000E+00  0.1440E+03  0.1440E+03
    -35.206  0.0000E+00  0.0000E+00  0.1440E+03  0.1440E+03
    -34.965  0.0000E+00  0.0000E+00  0.1440E+03  0.1440E+03
    -34.725  0.0000E+00  0.0000E+00  0.1440E+03  0.1440E+03
    -34.485  0.0000E+00  0.0000E+00  0.1440E+03  0.1440E+03
    -34.245  0.0000E+00  0.0000E+00  0.1440E+03  0.1440E+03
    -34.005  0.0000E+00  0.0000E+00  0.1440E+03  0.1440E+03
    -33.765  0.0000E+00  0.0000E+00  0.1440E+03  0.1440E+03
    -33.525  0.0000E+00  0.0000E+00  0.1440E+03  0.1440E+03
    -33.284  0.0000E+00  0.0000E+00  0.1440E+03  0.1440E+03
    -33.044  0.0000E+00  0.0000E+00  0.1440E+03  0.1440E+03
    -32.804  0.0000E+00  0.0000E+00  0.1440E+03  0.1440E+03
    -32.564  0.0000E+00  0.0000E+00  0.1440E+03  0.1440E+03
    -32.324  0.0000E+00  0.0000E+00  0.1440E+03  0.1440E+03
    -32.084  0.0000E+00  0.0000E+00  0.1440E+03  0.1440E+03
    -31.843  0.0000E+00  0.0000E+00  0.1440E+03  0.1440E+03
    -31.603  0.0000E+00  0.0000E+00  0.1440E+03  0.1440E+03
    -31.363  0.0000E+00  0.0000E+00  0.1440E+03  0.1440E+03
    -31.123  0.0000E+00  0.0000E+00  0.1440E+03  0.1440E+03
    -30.883  0.0000E+00  0.0000E+00  0.1440E+03  0.1440E+03
    -30.643  0.0000E+00  0.0000E+00  0.1440E+03  0.1440E+03
    -30.403  0.0000E+00  0.0000E+00  0.1440E+03  0.1440E+03
    -30.162  0.0000E+00  0.0000E+00  0.1440E+03  0.1440E+03
    -29.922  0.0000E+00  0.0000E+00  0.1440E+03  0.1440E+03
    -29.682  0.0000E+00  0.0000E+00  0.1440E+03  0.1440E+03
    -29.442  0.0000E+00  0.0000E+00  0.1440E+03  0.1440E+03
    -29.202  0.0000E+00  0.0000E+00  0.1440E+03  0.1440E+03
    -28.962  0.0000E+00  0.0000E+00  0.1440E+03  0.1440E+03
    -28.722  0.0000E+00  0.0000E+00  0.1440E+03  0.1440E+03
    -28.481  0.0000E+00  0.0000E+00  0.1440E+03  0.1440E+03
    -28.241  0.0000E+00  0.0000E+00  0.1440E+03  0.1440E+03
    -28.001  0.0000E+00  0.0000E+00  0.1440E+03  0.1440E+03
    -27.761  0.0000E+00  0.0000E+00  0.1440E+03  0.1440E+03
    -27.521  0.0000E+00  0.0000E+00  0.1440E+03  0.1440E+03
    -27.281  0.0000E+00  0.0000E+00  0.1440E+03  0.1440E+03
    -27.041  0.0000E+00  0.0000E+00  0.1440E+03  0.1440E+03
    -26.800  0.0000E+00  0.0000E+00  0.1440E+03  0.1440E+03
    -26.560  0.0000E+00  0.0000E+00  0.1440E+03  0.1440E+03
    -26.320  0.0000E+00  0.0000E+00  0.1440E+03  0.1440E+03
    -26.080  0.0000E+00  0.0000E+00  0.1440E+03  0.1440E+03
    -25.840  0.0000E+00  0.0000E+00  0.1440E+03  0.1440E+03
    -25.600  0.0000E+00  0.0000E+00  0.1440E+03  0.1440E+03
    -25.360  0.0000E+00  0.0000E+00  0.1440E+03  0.1440E+03
    -25.119  0.0000E+00  0.0000E+00  0.1440E+03  0.1440E+03
    -24.879  0.0000E+00  0.0000E+00  0.1440E+03  0.1440E+03
    -24.639  0.0000E+00  0.0000E+00  0.1440E+03  0.1440E+03
    -24.399  0.0000E+00  0.0000E+00  0.1440E+03  0.1440E+03
    -24.159  0.0000E+00  0.0000E+00  0.1440E+03  0.1440E+03
    -23.919  0.0000E+00  0.0000E+00  0.1440E+03  0.1440E+03
    -23.678  0.0000E+00  0.0000E+00  0.1440E+03  0.1440E+03
    -23.438  0.0000E+00  0.0000E+00  0.1440E+03  0.1440E+03
    -23.198  0.0000E+00  0.0000E+00  0.1440E+03  0.1440E+03
    -22.958  0.0000E+00  0.0000E+00  0.1440E+03  0.1440E+03
    -22.718  0.0000E+00  0.0000E+00  0.1440E+03  0.1440E+03
    -22.478  0.0000E+00  0.0000E+00  0.1440E+03  0.1440E+03
    -22.238  0.0000E+00  0.0000E+00  0.1440E+03  0.1440E+03
    -21.997  0.0000E+00  0.0000E+00  0.1440E+03  0.1440E+03
    -21.757  0.0000E+00  0.0000E+00  0.1440E+03  0.1440E+03
    -21.517  0.0000E+00  0.0000E+00  0.1440E+03  0.1440E+03
    -21.277  0.0000E+00  0.0000E+00  0.1440E+03  0.1440E+03
    -21.037  0.0000E+00  0.0000E+00  0.1440E+03  0.1440E+03
    -20.797  0.0000E+00  0.0000E+00  0.1440E+03  0.1440E+03
    -20.557  0.0000E+00  0.0000E+00  0.1440E+03  0.1440E+03
    -20.316  0.0000E+00  0.0000E+00  0.1440E+03  0.1440E+03
    -20.076  0.0000E+00  0.0000E+00  0.1440E+03  0.1440E+03
    -19.836  0.0000E+00  0.0000E+00  0.1440E+03  0.1440E+03
    -19.596  0.0000E+00  0.0000E+00  0.1440E+03  0.1440E+03
    -19.356  0.0000E+00  0.0000E+00  0.1440E+03  0.1440E+03
    -19.116  0.0000E+00  0.0000E+00  0.1440E+03  0.1440E+03
    -18.876  0.0000E+00  0.0000E+00  0.1440E+03  0.1440E+03
    -18.635  0.0000E+00  0.0000E+00  0.1440E+03  0.1440E+03
    -18.395  0.0000E+00  0.0000E+00  0.1440E+03  0.1440E+03
    -18.155  0.0000E+00  0.0000E+00  0.1440E+03  0.1440E+03
    -17.915  0.0000E+00  0.0000E+00  0.1440E+03  0.1440E+03
    -17.675  0.0000E+00  0.0000E+00  0.1440E+03  0.1440E+03
    -17.435  0.0000E+00  0.0000E+00  0.1440E+03  0.1440E+03
    -17.195  0.0000E+00  0.0000E+00  0.1440E+03  0.1440E+03
    -16.954  0.0000E+00  0.0000E+00  0.1440E+03  0.1440E+03
    -16.714  0.0000E+00  0.0000E+00  0.1440E+03  0.1440E+03
    -16.474  0.0000E+00  0.0000E+00  0.1440E+03  0.1440E+03
    -16.234  0.0000E+00  0.0000E+00  0.1440E+03  0.1440E+03
    -15.994  0.0000E+00  0.0000E+00  0.1440E+03  0.1440E+03
    -15.754  0.0000E+00  0.0000E+00  0.1440E+03  0.1440E+03
    -15.513  0.0000E+00  0.0000E+00  0.1440E+03  0.1440E+03
    -15.273  0.0000E+00  0.0000E+00  0.1440E+03  0.1440E+03
    -15.033  0.0000E+00  0.0000E+00  0.1440E+03  0.1440E+03
    -14.793  0.0000E+00  0.0000E+00  0.1440E+03  0.1440E+03
    -14.553  0.0000E+00  0.0000E+00  0.1440E+03  0.1440E+03
    -14.313  0.0000E+00  0.0000E+00  0.1440E+03  0.1440E+03
    -14.073  0.0000E+00  0.0000E+00  0.1440E+03  0.1440E+03
    -13.832  0.0000E+00  0.0000E+00  0.1440E+03  0.1440E+03
    -13.592  0.0000E+00  0.0000E+00  0.1440E+03  0.1440E+03
    -13.352  0.0000E+00  0.0000E+00  0.1440E+03  0.1440E+03
    -13.112  0.0000E+00  0.0000E+00  0.1440E+03  0.1440E+03
    -12.872  0.3619E-01  0.0000E+00  0.1440E+03  0.1440E+03
    -12.632  0.7328E+02  0.7267E-03  0.1616E+03  0.1440E+03
    -12.392  0.1636E+01  0.6509E+02  0.1620E+03  0.1596E+03
    -12.151  0.0000E+00  0.9865E+01  0.1620E+03  0.1620E+03
    -11.911  0.0000E+00  0.0000E+00  0.1620E+03  0.1620E+03
    -11.671  0.0000E+00  0.0000E+00  0.1620E+03  0.1620E+03
    -11.431  0.0000E+00  0.0000E+00  0.1620E+03  0.1620E+03
    -11.191  0.0000E+00  0.0000E+00  0.1620E+03  0.1620E+03
    -10.951  0.0000E+00  0.0000E+00  0.1620E+03  0.1620E+03
    -10.711  0.0000E+00  0.0000E+00  0.1620E+03  0.1620E+03
    -10.470  0.0000E+00  0.0000E+00  0.1620E+03  0.1620E+03
    -10.230  0.0000E+00  0.0000E+00  0.1620E+03  0.1620E+03
     -9.990  0.0000E+00  0.0000E+00  0.1620E+03  0.1620E+03
     -9.750  0.0000E+00  0.0000E+00  0.1620E+03  0.1620E+03
     -9.510  0.0000E+00  0.0000E+00  0.1620E+03  0.1620E+03
     -9.270  0.0000E+00  0.0000E+00  0.1620E+03  0.1620E+03
     -9.030  0.0000E+00  0.0000E+00  0.1620E+03  0.1620E+03
     -8.789  0.0000E+00  0.0000E+00  0.1620E+03  0.1620E+03
     -8.549  0.0000E+00  0.0000E+00  0.1620E+03  0.1620E+03
     -8.309  0.0000E+00  0.0000E+00  0.1620E+03  0.1620E+03
     -8.069  0.0000E+00  0.0000E+00  0.1620E+03  0.1620E+03
     -7.829  0.9142E-02  0.2427E-14  0.1620E+03  0.1620E+03
     -7.589  0.7982E+01  0.9784E-01  0.1639E+03  0.1620E+03
     -7.348  0.1450E+02  0.9843E+01  0.1674E+03  0.1644E+03
     -7.108  0.2479E+02  0.1731E+02  0.1734E+03  0.1685E+03
     -6.868  0.7438E+02  0.2416E+02  0.1912E+03  0.1743E+03
     -6.628  0.2824E+02  0.7058E+02  0.1980E+03  0.1913E+03
     -6.388  0.1049E-03  0.2790E+02  0.1980E+03  0.1980E+03
     -6.148  0.0000E+00  0.9439E-02  0.1980E+03  0.1980E+03
     -5.908  0.0000E+00  0.0000E+00  0.1980E+03  0.1980E+03
     -5.667  0.0000E+00  0.0000E+00  0.1980E+03  0.1980E+03
     -5.427  0.0000E+00  0.0000E+00  0.1980E+03  0.1980E+03
     -5.187  0.0000E+00  0.0000E+00  0.1980E+03  0.1980E+03
     -4.947  0.0000E+00  0.0000E+00  0.1980E+03  0.1980E+03
     -4.707  0.0000E+00  0.0000E+00  0.1980E+03  0.1980E+03
     -4.467  0.0000E+00  0.0000E+00  0.1980E+03  0.1980E+03
     -4.227  0.0000E+00  0.0000E+00  0.1980E+03  0.1980E+03
     -3.986  0.0000E+00  0.0000E+00  0.1980E+03  0.1980E+03
     -3.746  0.0000E+00  0.0000E+00  0.1980E+03  0.1980E+03
     -3.506  0.0000E+00  0.0000E+00  0.1980E+03  0.1980E+03
     -3.266  0.0000E+00  0.0000E+00  0.1980E+03  0.1980E+03
     -3.026  0.0000E+00  0.0000E+00  0.1980E+03  0.1980E+03
     -2.786  0.0000E+00  0.0000E+00  0.1980E+03  0.1980E+03
     -2.546  0.0000E+00  0.0000E+00  0.1980E+03  0.1980E+03
     -2.305  0.0000E+00  0.0000E+00  0.1980E+03  0.1980E+03
     -2.065  0.0000E+00  0.0000E+00  0.1980E+03  0.1980E+03
     -1.825  0.7320E-15  0.0000E+00  0.1980E+03  0.1980E+03
     -1.585  0.1679E+00  0.0000E+00  0.1980E+03  0.1980E+03
     -1.345  0.4719E+02  0.0000E+00  0.2094E+03  0.1980E+03
     -1.105  0.2760E+02  0.0000E+00  0.2160E+03  0.1980E+03
     -0.865  0.3261E+01  0.0000E+00  0.2168E+03  0.1980E+03
     -0.624  0.4090E+02  0.8832E-10  0.2266E+03  0.1980E+03
     -0.384  0.1109E+03  0.1402E+01  0.2532E+03  0.1983E+03
     -0.144  0.1148E+03  0.1268E+02  0.2808E+03  0.2014E+03
      0.096  0.1047E+03  0.2012E+02  0.3060E+03  0.2062E+03
      0.336  0.8737E+02  0.2755E+02  0.3270E+03  0.2128E+03
      0.576  0.7660E+02  0.3104E+02  0.3453E+03  0.2203E+03
      0.817  0.3464E+02  0.3729E+02  0.3537E+03  0.2292E+03
      1.057  0.3040E+02  0.3619E+02  0.3610E+03  0.2379E+03
      1.297  0.4995E+02  0.4686E+02  0.3730E+03  0.2492E+03
      1.537  0.3223E+02  0.3092E+02  0.3807E+03  0.2566E+03
      1.777  0.5695E+02  0.6190E+02  0.3944E+03  0.2715E+03
      2.017  0.1240E+03  0.4673E+02  0.4242E+03  0.2827E+03
      2.257  0.7775E+02  0.1851E+02  0.4428E+03  0.2871E+03
      2.498  0.5312E+02  0.3049E+02  0.4556E+03  0.2945E+03
      2.738  0.3977E+02  0.5974E+02  0.4651E+03  0.3088E+03
      2.978  0.2514E+02  0.4951E+02  0.4712E+03  0.3207E+03
      3.218  0.1594E+02  0.5681E+02  0.4750E+03  0.3343E+03
      3.458  0.2773E+02  0.7520E+02  0.4817E+03  0.3524E+03
      3.698  0.4030E+02  0.2598E+02  0.4913E+03  0.3586E+03
      3.938  0.4263E+02  0.1972E+02  0.5016E+03  0.3634E+03
      4.179  0.4507E+02  0.9449E+02  0.5124E+03  0.3861E+03
      4.419  0.4507E+02  0.3975E+02  0.5232E+03  0.3956E+03
      4.659  0.2494E+02  0.1600E+01  0.5292E+03  0.3960E+03
      4.899  0.2768E+02  0.0000E+00  0.5359E+03  0.3960E+03
      5.139  0.1718E+02  0.0000E+00  0.5400E+03  0.3960E+03
      5.379  0.3176E-01  0.0000E+00  0.5400E+03  0.3960E+03
      5.619  0.0000E+00  0.0000E+00  0.5400E+03  0.3960E+03
      5.860  0.0000E+00  0.0000E+00  0.5400E+03  0.3960E+03
      6.100  0.0000E+00  0.6346E-13  0.5400E+03  0.3960E+03
      6.340  0.0000E+00  0.1926E+00  0.5400E+03  0.3960E+03
      6.580  0.0000E+00  0.4506E+01  0.5400E+03  0.3971E+03
      6.820  0.0000E+00  0.1395E+02  0.5400E+03  0.4005E+03
      7.060  0.0000E+00  0.3013E+02  0.5400E+03  0.4077E+03
      7.300  0.9141E-05  0.5718E+02  0.5400E+03  0.4214E+03
      7.541  0.5524E+00  0.7998E+02  0.5401E+03  0.4407E+03
      7.781  0.2318E+01  0.6701E+02  0.5407E+03  0.4567E+03
      8.021  0.1719E+01  0.8394E+02  0.5411E+03  0.4769E+03
      8.261  0.7094E+01  0.9865E+02  0.5428E+03  0.5006E+03
      8.501  0.7671E+01  0.3832E+02  0.5446E+03  0.5098E+03
      8.741  0.4753E+01  0.4457E+02  0.5458E+03  0.5205E+03
      8.982  0.1143E+02  0.4012E+02  0.5485E+03  0.5301E+03
      9.222  0.2028E+02  0.3921E+02  0.5534E+03  0.5395E+03
      9.462  0.2090E+02  0.1497E+02  0.5584E+03  0.5431E+03
      9.702  0.3081E+02  0.1548E+02  0.5658E+03  0.5469E+03
      9.942  0.2747E+02  0.1313E+02  0.5724E+03  0.5500E+03
     10.182  0.1721E+02  0.2603E+02  0.5766E+03  0.5563E+03
     10.422  0.1460E+02  0.2194E+02  0.5801E+03  0.5615E+03
     10.663  0.1900E+02  0.2788E+02  0.5846E+03  0.5682E+03
     10.903  0.2377E+02  0.2476E+02  0.5903E+03  0.5742E+03
     11.143  0.2894E+02  0.2487E+02  0.5973E+03  0.5801E+03
     11.383  0.2902E+02  0.2054E+02  0.6042E+03  0.5851E+03
     11.623  0.3031E+02  0.2431E+02  0.6115E+03  0.5909E+03
     11.863  0.3017E+02  0.2690E+02  0.6188E+03  0.5974E+03
     12.103  0.4176E+02  0.2650E+02  0.6288E+03  0.6037E+03
     12.344  0.5009E+02  0.3625E+02  0.6408E+03  0.6124E+03
     12.584  0.2518E+02  0.3837E+02  0.6469E+03  0.6217E+03
     12.824  0.2746E+02  0.4645E+02  0.6535E+03  0.6328E+03
     13.064  0.3297E+02  0.3529E+02  0.6614E+03  0.6413E+03
     13.304  0.3664E+02  0.3025E+02  0.6702E+03  0.6486E+03
     13.544  0.2422E+02  0.4810E+02  0.6760E+03  0.6601E+03
     13.784  0.1245E+02  0.3830E+02  0.6790E+03  0.6693E+03
     14.025  0.4190E+01  0.2081E+02  0.6800E+03  0.6743E+03
     14.265  0.2310E-02  0.1809E+02  0.6800E+03  0.6786E+03
     14.505  0.0000E+00  0.5634E+01  0.6800E+03  0.6800E+03
     14.745  0.0000E+00  0.7252E-05  0.6800E+03  0.6800E+03
     14.985  0.0000E+00  0.0000E+00  0.6800E+03  0.6800E+03
     15.225  0.0000E+00  0.0000E+00  0.6800E+03  0.6800E+03
     15.465  0.0000E+00  0.0000E+00  0.6800E+03  0.6800E+03
     15.706  0.0000E+00  0.0000E+00  0.6800E+03  0.6800E+03
     15.946  0.0000E+00  0.0000E+00  0.6800E+03  0.6800E+03
     16.186  0.0000E+00  0.0000E+00  0.6800E+03  0.6800E+03
     16.426  0.0000E+00  0.0000E+00  0.6800E+03  0.6800E+03
     16.666  0.0000E+00  0.0000E+00  0.6800E+03  0.6800E+03
     16.906  0.0000E+00  0.0000E+00  0.6800E+03  0.6800E+03
     17.147  0.0000E+00  0.0000E+00  0.6800E+03  0.6800E+03
     17.387  0.0000E+00  0.0000E+00  0.6800E+03  0.6800E+03
     17.627  0.0000E+00  0.0000E+00  0.6800E+03  0.6800E+03
