 vasp.5.4.4.18Apr17-6-g9f103f2a35 (build Oct 25 2017 14:42:18) complex          
  
 executed on             LinuxIFC date 2021.04.17  02:37:36
 running on   48 total cores
 distrk:  each k-point on   24 cores,    2 groups
 distr:  one band on NCORES_PER_BAND=   6 cores,    4 groups


--------------------------------------------------------------------------------------------------------


 INCAR:
 POTCAR:    PAW_PBE Li_sv 10Sep2004               
 POTCAR:    PAW_PBE O 08Apr2002                   
 POTCAR:    PAW_PBE S 06Sep2000                   
 POTCAR:    PAW_PBE Fe_pv 02Aug2007               

 ----------------------------------------------------------------------------- 
|                                                                             |
|           W    W    AA    RRRRR   N    N  II  N    N   GGGG   !!!           |
|           W    W   A  A   R    R  NN   N  II  NN   N  G    G  !!!           |
|           W    W  A    A  R    R  N N  N  II  N N  N  G       !!!           |
|           W WW W  AAAAAA  RRRRR   N  N N  II  N  N N  G  GGG   !            |
|           WW  WW  A    A  R   R   N   NN  II  N   NN  G    G                |
|           W    W  A    A  R    R  N    N  II  N    N   GGGG   !!!           |
|                                                                             |
|      You have enabled k-point parallelism (KPAR>1).                         |
|      This developmental code was originally  written by Paul Kent at ORNL,  |
|      and carefully double checked in Vienna.                                |
|      GW as well as linear response parallelism added by Martijn Marsman     |
|      and Georg Kresse.                                                      |
|      Carefully verify results versus KPAR=1.                                |
|      Report problems to Paul Kent and Vienna.                               |
|                                                                             |
 ----------------------------------------------------------------------------- 

 POTCAR:    PAW_PBE Li_sv 10Sep2004               
  local pseudopotential read in
  atomic valenz-charges read in
  non local Contribution for L=           0  read in
    real space projection operators read in
  non local Contribution for L=           0  read in
    real space projection operators read in
  non local Contribution for L=           1  read in
    real space projection operators read in
    PAW grid and wavefunctions read in
 
   number of l-projection  operators is LMAX  =           3
   number of lm-projection operators is LMMAX =           5
 
 POTCAR:    PAW_PBE O 08Apr2002                   
  local pseudopotential read in
  partial core-charges read in
  partial kinetic energy density read in
  kinetic energy density of atom read in
  atomic valenz-charges read in
  non local Contribution for L=           0  read in
    real space projection operators read in
  non local Contribution for L=           0  read in
    real space projection operators read in
  non local Contribution for L=           1  read in
    real space projection operators read in
  non local Contribution for L=           1  read in
    real space projection operators read in
    PAW grid and wavefunctions read in
 
   number of l-projection  operators is LMAX  =           4
   number of lm-projection operators is LMMAX =           8
 
 POTCAR:    PAW_PBE S 06Sep2000                   
  local pseudopotential read in
  partial core-charges read in
  partial kinetic energy density read in
  atomic valenz-charges read in
  non local Contribution for L=           0  read in
    real space projection operators read in
  non local Contribution for L=           0  read in
    real space projection operators read in
  non local Contribution for L=           1  read in
    real space projection operators read in
  non local Contribution for L=           1  read in
    real space projection operators read in
    PAW grid and wavefunctions read in
 
   number of l-projection  operators is LMAX  =           4
   number of lm-projection operators is LMMAX =           8
 
 POTCAR:    PAW_PBE Fe_pv 02Aug2007               
  local pseudopotential read in
  partial core-charges read in
  partial kinetic energy density read in
  atomic valenz-charges read in
  non local Contribution for L=           1  read in
    real space projection operators read in
  non local Contribution for L=           1  read in
    real space projection operators read in
  non local Contribution for L=           2  read in
    real space projection operators read in
  non local Contribution for L=           2  read in
    real space projection operators read in
  non local Contribution for L=           0  read in
    real space projection operators read in
  non local Contribution for L=           0  read in
    real space projection operators read in
    PAW grid and wavefunctions read in
 
   number of l-projection  operators is LMAX  =           6
   number of lm-projection operators is LMMAX =          18
 

 ----------------------------------------------------------------------------- 
|                                                                             |
|  ADVICE TO THIS USER RUNNING 'VASP/VAMP'   (HEAR YOUR MASTER'S VOICE ...):  |
|                                                                             |
|      You have a (more or less) 'large supercell' and for larger cells       |
|      it might be more efficient to use real space projection opertators     |
|      So try LREAL= Auto  in the INCAR   file.                               |
|      Mind:          For very  accurate calculation you might also keep the  |
|      reciprocal projection scheme          (i.e. LREAL=.FALSE.)             |
|                                                                             |
 ----------------------------------------------------------------------------- 

  PAW_PBE Li_sv 10Sep2004               :
 energy of atom  1       EATOM= -202.7858
 kinetic energy error for atom=    0.0072 (will be added to EATOM!!)
  PAW_PBE O 08Apr2002                   :
 energy of atom  2       EATOM= -432.3788
 kinetic energy error for atom=    0.0129 (will be added to EATOM!!)
  PAW_PBE S 06Sep2000                   :
 energy of atom  3       EATOM= -276.8230
 kinetic energy error for atom=    0.0008 (will be added to EATOM!!)
  PAW_PBE Fe_pv 02Aug2007               :
 energy of atom  4       EATOM=-2457.4239
 kinetic energy error for atom=    0.0041 (will be added to EATOM!!)
 
 
 POSCAR: # Compound: Li36O18S36Fe36. Old comment:
  positions in direct lattice
  No initial velocities read in
 exchange correlation table for  LEXCH =        8
   RHO(1)=    0.500       N(1)  =     2000
   RHO(2)=  100.500       N(2)  =     4000
 


--------------------------------------------------------------------------------------------------------


 ion  position               nearest neighbor table
   1  0.149  0.017  0.000-  39 1.92  37 1.94
   2  0.483  0.017  0.000-  38 1.93  37 1.93
   3  0.816  0.017  0.000-  39 1.93  38 1.93
   4  0.149  0.351  0.000-  40 1.93  42 1.93
   5  0.483  0.351  0.000-  41 1.93  40 1.93
   6  0.816  0.351  0.000-  42 1.93  41 1.93
   7  0.149  0.684  0.000-  43 1.93  45 1.93
   8  0.483  0.684  0.000-  44 1.93  43 1.93
   9  0.816  0.684  0.000-  45 1.93  44 1.93
  10  0.149  0.017  0.500-  46 1.93  48 1.93
  11  0.483  0.017  0.500-  47 1.93  46 1.93
  12  0.816  0.017  0.500-  48 1.93  47 1.93
  13  0.149  0.351  0.500-  49 1.93  51 1.93
  14  0.483  0.351  0.500-  50 1.93  49 1.93
  15  0.816  0.351  0.500-  51 1.93  50 1.93
  16  0.149  0.684  0.500-  52 1.93  54 1.93
  17  0.483  0.684  0.500-  53 1.93  52 1.93
  18  0.816  0.684  0.500-  54 1.93  53 1.93
  19  0.316  0.184  0.500-  46 1.93  49 1.93
  20  0.649  0.184  0.500-  47 1.93  50 1.93
  21  0.983  0.184  0.500-  48 1.93  51 1.93
  22  0.316  0.517  0.500-  49 1.93  52 1.93
  23  0.649  0.517  0.500-  50 1.93  53 1.93
  24  0.983  0.517  0.500-  51 1.93  54 1.93
  25  0.316  0.851  0.500-  52 1.93  46 1.93
  26  0.649  0.851  0.500-  53 1.93  47 1.93
  27  0.983  0.851  0.500-  54 1.93  48 1.93
  28  0.316  0.184  1.000-  37 1.93  40 1.93
  29  0.649  0.184  1.000-  38 1.93  41 1.93
  30  0.983  0.184  1.000-  39 1.93  42 1.93
  31  0.316  0.517  1.000-  40 1.93  43 1.93
  32  0.649  0.517  1.000-  41 1.93  44 1.93
  33  0.983  0.517  1.000-  42 1.93  45 1.93
  34  0.316  0.851  1.000-  43 1.93  37 1.93
  35  0.649  0.851  1.000-  44 1.93  38 1.93
  36  0.983  0.851  1.000-  45 1.93  39 1.93
  37  0.316  0.017  0.000-  28 1.93   2 1.93  34 1.93   1 1.94  92 2.04 124 2.04
  38  0.649  0.017  0.000-  29 1.93   2 1.93   3 1.93  35 1.93  93 2.04 125 2.04
  39  0.983  0.017  0.000-   1 1.92  30 1.93   3 1.93  36 1.93  91 2.04 126 2.04
  40  0.316  0.351  0.000-  31 1.93   4 1.93   5 1.93  28 1.93  95 2.04 118 2.04
  41  0.649  0.351  0.000-  32 1.93   5 1.93   6 1.93  29 1.93  96 2.04 119 2.04
  42  0.983  0.351  0.000-  33 1.93   6 1.93   4 1.93  30 1.93  94 2.04 120 2.04
  43  0.316  0.684  0.000-  34 1.93   7 1.93   8 1.93  31 1.93  98 2.04 121 2.04
  44  0.649  0.684  0.000-  35 1.93   8 1.93   9 1.93  32 1.93  99 2.04 122 2.04
  45  0.983  0.684  0.000-  36 1.93   9 1.93   7 1.93  33 1.93  97 2.04 123 2.04
  46  0.316  0.017  0.500-  19 1.93  10 1.93  11 1.93  25 1.93 101 2.04 115 2.04
  47  0.649  0.017  0.500-  20 1.93  11 1.93  12 1.93  26 1.93 102 2.04 116 2.04
  48  0.983  0.017  0.500-  21 1.93  12 1.93  10 1.93  27 1.93 100 2.04 117 2.04
  49  0.316  0.351  0.500-  22 1.93  13 1.93  14 1.93  19 1.93 104 2.04 109 2.04
  50  0.649  0.351  0.500-  23 1.93  14 1.93  15 1.93  20 1.93 105 2.04 110 2.04
  51  0.983  0.351  0.500-  24 1.93  15 1.93  13 1.93  21 1.93 103 2.04 111 2.04
  52  0.316  0.684  0.500-  25 1.93  16 1.93  17 1.93  22 1.93 107 2.04 112 2.04
  53  0.649  0.684  0.500-  26 1.93  17 1.93  18 1.93  23 1.93 108 2.04 113 2.04
  54  0.983  0.684  0.500-  27 1.93  18 1.93  16 1.93  24 1.93 106 2.04 114 2.04
  55  0.199  0.234  0.150- 109 2.43  91 2.73  94 2.73  92 2.73  95 2.73
  56  0.533  0.234  0.150- 110 2.43  92 2.73  95 2.73  93 2.73  96 2.73
  57  0.866  0.234  0.150- 111 2.43  93 2.73  96 2.73  91 2.73  94 2.73
  58  0.199  0.567  0.150- 112 2.43  94 2.73  97 2.73  95 2.73  98 2.73
  59  0.533  0.567  0.150- 113 2.43  95 2.73  98 2.73  96 2.73  99 2.73
  60  0.866  0.567  0.150- 114 2.43  96 2.73  99 2.73  94 2.73  97 2.73
  61  0.199  0.901  0.150- 115 2.43  97 2.73  91 2.73  98 2.73  92 2.73
  62  0.533  0.901  0.150- 116 2.43  98 2.73  92 2.73  99 2.73  93 2.73
  63  0.866  0.901  0.150- 117 2.43  99 2.73  93 2.73  97 2.73  91 2.73
  64  0.199  0.234  0.650- 118 2.43 100 2.73 103 2.73 101 2.73 104 2.73
  65  0.533  0.234  0.650- 119 2.43 101 2.73 104 2.73 102 2.73 105 2.73
  66  0.866  0.234  0.650- 120 2.43 102 2.73 105 2.73 100 2.73 103 2.73
  67  0.199  0.567  0.650- 121 2.43 103 2.73 106 2.73 104 2.73 107 2.73
  68  0.533  0.567  0.650- 122 2.43 104 2.73 107 2.73 105 2.73 108 2.73
  69  0.866  0.567  0.650- 123 2.43 105 2.73 108 2.73 103 2.73 106 2.73
  70  0.199  0.901  0.650- 124 2.43 106 2.73 100 2.73 107 2.73 101 2.73
  71  0.533  0.901  0.650- 125 2.43 107 2.73 101 2.73 108 2.73 102 2.73
  72  0.866  0.901  0.650- 126 2.43 108 2.73 102 2.73 106 2.73 100 2.73
  73  0.099  0.134  0.350-  91 2.43 109 2.73 111 2.73 115 2.73 117 2.73
  74  0.433  0.134  0.350-  92 2.43 110 2.73 109 2.73 116 2.73 115 2.73
  75  0.766  0.134  0.350-  93 2.43 111 2.73 110 2.73 117 2.73 116 2.73
  76  0.099  0.467  0.350-  94 2.43 112 2.73 114 2.73 109 2.73 111 2.73
  77  0.433  0.467  0.350-  95 2.43 113 2.73 112 2.73 110 2.73 109 2.73
  78  0.766  0.467  0.350-  96 2.43 114 2.73 113 2.73 111 2.73 110 2.73
  79  0.099  0.801  0.350-  97 2.43 115 2.73 117 2.73 112 2.73 114 2.73
  80  0.433  0.801  0.350-  98 2.43 116 2.73 115 2.73 113 2.73 112 2.73
  81  0.766  0.801  0.350-  99 2.43 117 2.73 116 2.73 114 2.73 113 2.73
  82  0.099  0.134  0.850- 100 2.43 118 2.73 120 2.73 124 2.73 126 2.73
  83  0.433  0.134  0.850- 101 2.43 119 2.73 118 2.73 125 2.73 124 2.73
  84  0.766  0.134  0.850- 102 2.43 120 2.73 119 2.73 126 2.73 125 2.73
  85  0.099  0.467  0.850- 103 2.43 121 2.73 123 2.73 118 2.73 120 2.73
  86  0.433  0.467  0.850- 104 2.43 122 2.73 121 2.73 119 2.73 118 2.73
  87  0.766  0.467  0.850- 105 2.43 123 2.73 122 2.73 120 2.73 119 2.73
  88  0.099  0.801  0.850- 106 2.43 124 2.73 126 2.73 121 2.73 123 2.73
  89  0.433  0.801  0.850- 107 2.43 125 2.73 124 2.73 122 2.73 121 2.73
  90  0.766  0.801  0.850- 108 2.43 126 2.73 125 2.73 123 2.73 122 2.73
  91  0.036  0.071  0.160-  39 2.04  73 2.43  55 2.73  61 2.73  57 2.73  63 2.73
  92  0.369  0.071  0.160-  37 2.04  74 2.43  56 2.73  62 2.73  55 2.73  61 2.73
  93  0.703  0.071  0.160-  38 2.04  75 2.43  57 2.73  63 2.73  56 2.73  62 2.73
  94  0.036  0.404  0.160-  42 2.04  76 2.43  58 2.73  55 2.73  60 2.73  57 2.73
  95  0.369  0.404  0.160-  40 2.04  77 2.43  59 2.73  56 2.73  58 2.73  55 2.73
  96  0.703  0.404  0.160-  41 2.04  78 2.43  60 2.73  57 2.73  59 2.73  56 2.73
  97  0.036  0.737  0.160-  45 2.04  79 2.43  61 2.73  58 2.73  63 2.73  60 2.73
  98  0.369  0.737  0.160-  43 2.04  80 2.43  62 2.73  59 2.73  61 2.73  58 2.73
  99  0.703  0.737  0.160-  44 2.04  81 2.43  63 2.73  60 2.73  62 2.73  59 2.73
 100  0.036  0.071  0.660-  48 2.04  82 2.43  64 2.73  70 2.73  66 2.73  72 2.73
 101  0.369  0.071  0.660-  46 2.04  83 2.43  65 2.73  71 2.73  64 2.73  70 2.73
 102  0.703  0.071  0.660-  47 2.04  84 2.43  66 2.73  72 2.73  65 2.73  71 2.73
 103  0.036  0.404  0.660-  51 2.04  85 2.43  67 2.73  64 2.73  69 2.73  66 2.73
 104  0.369  0.404  0.660-  49 2.04  86 2.43  68 2.73  65 2.73  67 2.73  64 2.73
 105  0.703  0.404  0.660-  50 2.04  87 2.43  69 2.73  66 2.73  68 2.73  65 2.73
 106  0.036  0.737  0.660-  54 2.04  88 2.43  70 2.73  67 2.73  72 2.73  69 2.73
 107  0.369  0.737  0.660-  52 2.04  89 2.43  71 2.73  68 2.73  70 2.73  67 2.73
 108  0.703  0.737  0.660-  53 2.04  90 2.43  72 2.73  69 2.73  71 2.73  68 2.73
 109  0.263  0.297  0.340-  49 2.04  55 2.43  73 2.73  74 2.73  76 2.73  77 2.73
 110  0.596  0.297  0.340-  50 2.04  56 2.43  74 2.73  75 2.73  77 2.73  78 2.73
 111  0.929  0.297  0.340-  51 2.04  57 2.43  75 2.73  73 2.73  78 2.73  76 2.73
 112  0.263  0.631  0.340-  52 2.04  58 2.43  76 2.73  77 2.73  79 2.73  80 2.73
 113  0.596  0.631  0.340-  53 2.04  59 2.43  77 2.73  78 2.73  80 2.73  81 2.73
 114  0.929  0.631  0.340-  54 2.04  60 2.43  78 2.73  76 2.73  81 2.73  79 2.73
 115  0.263  0.964  0.340-  46 2.04  61 2.43  79 2.73  80 2.73  73 2.73  74 2.73
 116  0.596  0.964  0.340-  47 2.04  62 2.43  80 2.73  81 2.73  74 2.73  75 2.73
 117  0.929  0.964  0.340-  48 2.04  63 2.43  81 2.73  79 2.73  75 2.73  73 2.73
 118  0.263  0.297  0.840-  40 2.04  64 2.43  82 2.73  83 2.73  85 2.73  86 2.73
 119  0.596  0.297  0.840-  41 2.04  65 2.43  83 2.73  84 2.73  86 2.73  87 2.73
 120  0.929  0.297  0.840-  42 2.04  66 2.43  84 2.73  82 2.73  87 2.73  85 2.73
 121  0.263  0.631  0.840-  43 2.04  67 2.43  85 2.73  86 2.73  88 2.73  89 2.73
 122  0.596  0.631  0.840-  44 2.04  68 2.43  86 2.73  87 2.73  89 2.73  90 2.73
 123  0.929  0.631  0.840-  45 2.04  69 2.43  87 2.73  85 2.73  90 2.73  88 2.73
 124  0.263  0.964  0.840-  37 2.04  70 2.43  88 2.73  89 2.73  82 2.73  83 2.73
 125  0.596  0.964  0.840-  38 2.04  71 2.43  89 2.73  90 2.73  83 2.73  84 2.73
 126  0.929  0.964  0.840-  39 2.04  72 2.43  90 2.73  88 2.73  84 2.73  82 2.73
 

IMPORTANT INFORMATION: All symmetrisations will be switched off!
NOSYMM: (Re-)initialisation of all symmetry stuff for point group C_1.

 
 
 KPOINTS: # No comment                            

Automatic generation of k-mesh.
Space group operators:
 irot       det(A)        alpha          n_x          n_y          n_z        tau_x        tau_y        tau_z
    1     1.000000     0.000000     1.000000     0.000000     0.000000     0.000000     0.000000     0.000000
 
 Subroutine IBZKPT returns following result:
 ===========================================
 
 Found     10 irreducible k-points:
 
 Following reciprocal coordinates:
            Coordinates               Weight
  0.000000  0.000000  0.000000      1.000000
  0.333333  0.000000 -0.000000      2.000000
 -0.000000  0.333333  0.000000      2.000000
  0.333333  0.333333 -0.000000      2.000000
 -0.333333  0.333333  0.000000      2.000000
  0.000000 -0.000000  0.500000      1.000000
  0.333333 -0.000000  0.500000      2.000000
  0.000000  0.333333  0.500000      2.000000
  0.333333  0.333333  0.500000      2.000000
 -0.333333  0.333333  0.500000      2.000000
 
 Following cartesian coordinates:
            Coordinates               Weight
  0.000000  0.000000  0.000000      1.000000
  0.028801  0.000012  0.008684      2.000000
  0.000002  0.028801  0.008684      2.000000
  0.028803  0.028813  0.017368      2.000000
 -0.028799  0.028789 -0.000000      2.000000
  0.000032  0.000032  0.039185      1.000000
  0.028833  0.000044  0.047869      2.000000
  0.000034  0.028833  0.047869      2.000000
  0.028835  0.028845  0.056553      2.000000
 -0.028767  0.028821  0.039185      2.000000
 


--------------------------------------------------------------------------------------------------------




 Dimension of arrays:
   k-points           NKPTS =     10   k-points in BZ     NKDIM =     10   number of bands    NBANDS=    680
   number of dos      NEDOS =    301   number of ions     NIONS =    126
   non local maximal  LDIM  =      6   non local SUM 2l+1 LMDIM =     18
   total plane-waves  NPLWV = ******
   max r-space proj   IRMAX =      1   max aug-charges    IRDMAX= 163177
   dimension x,y,z NGX =    96 NGY =   96 NGZ =  120
   dimension x,y,z NGXF=   192 NGYF=  192 NGZF=  240
   support grid    NGXF=   384 NGYF=  384 NGZF=  480
   ions per type =              36  18  36  36
   NGX,Y,Z   is equivalent  to a cutoff of  13.79, 13.79, 14.37 a.u.
   NGXF,Y,Z  is equivalent  to a cutoff of  27.57, 27.57, 28.75 a.u.

 SYSTEM =  unknown system                          
 POSCAR =  # Compound: Li36O18S36Fe36. Old comment:

 Startparameter for this run:
   NWRITE =      1    write-flag & timer
   PREC   = accura    normal or accurate (medium, high low for compatibility)
   ISTART =      0    job   : 0-new  1-cont  2-samecut
   ICHARG =      1    charge: 1-file 2-atom 10-const
   ISPIN  =      2    spin polarized calculation?
   LNONCOLLINEAR =      F non collinear calculations
   LSORBIT =      F    spin-orbit coupling
   INIWAV =      1    electr: 0-lowe 1-rand  2-diag
   LASPH  =      T    aspherical Exc in radial PAW
   METAGGA=      F    non-selfconsistent MetaGGA calc.

 Electronic Relaxation 1
   ENCUT  =  650.0 eV  47.77 Ry    6.91 a.u.  24.07 24.07 28.85*2*pi/ulx,y,z
   ENINI  =  650.0     initial cutoff
   ENAUG  =  628.9 eV  augmentation charge cutoff
   NELM   =    200;   NELMIN=  8; NELMDL=  0     # of ELM steps 
   EDIFF  = 0.1E-05   stopping-criterion for ELM
   LREAL  =      F    real-space projection
   NLSPLINE    = F    spline interpolate recip. space projectors
   LCOMPAT=      F    compatible to vasp.4.4
   GGA_COMPAT  = T    GGA compatible to vasp.4.4-vasp.4.6
   LMAXPAW     = -100 max onsite density
   LMAXMIX     =    4 max onsite mixed and CHGCAR
   VOSKOWN=      0    Vosko Wilk Nusair interpolation
   ROPT   =    0.00000   0.00000   0.00000   0.00000
 Ionic relaxation
   EDIFFG = 0.1E-04   stopping-criterion for IOM
   NSW    =      0    number of steps for IOM
   NBLOCK =      1;   KBLOCK =      1    inner block; outer block 
   IBRION =     -1    ionic relax: 0-MD 1-quasi-New 2-CG
   NFREE  =      0    steps in history (QN), initial steepest desc. (CG)
   ISIF   =      3    stress and relaxation
   IWAVPR =     10    prediction:  0-non 1-charg 2-wave 3-comb
   ISYM   =      0    0-nonsym 1-usesym 2-fastsym
   LCORR  =      T    Harris-Foulkes like correction to forces

   POTIM  = 0.5000    time-step for ionic-motion
   TEIN   =    0.0    initial temperature
   TEBEG  =    0.0;   TEEND  =   0.0 temperature during run
   SMASS  =  -3.00    Nose mass-parameter (am)
   estimated Nose-frequenzy (Omega)   =  0.10E-29 period in steps =****** mass=  -0.306E-26a.u.
   SCALEE = 1.0000    scale energy and forces
   NPACO  =    256;   APACO  = 16.0  distance and # of slots for P.C.
   PSTRESS=    0.0 pullay stress

  Mass of Ions in am
   POMASS =   7.01 16.00 32.07 55.85
  Ionic Valenz
   ZVAL   =   3.00  6.00  6.00 14.00
  Atomic Wigner-Seitz radii
   RWIGS  =  -1.00 -1.00 -1.00 -1.00
  virtual crystal weights 
   VCA    =   1.00  1.00  1.00  1.00
   NELECT =     936.0000    total number of electrons
   NUPDOWN=      -1.0000    fix difference up-down

 DOS related values:
   EMIN   =  10.00;   EMAX   =-10.00  energy-range for DOS
   EFERMI =   0.00
   ISMEAR =     0;   SIGMA  =   0.05  broadening in eV -4-tet -1-fermi 0-gaus

 Electronic relaxation 2 (details)
   IALGO  =     58    algorithm
   LDIAG  =      T    sub-space diagonalisation (order eigenvalues)
   LSUBROT=      F    optimize rotation matrix (better conditioning)
   TURBO    =      0    0=normal 1=particle mesh
   IRESTART =      0    0=no restart 2=restart with 2 vectors
   NREBOOT  =      0    no. of reboots
   NMIN     =      0    reboot dimension
   EREF     =   0.00    reference energy to select bands
   IMIX   =      4    mixing-type and parameters
     AMIX     =   0.40;   BMIX     =  1.00
     AMIX_MAG =   1.60;   BMIX_MAG =  1.00
     AMIN     =   0.10
     WC   =   100.;   INIMIX=   1;  MIXPRE=   1;  MAXMIX= -45

 Intra band minimization:
   WEIMIN = 0.0000     energy-eigenvalue tresh-hold
   EBREAK =  0.37E-09  absolut break condition
   DEPER  =   0.30     relativ break condition  

   TIME   =   0.40     timestep for ELM

  volume/ion in A,a.u.               =      13.57        91.59
  Fermi-wavevector in a.u.,A,eV,Ry     =   1.339150  2.530627 24.399639  1.793323
  Thomas-Fermi vector in A             =   2.467565
 
 Write flags
   LWAVE        =      F    write WAVECAR
   LDOWNSAMPLE  =      F    k-point downsampling of WAVECAR
   LCHARG       =      T    write CHGCAR
   LVTOT        =      F    write LOCPOT, total local potential
   LVHAR        =      F    write LOCPOT, Hartree potential only
   LELF         =      F    write electronic localiz. function (ELF)
   LORBIT       =      0    0 simple, 1 ext, 2 COOP (PROOUT), +10 PAW based schemes


 Dipole corrections
   LMONO  =      F    monopole corrections only (constant potential shift)
   LDIPOL =      F    correct potential (dipole corrections)
   IDIPOL =      0    1-x, 2-y, 3-z, 4-all directions 
   EPSILON=  1.0000000 bulk dielectric constant

 LDA+U is selected, type is set to LDAUTYPE =  2
   angular momentum for each species LDAUL =    -1   -1   -1    2
   U (eV)           for each species LDAUU =   0.0  0.0  0.0  4.0
   J (eV)           for each species LDAUJ =   0.0  0.0  0.0  0.0
 Exchange correlation treatment:
   GGA     =    PE    GGA type
   LEXCH   =     8    internal setting for exchange type
   VOSKOWN=      0    Vosko Wilk Nusair interpolation
   LHFCALC =     F    Hartree Fock is set to
   LHFONE  =     F    Hartree Fock one center treatment
   AEXX    =    0.0000 exact exchange contribution

 Linear response parameters
   LEPSILON=     F    determine dielectric tensor
   LRPA    =     F    only Hartree local field effects (RPA)
   LNABLA  =     F    use nabla operator in PAW spheres
   LVEL    =     F    velocity operator in full k-point grid
   LINTERFAST=   F  fast interpolation
   KINTER  =     0    interpolate to denser k-point grid
   CSHIFT  =0.1000    complex shift for real part using Kramers Kronig
   OMEGAMAX=  -1.0    maximum frequency
   DEG_THRESHOLD= 0.2000000E-02 threshold for treating states as degnerate
   RTIME   =   -0.100 relaxation time in fs
  (WPLASMAI=    0.000 imaginary part of plasma frequency in eV, 0.658/RTIME)
   DFIELD  = 0.0000000 0.0000000 0.0000000 field for delta impulse in time
 
 Orbital magnetization related:
   ORBITALMAG=     F  switch on orbital magnetization
   LCHIMAG   =     F  perturbation theory with respect to B field
   DQ        =  0.001000  dq finite difference perturbation B field
   LLRAUG    =     F  two centre corrections for induced B field



--------------------------------------------------------------------------------------------------------


 Static calculation
 charge density and potential will be updated during run
 spin polarized calculation
 Conjugate gradient for all bands (Freysoldt, et al. PRB 79, 241103 (2009))
 preconditioned conjugated gradient                                        
 perform sub-space diagonalisation
    before iterative eigenvector-optimisation
 modified Broyden-mixing scheme, WC =      100.0
 initial mixing is a Kerker type mixing with AMIX =  0.4000 and BMIX =      1.0000
 Hartree-type preconditioning will be used
 using additional bands          212
 reciprocal scheme for non local part
 use partial core corrections
 no Harris-corrections to forces 
 use gradient corrections 
 use of overlap-Matrix (Vanderbilt PP)
 Gauss-broadening in eV      SIGMA  =   0.05


--------------------------------------------------------------------------------------------------------


  energy-cutoff  :      650.00
  volume of cell :     1710.06
      direct lattice vectors                 reciprocal lattice vectors
    11.576583240  0.002066280 -0.009542910     0.086402742  0.000036295  0.026052044
    -0.001985520 11.576599830 -0.009542940     0.000006054  0.086402626  0.026052036
    -3.847679420 -3.849030720 12.766359180     0.000064591  0.000064614  0.078369816

  length of vectors
    11.576587358 11.576603934 13.878025836     0.090244912  0.090244792  0.078369870


 
 k-points in units of 2pi/SCALE and weight: # No comment                            
   0.00000000  0.00000000  0.00000000       0.056
   0.02880091  0.00001210  0.00868401       0.111
   0.00000202  0.02880088  0.00868401       0.111
   0.02880293  0.02881297  0.01736803       0.111
  -0.02879890  0.02878878 -0.00000000       0.111
   0.00003230  0.00003231  0.03918491       0.056
   0.02883321  0.00004441  0.04786892       0.111
   0.00003431  0.02883318  0.04786892       0.111
   0.02883523  0.02884528  0.05655294       0.111
  -0.02876660  0.02882108  0.03918491       0.111
 
 k-points in reciprocal lattice and weights: # No comment                            
   0.00000000  0.00000000  0.00000000       0.056
   0.33333333  0.00000000 -0.00000000       0.111
  -0.00000000  0.33333333  0.00000000       0.111
   0.33333333  0.33333333 -0.00000000       0.111
  -0.33333333  0.33333333  0.00000000       0.111
   0.00000000 -0.00000000  0.50000000       0.056
   0.33333333 -0.00000000  0.50000000       0.111
   0.00000000  0.33333333  0.50000000       0.111
   0.33333333  0.33333333  0.50000000       0.111
  -0.33333333  0.33333333  0.50000000       0.111
 
 position of ions in fractional coordinates (direct lattice) 
   0.14853642  0.01727802  0.00000711
   0.48273357  0.01727802  0.00000711
   0.81606690  0.01727802  0.00000711
   0.14940024  0.35061135  0.00000711
   0.48273357  0.35061135  0.00000711
   0.81606690  0.35061135  0.00000711
   0.14940024  0.68394468  0.00000711
   0.48273357  0.68394468  0.00000711
   0.81606690  0.68394468  0.00000711
   0.14940024  0.01727802  0.50000711
   0.48273357  0.01727802  0.50000711
   0.81606690  0.01727802  0.50000711
   0.14940024  0.35061135  0.50000711
   0.48273357  0.35061135  0.50000711
   0.81606690  0.35061135  0.50000711
   0.14940024  0.68394468  0.50000711
   0.48273357  0.68394468  0.50000711
   0.81606690  0.68394468  0.50000711
   0.31605532  0.18393310  0.49999289
   0.64938865  0.18393310  0.49999289
   0.98272198  0.18393310  0.49999289
   0.31605532  0.51726643  0.49999289
   0.64938865  0.51726643  0.49999289
   0.98272198  0.51726643  0.49999289
   0.31605532  0.85059976  0.49999289
   0.64938865  0.85059976  0.49999289
   0.98272198  0.85059976  0.49999289
   0.31605532  0.18393310  0.99999289
   0.64938865  0.18393310  0.99999289
   0.98272198  0.18393310  0.99999289
   0.31605532  0.51726643  0.99999289
   0.64938865  0.51726643  0.99999289
   0.98272198  0.51726643  0.99999289
   0.31605532  0.85059976  0.99999289
   0.64938865  0.85059976  0.99999289
   0.98272198  0.85059976  0.99999289
   0.31606288  0.01727079  0.00000000
   0.64939621  0.01727079  0.00000000
   0.98272954  0.01727079  0.00000000
   0.31606288  0.35060413  0.00000000
   0.64939621  0.35060413  0.00000000
   0.98272954  0.35060413  0.00000000
   0.31606288  0.68393746  0.00000000
   0.64939621  0.68393746  0.00000000
   0.98272954  0.68393746  0.00000000
   0.31606288  0.01727079  0.50000000
   0.64939621  0.01727079  0.50000000
   0.98272954  0.01727079  0.50000000
   0.31606288  0.35060413  0.50000000
   0.64939621  0.35060413  0.50000000
   0.98272954  0.35060413  0.50000000
   0.31606288  0.68393746  0.50000000
   0.64939621  0.68393746  0.50000000
   0.98272954  0.68393746  0.50000000
   0.19934057  0.23388678  0.14983771
   0.53267391  0.23388678  0.14983771
   0.86600724  0.23388678  0.14983771
   0.19934057  0.56722011  0.14983771
   0.53267391  0.56722011  0.14983771
   0.86600724  0.56722011  0.14983771
   0.19934057  0.90055344  0.14983771
   0.53267391  0.90055344  0.14983771
   0.86600724  0.90055344  0.14983771
   0.19934057  0.23388678  0.64983771
   0.53267391  0.23388678  0.64983771
   0.86600724  0.23388678  0.64983771
   0.19934057  0.56722011  0.64983771
   0.53267391  0.56722011  0.64983771
   0.86600724  0.56722011  0.64983771
   0.19934057  0.90055344  0.64983771
   0.53267391  0.90055344  0.64983771
   0.86600724  0.90055344  0.64983771
   0.09944656  0.13399276  0.35016229
   0.43277989  0.13399276  0.35016229
   0.76611322  0.13399276  0.35016229
   0.09944656  0.46732609  0.35016229
   0.43277989  0.46732609  0.35016229
   0.76611322  0.46732609  0.35016229
   0.09944656  0.80065943  0.35016229
   0.43277989  0.80065943  0.35016229
   0.76611322  0.80065943  0.35016229
   0.09944656  0.13399276  0.85016229
   0.43277989  0.13399276  0.85016229
   0.76611322  0.13399276  0.85016229
   0.09944656  0.46732609  0.85016229
   0.43277989  0.46732609  0.85016229
   0.76611322  0.46732609  0.85016229
   0.09944656  0.80065943  0.85016229
   0.43277989  0.80065943  0.85016229
   0.76611322  0.80065943  0.85016229
   0.03603208  0.07057630  0.15990037
   0.36936541  0.07057630  0.15990037
   0.70269875  0.07057630  0.15990037
   0.03603208  0.40390964  0.15990037
   0.36936541  0.40390964  0.15990037
   0.70269875  0.40390964  0.15990037
   0.03603208  0.73724297  0.15990037
   0.36936541  0.73724297  0.15990037
   0.70269875  0.73724297  0.15990037
   0.03603208  0.07057630  0.65990037
   0.36936541  0.07057630  0.65990037
   0.70269875  0.07057630  0.65990037
   0.03603208  0.40390964  0.65990037
   0.36936541  0.40390964  0.65990037
   0.70269875  0.40390964  0.65990037
   0.03603208  0.73724297  0.65990037
   0.36936541  0.73724297  0.65990037
   0.70269875  0.73724297  0.65990037
   0.26275703  0.29730125  0.34009963
   0.59609036  0.29730125  0.34009963
   0.92942370  0.29730125  0.34009963
   0.26275703  0.63063459  0.34009963
   0.59609036  0.63063459  0.34009963
   0.92942370  0.63063459  0.34009963
   0.26275703  0.96396792  0.34009963
   0.59609036  0.96396792  0.34009963
   0.92942370  0.96396792  0.34009963
   0.26275703  0.29730125  0.84009963
   0.59609036  0.29730125  0.84009963
   0.92942370  0.29730125  0.84009963
   0.26275703  0.63063459  0.84009963
   0.59609036  0.63063459  0.84009963
   0.92942370  0.63063459  0.84009963
   0.26275703  0.96396792  0.84009963
   0.59609036  0.96396792  0.84009963
   0.92942370  0.96396792  0.84009963
 
 position of ions in cartesian coordinates  (Angst):
   1.71948264  0.20030026 -0.00149165
   5.58834371  0.20099080 -0.00468086
   9.44720479  0.20167956 -0.00786183
   1.72882079  4.05916865 -0.00468087
   5.58768187  4.05985741 -0.00786184
   9.44654295  4.06054617 -0.01104281
   1.72815895  7.91803526 -0.00786185
   5.58702003  7.91872402 -0.01104282
   9.44588111  7.91941278 -0.01422379
  -0.19435708 -1.72421332  6.38167970
   3.66450400 -1.72352456  6.37849873
   7.52336508 -1.72283580  6.37531776
  -0.19501892  2.13465329  6.37849872
   3.66384216  2.13534205  6.37531775
   7.52270324  2.13603081  6.37213678
  -0.19568076  5.99351990  6.37531774
   3.66318032  5.99420866  6.37213677
   7.52204140  5.99489742  6.36895580
   1.73466311  0.20548490  6.37831754
   5.59352419  0.20617366  6.37513657
   9.45238527  0.20686242  6.37195560
   1.73400127  4.06435151  6.37513656
   5.59286235  4.06504027  6.37195559
   9.45172343  4.06572903  6.36877462
   1.73333943  7.92321812  6.37195558
   5.59220051  7.92390688  6.36877461
   9.45106159  7.92459564  6.36559364
  -0.18917660 -1.71903046 12.76149713
   3.66968448 -1.71834170 12.75831616
   7.52854556 -1.71765294 12.75513519
  -0.18983844  2.13983615 12.75831615
   3.66902264  2.14052491 12.75513518
   7.52788372  2.14121367 12.75195421
  -0.19050028  5.99870276 12.75513517
   3.66836080  5.99939152 12.75195420
   7.52722188  6.00008028 12.74877323
   3.65889391  0.20059014 -0.00318097
   7.51775499  0.20127890 -0.00636194
  11.37661607  0.20196766 -0.00954291
   3.65823207  4.05945675 -0.00636195
   7.51709315  4.06014551 -0.00954292
  11.37595423  4.06083427 -0.01272389
   3.65757023  7.91832336 -0.00954293
   7.51643131  7.91901212 -0.01272390
  11.37529239  7.91970088 -0.01590487
   1.73505420 -1.72392522  6.37999862
   5.59391528 -1.72323646  6.37681765
   9.45277636 -1.72254770  6.37363668
   1.73439236  2.13494139  6.37681764
   5.59325344  2.13563015  6.37363667
   9.45211452  2.13631891  6.37045570
   1.73373052  5.99380800  6.37363666
   5.59259160  5.99449676  6.37045569
   9.45145268  5.99518552  6.36727472
   1.73069086  2.13129554  1.90874783
   5.58955194  2.13198430  1.90556686
   9.44841302  2.13267306  1.90238589
   1.73002902  5.99016215  1.90556685
   5.58889010  5.99085091  1.90238588
   9.44775118  5.99153967  1.89920491
   1.72936718  9.84902876  1.90238587
   5.58822826  9.84971752  1.89920490
   9.44708934  9.85040628  1.89602393
  -0.19314885  0.20678018  8.29192742
   3.66571223  0.20746894  8.28874645
   7.52457331  0.20815770  8.28556548
  -0.19381069  4.06564679  8.28874644
   3.66505039  4.06633555  8.28556547
   7.52391147  4.06702431  8.28238450
  -0.19447253  7.92451340  8.28556546
   3.66438855  7.92520216  8.28238449
   7.52324963  7.92589092  8.27920352
  -0.19632692  0.20360066  4.46806981
   3.66253416  0.20428942  4.46488884
   7.52139524  0.20497818  4.46170787
  -0.19698876  4.06246726  4.46488883
   3.66187232  4.06315602  4.46170786
   7.52073340  4.06384478  4.45852689
  -0.19765060  7.92133388  4.46170785
   3.66121048  7.92202264  4.45852688
   7.52007156  7.92271140  4.45534591
  -2.12016663 -1.72091470 10.85124940
   1.73869445 -1.72022594 10.84806843
   5.59755553 -1.71953718 10.84488746
  -2.12082847  2.13795190 10.84806842
   1.73803261  2.13864066 10.84488745
   5.59689369  2.13932942 10.84170648
  -2.12149031  5.99681852 10.84488744
   1.73737077  5.99750728 10.84170647
   5.59623185  5.99819604 10.83852550
  -0.19825714  0.20164662  2.04032826
   3.66060394  0.20233538  2.03714729
   7.51946502  0.20302414  2.03396632
  -0.19891898  4.06051323  2.03714728
   3.65994210  4.06120199  2.03396631
   7.51880318  4.06189075  2.03078534
  -0.19958082  7.91937984  2.03396630
   3.65928026  7.92006860  2.03078533
   7.51814134  7.92075736  2.02760436
  -2.12209685 -1.72286874  8.42350785
   1.73676423 -1.72217998  8.42032688
   5.59562531 -1.72149122  8.41714591
  -2.12275869  2.13599787  8.42032687
   1.73610239  2.13668663  8.41714590
   5.59496347  2.13737539  8.41396493
  -2.12342053  5.99486448  8.41714589
   1.73544055  5.99555324  8.41396492
   5.59430163  5.99624200  8.41078395
   1.73264400  2.13322666  4.33648938
   5.59150508  2.13391542  4.33330841
   9.45036616  2.13460418  4.33012744
   1.73198216  5.99209327  4.33330840
   5.59084324  5.99278203  4.33012743
   9.44970432  5.99347079  4.32694646
   1.73132032  9.85095988  4.33012742
   5.59018140  9.85164864  4.32694645
   9.44904248  9.85233740  4.32376548
  -0.19119571  0.20871130 10.71966897
   3.66766537  0.20940006 10.71648800
   7.52652645  0.21008882 10.71330703
  -0.19185755  4.06757791 10.71648799
   3.66700353  4.06826667 10.71330702
   7.52586461  4.06895543 10.71012605
  -0.19251939  7.92644452 10.71330701
   3.66634169  7.92713328 10.71012604
   7.52520277  7.92782204 10.70694507
 


--------------------------------------------------------------------------------------------------------


 k-point  1 :   0.0000 0.0000 0.0000  plane waves:   64263
 k-point  2 :   0.3333 0.0000-0.0000  plane waves:   64335
 k-point  3 :  -0.0000 0.3333 0.0000  plane waves:   64335
 k-point  4 :   0.3333 0.3333-0.0000  plane waves:   64357
 k-point  5 :  -0.3333 0.3333 0.0000  plane waves:   64358
 k-point  6 :   0.0000-0.0000 0.5000  plane waves:   64288
 k-point  7 :   0.3333-0.0000 0.5000  plane waves:   64351
 k-point  8 :   0.0000 0.3333 0.5000  plane waves:   64351
 k-point  9 :   0.3333 0.3333 0.5000  plane waves:   64367
 k-point 10 :  -0.3333 0.3333 0.5000  plane waves:   64380

 maximum and minimum number of plane-waves per node :     10768    10677

 maximum number of plane-waves:     64380
 maximum index in each direction: 
   IXMAX=   24   IYMAX=   24   IZMAX=   28
   IXMIN=  -24   IYMIN=  -24   IZMIN=  -29


 parallel 3D FFT for wavefunctions:
    minimum data exchange during FFTs selected (reduces bandwidth)
 parallel 3D FFT for charge:
    minimum data exchange during FFTs selected (reduces bandwidth)


 total amount of memory used by VASP MPI-rank0  2010615. kBytes
=======================================================================

   base      :      30000. kBytes
   nonl-proj :      83483. kBytes
   fftplans  :      59337. kBytes
   grid      :      50429. kBytes
   one-center:        653. kBytes
   wavefun   :    1786713. kBytes
 
     INWAV:  cpu time    0.0000: real time    0.0000
 Broyden mixing: mesh for mixing (old mesh)
   NGX = 49   NGY = 49   NGZ = 57
  (NGX  =192   NGY  =192   NGZ  =240)
  gives a total of 136857 points

 initial charge density was supplied:
 number of electron     936.0000012 magnetization     144.0000005
 charge density for first step will be calculated from the start-wavefunctions


--------------------------------------------------------------------------------------------------------


 Maximum index for augmentation-charges         6958 (set IRDMAX)


--------------------------------------------------------------------------------------------------------


 First call to EWALD:  gamma=   0.148
 Maximum number of real-space cells 3x 3x 3
 Maximum number of reciprocal cells 3x 3x 3

    FEWALD:  cpu time    0.1007: real time    0.1008


--------------------------------------- Iteration      1(   1)  ---------------------------------------


    POTLOK:  cpu time    0.6117: real time    0.6146
    SETDIJ:  cpu time    1.5891: real time    1.6206
    TRIAL :  cpu time  256.3014: real time  259.2274
    CORREC:  cpu time    0.0040: real time    0.0042
    --------------------------------------------
      LOOP:  cpu time  259.0507: real time  262.0405

 eigenvalue-minimisations  : 28328
 total energy-change (2. order) : 0.1264840E+05  (-0.5394379E+05)
 number of electron     936.0000012 magnetization     144.0000005
 augmentation part      936.0000012 magnetization     144.0000005

 Free energy of the ion-electron system (eV)
  ---------------------------------------------------
  alpha Z        PSCENC =      2639.27042227
  Ewald energy   TEWEN  =    -69235.15138907
  -Hartree energ DENC   =    -34827.59228898
  -exchange      EXHF   =         0.00000000
  -V(xc)+E(xc)   XCENC  =      3975.73298181
  PAW double counting   =    109952.41695739  -113408.94482908
  entropy T*S    EENTRO =        -0.02321948
  eigenvalues    EBANDS =        37.36039482
  atomic energy  EATOM  =    113515.32941094
  ---------------------------------------------------
  free energy    TOTEN  =     12648.39844061 eV

  energy without entropy =    12648.42166010  energy(sigma->0) =    12648.41005035


--------------------------------------------------------------------------------------------------------




--------------------------------------- Iteration      1(   2)  ---------------------------------------


    TRIAL :  cpu time  249.0227: real time  251.7265
    CORREC:  cpu time    0.0043: real time    0.0044
    --------------------------------------------
      LOOP:  cpu time  249.0307: real time  251.7378

 eigenvalue-minimisations  : 27200
 total energy-change (2. order) :-0.1127348E+05  (-0.1054567E+05)
 number of electron     936.0000012 magnetization     144.0000005
 augmentation part      936.0000012 magnetization     144.0000005

 Free energy of the ion-electron system (eV)
  ---------------------------------------------------
  alpha Z        PSCENC =      2639.27042227
  Ewald energy   TEWEN  =    -69235.15138907
  -Hartree energ DENC   =    -34827.59228898
  -exchange      EXHF   =         0.00000000
  -V(xc)+E(xc)   XCENC  =      3975.73298181
  PAW double counting   =    109952.41695739  -113408.94482908
  entropy T*S    EENTRO =        -0.08239290
  eigenvalues    EBANDS =    -11236.05914100
  atomic energy  EATOM  =    113515.32941094
  ---------------------------------------------------
  free energy    TOTEN  =      1374.91973137 eV

  energy without entropy =     1375.00212427  energy(sigma->0) =     1374.96092782


--------------------------------------------------------------------------------------------------------




--------------------------------------- Iteration      1(   3)  ---------------------------------------


    TRIAL :  cpu time  266.6384: real time  269.5525
    CORREC:  cpu time    0.0013: real time    0.0013
    --------------------------------------------
      LOOP:  cpu time  266.6404: real time  269.5567

 eigenvalue-minimisations  : 29880
 total energy-change (2. order) :-0.1785614E+04  (-0.1558357E+04)
 number of electron     936.0000012 magnetization     144.0000005
 augmentation part      936.0000012 magnetization     144.0000005

 Free energy of the ion-electron system (eV)
  ---------------------------------------------------
  alpha Z        PSCENC =      2639.27042227
  Ewald energy   TEWEN  =    -69235.15138907
  -Hartree energ DENC   =    -34827.59228898
  -exchange      EXHF   =         0.00000000
  -V(xc)+E(xc)   XCENC  =      3975.73298181
  PAW double counting   =    109952.41695739  -113408.94482908
  entropy T*S    EENTRO =        -0.00000000
  eigenvalues    EBANDS =    -13021.75512254
  atomic energy  EATOM  =    113515.32941094
  ---------------------------------------------------
  free energy    TOTEN  =      -410.69385726 eV

  energy without entropy =     -410.69385726  energy(sigma->0) =     -410.69385726


--------------------------------------------------------------------------------------------------------




--------------------------------------- Iteration      1(   4)  ---------------------------------------


    TRIAL :  cpu time  291.3627: real time  294.6667
    CORREC:  cpu time    0.0012: real time    0.0014
    --------------------------------------------
      LOOP:  cpu time  291.3810: real time  294.6870

 eigenvalue-minimisations  : 33264
 total energy-change (2. order) :-0.2221308E+03  (-0.2191970E+03)
 number of electron     936.0000012 magnetization     144.0000005
 augmentation part      936.0000012 magnetization     144.0000005

 Free energy of the ion-electron system (eV)
  ---------------------------------------------------
  alpha Z        PSCENC =      2639.27042227
  Ewald energy   TEWEN  =    -69235.15138907
  -Hartree energ DENC   =    -34827.59228898
  -exchange      EXHF   =         0.00000000
  -V(xc)+E(xc)   XCENC  =      3975.73298181
  PAW double counting   =    109952.41695739  -113408.94482908
  entropy T*S    EENTRO =        -0.00000000
  eigenvalues    EBANDS =    -13243.88595952
  atomic energy  EATOM  =    113515.32941094
  ---------------------------------------------------
  free energy    TOTEN  =      -632.82469424 eV

  energy without entropy =     -632.82469424  energy(sigma->0) =     -632.82469424


--------------------------------------------------------------------------------------------------------




--------------------------------------- Iteration      1(   5)  ---------------------------------------


    TRIAL :  cpu time  380.8873: real time  385.2395
    CORREC:  cpu time    0.0015: real time    0.0017
    CHARGE:  cpu time    7.3303: real time    7.3408
    --------------------------------------------
      LOOP:  cpu time  388.2227: real time  392.5872

 eigenvalue-minimisations  : 46104
 total energy-change (2. order) :-0.2411054E+02  (-0.2391679E+02)
 number of electron     936.0000012 magnetization     144.0000005
 augmentation part      323.4149526 magnetization      94.2649859

 Free energy of the ion-electron system (eV)
  ---------------------------------------------------
  alpha Z        PSCENC =      2639.27042227
  Ewald energy   TEWEN  =    -69235.15138907
  -Hartree energ DENC   =    -34827.59228898
  -exchange      EXHF   =         0.00000000
  -V(xc)+E(xc)   XCENC  =      3975.73298181
  PAW double counting   =    109952.41695739  -113408.94482908
  entropy T*S    EENTRO =        -0.00000000
  eigenvalues    EBANDS =    -13267.99650402
  atomic energy  EATOM  =    113515.32941094
  ---------------------------------------------------
  free energy    TOTEN  =      -656.93523874 eV

  energy without entropy =     -656.93523874  energy(sigma->0) =     -656.93523874


--------------------------------------------------------------------------------------------------------




--------------------------------------- Iteration      1(   6)  ---------------------------------------


    POTLOK:  cpu time    0.6123: real time    0.6180
    SETDIJ:  cpu time    1.6037: real time    1.6218
    TRIAL :  cpu time  128.3691: real time  129.9250
    CORREC:  cpu time   31.9080: real time   32.0093
    CHARGE:  cpu time    7.1971: real time    7.3846
    --------------------------------------------
      LOOP:  cpu time  169.7025: real time  171.5727

 eigenvalue-minimisations  :     0
 total energy-change (2. order) : 0.4868450E-01  (-0.5201491E+00)
 number of electron     936.0000012 magnetization     144.0000005
 augmentation part      323.0694744 magnetization      94.2308548

 Free energy of the ion-electron system (eV)
  ---------------------------------------------------
  alpha Z        PSCENC =      2639.27042227
  Ewald energy   TEWEN  =    -69235.15138907
  -Hartree energ DENC   =    -34813.89003200
  -exchange      EXHF   =         0.00000000
  -V(xc)+E(xc)   XCENC  =      3973.74284852
  PAW double counting   =    109403.46822962  -112851.06361413
  entropy T*S    EENTRO =        -0.00000000
  eigenvalues    EBANDS =    -13288.59243039
  atomic energy  EATOM  =    113515.32941094
  ---------------------------------------------------
  free energy    TOTEN  =      -656.88655424 eV

  energy without entropy =     -656.88655424  energy(sigma->0) =     -656.88655424


--------------------------------------------------------------------------------------------------------




--------------------------------------- Iteration      1(   7)  ---------------------------------------


    POTLOK:  cpu time    0.6096: real time    0.6098
    SETDIJ:  cpu time    1.5973: real time    1.6203
    TRIAL :  cpu time  127.1417: real time  128.3935
    CORREC:  cpu time   31.3326: real time   31.5401
    CHARGE:  cpu time    7.2937: real time    7.3355
    --------------------------------------------
      LOOP:  cpu time  167.9839: real time  169.5102

 eigenvalue-minimisations  :     0
 total energy-change (2. order) :-0.5203317E+00  (-0.3020113E+00)
 number of electron     936.0000012 magnetization     144.0000005
 augmentation part      322.6869805 magnetization      94.2098563

 Free energy of the ion-electron system (eV)
  ---------------------------------------------------
  alpha Z        PSCENC =      2639.27042227
  Ewald energy   TEWEN  =    -69235.15138907
  -Hartree energ DENC   =    -34822.96996572
  -exchange      EXHF   =         0.00000000
  -V(xc)+E(xc)   XCENC  =      3974.74119200
  PAW double counting   =    109636.36974461  -113086.92658480
  entropy T*S    EENTRO =        -0.00000000
  eigenvalues    EBANDS =    -13278.06971622
  atomic energy  EATOM  =    113515.32941094
  ---------------------------------------------------
  free energy    TOTEN  =      -657.40688599 eV

  energy without entropy =     -657.40688599  energy(sigma->0) =     -657.40688599


--------------------------------------------------------------------------------------------------------




--------------------------------------- Iteration      1(   8)  ---------------------------------------


    POTLOK:  cpu time    0.6095: real time    0.6144
    SETDIJ:  cpu time    1.6150: real time    1.6224
    TRIAL :  cpu time  126.9622: real time  128.4872
    CORREC:  cpu time   32.0579: real time   32.3627
    CHARGE:  cpu time    7.3171: real time    7.3216
    --------------------------------------------
      LOOP:  cpu time  168.5712: real time  170.4198

 eigenvalue-minimisations  :     0
 total energy-change (2. order) :-0.3020572E+00  (-0.1197059E+00)
 number of electron     936.0000012 magnetization     144.0000005
 augmentation part      322.4013679 magnetization      94.1905039

 Free energy of the ion-electron system (eV)
  ---------------------------------------------------
  alpha Z        PSCENC =      2639.27042227
  Ewald energy   TEWEN  =    -69235.15138907
  -Hartree energ DENC   =    -34826.99804780
  -exchange      EXHF   =         0.00000000
  -V(xc)+E(xc)   XCENC  =      3975.29734834
  PAW double counting   =    109906.27236232  -113360.25790783
  entropy T*S    EENTRO =        -0.00000000
  eigenvalues    EBANDS =    -13271.47114240
  atomic energy  EATOM  =    113515.32941094
  ---------------------------------------------------
  free energy    TOTEN  =      -657.70894324 eV

  energy without entropy =     -657.70894324  energy(sigma->0) =     -657.70894324


--------------------------------------------------------------------------------------------------------




--------------------------------------- Iteration      1(   9)  ---------------------------------------


    POTLOK:  cpu time    0.6072: real time    0.6078
    SETDIJ:  cpu time    1.5753: real time    1.5762
    TRIAL :  cpu time  128.1947: real time  129.6059
    CORREC:  cpu time   31.5286: real time   31.7969
    CHARGE:  cpu time    7.1389: real time    7.3869
    --------------------------------------------
      LOOP:  cpu time  169.0520: real time  170.9831

 eigenvalue-minimisations  :     0
 total energy-change (2. order) :-0.1197239E+00  (-0.4432826E-01)
 number of electron     936.0000012 magnetization     144.0000005
 augmentation part      322.2874052 magnetization      94.1795476

 Free energy of the ion-electron system (eV)
  ---------------------------------------------------
  alpha Z        PSCENC =      2639.27042227
  Ewald energy   TEWEN  =    -69235.15138907
  -Hartree energ DENC   =    -34823.68504122
  -exchange      EXHF   =         0.00000000
  -V(xc)+E(xc)   XCENC  =      3975.36643297
  PAW double counting   =    110027.56020176  -113482.76421599
  entropy T*S    EENTRO =        -0.00000000
  eigenvalues    EBANDS =    -13273.75448883
  atomic energy  EATOM  =    113515.32941094
  ---------------------------------------------------
  free energy    TOTEN  =      -657.82866717 eV

  energy without entropy =     -657.82866717  energy(sigma->0) =     -657.82866717


--------------------------------------------------------------------------------------------------------




--------------------------------------- Iteration      1(  10)  ---------------------------------------


    POTLOK:  cpu time    0.6315: real time    0.6419
    SETDIJ:  cpu time    1.5573: real time    1.5976
    TRIAL :  cpu time  126.8492: real time  128.1325
    CORREC:  cpu time   31.4918: real time   31.7507
    CHARGE:  cpu time    7.1902: real time    7.4297
    --------------------------------------------
      LOOP:  cpu time  167.7326: real time  169.5678

 eigenvalue-minimisations  :     0
 total energy-change (2. order) :-0.4432787E-01  (-0.1715318E-01)
 number of electron     936.0000012 magnetization     144.0000005
 augmentation part      322.2223999 magnetization      94.1688251

 Free energy of the ion-electron system (eV)
  ---------------------------------------------------
  alpha Z        PSCENC =      2639.27042227
  Ewald energy   TEWEN  =    -69235.15138907
  -Hartree energ DENC   =    -34827.92773285
  -exchange      EXHF   =         0.00000000
  -V(xc)+E(xc)   XCENC  =      3975.71611650
  PAW double counting   =    110047.20817620  -113503.59518655
  entropy T*S    EENTRO =        -0.00000000
  eigenvalues    EBANDS =    -13268.72281247
  atomic energy  EATOM  =    113515.32941094
  ---------------------------------------------------
  free energy    TOTEN  =      -657.87299504 eV

  energy without entropy =     -657.87299504  energy(sigma->0) =     -657.87299504


--------------------------------------------------------------------------------------------------------




--------------------------------------- Iteration      1(  11)  ---------------------------------------


    POTLOK:  cpu time    0.6104: real time    0.6108
    SETDIJ:  cpu time    1.5881: real time    1.6005
    TRIAL :  cpu time  127.0204: real time  128.5941
    CORREC:  cpu time   31.5145: real time   31.8590
    CHARGE:  cpu time    7.1312: real time    7.2859
    --------------------------------------------
      LOOP:  cpu time  167.8722: real time  169.9601

 eigenvalue-minimisations  :     0
 total energy-change (2. order) :-0.1715653E-01  (-0.5334596E-02)
 number of electron     936.0000012 magnetization     144.0000005
 augmentation part      322.2027433 magnetization      94.1631447

 Free energy of the ion-electron system (eV)
  ---------------------------------------------------
  alpha Z        PSCENC =      2639.27042227
  Ewald energy   TEWEN  =    -69235.15138907
  -Hartree energ DENC   =    -34827.90130521
  -exchange      EXHF   =         0.00000000
  -V(xc)+E(xc)   XCENC  =      3975.76163652
  PAW double counting   =    110011.53225271  -113468.16132493
  entropy T*S    EENTRO =        -0.00000000
  eigenvalues    EBANDS =    -13268.56985480
  atomic energy  EATOM  =    113515.32941094
  ---------------------------------------------------
  free energy    TOTEN  =      -657.89015157 eV

  energy without entropy =     -657.89015157  energy(sigma->0) =     -657.89015157


--------------------------------------------------------------------------------------------------------




--------------------------------------- Iteration      1(  12)  ---------------------------------------


    POTLOK:  cpu time    0.6106: real time    0.6107
    SETDIJ:  cpu time    1.6218: real time    1.6254
    TRIAL :  cpu time  126.7940: real time  127.9411
    CORREC:  cpu time   31.7837: real time   32.3256
    CHARGE:  cpu time    7.2624: real time    7.2834
    --------------------------------------------
      LOOP:  cpu time  168.0811: real time  169.7967

 eigenvalue-minimisations  :     0
 total energy-change (2. order) :-0.5335237E-02  (-0.2471601E-02)
 number of electron     936.0000012 magnetization     144.0000005
 augmentation part      322.2005749 magnetization      94.1577985

 Free energy of the ion-electron system (eV)
  ---------------------------------------------------
  alpha Z        PSCENC =      2639.27042227
  Ewald energy   TEWEN  =    -69235.15138907
  -Hartree energ DENC   =    -34827.46975621
  -exchange      EXHF   =         0.00000000
  -V(xc)+E(xc)   XCENC  =      3975.73466236
  PAW double counting   =    109974.75927516  -113431.49622758
  entropy T*S    EENTRO =        -0.00000000
  eigenvalues    EBANDS =    -13268.87188469
  atomic energy  EATOM  =    113515.32941094
  ---------------------------------------------------
  free energy    TOTEN  =      -657.89548681 eV

  energy without entropy =     -657.89548681  energy(sigma->0) =     -657.89548681


--------------------------------------------------------------------------------------------------------




--------------------------------------- Iteration      1(  13)  ---------------------------------------


    POTLOK:  cpu time    0.6365: real time    0.6420
    SETDIJ:  cpu time    1.5609: real time    1.5824
    TRIAL :  cpu time  127.9502: real time  129.4447
    CORREC:  cpu time   31.1825: real time   31.5235
    CHARGE:  cpu time    7.2750: real time    7.3231
    --------------------------------------------
      LOOP:  cpu time  168.6143: real time  170.5269

 eigenvalue-minimisations  :     0
 total energy-change (2. order) :-0.2474519E-02  (-0.1412942E-02)
 number of electron     936.0000012 magnetization     144.0000005
 augmentation part      322.2039436 magnetization      94.1551846

 Free energy of the ion-electron system (eV)
  ---------------------------------------------------
  alpha Z        PSCENC =      2639.27042227
  Ewald energy   TEWEN  =    -69235.15138907
  -Hartree energ DENC   =    -34827.79211250
  -exchange      EXHF   =         0.00000000
  -V(xc)+E(xc)   XCENC  =      3975.76232275
  PAW double counting   =    109946.33866978  -113402.99657679
  entropy T*S    EENTRO =        -0.00000000
  eigenvalues    EBANDS =    -13268.65870870
  atomic energy  EATOM  =    113515.32941094
  ---------------------------------------------------
  free energy    TOTEN  =      -657.89796133 eV

  energy without entropy =     -657.89796133  energy(sigma->0) =     -657.89796133


--------------------------------------------------------------------------------------------------------




--------------------------------------- Iteration      1(  14)  ---------------------------------------


    POTLOK:  cpu time    0.6360: real time    0.6428
    SETDIJ:  cpu time    1.5547: real time    1.5877
    TRIAL :  cpu time  126.9166: real time  128.0091
    CORREC:  cpu time   31.7966: real time   32.2188
    CHARGE:  cpu time    7.1087: real time    7.2979
    --------------------------------------------
      LOOP:  cpu time  168.0237: real time  169.7749

 eigenvalue-minimisations  :     0
 total energy-change (2. order) :-0.1413152E-02  (-0.8113069E-03)
 number of electron     936.0000012 magnetization     144.0000005
 augmentation part      322.2057011 magnetization      94.1512981

 Free energy of the ion-electron system (eV)
  ---------------------------------------------------
  alpha Z        PSCENC =      2639.27042227
  Ewald energy   TEWEN  =    -69235.15138907
  -Hartree energ DENC   =    -34827.86742537
  -exchange      EXHF   =         0.00000000
  -V(xc)+E(xc)   XCENC  =      3975.74715688
  PAW double counting   =    109936.19107860  -113392.91067596
  entropy T*S    EENTRO =        -0.00000000
  eigenvalues    EBANDS =    -13268.50795278
  atomic energy  EATOM  =    113515.32941094
  ---------------------------------------------------
  free energy    TOTEN  =      -657.89937448 eV

  energy without entropy =     -657.89937448  energy(sigma->0) =     -657.89937448


--------------------------------------------------------------------------------------------------------




--------------------------------------- Iteration      1(  15)  ---------------------------------------


    POTLOK:  cpu time    0.6244: real time    0.6343
    SETDIJ:  cpu time    1.5845: real time    1.6043
    TRIAL :  cpu time  127.1682: real time  128.7244
    CORREC:  cpu time   31.7628: real time   32.1054
    CHARGE:  cpu time    7.2826: real time    7.3021
    --------------------------------------------
      LOOP:  cpu time  168.4291: real time  170.4023

 eigenvalue-minimisations  :     0
 total energy-change (2. order) :-0.8139230E-03  (-0.4416955E-03)
 number of electron     936.0000012 magnetization     144.0000005
 augmentation part      322.2165702 magnetization      94.1517489

 Free energy of the ion-electron system (eV)
  ---------------------------------------------------
  alpha Z        PSCENC =      2639.27042227
  Ewald energy   TEWEN  =    -69235.15138907
  -Hartree energ DENC   =    -34827.36351226
  -exchange      EXHF   =         0.00000000
  -V(xc)+E(xc)   XCENC  =      3975.72974310
  PAW double counting   =    109937.19201837  -113393.71983009
  entropy T*S    EENTRO =        -0.00000000
  eigenvalues    EBANDS =    -13269.18705168
  atomic energy  EATOM  =    113515.32941094
  ---------------------------------------------------
  free energy    TOTEN  =      -657.90018841 eV

  energy without entropy =     -657.90018841  energy(sigma->0) =     -657.90018841


--------------------------------------------------------------------------------------------------------




--------------------------------------- Iteration      1(  16)  ---------------------------------------


    POTLOK:  cpu time    0.6090: real time    0.6102
    SETDIJ:  cpu time    1.6222: real time    1.6225
    TRIAL :  cpu time  127.8061: real time  129.1459
    CORREC:  cpu time   31.4958: real time   31.9135
    CHARGE:  cpu time    7.1785: real time    7.3406
    --------------------------------------------
      LOOP:  cpu time  168.7352: real time  170.6586

 eigenvalue-minimisations  :     0
 total energy-change (2. order) :-0.4414344E-03  (-0.2442532E-03)
 number of electron     936.0000012 magnetization     144.0000005
 augmentation part      322.2143009 magnetization      94.1499513

 Free energy of the ion-electron system (eV)
  ---------------------------------------------------
  alpha Z        PSCENC =      2639.27042227
  Ewald energy   TEWEN  =    -69235.15138907
  -Hartree energ DENC   =    -34828.13633322
  -exchange      EXHF   =         0.00000000
  -V(xc)+E(xc)   XCENC  =      3975.75425326
  PAW double counting   =    109948.61198829  -113405.25322279
  entropy T*S    EENTRO =        -0.00000000
  eigenvalues    EBANDS =    -13268.32575952
  atomic energy  EATOM  =    113515.32941094
  ---------------------------------------------------
  free energy    TOTEN  =      -657.90062984 eV

  energy without entropy =     -657.90062984  energy(sigma->0) =     -657.90062984


--------------------------------------------------------------------------------------------------------




--------------------------------------- Iteration      1(  17)  ---------------------------------------


    POTLOK:  cpu time    0.6092: real time    0.6414
    SETDIJ:  cpu time    1.5798: real time    1.5803
    TRIAL :  cpu time  127.5072: real time  128.6733
    CORREC:  cpu time   31.2514: real time   31.6189
    CHARGE:  cpu time    7.2681: real time    7.3231
    --------------------------------------------
      LOOP:  cpu time  168.2413: real time  169.8761

 eigenvalue-minimisations  :     0
 total energy-change (2. order) :-0.2462828E-03  (-0.1782354E-03)
 number of electron     936.0000012 magnetization     144.0000005
 augmentation part      322.2191496 magnetization      94.1512912

 Free energy of the ion-electron system (eV)
  ---------------------------------------------------
  alpha Z        PSCENC =      2639.27042227
  Ewald energy   TEWEN  =    -69235.15138907
  -Hartree energ DENC   =    -34827.22927025
  -exchange      EXHF   =         0.00000000
  -V(xc)+E(xc)   XCENC  =      3975.71543238
  PAW double counting   =    109953.62840089  -113410.07981166
  entropy T*S    EENTRO =        -0.00000000
  eigenvalues    EBANDS =    -13269.38407162
  atomic energy  EATOM  =    113515.32941094
  ---------------------------------------------------
  free energy    TOTEN  =      -657.90087612 eV

  energy without entropy =     -657.90087612  energy(sigma->0) =     -657.90087612


--------------------------------------------------------------------------------------------------------




--------------------------------------- Iteration      1(  18)  ---------------------------------------


    POTLOK:  cpu time    0.6282: real time    0.6407
    SETDIJ:  cpu time    1.5598: real time    1.5881
    TRIAL :  cpu time  128.1834: real time  129.5282
    CORREC:  cpu time   31.4386: real time   32.0866
    CHARGE:  cpu time    7.2384: real time    7.3442
    --------------------------------------------
      LOOP:  cpu time  169.0575: real time  171.2015

 eigenvalue-minimisations  :     0
 total energy-change (2. order) :-0.1786629E-03  (-0.1366056E-03)
 number of electron     936.0000012 magnetization     144.0000005
 augmentation part      322.2171550 magnetization      94.1515646

 Free energy of the ion-electron system (eV)
  ---------------------------------------------------
  alpha Z        PSCENC =      2639.27042227
  Ewald energy   TEWEN  =    -69235.15138907
  -Hartree energ DENC   =    -34827.77747362
  -exchange      EXHF   =         0.00000000
  -V(xc)+E(xc)   XCENC  =      3975.73776041
  PAW double counting   =    109958.64098974  -113415.17664675
  entropy T*S    EENTRO =        -0.00000000
  eigenvalues    EBANDS =    -13268.77412871
  atomic energy  EATOM  =    113515.32941094
  ---------------------------------------------------
  free energy    TOTEN  =      -657.90105479 eV

  energy without entropy =     -657.90105479  energy(sigma->0) =     -657.90105479


--------------------------------------------------------------------------------------------------------




--------------------------------------- Iteration      1(  19)  ---------------------------------------


    POTLOK:  cpu time    0.6073: real time    0.6143
    SETDIJ:  cpu time    1.5893: real time    1.6121
    TRIAL :  cpu time  127.5605: real time  129.2592
    CORREC:  cpu time   32.4549: real time   32.8003
    CHARGE:  cpu time    7.2367: real time    7.4249
    --------------------------------------------
      LOOP:  cpu time  169.4534: real time  171.7185

 eigenvalue-minimisations  :     0
 total energy-change (2. order) :-0.1370999E-03  (-0.8437538E-04)
 number of electron     936.0000012 magnetization     144.0000005
 augmentation part      322.2172133 magnetization      94.1526778

 Free energy of the ion-electron system (eV)
  ---------------------------------------------------
  alpha Z        PSCENC =      2639.27042227
  Ewald energy   TEWEN  =    -69235.15138907
  -Hartree energ DENC   =    -34827.46697516
  -exchange      EXHF   =         0.00000000
  -V(xc)+E(xc)   XCENC  =      3975.72568056
  PAW double counting   =    109956.02961124  -113412.51416713
  entropy T*S    EENTRO =        -0.00000000
  eigenvalues    EBANDS =    -13269.12378554
  atomic energy  EATOM  =    113515.32941094
  ---------------------------------------------------
  free energy    TOTEN  =      -657.90119189 eV

  energy without entropy =     -657.90119189  energy(sigma->0) =     -657.90119189


--------------------------------------------------------------------------------------------------------




--------------------------------------- Iteration      1(  20)  ---------------------------------------


    POTLOK:  cpu time    0.6362: real time    0.6418
    SETDIJ:  cpu time    1.5740: real time    1.5918
    TRIAL :  cpu time  128.0802: real time  129.3883
    CORREC:  cpu time   31.6541: real time   32.1949
    CHARGE:  cpu time    7.3739: real time    7.3775
    --------------------------------------------
      LOOP:  cpu time  169.3212: real time  171.2022

 eigenvalue-minimisations  :     0
 total energy-change (2. order) :-0.8434679E-04  (-0.4414733E-04)
 number of electron     936.0000012 magnetization     144.0000005
 augmentation part      322.2161976 magnetization      94.1531376

 Free energy of the ion-electron system (eV)
  ---------------------------------------------------
  alpha Z        PSCENC =      2639.27042227
  Ewald energy   TEWEN  =    -69235.15138907
  -Hartree energ DENC   =    -34827.62013296
  -exchange      EXHF   =         0.00000000
  -V(xc)+E(xc)   XCENC  =      3975.73181995
  PAW double counting   =    109953.21368435  -113409.72397090
  entropy T*S    EENTRO =        -0.00000000
  eigenvalues    EBANDS =    -13268.95112081
  atomic energy  EATOM  =    113515.32941094
  ---------------------------------------------------
  free energy    TOTEN  =      -657.90127623 eV

  energy without entropy =     -657.90127623  energy(sigma->0) =     -657.90127623


--------------------------------------------------------------------------------------------------------




--------------------------------------- Iteration      1(  21)  ---------------------------------------


    POTLOK:  cpu time    0.6094: real time    0.6098
    SETDIJ:  cpu time    1.5864: real time    1.5869
    TRIAL :  cpu time  127.7991: real time  129.1811
    CORREC:  cpu time   31.4673: real time   31.7441
    CHARGE:  cpu time    7.3136: real time    7.4070
    --------------------------------------------
      LOOP:  cpu time  168.7867: real time  170.5402

 eigenvalue-minimisations  :     0
 total energy-change (2. order) :-0.4407007E-04  (-0.2836920E-04)
 number of electron     936.0000012 magnetization     144.0000005
 augmentation part      322.2154286 magnetization      94.1534190

 Free energy of the ion-electron system (eV)
  ---------------------------------------------------
  alpha Z        PSCENC =      2639.27042227
  Ewald energy   TEWEN  =    -69235.15138907
  -Hartree energ DENC   =    -34827.58832213
  -exchange      EXHF   =         0.00000000
  -V(xc)+E(xc)   XCENC  =      3975.73093004
  PAW double counting   =    109951.23666781  -113407.74503587
  entropy T*S    EENTRO =        -0.00000000
  eigenvalues    EBANDS =    -13268.98400428
  atomic energy  EATOM  =    113515.32941094
  ---------------------------------------------------
  free energy    TOTEN  =      -657.90132030 eV

  energy without entropy =     -657.90132030  energy(sigma->0) =     -657.90132030


--------------------------------------------------------------------------------------------------------




--------------------------------------- Iteration      1(  22)  ---------------------------------------


    POTLOK:  cpu time    0.6152: real time    0.6162
    SETDIJ:  cpu time    1.5972: real time    1.6719
    TRIAL :  cpu time  128.0364: real time  129.5606
    CORREC:  cpu time   31.2405: real time   31.6113
    CHARGE:  cpu time    7.0961: real time    7.3033
    --------------------------------------------
      LOOP:  cpu time  168.5912: real time  170.7695

 eigenvalue-minimisations  :     0
 total energy-change (2. order) :-0.2817379E-04  (-0.1707985E-04)
 number of electron     936.0000012 magnetization     144.0000005
 augmentation part      322.2157079 magnetization      94.1536705

 Free energy of the ion-electron system (eV)
  ---------------------------------------------------
  alpha Z        PSCENC =      2639.27042227
  Ewald energy   TEWEN  =    -69235.15138907
  -Hartree energ DENC   =    -34827.56188591
  -exchange      EXHF   =         0.00000000
  -V(xc)+E(xc)   XCENC  =      3975.73042944
  PAW double counting   =    109950.69795165  -113407.20837467
  entropy T*S    EENTRO =        -0.00000000
  eigenvalues    EBANDS =    -13269.00791312
  atomic energy  EATOM  =    113515.32941094
  ---------------------------------------------------
  free energy    TOTEN  =      -657.90134848 eV

  energy without entropy =     -657.90134848  energy(sigma->0) =     -657.90134848


--------------------------------------------------------------------------------------------------------




--------------------------------------- Iteration      1(  23)  ---------------------------------------


    POTLOK:  cpu time    0.6409: real time    0.6466
    SETDIJ:  cpu time    1.5711: real time    1.5933
    TRIAL :  cpu time  127.8553: real time  129.1723
    CORREC:  cpu time   31.5895: real time   31.8429
    CHARGE:  cpu time    7.2363: real time    7.3411
    --------------------------------------------
      LOOP:  cpu time  168.9026: real time  170.6068

 eigenvalue-minimisations  :     0
 total energy-change (2. order) :-0.1692308E-04  (-0.8546246E-05)
 number of electron     936.0000012 magnetization     144.0000005
 augmentation part      322.2147948 magnetization      94.1533954

 Free energy of the ion-electron system (eV)
  ---------------------------------------------------
  alpha Z        PSCENC =      2639.27042227
  Ewald energy   TEWEN  =    -69235.15138907
  -Hartree energ DENC   =    -34827.66055607
  -exchange      EXHF   =         0.00000000
  -V(xc)+E(xc)   XCENC  =      3975.73483071
  PAW double counting   =    109951.70950351  -113408.23850582
  entropy T*S    EENTRO =        -0.00000000
  eigenvalues    EBANDS =    -13268.89508187
  atomic energy  EATOM  =    113515.32941094
  ---------------------------------------------------
  free energy    TOTEN  =      -657.90136540 eV

  energy without entropy =     -657.90136540  energy(sigma->0) =     -657.90136540


--------------------------------------------------------------------------------------------------------




--------------------------------------- Iteration      1(  24)  ---------------------------------------


    POTLOK:  cpu time    0.6222: real time    0.6316
    SETDIJ:  cpu time    1.6357: real time    1.6724
    TRIAL :  cpu time  127.3192: real time  128.6800
    CORREC:  cpu time   32.0964: real time   32.5462
    CHARGE:  cpu time    7.1763: real time    7.3106
    --------------------------------------------
      LOOP:  cpu time  168.8561: real time  170.8482

 eigenvalue-minimisations  :     0
 total energy-change (2. order) :-0.8550196E-05  (-0.5376543E-05)
 number of electron     936.0000012 magnetization     144.0000005
 augmentation part      322.2153022 magnetization      94.1535274

 Free energy of the ion-electron system (eV)
  ---------------------------------------------------
  alpha Z        PSCENC =      2639.27042227
  Ewald energy   TEWEN  =    -69235.15138907
  -Hartree energ DENC   =    -34827.54032963
  -exchange      EXHF   =         0.00000000
  -V(xc)+E(xc)   XCENC  =      3975.72990535
  PAW double counting   =    109952.07617549  -113408.58758259
  entropy T*S    EENTRO =        -0.00000000
  eigenvalues    EBANDS =    -13269.02798671
  atomic energy  EATOM  =    113515.32941094
  ---------------------------------------------------
  free energy    TOTEN  =      -657.90137395 eV

  energy without entropy =     -657.90137395  energy(sigma->0) =     -657.90137395


--------------------------------------------------------------------------------------------------------




--------------------------------------- Iteration      1(  25)  ---------------------------------------


    POTLOK:  cpu time    0.6081: real time    0.6084
    SETDIJ:  cpu time    1.6120: real time    1.6176
    TRIAL :  cpu time  126.9247: real time  128.3330
    CORREC:  cpu time   31.0789: real time   31.3826
    CHARGE:  cpu time    7.3277: real time    7.4102
    --------------------------------------------
      LOOP:  cpu time  167.5702: real time  169.3709

 eigenvalue-minimisations  :     0
 total energy-change (2. order) :-0.5361610E-05  (-0.3909081E-05)
 number of electron     936.0000012 magnetization     144.0000005
 augmentation part      322.2147211 magnetization      94.1532857

 Free energy of the ion-electron system (eV)
  ---------------------------------------------------
  alpha Z        PSCENC =      2639.27042227
  Ewald energy   TEWEN  =    -69235.15138907
  -Hartree energ DENC   =    -34827.64742435
  -exchange      EXHF   =         0.00000000
  -V(xc)+E(xc)   XCENC  =      3975.73440720
  PAW double counting   =    109952.84466948  -113409.37528752
  entropy T*S    EENTRO =        -0.00000000
  eigenvalues    EBANDS =    -13268.90618827
  atomic energy  EATOM  =    113515.32941094
  ---------------------------------------------------
  free energy    TOTEN  =      -657.90137931 eV

  energy without entropy =     -657.90137931  energy(sigma->0) =     -657.90137931


--------------------------------------------------------------------------------------------------------




--------------------------------------- Iteration      1(  26)  ---------------------------------------


    POTLOK:  cpu time    0.6367: real time    0.6405
    SETDIJ:  cpu time    1.5841: real time    1.6059
    TRIAL :  cpu time  128.3869: real time  130.0700
    CORREC:  cpu time   31.7133: real time   32.1348
    CHARGE:  cpu time    7.2912: real time    7.3488
    --------------------------------------------
      LOOP:  cpu time  169.6189: real time  171.8071

 eigenvalue-minimisations  :     0
 total energy-change (2. order) :-0.3932393E-05  (-0.2973712E-05)
 number of electron     936.0000012 magnetization     144.0000005
 augmentation part      322.2148891 magnetization      94.1533448

 Free energy of the ion-electron system (eV)
  ---------------------------------------------------
  alpha Z        PSCENC =      2639.27042227
  Ewald energy   TEWEN  =    -69235.15138907
  -Hartree energ DENC   =    -34827.57680941
  -exchange      EXHF   =         0.00000000
  -V(xc)+E(xc)   XCENC  =      3975.73198954
  PAW double counting   =    109952.74230919  -113409.26160646
  entropy T*S    EENTRO =        -0.00000000
  eigenvalues    EBANDS =    -13268.98571025
  atomic energy  EATOM  =    113515.32941094
  ---------------------------------------------------
  free energy    TOTEN  =      -657.90138324 eV

  energy without entropy =     -657.90138324  energy(sigma->0) =     -657.90138324


--------------------------------------------------------------------------------------------------------




--------------------------------------- Iteration      1(  27)  ---------------------------------------


    POTLOK:  cpu time    0.6029: real time    0.6127
    SETDIJ:  cpu time    1.6233: real time    1.6484
    TRIAL :  cpu time  126.9472: real time  128.5417
    CORREC:  cpu time   31.4211: real time   31.9381
    CHARGE:  cpu time    7.3229: real time    7.3268
    --------------------------------------------
      LOOP:  cpu time  167.9311: real time  170.0819

 eigenvalue-minimisations  :     0
 total energy-change (2. order) :-0.2932400E-05  (-0.1980281E-05)
 number of electron     936.0000012 magnetization     144.0000005
 augmentation part      322.2145551 magnetization      94.1531620

 Free energy of the ion-electron system (eV)
  ---------------------------------------------------
  alpha Z        PSCENC =      2639.27042227
  Ewald energy   TEWEN  =    -69235.15138907
  -Hartree energ DENC   =    -34827.62657406
  -exchange      EXHF   =         0.00000000
  -V(xc)+E(xc)   XCENC  =      3975.73362024
  PAW double counting   =    109952.74495603  -113409.27676150
  entropy T*S    EENTRO =        -0.00000000
  eigenvalues    EBANDS =    -13268.92507102
  atomic energy  EATOM  =    113515.32941094
  ---------------------------------------------------
  free energy    TOTEN  =      -657.90138618 eV

  energy without entropy =     -657.90138618  energy(sigma->0) =     -657.90138618


--------------------------------------------------------------------------------------------------------




--------------------------------------- Iteration      1(  28)  ---------------------------------------


    POTLOK:  cpu time    0.6107: real time    0.6111
    SETDIJ:  cpu time    1.5362: real time    1.5919
    TRIAL :  cpu time  127.2935: real time  128.5587
    CORREC:  cpu time   31.0655: real time   31.3730
    CHARGE:  cpu time    7.3625: real time    7.3706
[...]
   -.534E-01 0.676E-01 0.894E+02   0.576E-01 -.678E-01 -.899E+02   -.686E-02 0.526E-04 0.514E+00
   0.100E+00 0.874E-01 0.894E+02   -.101E+00 -.884E-01 -.899E+02   0.208E-02 0.168E-02 0.515E+00
   0.996E-01 0.466E-01 0.894E+02   -.101E+00 -.460E-01 -.899E+02   0.207E-02 -.155E-02 0.513E+00
   0.511E-01 0.671E-01 0.894E+02   -.512E-01 -.672E-01 -.899E+02   0.276E-03 0.577E-04 0.514E+00
   0.721E-01 0.672E-01 0.894E+02   -.725E-01 -.673E-01 -.899E+02   0.348E-03 0.673E-04 0.514E+00
   0.716E-01 0.671E-01 0.894E+02   -.719E-01 -.673E-01 -.899E+02   0.332E-03 0.717E-04 0.514E+00
   -.534E-01 0.666E-01 0.894E+02   0.576E-01 -.668E-01 -.899E+02   -.685E-02 0.817E-04 0.514E+00
   0.100E+00 0.468E-01 0.894E+02   -.101E+00 -.462E-01 -.899E+02   0.209E-02 -.155E-02 0.515E+00
   0.995E-01 0.876E-01 0.894E+02   -.101E+00 -.885E-01 -.899E+02   0.206E-02 0.169E-02 0.513E+00
   0.606E-01 0.715E-01 0.894E+02   -.608E-01 -.715E-01 -.899E+02   -.446E-04 -.210E-04 0.514E+00
   0.715E-01 0.672E-01 0.894E+02   -.721E-01 -.673E-01 -.899E+02   0.633E-03 0.615E-04 0.514E+00
   0.632E-01 0.629E-01 0.894E+02   -.633E-01 -.630E-01 -.899E+02   0.472E-04 0.152E-03 0.514E+00
   0.609E-01 0.626E-01 0.894E+02   -.610E-01 -.628E-01 -.899E+02   -.286E-04 0.124E-03 0.514E+00
   0.717E-01 0.674E-01 0.894E+02   -.723E-01 -.675E-01 -.899E+02   0.671E-03 0.878E-04 0.514E+00
   0.628E-01 0.714E-01 0.894E+02   -.629E-01 -.715E-01 -.899E+02   -.277E-05 -.270E-04 0.514E+00
   0.585E-01 0.673E-01 0.894E+02   -.587E-01 -.675E-01 -.899E+02   0.617E-04 0.906E-04 0.513E+00
   0.783E-01 0.668E-01 0.894E+02   -.790E-01 -.670E-01 -.899E+02   0.865E-03 0.471E-04 0.514E+00
   0.605E-01 0.671E-01 0.894E+02   -.605E-01 -.673E-01 -.899E+02   0.847E-04 0.610E-04 0.515E+00
   -.737E-01 -.650E-01 -.894E+02   0.741E-01 0.652E-01 0.899E+02   -.312E-03 -.280E-03 -.515E+00
   -.717E-01 -.652E-01 -.894E+02   0.720E-01 0.654E-01 0.899E+02   -.281E-03 -.295E-03 -.513E+00
   -.539E-01 -.654E-01 -.894E+02   0.536E-01 0.657E-01 0.899E+02   0.495E-03 -.328E-03 -.514E+00
   -.713E-01 -.697E-01 -.894E+02   0.717E-01 0.699E-01 0.899E+02   -.391E-03 -.240E-03 -.514E+00
   -.694E-01 -.608E-01 -.894E+02   0.697E-01 0.612E-01 0.899E+02   -.374E-03 -.399E-03 -.514E+00
   -.605E-01 -.649E-01 -.894E+02   0.604E-01 0.652E-01 0.899E+02   0.305E-03 -.271E-03 -.514E+00
   -.715E-01 -.608E-01 -.894E+02   0.719E-01 0.612E-01 0.899E+02   -.418E-03 -.387E-03 -.514E+00
   -.690E-01 -.693E-01 -.894E+02   0.693E-01 0.697E-01 0.899E+02   -.323E-03 -.216E-03 -.514E+00
   -.607E-01 -.650E-01 -.894E+02   0.606E-01 0.654E-01 0.899E+02   0.276E-03 -.306E-03 -.514E+00
   -.186E+00 -.646E-01 -.894E+02   0.190E+00 0.649E-01 0.899E+02   -.721E-02 -.304E-03 -.514E+00
   -.327E-01 -.448E-01 -.894E+02   0.319E-01 0.443E-01 0.899E+02   0.169E-02 0.131E-02 -.515E+00
   -.320E-01 -.856E-01 -.894E+02   0.313E-01 0.867E-01 0.899E+02   0.173E-02 -.192E-02 -.513E+00
   -.812E-01 -.651E-01 -.894E+02   0.814E-01 0.655E-01 0.899E+02   -.885E-04 -.317E-03 -.514E+00
   -.606E-01 -.650E-01 -.894E+02   0.606E-01 0.654E-01 0.899E+02   -.378E-04 -.299E-03 -.514E+00
   -.601E-01 -.650E-01 -.894E+02   0.602E-01 0.654E-01 0.899E+02   -.187E-04 -.306E-03 -.514E+00
   -.186E+00 -.657E-01 -.894E+02   0.190E+00 0.659E-01 0.899E+02   -.722E-02 -.298E-03 -.514E+00
   -.326E-01 -.855E-01 -.894E+02   0.318E-01 0.865E-01 0.899E+02   0.170E-02 -.192E-02 -.515E+00
   -.321E-01 -.447E-01 -.894E+02   0.313E-01 0.441E-01 0.899E+02   0.171E-02 0.132E-02 -.513E+00
   0.770E-01 -.497E-01 -.661E+02   -.848E-01 0.487E-01 0.650E+02   0.367E-02 0.922E-03 0.109E+01
   0.801E-01 -.492E-01 -.653E+02   -.879E-01 0.481E-01 0.642E+02   0.372E-02 0.100E-02 0.114E+01
   0.440E-01 -.496E-01 -.657E+02   -.474E-01 0.485E-01 0.646E+02   0.269E-02 0.967E-03 0.111E+01
   -.617E-01 -.969E-01 -.657E+02   0.637E-01 0.950E-01 0.646E+02   -.149E-02 0.174E-02 0.111E+01
   -.603E-01 -.219E-02 -.657E+02   0.622E-01 0.198E-02 0.645E+02   -.147E-02 0.208E-03 0.111E+01
   -.116E-01 -.495E-01 -.657E+02   0.800E-02 0.484E-01 0.646E+02   0.294E-02 0.977E-03 0.111E+01
   -.618E-01 -.218E-02 -.657E+02   0.638E-01 0.204E-02 0.646E+02   -.149E-02 0.201E-03 0.111E+01
   -.601E-01 -.967E-01 -.657E+02   0.620E-01 0.949E-01 0.645E+02   -.147E-02 0.170E-02 0.111E+01
   -.117E-01 -.493E-01 -.657E+02   0.808E-02 0.484E-01 0.646E+02   0.295E-02 0.944E-03 0.111E+01
   -.906E-01 -.489E-01 -.657E+02   0.899E-01 0.479E-01 0.646E+02   0.667E-03 0.963E-03 0.111E+01
   -.301E-01 -.388E-01 -.657E+02   0.294E-01 0.376E-01 0.646E+02   0.587E-03 0.106E-02 0.111E+01
   -.247E-01 -.607E-01 -.657E+02   0.240E-01 0.598E-01 0.645E+02   0.611E-03 0.841E-03 0.112E+01
   -.610E-01 -.499E-01 -.657E+02   0.607E-01 0.490E-01 0.646E+02   0.336E-03 0.929E-03 0.111E+01
   -.428E-01 -.494E-01 -.657E+02   0.424E-01 0.484E-01 0.646E+02   0.371E-03 0.956E-03 0.111E+01
   -.376E-01 -.489E-01 -.657E+02   0.371E-01 0.479E-01 0.646E+02   0.457E-03 0.957E-03 0.111E+01
   -.911E-01 -.496E-01 -.657E+02   0.905E-01 0.485E-01 0.646E+02   0.654E-03 0.967E-03 0.111E+01
   -.291E-01 -.603E-01 -.657E+02   0.283E-01 0.593E-01 0.646E+02   0.613E-03 0.887E-03 0.111E+01
   -.253E-01 -.388E-01 -.657E+02   0.246E-01 0.375E-01 0.645E+02   0.622E-03 0.109E-02 0.112E+01
   0.589E-02 0.476E-01 0.657E+02   -.500E-02 -.471E-01 -.646E+02   -.752E-03 -.439E-03 -.111E+01
   0.717E-01 0.582E-01 0.657E+02   -.710E-01 -.580E-01 -.646E+02   -.771E-03 -.327E-03 -.111E+01
   0.679E-01 0.368E-01 0.657E+02   -.671E-01 -.362E-01 -.645E+02   -.810E-03 -.531E-03 -.112E+01
   0.360E-01 0.471E-01 0.657E+02   -.348E-01 -.466E-01 -.646E+02   -.106E-02 -.457E-03 -.111E+01
   0.594E-01 0.481E-01 0.657E+02   -.584E-01 -.476E-01 -.646E+02   -.955E-03 -.441E-03 -.111E+01
   0.541E-01 0.476E-01 0.657E+02   -.530E-01 -.471E-01 -.646E+02   -.102E-02 -.431E-03 -.111E+01
   0.643E-02 0.480E-01 0.657E+02   -.554E-02 -.475E-01 -.646E+02   -.778E-03 -.444E-03 -.111E+01
   0.722E-01 0.364E-01 0.657E+02   -.715E-01 -.358E-01 -.646E+02   -.755E-03 -.567E-03 -.111E+01
   0.668E-01 0.584E-01 0.657E+02   -.660E-01 -.580E-01 -.645E+02   -.819E-03 -.355E-03 -.112E+01
   0.354E-01 0.948E-01 0.657E+02   -.320E-01 -.935E-01 -.645E+02   -.288E-02 -.120E-02 -.111E+01
   0.853E-01 0.476E-01 0.657E+02   -.874E-01 -.470E-01 -.646E+02   0.152E-02 -.479E-03 -.111E+01
   0.366E-01 0.341E-03 0.657E+02   -.332E-01 -.679E-03 -.646E+02   -.289E-02 0.326E-03 -.111E+01
   0.355E-01 0.200E-03 0.657E+02   -.321E-01 -.539E-03 -.645E+02   -.289E-02 0.300E-03 -.111E+01
   0.854E-01 0.477E-01 0.657E+02   -.875E-01 -.472E-01 -.646E+02   0.153E-02 -.447E-03 -.111E+01
   0.364E-01 0.948E-01 0.657E+02   -.330E-01 -.935E-01 -.646E+02   -.288E-02 -.121E-02 -.111E+01
   0.175E+00 0.473E-01 0.653E+02   -.181E+00 -.468E-01 -.642E+02   0.225E-02 -.454E-03 -.114E+01
   0.141E+00 0.474E-01 0.657E+02   -.143E+00 -.470E-01 -.646E+02   0.129E-02 -.423E-03 -.111E+01
   0.176E+00 0.479E-01 0.661E+02   -.182E+00 -.475E-01 -.650E+02   0.231E-02 -.435E-03 -.109E+01
 -----------------------------------------------------------------------------------------------
   -.228E+00 -.283E-01 0.245E-03   0.123E-12 -.336E-12 0.753E-12   0.236E+00 0.207E-01 -.295E-03
 
 
 POSITION                                       TOTAL-FORCE (eV/Angst)
 -----------------------------------------------------------------------------------
      1.71948      0.20030     -0.00149         0.077700     -0.000037     -0.000147
      5.58834      0.20099     -0.00468        -0.001540     -0.000050      0.000022
      9.44720      0.20168     -0.00786        -0.001552     -0.000052      0.000007
      1.72882      4.05917     -0.00468         0.000167     -0.000049     -0.000010
      5.58768      4.05986     -0.00786        -0.000011     -0.000219     -0.000002
      9.44654      4.06055     -0.01104        -0.000010      0.000120     -0.000010
      1.72816      7.91804     -0.00786         0.000162     -0.000058     -0.000015
      5.58702      7.91872     -0.01104         0.000002      0.000110     -0.000024
      9.44588      7.91941     -0.01422         0.000003     -0.000216     -0.000021
     -0.19436     -1.72421      6.38168         0.000102     -0.000210      0.000078
      3.66450     -1.72352      6.37850         0.000039      0.000041     -0.000098
      7.52337     -1.72284      6.37532         0.000035      0.000043     -0.000077
     -0.19502      2.13465      6.37850         0.000053      0.000027      0.000064
      3.66384      2.13534      6.37532         0.000090     -0.000130     -0.000066
      7.52270      2.13603      6.37214        -0.000010     -0.000053      0.000028
     -0.19568      5.99352      6.37532         0.000050      0.000038      0.000058
      3.66318      5.99421      6.37214        -0.000009     -0.000047      0.000003
      7.52204      5.99490      6.36896         0.000089     -0.000136     -0.000029
      1.73466      0.20548      6.37832         0.000211     -0.000065     -0.000027
      5.59352      0.20617      6.37514        -0.000040      0.000013     -0.000098
      9.45239      0.20686      6.37196        -0.000038     -0.000017      0.000102
      1.73400      4.06435      6.37514         0.000062      0.000001      0.000013
      5.59286      4.06504      6.37196         0.000067     -0.000092     -0.000003
      9.45172      4.06573      6.36877         0.000057      0.000005      0.000051
      1.73334      7.92322      6.37196        -0.000040     -0.000026      0.000043
      5.59220      7.92391      6.36877        -0.000029      0.000005     -0.000082
      9.45106      7.92460      6.36559         0.000214     -0.000056      0.000036
     -0.18918     -1.71903     12.76150        -0.002453     -0.004584      0.000031
      3.66968     -1.71834     12.75832        -0.000322     -0.000025      0.000015
      7.52855     -1.71765     12.75514        -0.002486      0.004578      0.000008
     -0.18984      2.13984     12.75832         0.000067     -0.000023     -0.000000
      3.66902      2.14052     12.75514         0.000018     -0.000035     -0.000002
      7.52788      2.14121     12.75195         0.000064     -0.000027     -0.000027
     -0.19050      5.99870     12.75514        -0.002457      0.004535     -0.000000
      3.66836      5.99939     12.75195        -0.000314     -0.000026      0.000014
      7.52722      6.00008     12.74877        -0.002465     -0.004636      0.000011
      3.65889      0.20059     -0.00318        -0.021159     -0.000047      0.000077
      7.51775      0.20128     -0.00636         0.000752     -0.000054      0.000127
     11.37662      0.20197     -0.00954        -0.022823     -0.000005      0.000035
      3.65823      4.05946     -0.00636        -0.000115      0.000306     -0.000003
      7.51709      4.06015     -0.00954         0.000288     -0.000036      0.000023
     11.37595      4.06083     -0.01272        -0.000132     -0.000426     -0.000044
      3.65757      7.91832     -0.00954        -0.000096     -0.000375     -0.000010
      7.51643      7.91901     -0.01272         0.000276     -0.000019     -0.000120
     11.37529      7.91970     -0.01590        -0.000138      0.000307     -0.000133
      1.73505     -1.72393      6.38000         0.000005      0.000045     -0.000330
      5.59392     -1.72324      6.37682         0.000130     -0.000158     -0.000227
      9.45278     -1.72255      6.37364        -0.000032      0.000033      0.000060
      1.73439      2.13494      6.37682        -0.000100     -0.000048      0.000154
      5.59325      2.13563      6.37364         0.000011      0.000032     -0.000141
      9.45211      2.13632      6.37046         0.000098     -0.000098      0.000123
      1.73373      5.99381      6.37364         0.000070     -0.000131      0.000004
      5.59259      5.99450      6.37046         0.000041      0.000028     -0.000108
      9.45145      5.99519      6.36727        -0.000115     -0.000040      0.000396
      1.73069      2.13130      1.90875        -0.002587     -0.000063      0.000053
      5.58955      2.13198      1.90557         0.000727      0.000715      0.000756
      9.44841      2.13267      1.90239         0.000733     -0.000864     -0.000722
      1.73003      5.99016      1.90557         0.000076     -0.000011      0.000048
      5.58889      5.99085      1.90239        -0.000135      0.000006      0.000084
      9.44775      5.99154      1.89920        -0.000064     -0.000020     -0.000108
      1.72937      9.84903      1.90239        -0.002571     -0.000008      0.000138
      5.58823      9.84972      1.89920         0.000722     -0.000796      0.000827
      9.44709      9.85041      1.89602         0.000725      0.000805     -0.000684
     -0.19315      0.20678      8.29193        -0.000257     -0.000020      0.000124
      3.66571      0.20747      8.28875         0.000037      0.000060      0.000024
      7.52457      0.20816      8.28557        -0.000074      0.000057     -0.000101
     -0.19381      4.06565      8.28875        -0.000201      0.000024      0.000272
      3.66505      4.06634      8.28557         0.000035     -0.000021      0.000067
      7.52391      4.06702      8.28238        -0.000106     -0.000063     -0.000041
     -0.19447      7.92451      8.28557        -0.000165     -0.000088     -0.000476
      3.66439      7.92520      8.28238         0.000117     -0.000115     -0.000024
      7.52325      7.92589      8.27920         0.000018     -0.000078      0.000558
     -0.19633      0.20360      4.46807         0.000060      0.000014     -0.000549
      3.66253      0.20429      4.46489        -0.000011     -0.000025      0.000458
      7.52140      0.20498      4.46171         0.000163      0.000004     -0.000080
     -0.19699      4.06247      4.46489        -0.000044      0.000075      0.000158
      3.66187      4.06316      4.46171        -0.000113     -0.000009     -0.000185
      7.52073      4.06384      4.45853         0.000109      0.000034      0.000005
     -0.19765      7.92133      4.46171        -0.000034      0.000085      0.000062
      3.66121      7.92202      4.45853        -0.000097      0.000184     -0.000244
      7.52007      7.92271      4.45535         0.000073      0.000135      0.000056
     -2.12017     -1.72091     10.85125        -0.002547      0.000056     -0.000072
      1.73869     -1.72023     10.84807         0.000763      0.000851     -0.000667
      5.59756     -1.71954     10.84489         0.000887     -0.000729      0.000781
     -2.12083      2.13795     10.84807         0.000109      0.000089     -0.000121
      1.73803      2.13864     10.84489        -0.000043      0.000145     -0.000127
      5.59689      2.13933     10.84171         0.000033      0.000127      0.000033
     -2.12149      5.99682     10.84489        -0.002530      0.000007     -0.000113
      1.73737      5.99751     10.84171         0.000804     -0.000804     -0.000781
      5.59623      5.99820     10.83853         0.000849      0.000774      0.000696
     -0.19826      0.20165      2.04033        -0.004019     -0.000030      0.009717
      3.66060      0.20234      2.03715        -0.004003     -0.000049     -0.009755
      7.51947      0.20302      2.03397        -0.000780     -0.000022     -0.000141
     -0.19892      4.06051      2.03715         0.000423     -0.000081      0.000053
      3.65994      4.06120      2.03397         0.000359      0.000066     -0.000358
      7.51880      4.06189      2.03079        -0.000725     -0.000027     -0.000217
     -0.19958      7.91938      2.03397         0.000422      0.000134      0.000142
      3.65928      7.92007      2.03079         0.000348     -0.000037     -0.000260
      7.51814      7.92076      2.02760        -0.000752      0.000065     -0.000160
     -2.12210     -1.72287      8.42351        -0.000076     -0.000028     -0.000104
      1.73676     -1.72218      8.42033        -0.000200     -0.000036      0.000284
      5.59563     -1.72149      8.41715        -0.000127      0.000067     -0.000589
     -2.12276      2.13600      8.42033        -0.000038      0.000020     -0.000105
      1.73610      2.13669      8.41715        -0.000099      0.000090     -0.000014
      5.59496      2.13738      8.41396        -0.000082      0.000041     -0.000247
     -2.12342      5.99486      8.41715        -0.000036     -0.000051     -0.000151
      1.73544      5.99555      8.41396        -0.000198     -0.000018      0.000320
      5.59430      5.99624      8.41078        -0.000142     -0.000105     -0.000533
      1.73264      2.13323      4.33649         0.000065      0.000032      0.000091
      5.59151      2.13392      4.33331        -0.000099     -0.000020     -0.000234
      9.45037      2.13460      4.33013        -0.000081      0.000111      0.000555
      1.73198      5.99209      4.33331         0.000085      0.000110      0.000105
      5.59084      5.99278      4.33013        -0.000057      0.000098      0.000066
      9.44970      5.99347      4.32695         0.000038      0.000096      0.000262
      1.73132      9.85096      4.33013         0.000050      0.000093      0.000128
      5.59018      9.85165      4.32695        -0.000139      0.000172     -0.000272
      9.44904      9.85234      4.32377        -0.000045      0.000081      0.000531
     -0.19120      0.20871     10.71967         0.000404      0.000194      0.000383
      3.66767      0.20940     10.71649        -0.000630      0.000142      0.000193
      7.52653      0.21009     10.71331         0.000503      0.000045     -0.000075
     -0.19186      4.06758     10.71649         0.000441      0.000019      0.000251
      3.66700      4.06827     10.71331        -0.000637      0.000068      0.000128
      7.52586      4.06896     10.71013         0.000486      0.000157     -0.000126
     -0.19252      7.92644     10.71331        -0.003979      0.000051      0.009813
      3.66634      7.92713     10.71013        -0.000659      0.000031      0.000184
      7.52520      7.92782     10.70695        -0.003918      0.000026     -0.009697
 -----------------------------------------------------------------------------------
    total drift:                                0.007403     -0.007625     -0.000050


--------------------------------------------------------------------------------------------------------



  FREE ENERGIE OF THE ION-ELECTRON SYSTEM (eV)
  ---------------------------------------------------
  free  energy   TOTEN  =      -657.90139214 eV

  energy  without entropy=     -657.90139214  energy(sigma->0) =     -657.90139214
 


--------------------------------------------------------------------------------------------------------


    POTLOK:  cpu time    2.3073: real time    2.3206


--------------------------------------------------------------------------------------------------------


     LOOP+:  cpu time 6295.9294: real time 6364.8929
    4ORBIT:  cpu time    0.0000: real time    0.0000

 total amount of memory used by VASP MPI-rank0  2010615. kBytes
=======================================================================

   base      :      30000. kBytes
   nonl-proj :      83483. kBytes
   fftplans  :      59337. kBytes
   grid      :      50429. kBytes
   one-center:        653. kBytes
   wavefun   :    1786713. kBytes
 
  
  
 General timing and accounting informations for this job:
 ========================================================
  
                  Total CPU time used (sec):     6404.859
                            User time (sec):     6328.272
                          System time (sec):       76.587
                         Elapsed time (sec):     6477.932
  
                   Maximum memory used (kb):     2466120.
                   Average memory used (kb):           0.
  
                          Minor page faults:       726238
                          Major page faults:            4
                 Voluntary context switches:        51068
