  224  224    1    2
  0.1357572E+02  0.1537960E-08  0.1537962E-08  0.1395899E-08  0.5000000E-15
  1.000000000000000E-004
  CAR 
 unknown system                          
   1664      8   1208
 
  0.0000000E+00  0.0000000E+00  0.0000000E+00  0.1250000E+00
    1      -51.143047    -46.392386   1.000000   1.000000
    2      -51.142196    -46.391405   1.000000   1.000000
    3      -51.141942    -46.391109   1.000000   1.000000
    4      -51.141625    -46.391010   1.000000   1.000000
    5      -51.141512    -46.390748   1.000000   1.000000
    6      -51.141358    -46.390611   1.000000   1.000000
    7      -51.141324    -46.390498   1.000000   1.000000
    8      -51.141244    -46.390479   1.000000   1.000000
    9      -51.141234    -46.390367   1.000000   1.000000
   10      -51.141180    -46.390341   1.000000   1.000000
   11      -51.141077    -46.390247   1.000000   1.000000
   12      -51.141048    -46.390169   1.000000   1.000000
   13      -51.140991    -46.390081   1.000000   1.000000
   14      -51.140913    -46.390032   1.000000   1.000000
   15      -51.140888    -46.389977   1.000000   1.000000
   16      -51.140866    -46.389966   1.000000   1.000000
   17      -51.140828    -46.389929   1.000000   1.000000
   18      -51.140801    -46.389858   1.000000   1.000000
   19      -51.140759    -46.389810   1.000000   1.000000
   20      -51.140701    -46.389780   1.000000   1.000000
   21      -51.140697    -46.389705   1.000000   1.000000
   22      -51.140669    -46.389688   1.000000   1.000000
   23      -51.140611    -46.389629   1.000000   1.000000
   24      -51.140596    -46.389616   1.000000   1.000000
   25      -51.140575    -46.389599   1.000000   1.000000
   26      -51.140549    -46.389581   1.000000   1.000000
   27      -51.140541    -46.389570   1.000000   1.000000
   28      -51.140515    -46.389526   1.000000   1.000000
   29      -51.140506    -46.389508   1.000000   1.000000
   30      -51.140450    -46.389456   1.000000   1.000000
   31      -51.140436    -46.389386   1.000000   1.000000
   32      -51.140419    -46.389330   1.000000   1.000000
   33      -51.140324    -46.389190   1.000000   1.000000
   34      -51.140229    -46.389077   1.000000   1.000000
   35      -51.140146    -46.388907   1.000000   1.000000
   36      -51.140113    -46.388864   1.000000   1.000000
   37      -51.140092    -46.388855   1.000000   1.000000
   38      -51.140070    -46.388823   1.000000   1.000000
   39      -51.140058    -46.388808   1.000000   1.000000
   40      -51.140049    -46.388803   1.000000   1.000000
   41      -51.140038    -46.388784   1.000000   1.000000
   42      -51.140015    -46.388744   1.000000   1.000000
   43      -51.139980    -46.388732   1.000000   1.000000
   44      -51.139961    -46.388695   1.000000   1.000000
   45      -51.139956    -46.388689   1.000000   1.000000
   46      -51.139899    -46.388631   1.000000   1.000000
   47      -51.139886    -46.388615   1.000000   1.000000
   48      -51.139878    -46.388592   1.000000   1.000000
   49      -51.139834    -46.388535   1.000000   1.000000
   50      -51.139816    -46.388517   1.000000   1.000000
   51      -51.139802    -46.388489   1.000000   1.000000
   52      -51.139703    -46.388418   1.000000   1.000000
   53      -51.139662    -46.388357   1.000000   1.000000
   54      -51.139639    -46.388339   1.000000   1.000000
   55      -51.139556    -46.388170   1.000000   1.000000
   56      -51.139525    -46.388138   1.000000   1.000000
   57      -51.139448    -46.388023   1.000000   1.000000
   58      -51.139420    -46.388015   1.000000   1.000000
   59      -51.139328    -46.387899   1.000000   1.000000
   60      -51.139149    -46.387762   1.000000   1.000000
   61      -51.139048    -46.387696   1.000000   1.000000
   62      -51.139004    -46.387538   1.000000   1.000000
   63      -51.138344    -46.387058   1.000000   1.000000
   64      -51.137881    -46.386437   1.000000   1.000000
   65      -49.649864    -45.930632   1.000000   1.000000
   66      -49.648498    -45.930447   1.000000   1.000000
   67      -49.648278    -45.929746   1.000000   1.000000
   68      -49.647865    -45.929541   1.000000   1.000000
   69      -49.647746    -45.929326   1.000000   1.000000
   70      -49.647688    -45.929219   1.000000   1.000000
   71      -49.647594    -45.929141   1.000000   1.000000
   72      -49.647550    -45.929027   1.000000   1.000000
   73      -49.647465    -45.929023   1.000000   1.000000
   74      -49.647413    -45.928897   1.000000   1.000000
   75      -49.647378    -45.928873   1.000000   1.000000
   76      -49.647356    -45.928813   1.000000   1.000000
   77      -49.647330    -45.928776   1.000000   1.000000
   78      -49.647328    -45.928686   1.000000   1.000000
   79      -49.647293    -45.928645   1.000000   1.000000
   80      -49.647261    -45.928628   1.000000   1.000000
   81      -49.647225    -45.928587   1.000000   1.000000
   82      -49.647161    -45.928549   1.000000   1.000000
   83      -49.647145    -45.928490   1.000000   1.000000
   84      -49.647126    -45.928421   1.000000   1.000000
   85      -49.647117    -45.928413   1.000000   1.000000
   86      -49.647082    -45.928407   1.000000   1.000000
   87      -49.647032    -45.928386   1.000000   1.000000
   88      -49.647003    -45.928377   1.000000   1.000000
   89      -49.646988    -45.928360   1.000000   1.000000
   90      -49.646979    -45.928314   1.000000   1.000000
   91      -49.646935    -45.928294   1.000000   1.000000
   92      -49.646899    -45.928270   1.000000   1.000000
   93      -49.646851    -45.928257   1.000000   1.000000
   94      -49.646789    -45.928226   1.000000   1.000000
   95      -49.646782    -45.928183   1.000000   1.000000
   96      -49.646751    -45.928161   1.000000   1.000000
   97      -49.646723    -45.928101   1.000000   1.000000
   98      -49.646702    -45.928077   1.000000   1.000000
   99      -49.646612    -45.928055   1.000000   1.000000
  100      -49.646593    -45.928030   1.000000   1.000000
  101      -49.646549    -45.927951   1.000000   1.000000
  102      -49.646541    -45.927897   1.000000   1.000000
  103      -49.646509    -45.927884   1.000000   1.000000
  104      -49.646457    -45.927853   1.000000   1.000000
  105      -49.646426    -45.927846   1.000000   1.000000
  106      -49.646382    -45.927803   1.000000   1.000000
  107      -49.646337    -45.927798   1.000000   1.000000
  108      -49.646290    -45.927784   1.000000   1.000000
  109      -49.646247    -45.927752   1.000000   1.000000
  110      -49.646220    -45.927712   1.000000   1.000000
  111      -49.646181    -45.927693   1.000000   1.000000
  112      -49.646109    -45.927688   1.000000   1.000000
  113      -49.646086    -45.927606   1.000000   1.000000
  114      -49.646078    -45.927564   1.000000   1.000000
  115      -49.646053    -45.927502   1.000000   1.000000
  116      -49.646025    -45.927480   1.000000   1.000000
  117      -49.645933    -45.927429   1.000000   1.000000
  118      -49.645901    -45.927403   1.000000   1.000000
  119      -49.645850    -45.927377   1.000000   1.000000
  120      -49.645841    -45.927370   1.000000   1.000000
  121      -49.645793    -45.927327   1.000000   1.000000
  122      -49.645776    -45.927314   1.000000   1.000000
  123      -49.645752    -45.927266   1.000000   1.000000
  124      -49.645747    -45.927256   1.000000   1.000000
  125      -49.645683    -45.927218   1.000000   1.000000
  126      -49.645645    -45.927186   1.000000   1.000000
  127      -49.645608    -45.927172   1.000000   1.000000
  128      -49.645584    -45.927145   1.000000   1.000000
  129      -49.645490    -45.927108   1.000000   1.000000
  130      -49.645483    -45.927079   1.000000   1.000000
  131      -49.645427    -45.927059   1.000000   1.000000
  132      -49.645399    -45.927048   1.000000   1.000000
  133      -49.645397    -45.927025   1.000000   1.000000
  134      -49.645389    -45.926996   1.000000   1.000000
  135      -49.645356    -45.926944   1.000000   1.000000
  136      -49.645335    -45.926933   1.000000   1.000000
  137      -49.645326    -45.926921   1.000000   1.000000
  138      -49.645310    -45.926899   1.000000   1.000000
  139      -49.645287    -45.926885   1.000000   1.000000
  140      -49.645235    -45.926854   1.000000   1.000000
  141      -49.645194    -45.926841   1.000000   1.000000
  142      -49.645189    -45.926800   1.000000   1.000000
  143      -49.645180    -45.926786   1.000000   1.000000
  144      -49.645164    -45.926747   1.000000   1.000000
  145      -49.645126    -45.926733   1.000000   1.000000
  146      -49.645113    -45.926709   1.000000   1.000000
  147      -49.645083    -45.926708   1.000000   1.000000
  148      -49.645027    -45.926685   1.000000   1.000000
  149      -49.645000    -45.926648   1.000000   1.000000
  150      -49.644987    -45.926623   1.000000   1.000000
  151      -49.644964    -45.926607   1.000000   1.000000
  152      -49.644941    -45.926548   1.000000   1.000000
  153      -49.644848    -45.926543   1.000000   1.000000
  154      -49.644814    -45.926513   1.000000   1.000000
  155      -49.644809    -45.926482   1.000000   1.000000
  156      -49.644736    -45.926451   1.000000   1.000000
  157      -49.644719    -45.926438   1.000000   1.000000
  158      -49.644690    -45.926400   1.000000   1.000000
  159      -49.644664    -45.926378   1.000000   1.000000
  160      -49.644648    -45.926368   1.000000   1.000000
  161      -49.644642    -45.926346   1.000000   1.000000
  162      -49.644617    -45.926336   1.000000   1.000000
  163      -49.644502    -45.926330   1.000000   1.000000
  164      -49.644481    -45.926288   1.000000   1.000000
  165      -49.644454    -45.926280   1.000000   1.000000
  166      -49.644412    -45.926239   1.000000   1.000000
  167      -49.644397    -45.926200   1.000000   1.000000
  168      -49.644381    -45.926157   1.000000   1.000000
  169      -49.644319    -45.926140   1.000000   1.000000
  170      -49.644277    -45.926132   1.000000   1.000000
  171      -49.644233    -45.926055   1.000000   1.000000
  172      -49.644223    -45.926038   1.000000   1.000000
  173      -49.644213    -45.926026   1.000000   1.000000
  174      -49.644154    -45.925999   1.000000   1.000000
  175      -49.644136    -45.925943   1.000000   1.000000
  176      -49.644076    -45.925897   1.000000   1.000000
  177      -49.644034    -45.925873   1.000000   1.000000
  178      -49.643926    -45.925856   1.000000   1.000000
  179      -49.643914    -45.925815   1.000000   1.000000
  180      -49.643868    -45.925785   1.000000   1.000000
  181      -49.643844    -45.925756   1.000000   1.000000
  182      -49.643820    -45.925628   1.000000   1.000000
  183      -49.643789    -45.925597   1.000000   1.000000
  184      -49.643648    -45.925583   1.000000   1.000000
  185      -49.643626    -45.925520   1.000000   1.000000
  186      -49.643586    -45.925413   1.000000   1.000000
  187      -49.643468    -45.925352   1.000000   1.000000
  188      -49.643374    -45.925331   1.000000   1.000000
  189      -49.643338    -45.924904   1.000000   1.000000
  190      -49.643062    -45.924776   1.000000   1.000000
  191      -49.642816    -45.924518   1.000000   1.000000
  192      -49.642258    -45.923983   1.000000   1.000000
  193      -39.641082    -39.640165   1.000000   1.000000
  194      -39.641036    -39.640119   1.000000   1.000000
  195      -39.633727    -39.632854   1.000000   1.000000
  196      -39.633474    -39.632601   1.000000   1.000000
  197      -39.633429    -39.632557   1.000000   1.000000
  198      -39.633412    -39.632539   1.000000   1.000000
  199      -39.633365    -39.632492   1.000000   1.000000
  200      -39.633348    -39.632475   1.000000   1.000000
  201      -39.633329    -39.632456   1.000000   1.000000
  202      -39.633172    -39.632299   1.000000   1.000000
  203      -39.627979    -39.627141   1.000000   1.000000
  204      -39.627814    -39.626976   1.000000   1.000000
  205      -39.627798    -39.626960   1.000000   1.000000
  206      -39.627756    -39.626918   1.000000   1.000000
  207      -39.627752    -39.626914   1.000000   1.000000
  208      -39.627711    -39.626873   1.000000   1.000000
  209      -39.627689    -39.626851   1.000000   1.000000
  210      -39.627607    -39.626769   1.000000   1.000000
  211      -39.616284    -39.615509   1.000000   1.000000
  212      -39.616050    -39.615273   1.000000   1.000000
  213      -39.615995    -39.615219   1.000000   1.000000
  214      -39.615969    -39.615193   1.000000   1.000000
  215      -39.615711    -39.614932   1.000000   1.000000
  216      -39.615594    -39.614814   1.000000   1.000000
  217      -39.615558    -39.614778   1.000000   1.000000
  218      -39.615537    -39.614757   1.000000   1.000000
  219      -39.615464    -39.614693   1.000000   1.000000
  220      -39.615263    -39.614497   1.000000   1.000000
  221      -39.615238    -39.614471   1.000000   1.000000
  222      -39.615203    -39.614435   1.000000   1.000000
  223      -39.615168    -39.614400   1.000000   1.000000
  224      -39.615151    -39.614384   1.000000   1.000000
  225      -39.615150    -39.614383   1.000000   1.000000
  226      -39.615136    -39.614369   1.000000   1.000000
  227      -39.615050    -39.614281   1.000000   1.000000
  228      -39.614993    -39.614225   1.000000   1.000000
  229      -39.614969    -39.614200   1.000000   1.000000
  230      -39.614915    -39.614146   1.000000   1.000000
  231      -39.614912    -39.614143   1.000000   1.000000
  232      -39.614893    -39.614125   1.000000   1.000000
  233      -39.614837    -39.614068   1.000000   1.000000
  234      -39.614792    -39.614025   1.000000   1.000000
  235      -39.614366    -39.613609   1.000000   1.000000
  236      -39.614298    -39.613541   1.000000   1.000000
  237      -39.614260    -39.613501   1.000000   1.000000
  238      -39.614228    -39.613469   1.000000   1.000000
  239      -39.604018    -39.603299   1.000000   1.000000
  240      -39.603872    -39.603153   1.000000   1.000000
  241      -39.603855    -39.603135   1.000000   1.000000
  242      -39.603796    -39.603076   1.000000   1.000000
  243      -39.603792    -39.603073   1.000000   1.000000
  244      -39.603769    -39.603049   1.000000   1.000000
  245      -39.603766    -39.603047   1.000000   1.000000
  246      -39.603678    -39.602959   1.000000   1.000000
  247      -39.599815    -39.599109   1.000000   1.000000
  248      -39.599626    -39.598920   1.000000   1.000000
  249      -39.599592    -39.598886   1.000000   1.000000
  250      -39.599573    -39.598867   1.000000   1.000000
  251      -39.599527    -39.598821   1.000000   1.000000
  252      -39.599511    -39.598805   1.000000   1.000000
  253      -39.599485    -39.598779   1.000000   1.000000
  254      -39.599333    -39.598627   1.000000   1.000000
  255      -39.593320    -39.592637   1.000000   1.000000
  256      -39.593255    -39.592572   1.000000   1.000000
  257      -12.747256    -12.467790   1.000000   1.000000
  258      -12.747181    -12.467711   1.000000   1.000000
  259      -12.720116    -12.440404   1.000000   1.000000
  260      -12.719397    -12.439646   1.000000   1.000000
  261      -12.719356    -12.439599   1.000000   1.000000
  262      -12.719345    -12.439588   1.000000   1.000000
  263      -12.719291    -12.439539   1.000000   1.000000
  264      -12.719267    -12.439518   1.000000   1.000000
  265      -12.719259    -12.439514   1.000000   1.000000
  266      -12.718765    -12.438991   1.000000   1.000000
  267      -12.697442    -12.417308   1.000000   1.000000
  268      -12.697045    -12.416873   1.000000   1.000000
  269      -12.695181    -12.415579   1.000000   1.000000
  270      -12.694752    -12.415143   1.000000   1.000000
  271      -12.694731    -12.415125   1.000000   1.000000
  272      -12.694448    -12.414831   1.000000   1.000000
  273      -12.692589    -12.413498   1.000000   1.000000
  274      -12.692225    -12.413130   1.000000   1.000000
  275      -12.691518    -12.411540   1.000000   1.000000
  276      -12.691247    -12.411211   1.000000   1.000000
  277      -12.691229    -12.411198   1.000000   1.000000
  278      -12.690800    -12.410779   1.000000   1.000000
  279      -12.672996    -12.393009   1.000000   1.000000
  280      -12.672698    -12.392683   1.000000   1.000000
  281      -12.672656    -12.392638   1.000000   1.000000
  282      -12.672380    -12.392354   1.000000   1.000000
  283      -12.667883    -12.389003   1.000000   1.000000
  284      -12.667628    -12.388738   1.000000   1.000000
  285      -12.667586    -12.388694   1.000000   1.000000
  286      -12.667271    -12.388353   1.000000   1.000000
  287      -12.654535    -12.374581   1.000000   1.000000
  288      -12.643758    -12.366033   1.000000   1.000000
  289       -7.800024     -7.599025   1.000000   1.000000
  290       -7.748223     -7.551501   1.000000   1.000000
  291       -7.505598     -7.319288   1.000000   1.000000
  292       -7.505453     -7.319179   1.000000   1.000000
  293       -7.505345     -7.319080   1.000000   1.000000
  294       -7.505272     -7.318961   1.000000   1.000000
  295       -7.501026     -7.308924   1.000000   1.000000
  296       -7.500962     -7.308840   1.000000   1.000000
  297       -7.500883     -7.308752   1.000000   1.000000
  298       -7.500593     -7.308523   1.000000   1.000000
  299       -7.315202     -7.117748   1.000000   1.000000
  300       -7.315106     -7.117651   1.000000   1.000000
  301       -7.297320     -7.094041   1.000000   1.000000
  302       -7.297236     -7.093957   1.000000   1.000000
  303       -7.296423     -7.093135   1.000000   1.000000
  304       -7.296246     -7.092957   1.000000   1.000000
  305       -7.269272     -7.061974   1.000000   1.000000
  306       -7.269169     -7.061871   1.000000   1.000000
  307       -7.088628     -6.893958   1.000000   1.000000
  308       -7.084762     -6.893847   1.000000   1.000000
  309       -7.084656     -6.893821   1.000000   1.000000
  310       -7.084622     -6.893722   1.000000   1.000000
  311       -7.084529     -6.796741   1.000000   1.000000
  312       -7.046557     -6.783775   1.000000   1.000000
  313       -7.000032     -6.768204   1.000000   1.000000
  314       -6.999826     -6.768008   1.000000   1.000000
  315       -6.999822     -6.767915   1.000000   1.000000
  316       -6.999808     -6.767888   1.000000   1.000000
  317       -6.999717     -6.766195   1.000000   1.000000
  318       -6.999711     -6.766140   1.000000   1.000000
  319       -6.999690     -6.766127   1.000000   1.000000
  320       -6.999552     -6.766111   1.000000   1.000000
  321       -6.994338     -6.766032   1.000000   1.000000
  322       -6.994234     -6.766028   1.000000   1.000000
  323       -6.994140     -6.766004   1.000000   1.000000
  324       -6.993940     -6.765564   1.000000   1.000000
  325       -6.955862     -6.745043   1.000000   1.000000
  326       -6.955764     -6.744943   1.000000   1.000000
  327       -6.955731     -6.744840   1.000000   1.000000
  328       -6.955621     -6.744642   1.000000   1.000000
  329       -6.948374     -6.697521   1.000000   1.000000
  330       -6.948263     -6.697426   1.000000   1.000000
  331       -6.928731     -6.689194   1.000000   1.000000
  332       -6.928669     -6.689123   1.000000   1.000000
  333       -6.928578     -6.689030   1.000000   1.000000
  334       -6.928391     -6.688822   1.000000   1.000000
  335       -6.911330     -6.639473   1.000000   1.000000
  336       -6.911303     -6.639157   1.000000   1.000000
  337       -6.886135     -6.639078   1.000000   1.000000
  338       -6.886088     -6.639077   1.000000   1.000000
  339       -6.885270     -6.639032   1.000000   1.000000
  340       -6.885058     -6.638991   1.000000   1.000000
  341       -6.877006     -6.638969   1.000000   1.000000
  342       -6.876869     -6.638945   1.000000   1.000000
  343       -6.876866     -6.638710   1.000000   1.000000
  344       -6.876850     -6.638615   1.000000   1.000000
  345       -6.876760     -6.637985   1.000000   1.000000
  346       -6.876756     -6.637585   1.000000   1.000000
  347       -6.876733     -6.628066   1.000000   1.000000
  348       -6.876459     -6.627988   1.000000   1.000000
  349       -6.832643     -6.586681   1.000000   1.000000
  350       -6.832526     -6.586562   1.000000   1.000000
  351       -6.794264     -6.499083   1.000000   1.000000
  352       -6.794241     -6.499060   1.000000   1.000000
  353       -1.525521     -0.414703   1.000000   1.000000
  354       -1.467781     -0.414576   1.000000   1.000000
  355       -1.467681     -0.414438   1.000000   1.000000
  356       -1.467651     -0.414360   1.000000   1.000000
  357       -1.467575      0.026155   1.000000   1.000000
  358       -1.460437      0.026335   1.000000   1.000000
  359       -1.460339      0.026438   1.000000   1.000000
  360       -1.460163      0.026494   1.000000   1.000000
  361       -1.460099      0.037694   1.000000   1.000000
  362       -1.421438      0.037887   1.000000   1.000000
  363       -1.421304      0.037962   1.000000   1.000000
  364       -1.382960      0.037995   1.000000   1.000000
  365       -1.382820      0.038087   1.000000   1.000000
  366       -1.382716      0.038165   1.000000   1.000000
  367       -1.382623      0.038221   1.000000   1.000000
  368       -1.332893      0.038382   1.000000   1.000000
  369       -1.332667      0.102769   1.000000   1.000000
  370       -1.332556      0.103016   1.000000   1.000000
  371       -1.332541      0.207302   1.000000   1.000000
  372       -1.332434      0.207535   1.000000   1.000000
  373       -1.332412      0.207579   1.000000   1.000000
  374       -1.332323      0.207730   1.000000   1.000000
  375       -1.332220      0.304153   1.000000   1.000000
  376       -1.292584      0.392334   1.000000   1.000000
  377       -1.292484      0.392568   1.000000   1.000000
  378       -1.292475      0.392654   1.000000   1.000000
  379       -1.292383      0.392788   1.000000   1.000000
  380       -1.256812      0.490743   1.000000   1.000000
  381       -1.256786      0.491029   1.000000   1.000000
  382       -1.232229      0.497589   1.000000   1.000000
  383       -1.232120      0.497625   1.000000   1.000000
  384       -1.220396      0.497742   1.000000   1.000000
  385       -0.822778      0.497843   1.000000   1.000000
  386       -0.822743      0.510678   1.000000   1.000000
  387       -0.822660      0.510717   1.000000   1.000000
  388       -0.822616      0.531152   1.000000   1.000000
  389       -0.722674      0.531205   1.000000   1.000000
  390       -0.722627      0.531308   1.000000   1.000000
  391       -0.699166      0.531354   1.000000   1.000000
  392       -0.699104      0.574238   1.000000   1.000000
  393       -0.699010      0.574278   1.000000   1.000000
  394       -0.698906      0.574324   1.000000   1.000000
  395       -0.688464      0.574382   1.000000   1.000000
  396       -0.688432      0.574394   1.000000   1.000000
  397       -0.688190      0.574429   1.000000   1.000000
  398       -0.688157      0.574493   1.000000   1.000000
  399       -0.666698      0.574536   1.000000   1.000000
  400       -0.666668      0.638605   1.000000   1.000000
  401       -0.666411      0.666232   1.000000   1.000000
  402       -0.666386      0.666404   1.000000   1.000000
  403       -0.651949      0.733058   1.000000   1.000000
  404       -0.651917      0.733106   1.000000   1.000000
  405       -0.651831      0.931382   1.000000   1.000000
  406       -0.651747      0.932580   1.000000   1.000000
  407       -0.589449      0.935600   1.000000   1.000000
  408       -0.589379      0.935661   1.000000   1.000000
  409       -0.576753      0.948876   1.000000   1.000000
  410       -0.576668      0.948921   1.000000   1.000000
  411       -0.576411      0.948995   1.000000   1.000000
  412       -0.576349      0.949075   1.000000   1.000000
  413       -0.553391      0.985936   1.000000   1.000000
  414       -0.553363      0.986096   1.000000   1.000000
  415       -0.553085      0.986358   1.000000   1.000000
  416       -0.553011      0.986434   1.000000   1.000000
  417       -0.497624      0.992780   1.000000   1.000000
  418       -0.496866      0.992983   1.000000   1.000000
  419       -0.472900      1.008862   1.000000   1.000000
  420       -0.472672      1.008873   1.000000   1.000000
  421       -0.461562      1.009002   1.000000   1.000000
  422       -0.461532      1.009028   1.000000   1.000000
  423       -0.461256      1.018476   1.000000   1.000000
  424       -0.461155      1.049012   1.000000   1.000000
  425       -0.459775      1.049201   1.000000   1.000000
  426       -0.459743      1.051565   1.000000   1.000000
  427       -0.459448      1.051736   1.000000   1.000000
  428       -0.459357      1.051776   1.000000   1.000000
  429       -0.410038      1.051859   1.000000   1.000000
  430       -0.409991      1.078703   1.000000   1.000000
  431       -0.407619      1.078829   1.000000   1.000000
  432       -0.407537      1.078842   1.000000   1.000000
  433       -0.407505      1.078891   1.000000   1.000000
  434       -0.407403      1.079619   1.000000   1.000000
  435       -0.407384      1.079702   1.000000   1.000000
  436       -0.407333      1.080022   1.000000   1.000000
  437       -0.383293      1.080126   1.000000   1.000000
  438       -0.383272      1.192775   1.000000   1.000000
  439       -0.378171      1.192928   1.000000   1.000000
  440       -0.368935      1.376435   1.000000   1.000000
  441       -0.368832      1.390346   1.000000   1.000000
  442       -0.368759      1.391171   1.000000   1.000000
  443       -0.368718      1.391229   1.000000   1.000000
  444       -0.368646      1.391273   1.000000   1.000000
  445       -0.368621      1.391360   1.000000   1.000000
  446       -0.368557      1.437276   1.000000   1.000000
  447       -0.368469      1.450165   1.000000   1.000000
  448       -0.353549      1.526215   1.000000   1.000000
  449       -0.353530      1.526384   1.000000   1.000000
  450       -0.349054      1.526433   1.000000   1.000000
  451       -0.341791      1.526582   1.000000   1.000000
  452       -0.335811      1.528783   1.000000   1.000000
  453       -0.335780      1.528989   1.000000   1.000000
  454       -0.335415      1.529006   1.000000   1.000000
  455       -0.335365      1.529130   1.000000   1.000000
  456       -0.334221      1.558176   1.000000   1.000000
  457       -0.334195      1.558229   1.000000   1.000000
  458       -0.334034      1.558459   1.000000   1.000000
  459       -0.334024      1.558475   1.000000   1.000000
  460       -0.324288      1.566552   1.000000   1.000000
  461       -0.324229      1.566761   1.000000   1.000000
  462       -0.323907      1.566813   1.000000   1.000000
  463       -0.323842      1.566976   1.000000   1.000000
  464       -0.321669      1.568146   1.000000   1.000000
  465       -0.321631      1.568308   1.000000   1.000000
  466       -0.321246      1.568406   1.000000   1.000000
  467       -0.321177      1.568507   1.000000   1.000000
  468       -0.303856      1.586606   1.000000   1.000000
  469       -0.295921      1.586621   1.000000   1.000000
  470       -0.287950      1.695714   1.000000   1.000000
  471       -0.287878      1.695749   1.000000   1.000000
  472       -0.287819      1.741053   1.000000   1.000000
  473       -0.287760      1.741084   1.000000   1.000000
  474       -0.280400      1.741179   1.000000   1.000000
  475       -0.280368      1.741251   1.000000   1.000000
  476       -0.275079      1.746706   1.000000   1.000000
  477       -0.275068      1.746869   1.000000   1.000000
  478       -0.274815      1.746908   1.000000   1.000000
  479       -0.274795      1.746947   1.000000   1.000000
  480       -0.241634      1.779046   1.000000   1.000000
  481       -0.241615      1.780592   1.000000   1.000000
  482       -0.241583      1.780678   1.000000   1.000000
  483       -0.241563      1.836816   1.000000   1.000000
  484       -0.241433      1.836954   1.000000   1.000000
  485       -0.241394      1.837311   1.000000   1.000000
  486       -0.241299      1.837473   1.000000   1.000000
  487       -0.241285      1.837729   1.000000   1.000000
  488       -0.207401      1.837789   1.000000   1.000000
  489       -0.207393      1.838422   1.000000   1.000000
  490       -0.199711      1.838512   1.000000   1.000000
  491       -0.199648      1.866220   1.000000   1.000000
  492       -0.199468      1.866424   1.000000   1.000000
  493       -0.199422      1.913216   1.000000   1.000000
  494       -0.194023      1.913483   1.000000   1.000000
  495       -0.194000      1.913511   1.000000   1.000000
  496       -0.163964      1.913560   1.000000   1.000000
  497       -0.163937      1.913587   1.000000   1.000000
  498       -0.163781      1.913648   1.000000   1.000000
  499       -0.163738      1.913677   1.000000   1.000000
  500       -0.156674      1.913865   1.000000   1.000000
  501       -0.156621      1.926760   1.000000   1.000000
  502       -0.156209      1.926976   1.000000   1.000000
  503       -0.156147      1.927150   1.000000   1.000000
  504       -0.139051      1.927219   1.000000   1.000000
  505       -0.139038      2.133171   1.000000   1.000000
  506       -0.138832      2.133313   1.000000   1.000000
  507       -0.138806      2.191268   1.000000   1.000000
  508       -0.090971      2.193187   1.000000   1.000000
  509       -0.090951      2.300575   1.000000   1.000000
  510       -0.082578      2.300733   1.000000   1.000000
  511       -0.082509      2.301098   1.000000   1.000000
  512       -0.082448      2.301246   1.000000   1.000000