 120 120   0   0
  0.1228332E+02  0.1173587E-08  0.1121847E-08  0.1119562E-08  0.5000000E-15
  1.000000000000000E-004
  CAR 
 unknown system                          
     16.73357704    -54.73126626  301      4.40589157      1.00000000
    -54.731  0.0000E+00  0.0000E+00  0.0000E+00  0.0000E+00
    -54.493  0.0000E+00  0.0000E+00  0.0000E+00  0.0000E+00
    -54.255  0.0000E+00  0.0000E+00  0.0000E+00  0.0000E+00
    -54.017  0.0000E+00  0.0000E+00  0.0000E+00  0.0000E+00
    -53.778  0.0000E+00  0.0000E+00  0.0000E+00  0.0000E+00
    -53.540  0.0000E+00  0.0000E+00  0.0000E+00  0.0000E+00
    -53.302  0.0000E+00  0.0000E+00  0.0000E+00  0.0000E+00
    -53.064  0.0000E+00  0.0000E+00  0.0000E+00  0.0000E+00
    -52.826  0.0000E+00  0.0000E+00  0.0000E+00  0.0000E+00
    -52.587  0.0000E+00  0.0000E+00  0.0000E+00  0.0000E+00
    -52.349  0.0000E+00  0.0000E+00  0.0000E+00  0.0000E+00
    -52.111  0.0000E+00  0.0000E+00  0.0000E+00  0.0000E+00
    -51.873  0.0000E+00  0.0000E+00  0.0000E+00  0.0000E+00
    -51.634  0.2548E-03  0.0000E+00  0.6071E-04  0.0000E+00
    -51.396  0.9784E+02  0.0000E+00  0.2331E+02  0.0000E+00
    -51.158  0.2913E+01  0.0000E+00  0.2400E+02  0.0000E+00
    -50.920  0.0000E+00  0.0000E+00  0.2400E+02  0.0000E+00
    -50.682  0.0000E+00  0.0000E+00  0.2400E+02  0.0000E+00
    -50.443  0.2449E-09  0.0000E+00  0.2400E+02  0.0000E+00
    -50.205  0.4294E+02  0.0000E+00  0.3423E+02  0.0000E+00
    -49.967  0.1321E+03  0.0000E+00  0.6570E+02  0.0000E+00
    -49.729  0.2644E+02  0.0000E+00  0.7200E+02  0.0000E+00
    -49.491  0.0000E+00  0.0000E+00  0.7200E+02  0.0000E+00
    -49.252  0.0000E+00  0.0000E+00  0.7200E+02  0.0000E+00
    -49.014  0.0000E+00  0.0000E+00  0.7200E+02  0.0000E+00
    -48.776  0.0000E+00  0.0000E+00  0.7200E+02  0.0000E+00
    -48.538  0.0000E+00  0.0000E+00  0.7200E+02  0.0000E+00
    -48.299  0.0000E+00  0.0000E+00  0.7200E+02  0.0000E+00
    -48.061  0.0000E+00  0.0000E+00  0.7200E+02  0.0000E+00
    -47.823  0.0000E+00  0.0000E+00  0.7200E+02  0.0000E+00
    -47.585  0.0000E+00  0.0000E+00  0.7200E+02  0.0000E+00
    -47.347  0.0000E+00  0.0000E+00  0.7200E+02  0.0000E+00
    -47.108  0.0000E+00  0.0000E+00  0.7200E+02  0.0000E+00
    -46.870  0.0000E+00  0.6290E-01  0.7200E+02  0.1498E-01
    -46.632  0.0000E+00  0.1006E+03  0.7200E+02  0.2397E+02
    -46.394  0.0000E+00  0.9574E+02  0.7200E+02  0.4678E+02
    -46.155  0.0000E+00  0.1059E+03  0.7200E+02  0.7200E+02
    -45.917  0.0000E+00  0.0000E+00  0.7200E+02  0.7200E+02
    -45.679  0.0000E+00  0.0000E+00  0.7200E+02  0.7200E+02
    -45.441  0.0000E+00  0.0000E+00  0.7200E+02  0.7200E+02
    -45.203  0.0000E+00  0.0000E+00  0.7200E+02  0.7200E+02
    -44.964  0.0000E+00  0.0000E+00  0.7200E+02  0.7200E+02
    -44.726  0.0000E+00  0.0000E+00  0.7200E+02  0.7200E+02
    -44.488  0.0000E+00  0.0000E+00  0.7200E+02  0.7200E+02
    -44.250  0.0000E+00  0.0000E+00  0.7200E+02  0.7200E+02
    -44.012  0.0000E+00  0.0000E+00  0.7200E+02  0.7200E+02
    -43.773  0.0000E+00  0.0000E+00  0.7200E+02  0.7200E+02
    -43.535  0.0000E+00  0.0000E+00  0.7200E+02  0.7200E+02
    -43.297  0.0000E+00  0.0000E+00  0.7200E+02  0.7200E+02
    -43.059  0.0000E+00  0.0000E+00  0.7200E+02  0.7200E+02
    -42.820  0.0000E+00  0.0000E+00  0.7200E+02  0.7200E+02
    -42.582  0.0000E+00  0.0000E+00  0.7200E+02  0.7200E+02
    -42.344  0.0000E+00  0.0000E+00  0.7200E+02  0.7200E+02
    -42.106  0.0000E+00  0.0000E+00  0.7200E+02  0.7200E+02
    -41.868  0.0000E+00  0.0000E+00  0.7200E+02  0.7200E+02
    -41.629  0.0000E+00  0.0000E+00  0.7200E+02  0.7200E+02
    -41.391  0.0000E+00  0.0000E+00  0.7200E+02  0.7200E+02
    -41.153  0.0000E+00  0.0000E+00  0.7200E+02  0.7200E+02
    -40.915  0.0000E+00  0.0000E+00  0.7200E+02  0.7200E+02
    -40.677  0.2356E-03  0.7127E-04  0.7200E+02  0.7200E+02
    -40.438  0.9875E+02  0.9724E+02  0.9552E+02  0.9516E+02
    -40.200  0.1026E+03  0.1041E+03  0.1200E+03  0.1200E+03
    -39.962  0.1731E+00  0.1725E+00  0.1200E+03  0.1200E+03
    -39.724  0.0000E+00  0.0000E+00  0.1200E+03  0.1200E+03
    -39.485  0.0000E+00  0.0000E+00  0.1200E+03  0.1200E+03
    -39.247  0.0000E+00  0.0000E+00  0.1200E+03  0.1200E+03
    -39.009  0.0000E+00  0.0000E+00  0.1200E+03  0.1200E+03
    -38.771  0.0000E+00  0.0000E+00  0.1200E+03  0.1200E+03
    -38.533  0.0000E+00  0.0000E+00  0.1200E+03  0.1200E+03
    -38.294  0.0000E+00  0.0000E+00  0.1200E+03  0.1200E+03
    -38.056  0.0000E+00  0.0000E+00  0.1200E+03  0.1200E+03
    -37.818  0.0000E+00  0.0000E+00  0.1200E+03  0.1200E+03
    -37.580  0.0000E+00  0.0000E+00  0.1200E+03  0.1200E+03
    -37.341  0.0000E+00  0.0000E+00  0.1200E+03  0.1200E+03
    -37.103  0.0000E+00  0.0000E+00  0.1200E+03  0.1200E+03
    -36.865  0.0000E+00  0.0000E+00  0.1200E+03  0.1200E+03
    -36.627  0.0000E+00  0.0000E+00  0.1200E+03  0.1200E+03
    -36.389  0.0000E+00  0.0000E+00  0.1200E+03  0.1200E+03
    -36.150  0.0000E+00  0.0000E+00  0.1200E+03  0.1200E+03
    -35.912  0.0000E+00  0.0000E+00  0.1200E+03  0.1200E+03
    -35.674  0.0000E+00  0.0000E+00  0.1200E+03  0.1200E+03
    -35.436  0.0000E+00  0.0000E+00  0.1200E+03  0.1200E+03
    -35.198  0.0000E+00  0.0000E+00  0.1200E+03  0.1200E+03
    -34.959  0.0000E+00  0.0000E+00  0.1200E+03  0.1200E+03
    -34.721  0.0000E+00  0.0000E+00  0.1200E+03  0.1200E+03
    -34.483  0.0000E+00  0.0000E+00  0.1200E+03  0.1200E+03
    -34.245  0.0000E+00  0.0000E+00  0.1200E+03  0.1200E+03
    -34.006  0.0000E+00  0.0000E+00  0.1200E+03  0.1200E+03
    -33.768  0.0000E+00  0.0000E+00  0.1200E+03  0.1200E+03
    -33.530  0.0000E+00  0.0000E+00  0.1200E+03  0.1200E+03
    -33.292  0.0000E+00  0.0000E+00  0.1200E+03  0.1200E+03
    -33.054  0.0000E+00  0.0000E+00  0.1200E+03  0.1200E+03
    -32.815  0.0000E+00  0.0000E+00  0.1200E+03  0.1200E+03
    -32.577  0.0000E+00  0.0000E+00  0.1200E+03  0.1200E+03
    -32.339  0.0000E+00  0.0000E+00  0.1200E+03  0.1200E+03
    -32.101  0.0000E+00  0.0000E+00  0.1200E+03  0.1200E+03
    -31.863  0.0000E+00  0.0000E+00  0.1200E+03  0.1200E+03
    -31.624  0.0000E+00  0.0000E+00  0.1200E+03  0.1200E+03
    -31.386  0.0000E+00  0.0000E+00  0.1200E+03  0.1200E+03
    -31.148  0.0000E+00  0.0000E+00  0.1200E+03  0.1200E+03
    -30.910  0.0000E+00  0.0000E+00  0.1200E+03  0.1200E+03
    -30.671  0.0000E+00  0.0000E+00  0.1200E+03  0.1200E+03
    -30.433  0.0000E+00  0.0000E+00  0.1200E+03  0.1200E+03
    -30.195  0.0000E+00  0.0000E+00  0.1200E+03  0.1200E+03
    -29.957  0.0000E+00  0.0000E+00  0.1200E+03  0.1200E+03
    -29.719  0.0000E+00  0.0000E+00  0.1200E+03  0.1200E+03
    -29.480  0.0000E+00  0.0000E+00  0.1200E+03  0.1200E+03
    -29.242  0.0000E+00  0.0000E+00  0.1200E+03  0.1200E+03
    -29.004  0.0000E+00  0.0000E+00  0.1200E+03  0.1200E+03
    -28.766  0.0000E+00  0.0000E+00  0.1200E+03  0.1200E+03
    -28.527  0.0000E+00  0.0000E+00  0.1200E+03  0.1200E+03
    -28.289  0.0000E+00  0.0000E+00  0.1200E+03  0.1200E+03
    -28.051  0.0000E+00  0.0000E+00  0.1200E+03  0.1200E+03
    -27.813  0.0000E+00  0.0000E+00  0.1200E+03  0.1200E+03
    -27.575  0.0000E+00  0.0000E+00  0.1200E+03  0.1200E+03
    -27.336  0.0000E+00  0.0000E+00  0.1200E+03  0.1200E+03
    -27.098  0.0000E+00  0.0000E+00  0.1200E+03  0.1200E+03
    -26.860  0.0000E+00  0.0000E+00  0.1200E+03  0.1200E+03
    -26.622  0.0000E+00  0.0000E+00  0.1200E+03  0.1200E+03
    -26.384  0.0000E+00  0.0000E+00  0.1200E+03  0.1200E+03
    -26.145  0.0000E+00  0.0000E+00  0.1200E+03  0.1200E+03
    -25.907  0.0000E+00  0.0000E+00  0.1200E+03  0.1200E+03
    -25.669  0.0000E+00  0.0000E+00  0.1200E+03  0.1200E+03
    -25.431  0.0000E+00  0.0000E+00  0.1200E+03  0.1200E+03
    -25.192  0.0000E+00  0.0000E+00  0.1200E+03  0.1200E+03
    -24.954  0.0000E+00  0.0000E+00  0.1200E+03  0.1200E+03
    -24.716  0.0000E+00  0.0000E+00  0.1200E+03  0.1200E+03
    -24.478  0.0000E+00  0.0000E+00  0.1200E+03  0.1200E+03
    -24.240  0.0000E+00  0.0000E+00  0.1200E+03  0.1200E+03
    -24.001  0.0000E+00  0.0000E+00  0.1200E+03  0.1200E+03
    -23.763  0.0000E+00  0.0000E+00  0.1200E+03  0.1200E+03
    -23.525  0.0000E+00  0.0000E+00  0.1200E+03  0.1200E+03
    -23.287  0.0000E+00  0.0000E+00  0.1200E+03  0.1200E+03
    -23.049  0.0000E+00  0.0000E+00  0.1200E+03  0.1200E+03
    -22.810  0.0000E+00  0.0000E+00  0.1200E+03  0.1200E+03
    -22.572  0.0000E+00  0.0000E+00  0.1200E+03  0.1200E+03
    -22.334  0.0000E+00  0.0000E+00  0.1200E+03  0.1200E+03
    -22.096  0.0000E+00  0.0000E+00  0.1200E+03  0.1200E+03
    -21.857  0.0000E+00  0.0000E+00  0.1200E+03  0.1200E+03
    -21.619  0.0000E+00  0.0000E+00  0.1200E+03  0.1200E+03
    -21.381  0.0000E+00  0.0000E+00  0.1200E+03  0.1200E+03
    -21.143  0.0000E+00  0.0000E+00  0.1200E+03  0.1200E+03
    -20.905  0.0000E+00  0.0000E+00  0.1200E+03  0.1200E+03
    -20.666  0.0000E+00  0.0000E+00  0.1200E+03  0.1200E+03
    -20.428  0.0000E+00  0.0000E+00  0.1200E+03  0.1200E+03
    -20.190  0.0000E+00  0.0000E+00  0.1200E+03  0.1200E+03
    -19.952  0.0000E+00  0.0000E+00  0.1200E+03  0.1200E+03
    -19.713  0.0000E+00  0.0000E+00  0.1200E+03  0.1200E+03
    -19.475  0.0000E+00  0.0000E+00  0.1200E+03  0.1200E+03
    -19.237  0.0000E+00  0.0000E+00  0.1200E+03  0.1200E+03
    -18.999  0.0000E+00  0.0000E+00  0.1200E+03  0.1200E+03
    -18.761  0.0000E+00  0.0000E+00  0.1200E+03  0.1200E+03
    -18.522  0.0000E+00  0.0000E+00  0.1200E+03  0.1200E+03
    -18.284  0.0000E+00  0.0000E+00  0.1200E+03  0.1200E+03
    -18.046  0.0000E+00  0.0000E+00  0.1200E+03  0.1200E+03
    -17.808  0.0000E+00  0.0000E+00  0.1200E+03  0.1200E+03
    -17.570  0.0000E+00  0.0000E+00  0.1200E+03  0.1200E+03
    -17.331  0.0000E+00  0.0000E+00  0.1200E+03  0.1200E+03
    -17.093  0.0000E+00  0.0000E+00  0.1200E+03  0.1200E+03
    -16.855  0.0000E+00  0.0000E+00  0.1200E+03  0.1200E+03
    -16.617  0.0000E+00  0.0000E+00  0.1200E+03  0.1200E+03
    -16.378  0.0000E+00  0.0000E+00  0.1200E+03  0.1200E+03
    -16.140  0.0000E+00  0.0000E+00  0.1200E+03  0.1200E+03
    -15.902  0.0000E+00  0.0000E+00  0.1200E+03  0.1200E+03
    -15.664  0.0000E+00  0.0000E+00  0.1200E+03  0.1200E+03
    -15.426  0.0000E+00  0.0000E+00  0.1200E+03  0.1200E+03
    -15.187  0.0000E+00  0.0000E+00  0.1200E+03  0.1200E+03
    -14.949  0.0000E+00  0.0000E+00  0.1200E+03  0.1200E+03
    -14.711  0.0000E+00  0.0000E+00  0.1200E+03  0.1200E+03
    -14.473  0.0000E+00  0.0000E+00  0.1200E+03  0.1200E+03
    -14.235  0.0000E+00  0.0000E+00  0.1200E+03  0.1200E+03
    -13.996  0.0000E+00  0.0000E+00  0.1200E+03  0.1200E+03
    -13.758  0.1637E-08  0.0000E+00  0.1200E+03  0.1200E+03
    -13.520  0.9179E+01  0.3021E-15  0.1222E+03  0.1200E+03
    -13.282  0.6000E+02  0.3535E+00  0.1365E+03  0.1201E+03
    -13.043  0.3157E+02  0.6760E+02  0.1440E+03  0.1362E+03
    -12.805  0.2309E-03  0.3280E+02  0.1440E+03  0.1440E+03
    -12.567  0.0000E+00  0.2649E-04  0.1440E+03  0.1440E+03
    -12.329  0.0000E+00  0.0000E+00  0.1440E+03  0.1440E+03
    -12.091  0.0000E+00  0.0000E+00  0.1440E+03  0.1440E+03
    -11.852  0.0000E+00  0.0000E+00  0.1440E+03  0.1440E+03
    -11.614  0.0000E+00  0.0000E+00  0.1440E+03  0.1440E+03
    -11.376  0.0000E+00  0.0000E+00  0.1440E+03  0.1440E+03
    -11.138  0.0000E+00  0.0000E+00  0.1440E+03  0.1440E+03
    -10.899  0.0000E+00  0.0000E+00  0.1440E+03  0.1440E+03
    -10.661  0.0000E+00  0.0000E+00  0.1440E+03  0.1440E+03
    -10.423  0.0000E+00  0.0000E+00  0.1440E+03  0.1440E+03
    -10.185  0.0000E+00  0.0000E+00  0.1440E+03  0.1440E+03
     -9.947  0.0000E+00  0.0000E+00  0.1440E+03  0.1440E+03
     -9.708  0.0000E+00  0.0000E+00  0.1440E+03  0.1440E+03
     -9.470  0.0000E+00  0.0000E+00  0.1440E+03  0.1440E+03
     -9.232  0.0000E+00  0.0000E+00  0.1440E+03  0.1440E+03
     -8.994  0.0000E+00  0.0000E+00  0.1440E+03  0.1440E+03
     -8.756  0.0000E+00  0.0000E+00  0.1440E+03  0.1440E+03
     -8.517  0.0000E+00  0.0000E+00  0.1440E+03  0.1440E+03
     -8.279  0.0000E+00  0.0000E+00  0.1440E+03  0.1440E+03
     -8.041  0.0000E+00  0.0000E+00  0.1440E+03  0.1440E+03
     -7.803  0.1315E-01  0.3366E-15  0.1440E+03  0.1440E+03
     -7.564  0.1862E+02  0.1442E+00  0.1484E+03  0.1440E+03
     -7.326  0.4826E+02  0.2920E+02  0.1599E+03  0.1510E+03
     -7.088  0.3304E+02  0.4935E+02  0.1678E+03  0.1627E+03
     -6.850  0.8196E+00  0.2142E+02  0.1680E+03  0.1679E+03
     -6.612  0.0000E+00  0.6272E+00  0.1680E+03  0.1680E+03
     -6.373  0.0000E+00  0.0000E+00  0.1680E+03  0.1680E+03
     -6.135  0.0000E+00  0.0000E+00  0.1680E+03  0.1680E+03
     -5.897  0.0000E+00  0.0000E+00  0.1680E+03  0.1680E+03
     -5.659  0.0000E+00  0.0000E+00  0.1680E+03  0.1680E+03
     -5.421  0.0000E+00  0.0000E+00  0.1680E+03  0.1680E+03
     -5.182  0.0000E+00  0.0000E+00  0.1680E+03  0.1680E+03
     -4.944  0.0000E+00  0.0000E+00  0.1680E+03  0.1680E+03
     -4.706  0.0000E+00  0.0000E+00  0.1680E+03  0.1680E+03
     -4.468  0.0000E+00  0.0000E+00  0.1680E+03  0.1680E+03
     -4.229  0.0000E+00  0.0000E+00  0.1680E+03  0.1680E+03
     -3.991  0.0000E+00  0.0000E+00  0.1680E+03  0.1680E+03
     -3.753  0.0000E+00  0.0000E+00  0.1680E+03  0.1680E+03
     -3.515  0.0000E+00  0.0000E+00  0.1680E+03  0.1680E+03
     -3.277  0.0000E+00  0.0000E+00  0.1680E+03  0.1680E+03
     -3.038  0.0000E+00  0.0000E+00  0.1680E+03  0.1680E+03
     -2.800  0.0000E+00  0.0000E+00  0.1680E+03  0.1680E+03
     -2.562  0.0000E+00  0.0000E+00  0.1680E+03  0.1680E+03
     -2.324  0.0000E+00  0.0000E+00  0.1680E+03  0.1680E+03
     -2.085  0.2924E-05  0.0000E+00  0.1680E+03  0.1680E+03
     -1.847  0.8275E+01  0.0000E+00  0.1700E+03  0.1680E+03
     -1.609  0.5850E+02  0.0000E+00  0.1839E+03  0.1680E+03
     -1.371  0.4114E+02  0.0000E+00  0.1937E+03  0.1680E+03
     -1.133  0.3262E+02  0.0000E+00  0.2015E+03  0.1680E+03
     -0.894  0.5411E+02  0.3186E-08  0.2144E+03  0.1680E+03
     -0.656  0.5327E+02  0.1859E+01  0.2271E+03  0.1684E+03
     -0.418  0.6707E+02  0.1739E+02  0.2430E+03  0.1726E+03
     -0.180  0.5414E+02  0.3880E+02  0.2559E+03  0.1818E+03
      0.058  0.3450E+02  0.3497E+02  0.2641E+03  0.1902E+03
      0.297  0.5518E+02  0.2300E+02  0.2773E+03  0.1956E+03
      0.535  0.4759E+02  0.4867E+02  0.2886E+03  0.2072E+03
      0.773  0.3245E+02  0.4862E+02  0.2964E+03  0.2188E+03
      1.011  0.4991E+02  0.6846E+02  0.3083E+03  0.2351E+03
      1.250  0.4915E+02  0.2585E+02  0.3200E+03  0.2413E+03
      1.488  0.5429E+02  0.2307E+02  0.3329E+03  0.2468E+03
      1.726  0.6190E+02  0.3821E+02  0.3476E+03  0.2559E+03
      1.964  0.3394E+02  0.4597E+02  0.3557E+03  0.2668E+03
      2.202  0.2418E+02  0.2942E+02  0.3615E+03  0.2738E+03
      2.441  0.1372E+02  0.3576E+02  0.3648E+03  0.2824E+03
      2.679  0.3760E+02  0.2540E+02  0.3737E+03  0.2884E+03
      2.917  0.3868E+02  0.4570E+02  0.3829E+03  0.2993E+03
      3.155  0.3039E+02  0.4175E+02  0.3902E+03  0.3092E+03
      3.393  0.4386E+02  0.1441E+02  0.4006E+03  0.3127E+03
      3.632  0.5351E+02  0.3084E+02  0.4134E+03  0.3200E+03
      3.870  0.4719E+02  0.5693E+02  0.4246E+03  0.3336E+03
      4.108  0.2909E+02  0.1017E+02  0.4315E+03  0.3360E+03
      4.346  0.1981E+01  0.6749E-05  0.4320E+03  0.3360E+03
      4.585  0.0000E+00  0.0000E+00  0.4320E+03  0.3360E+03
      4.823  0.0000E+00  0.0000E+00  0.4320E+03  0.3360E+03
      5.061  0.0000E+00  0.0000E+00  0.4320E+03  0.3360E+03
      5.299  0.0000E+00  0.0000E+00  0.4320E+03  0.3360E+03
      5.537  0.0000E+00  0.0000E+00  0.4320E+03  0.3360E+03
      5.776  0.0000E+00  0.0000E+00  0.4320E+03  0.3360E+03
      6.014  0.0000E+00  0.4299E-02  0.4320E+03  0.3360E+03
      6.252  0.0000E+00  0.1923E+01  0.4320E+03  0.3365E+03
      6.490  0.0000E+00  0.1359E+02  0.4320E+03  0.3397E+03
      6.728  0.0000E+00  0.2695E+02  0.4320E+03  0.3461E+03
      6.967  0.0000E+00  0.2518E+02  0.4320E+03  0.3521E+03
      7.205  0.1021E-04  0.5781E+02  0.4320E+03  0.3659E+03
      7.443  0.1552E+00  0.7552E+02  0.4320E+03  0.3839E+03
      7.681  0.7423E+00  0.2937E+02  0.4322E+03  0.3909E+03
      7.920  0.1507E+01  0.4126E+02  0.4326E+03  0.4007E+03
      8.158  0.4822E+01  0.7806E+02  0.4337E+03  0.4193E+03
      8.396  0.7112E+01  0.5001E+02  0.4354E+03  0.4312E+03
      8.634  0.1573E+02  0.3730E+01  0.4392E+03  0.4321E+03
      8.872  0.2394E+02  0.1152E+01  0.4449E+03  0.4324E+03
      9.111  0.1976E+02  0.4495E+01  0.4496E+03  0.4334E+03
      9.349  0.1940E+02  0.1074E+02  0.4542E+03  0.4360E+03
      9.587  0.1986E+02  0.2101E+02  0.4589E+03  0.4410E+03
      9.825  0.2443E+02  0.2881E+02  0.4647E+03  0.4479E+03
     10.064  0.2203E+02  0.3014E+02  0.4700E+03  0.4551E+03
     10.302  0.1790E+02  0.3006E+02  0.4743E+03  0.4622E+03
     10.540  0.2470E+02  0.2579E+02  0.4801E+03  0.4684E+03
     10.778  0.1500E+02  0.2590E+02  0.4837E+03  0.4745E+03
     11.016  0.2743E+02  0.2430E+02  0.4902E+03  0.4803E+03
     11.255  0.4550E+02  0.1030E+02  0.5011E+03  0.4828E+03
     11.493  0.4864E+02  0.2582E+02  0.5127E+03  0.4889E+03
     11.731  0.3524E+02  0.3042E+02  0.5211E+03  0.4962E+03
     11.969  0.2028E+02  0.5659E+02  0.5259E+03  0.5096E+03
     12.207  0.2080E+02  0.4442E+02  0.5309E+03  0.5202E+03
     12.446  0.3006E+02  0.2679E+02  0.5380E+03  0.5266E+03
     12.684  0.3248E+02  0.2373E+02  0.5457E+03  0.5323E+03
     12.922  0.1858E+02  0.2757E+02  0.5502E+03  0.5388E+03
     13.160  0.7568E+01  0.3304E+02  0.5520E+03  0.5467E+03
     13.399  0.8759E-01  0.1822E+02  0.5520E+03  0.5510E+03
     13.637  0.0000E+00  0.4048E+01  0.5520E+03  0.5520E+03
     13.875  0.0000E+00  0.4117E-05  0.5520E+03  0.5520E+03
     14.113  0.0000E+00  0.0000E+00  0.5520E+03  0.5520E+03
     14.351  0.0000E+00  0.0000E+00  0.5520E+03  0.5520E+03
     14.590  0.0000E+00  0.0000E+00  0.5520E+03  0.5520E+03
     14.828  0.0000E+00  0.0000E+00  0.5520E+03  0.5520E+03
     15.066  0.0000E+00  0.0000E+00  0.5520E+03  0.5520E+03
     15.304  0.0000E+00  0.0000E+00  0.5520E+03  0.5520E+03
     15.542  0.0000E+00  0.0000E+00  0.5520E+03  0.5520E+03
     15.781  0.0000E+00  0.0000E+00  0.5520E+03  0.5520E+03
     16.019  0.0000E+00  0.0000E+00  0.5520E+03  0.5520E+03
     16.257  0.0000E+00  0.0000E+00  0.5520E+03  0.5520E+03
     16.495  0.0000E+00  0.0000E+00  0.5520E+03  0.5520E+03
     16.734  0.0000E+00  0.0000E+00  0.5520E+03  0.5520E+03
