 144 144   0   0
  0.1325381E+02  0.1546422E-08  0.1214491E-08  0.1054520E-08  0.5000000E-15
  1.000000000000000E-004
  CAR 
 unknown system                          
     17.01304565    -54.87050674  301      5.09235654      1.00000000
    -54.871  0.0000E+00  0.0000E+00  0.0000E+00  0.0000E+00
    -54.631  0.0000E+00  0.0000E+00  0.0000E+00  0.0000E+00
    -54.391  0.0000E+00  0.0000E+00  0.0000E+00  0.0000E+00
    -54.152  0.0000E+00  0.0000E+00  0.0000E+00  0.0000E+00
    -53.912  0.0000E+00  0.0000E+00  0.0000E+00  0.0000E+00
    -53.672  0.0000E+00  0.0000E+00  0.0000E+00  0.0000E+00
    -53.433  0.0000E+00  0.0000E+00  0.0000E+00  0.0000E+00
    -53.193  0.0000E+00  0.0000E+00  0.0000E+00  0.0000E+00
    -52.954  0.0000E+00  0.0000E+00  0.0000E+00  0.0000E+00
    -52.714  0.0000E+00  0.0000E+00  0.0000E+00  0.0000E+00
    -52.474  0.0000E+00  0.0000E+00  0.0000E+00  0.0000E+00
    -52.235  0.0000E+00  0.0000E+00  0.0000E+00  0.0000E+00
    -51.995  0.0000E+00  0.0000E+00  0.0000E+00  0.0000E+00
    -51.756  0.3701E-03  0.0000E+00  0.8868E-04  0.0000E+00
    -51.516  0.4986E+02  0.0000E+00  0.1195E+02  0.0000E+00
    -51.276  0.8684E+02  0.0000E+00  0.3276E+02  0.0000E+00
    -51.037  0.1354E+02  0.0000E+00  0.3600E+02  0.0000E+00
    -50.797  0.0000E+00  0.0000E+00  0.3600E+02  0.0000E+00
    -50.557  0.0000E+00  0.0000E+00  0.3600E+02  0.0000E+00
    -50.318  0.1344E-03  0.0000E+00  0.3600E+02  0.0000E+00
    -50.078  0.6740E+02  0.0000E+00  0.5215E+02  0.0000E+00
    -49.839  0.2090E+03  0.0000E+00  0.1022E+03  0.0000E+00
    -49.599  0.2407E+02  0.0000E+00  0.1080E+03  0.0000E+00
    -49.359  0.0000E+00  0.0000E+00  0.1080E+03  0.0000E+00
    -49.120  0.0000E+00  0.0000E+00  0.1080E+03  0.0000E+00
    -48.880  0.0000E+00  0.0000E+00  0.1080E+03  0.0000E+00
    -48.641  0.0000E+00  0.0000E+00  0.1080E+03  0.0000E+00
    -48.401  0.0000E+00  0.0000E+00  0.1080E+03  0.0000E+00
    -48.161  0.0000E+00  0.0000E+00  0.1080E+03  0.0000E+00
    -47.922  0.0000E+00  0.0000E+00  0.1080E+03  0.0000E+00
    -47.682  0.0000E+00  0.0000E+00  0.1080E+03  0.0000E+00
    -47.443  0.0000E+00  0.0000E+00  0.1080E+03  0.0000E+00
    -47.203  0.0000E+00  0.0000E+00  0.1080E+03  0.0000E+00
    -46.963  0.0000E+00  0.6914E-01  0.1080E+03  0.1657E-01
    -46.724  0.0000E+00  0.5103E+02  0.1080E+03  0.1224E+02
    -46.484  0.0000E+00  0.9566E+02  0.1080E+03  0.3517E+02
    -46.244  0.0000E+00  0.1473E+03  0.1080E+03  0.7046E+02
    -46.005  0.0000E+00  0.1567E+03  0.1080E+03  0.1080E+03
    -45.765  0.0000E+00  0.3924E-02  0.1080E+03  0.1080E+03
    -45.526  0.0000E+00  0.0000E+00  0.1080E+03  0.1080E+03
    -45.286  0.0000E+00  0.0000E+00  0.1080E+03  0.1080E+03
    -45.046  0.0000E+00  0.0000E+00  0.1080E+03  0.1080E+03
    -44.807  0.0000E+00  0.0000E+00  0.1080E+03  0.1080E+03
    -44.567  0.0000E+00  0.0000E+00  0.1080E+03  0.1080E+03
    -44.328  0.0000E+00  0.0000E+00  0.1080E+03  0.1080E+03
    -44.088  0.0000E+00  0.0000E+00  0.1080E+03  0.1080E+03
    -43.848  0.0000E+00  0.0000E+00  0.1080E+03  0.1080E+03
    -43.609  0.0000E+00  0.0000E+00  0.1080E+03  0.1080E+03
    -43.369  0.0000E+00  0.0000E+00  0.1080E+03  0.1080E+03
    -43.130  0.0000E+00  0.0000E+00  0.1080E+03  0.1080E+03
    -42.890  0.0000E+00  0.0000E+00  0.1080E+03  0.1080E+03
    -42.650  0.0000E+00  0.0000E+00  0.1080E+03  0.1080E+03
    -42.411  0.0000E+00  0.0000E+00  0.1080E+03  0.1080E+03
    -42.171  0.0000E+00  0.0000E+00  0.1080E+03  0.1080E+03
    -41.931  0.0000E+00  0.0000E+00  0.1080E+03  0.1080E+03
    -41.692  0.0000E+00  0.0000E+00  0.1080E+03  0.1080E+03
    -41.452  0.0000E+00  0.0000E+00  0.1080E+03  0.1080E+03
    -41.213  0.0000E+00  0.0000E+00  0.1080E+03  0.1080E+03
    -40.973  0.0000E+00  0.0000E+00  0.1080E+03  0.1080E+03
    -40.733  0.1643E-08  0.5394E-09  0.1080E+03  0.1080E+03
    -40.494  0.2950E+02  0.2626E+02  0.1151E+03  0.1143E+03
    -40.254  0.4736E+02  0.5100E+02  0.1264E+03  0.1265E+03
    -40.015  0.1001E+03  0.1000E+03  0.1504E+03  0.1505E+03
    -39.775  0.2333E+02  0.2302E+02  0.1560E+03  0.1560E+03
    -39.535  0.0000E+00  0.0000E+00  0.1560E+03  0.1560E+03
    -39.296  0.0000E+00  0.0000E+00  0.1560E+03  0.1560E+03
    -39.056  0.0000E+00  0.0000E+00  0.1560E+03  0.1560E+03
    -38.817  0.0000E+00  0.0000E+00  0.1560E+03  0.1560E+03
    -38.577  0.0000E+00  0.0000E+00  0.1560E+03  0.1560E+03
    -38.337  0.0000E+00  0.0000E+00  0.1560E+03  0.1560E+03
    -38.098  0.0000E+00  0.0000E+00  0.1560E+03  0.1560E+03
    -37.858  0.0000E+00  0.0000E+00  0.1560E+03  0.1560E+03
    -37.618  0.0000E+00  0.0000E+00  0.1560E+03  0.1560E+03
    -37.379  0.0000E+00  0.0000E+00  0.1560E+03  0.1560E+03
    -37.139  0.0000E+00  0.0000E+00  0.1560E+03  0.1560E+03
    -36.900  0.0000E+00  0.0000E+00  0.1560E+03  0.1560E+03
    -36.660  0.0000E+00  0.0000E+00  0.1560E+03  0.1560E+03
    -36.420  0.0000E+00  0.0000E+00  0.1560E+03  0.1560E+03
    -36.181  0.0000E+00  0.0000E+00  0.1560E+03  0.1560E+03
    -35.941  0.0000E+00  0.0000E+00  0.1560E+03  0.1560E+03
    -35.702  0.0000E+00  0.0000E+00  0.1560E+03  0.1560E+03
    -35.462  0.0000E+00  0.0000E+00  0.1560E+03  0.1560E+03
    -35.222  0.0000E+00  0.0000E+00  0.1560E+03  0.1560E+03
    -34.983  0.0000E+00  0.0000E+00  0.1560E+03  0.1560E+03
    -34.743  0.0000E+00  0.0000E+00  0.1560E+03  0.1560E+03
    -34.504  0.0000E+00  0.0000E+00  0.1560E+03  0.1560E+03
    -34.264  0.0000E+00  0.0000E+00  0.1560E+03  0.1560E+03
    -34.024  0.0000E+00  0.0000E+00  0.1560E+03  0.1560E+03
    -33.785  0.0000E+00  0.0000E+00  0.1560E+03  0.1560E+03
    -33.545  0.0000E+00  0.0000E+00  0.1560E+03  0.1560E+03
    -33.305  0.0000E+00  0.0000E+00  0.1560E+03  0.1560E+03
    -33.066  0.0000E+00  0.0000E+00  0.1560E+03  0.1560E+03
    -32.826  0.0000E+00  0.0000E+00  0.1560E+03  0.1560E+03
    -32.587  0.0000E+00  0.0000E+00  0.1560E+03  0.1560E+03
    -32.347  0.0000E+00  0.0000E+00  0.1560E+03  0.1560E+03
    -32.107  0.0000E+00  0.0000E+00  0.1560E+03  0.1560E+03
    -31.868  0.0000E+00  0.0000E+00  0.1560E+03  0.1560E+03
    -31.628  0.0000E+00  0.0000E+00  0.1560E+03  0.1560E+03
    -31.389  0.0000E+00  0.0000E+00  0.1560E+03  0.1560E+03
    -31.149  0.0000E+00  0.0000E+00  0.1560E+03  0.1560E+03
    -30.909  0.0000E+00  0.0000E+00  0.1560E+03  0.1560E+03
    -30.670  0.0000E+00  0.0000E+00  0.1560E+03  0.1560E+03
    -30.430  0.0000E+00  0.0000E+00  0.1560E+03  0.1560E+03
    -30.190  0.0000E+00  0.0000E+00  0.1560E+03  0.1560E+03
    -29.951  0.0000E+00  0.0000E+00  0.1560E+03  0.1560E+03
    -29.711  0.0000E+00  0.0000E+00  0.1560E+03  0.1560E+03
    -29.472  0.0000E+00  0.0000E+00  0.1560E+03  0.1560E+03
    -29.232  0.0000E+00  0.0000E+00  0.1560E+03  0.1560E+03
    -28.992  0.0000E+00  0.0000E+00  0.1560E+03  0.1560E+03
    -28.753  0.0000E+00  0.0000E+00  0.1560E+03  0.1560E+03
    -28.513  0.0000E+00  0.0000E+00  0.1560E+03  0.1560E+03
    -28.274  0.0000E+00  0.0000E+00  0.1560E+03  0.1560E+03
    -28.034  0.0000E+00  0.0000E+00  0.1560E+03  0.1560E+03
    -27.794  0.0000E+00  0.0000E+00  0.1560E+03  0.1560E+03
    -27.555  0.0000E+00  0.0000E+00  0.1560E+03  0.1560E+03
    -27.315  0.0000E+00  0.0000E+00  0.1560E+03  0.1560E+03
    -27.076  0.0000E+00  0.0000E+00  0.1560E+03  0.1560E+03
    -26.836  0.0000E+00  0.0000E+00  0.1560E+03  0.1560E+03
    -26.596  0.0000E+00  0.0000E+00  0.1560E+03  0.1560E+03
    -26.357  0.0000E+00  0.0000E+00  0.1560E+03  0.1560E+03
    -26.117  0.0000E+00  0.0000E+00  0.1560E+03  0.1560E+03
    -25.877  0.0000E+00  0.0000E+00  0.1560E+03  0.1560E+03
    -25.638  0.0000E+00  0.0000E+00  0.1560E+03  0.1560E+03
    -25.398  0.0000E+00  0.0000E+00  0.1560E+03  0.1560E+03
    -25.159  0.0000E+00  0.0000E+00  0.1560E+03  0.1560E+03
    -24.919  0.0000E+00  0.0000E+00  0.1560E+03  0.1560E+03
    -24.679  0.0000E+00  0.0000E+00  0.1560E+03  0.1560E+03
    -24.440  0.0000E+00  0.0000E+00  0.1560E+03  0.1560E+03
    -24.200  0.0000E+00  0.0000E+00  0.1560E+03  0.1560E+03
    -23.961  0.0000E+00  0.0000E+00  0.1560E+03  0.1560E+03
    -23.721  0.0000E+00  0.0000E+00  0.1560E+03  0.1560E+03
    -23.481  0.0000E+00  0.0000E+00  0.1560E+03  0.1560E+03
    -23.242  0.0000E+00  0.0000E+00  0.1560E+03  0.1560E+03
    -23.002  0.0000E+00  0.0000E+00  0.1560E+03  0.1560E+03
    -22.763  0.0000E+00  0.0000E+00  0.1560E+03  0.1560E+03
    -22.523  0.0000E+00  0.0000E+00  0.1560E+03  0.1560E+03
    -22.283  0.0000E+00  0.0000E+00  0.1560E+03  0.1560E+03
    -22.044  0.0000E+00  0.0000E+00  0.1560E+03  0.1560E+03
    -21.804  0.0000E+00  0.0000E+00  0.1560E+03  0.1560E+03
    -21.564  0.0000E+00  0.0000E+00  0.1560E+03  0.1560E+03
    -21.325  0.0000E+00  0.0000E+00  0.1560E+03  0.1560E+03
    -21.085  0.0000E+00  0.0000E+00  0.1560E+03  0.1560E+03
    -20.846  0.0000E+00  0.0000E+00  0.1560E+03  0.1560E+03
    -20.606  0.0000E+00  0.0000E+00  0.1560E+03  0.1560E+03
    -20.366  0.0000E+00  0.0000E+00  0.1560E+03  0.1560E+03
    -20.127  0.0000E+00  0.0000E+00  0.1560E+03  0.1560E+03
    -19.887  0.0000E+00  0.0000E+00  0.1560E+03  0.1560E+03
    -19.648  0.0000E+00  0.0000E+00  0.1560E+03  0.1560E+03
    -19.408  0.0000E+00  0.0000E+00  0.1560E+03  0.1560E+03
    -19.168  0.0000E+00  0.0000E+00  0.1560E+03  0.1560E+03
    -18.929  0.0000E+00  0.0000E+00  0.1560E+03  0.1560E+03
    -18.689  0.0000E+00  0.0000E+00  0.1560E+03  0.1560E+03
    -18.450  0.0000E+00  0.0000E+00  0.1560E+03  0.1560E+03
    -18.210  0.0000E+00  0.0000E+00  0.1560E+03  0.1560E+03
    -17.970  0.0000E+00  0.0000E+00  0.1560E+03  0.1560E+03
    -17.731  0.0000E+00  0.0000E+00  0.1560E+03  0.1560E+03
    -17.491  0.0000E+00  0.0000E+00  0.1560E+03  0.1560E+03
    -17.251  0.0000E+00  0.0000E+00  0.1560E+03  0.1560E+03
    -17.012  0.0000E+00  0.0000E+00  0.1560E+03  0.1560E+03
    -16.772  0.0000E+00  0.0000E+00  0.1560E+03  0.1560E+03
    -16.533  0.0000E+00  0.0000E+00  0.1560E+03  0.1560E+03
    -16.293  0.0000E+00  0.0000E+00  0.1560E+03  0.1560E+03
    -16.053  0.0000E+00  0.0000E+00  0.1560E+03  0.1560E+03
    -15.814  0.0000E+00  0.0000E+00  0.1560E+03  0.1560E+03
    -15.574  0.0000E+00  0.0000E+00  0.1560E+03  0.1560E+03
    -15.335  0.0000E+00  0.0000E+00  0.1560E+03  0.1560E+03
    -15.095  0.0000E+00  0.0000E+00  0.1560E+03  0.1560E+03
    -14.855  0.0000E+00  0.0000E+00  0.1560E+03  0.1560E+03
    -14.616  0.0000E+00  0.0000E+00  0.1560E+03  0.1560E+03
    -14.376  0.0000E+00  0.0000E+00  0.1560E+03  0.1560E+03
    -14.136  0.0000E+00  0.0000E+00  0.1560E+03  0.1560E+03
    -13.897  0.1710E-02  0.0000E+00  0.1560E+03  0.1560E+03
    -13.657  0.2258E+02  0.1121E-12  0.1614E+03  0.1560E+03
    -13.418  0.2735E+02  0.2060E+01  0.1680E+03  0.1565E+03
    -13.178  0.9421E+01  0.4460E+02  0.1702E+03  0.1672E+03
    -12.938  0.3142E+02  0.4267E+01  0.1778E+03  0.1682E+03
    -12.699  0.9389E+01  0.4252E+02  0.1800E+03  0.1784E+03
    -12.459  0.0000E+00  0.6721E+01  0.1800E+03  0.1800E+03
    -12.220  0.0000E+00  0.0000E+00  0.1800E+03  0.1800E+03
    -11.980  0.0000E+00  0.0000E+00  0.1800E+03  0.1800E+03
    -11.740  0.0000E+00  0.0000E+00  0.1800E+03  0.1800E+03
    -11.501  0.0000E+00  0.0000E+00  0.1800E+03  0.1800E+03
    -11.261  0.0000E+00  0.0000E+00  0.1800E+03  0.1800E+03
    -11.022  0.0000E+00  0.0000E+00  0.1800E+03  0.1800E+03
    -10.782  0.0000E+00  0.0000E+00  0.1800E+03  0.1800E+03
    -10.542  0.0000E+00  0.0000E+00  0.1800E+03  0.1800E+03
    -10.303  0.0000E+00  0.0000E+00  0.1800E+03  0.1800E+03
    -10.063  0.0000E+00  0.0000E+00  0.1800E+03  0.1800E+03
     -9.823  0.0000E+00  0.0000E+00  0.1800E+03  0.1800E+03
     -9.584  0.0000E+00  0.0000E+00  0.1800E+03  0.1800E+03
     -9.344  0.0000E+00  0.0000E+00  0.1800E+03  0.1800E+03
     -9.105  0.0000E+00  0.0000E+00  0.1800E+03  0.1800E+03
     -8.865  0.0000E+00  0.0000E+00  0.1800E+03  0.1800E+03
     -8.625  0.0000E+00  0.0000E+00  0.1800E+03  0.1800E+03
     -8.386  0.0000E+00  0.0000E+00  0.1800E+03  0.1800E+03
     -8.146  0.0000E+00  0.0000E+00  0.1800E+03  0.1800E+03
     -7.907  0.2841E-02  0.0000E+00  0.1800E+03  0.1800E+03
     -7.667  0.9603E+01  0.2053E-01  0.1823E+03  0.1800E+03
     -7.427  0.2330E+02  0.1218E+02  0.1879E+03  0.1829E+03
     -7.188  0.5625E+02  0.2896E+02  0.2014E+03  0.1899E+03
     -6.948  0.5739E+02  0.6018E+02  0.2151E+03  0.2043E+03
     -6.709  0.3697E+01  0.4580E+02  0.2160E+03  0.2153E+03
     -6.469  0.0000E+00  0.3095E+01  0.2160E+03  0.2160E+03
     -6.229  0.0000E+00  0.0000E+00  0.2160E+03  0.2160E+03
     -5.990  0.0000E+00  0.0000E+00  0.2160E+03  0.2160E+03
     -5.750  0.0000E+00  0.0000E+00  0.2160E+03  0.2160E+03
     -5.510  0.0000E+00  0.0000E+00  0.2160E+03  0.2160E+03
     -5.271  0.0000E+00  0.0000E+00  0.2160E+03  0.2160E+03
     -5.031  0.0000E+00  0.0000E+00  0.2160E+03  0.2160E+03
     -4.792  0.0000E+00  0.0000E+00  0.2160E+03  0.2160E+03
     -4.552  0.0000E+00  0.0000E+00  0.2160E+03  0.2160E+03
     -4.312  0.0000E+00  0.0000E+00  0.2160E+03  0.2160E+03
     -4.073  0.0000E+00  0.0000E+00  0.2160E+03  0.2160E+03
     -3.833  0.0000E+00  0.0000E+00  0.2160E+03  0.2160E+03
     -3.594  0.0000E+00  0.0000E+00  0.2160E+03  0.2160E+03
     -3.354  0.0000E+00  0.0000E+00  0.2160E+03  0.2160E+03
     -3.114  0.0000E+00  0.0000E+00  0.2160E+03  0.2160E+03
     -2.875  0.3655E-13  0.0000E+00  0.2160E+03  0.2160E+03
     -2.635  0.1005E+01  0.0000E+00  0.2162E+03  0.2160E+03
     -2.396  0.1013E+02  0.0000E+00  0.2187E+03  0.2160E+03
     -2.156  0.2073E+02  0.0000E+00  0.2236E+03  0.2160E+03
     -1.916  0.1631E+01  0.0000E+00  0.2240E+03  0.2160E+03
     -1.677  0.3491E+02  0.0000E+00  0.2324E+03  0.2160E+03
     -1.437  0.1986E+02  0.9782E-15  0.2371E+03  0.2160E+03
     -1.197  0.4405E+02  0.1044E+00  0.2477E+03  0.2160E+03
     -0.958  0.4997E+02  0.4443E+01  0.2597E+03  0.2171E+03
     -0.718  0.7528E+02  0.1423E+02  0.2777E+03  0.2205E+03
     -0.479  0.1037E+03  0.1540E+02  0.3026E+03  0.2242E+03
     -0.239  0.8549E+02  0.1986E+02  0.3230E+03  0.2289E+03
      0.001  0.1105E+03  0.4118E+02  0.3495E+03  0.2388E+03
      0.240  0.6905E+02  0.3394E+02  0.3661E+03  0.2469E+03
      0.480  0.3795E+02  0.4234E+02  0.3752E+03  0.2571E+03
      0.719  0.4573E+02  0.3354E+02  0.3861E+03  0.2651E+03
      0.959  0.4868E+02  0.5344E+02  0.3978E+03  0.2779E+03
      1.199  0.5577E+02  0.6011E+02  0.4111E+03  0.2923E+03
      1.438  0.6476E+02  0.4443E+02  0.4267E+03  0.3030E+03
      1.678  0.1008E+03  0.3984E+02  0.4508E+03  0.3125E+03
      1.917  0.5157E+02  0.3855E+02  0.4632E+03  0.3218E+03
      2.157  0.3912E+02  0.3730E+02  0.4725E+03  0.3307E+03
      2.397  0.4648E+02  0.3835E+02  0.4837E+03  0.3399E+03
      2.636  0.4785E+02  0.4987E+02  0.4951E+03  0.3518E+03
      2.876  0.4339E+02  0.6267E+02  0.5055E+03  0.3669E+03
      3.116  0.4009E+02  0.5880E+02  0.5151E+03  0.3810E+03
      3.355  0.4785E+02  0.4755E+02  0.5266E+03  0.3923E+03
      3.595  0.5236E+02  0.3034E+02  0.5392E+03  0.3996E+03
      3.834  0.4515E+02  0.6198E+02  0.5500E+03  0.4145E+03
      4.074  0.3209E+02  0.7191E+02  0.5577E+03  0.4317E+03
      4.314  0.4226E+02  0.1258E+01  0.5678E+03  0.4320E+03
      4.553  0.2340E+02  0.0000E+00  0.5734E+03  0.4320E+03
      4.793  0.1004E+02  0.0000E+00  0.5758E+03  0.4320E+03
      5.032  0.7991E+00  0.0000E+00  0.5760E+03  0.4320E+03
      5.272  0.0000E+00  0.0000E+00  0.5760E+03  0.4320E+03
      5.512  0.0000E+00  0.0000E+00  0.5760E+03  0.4320E+03
      5.751  0.0000E+00  0.0000E+00  0.5760E+03  0.4320E+03
      5.991  0.0000E+00  0.1044E-10  0.5760E+03  0.4320E+03
      6.231  0.0000E+00  0.1580E+00  0.5760E+03  0.4320E+03
      6.470  0.0000E+00  0.8344E+01  0.5760E+03  0.4340E+03
      6.710  0.0000E+00  0.3053E+02  0.5760E+03  0.4414E+03
      6.949  0.1599E-11  0.4381E+02  0.5760E+03  0.4518E+03
      7.189  0.1175E+00  0.7372E+02  0.5760E+03  0.4695E+03
      7.429  0.1228E+00  0.8061E+02  0.5761E+03  0.4888E+03
      7.668  0.9342E+00  0.6544E+02  0.5763E+03  0.5045E+03
      7.908  0.3539E+01  0.8787E+02  0.5771E+03  0.5256E+03
      8.147  0.4261E+01  0.7097E+02  0.5782E+03  0.5426E+03
      8.387  0.7124E+01  0.5414E+02  0.5799E+03  0.5555E+03
      8.627  0.1654E+02  0.3730E+02  0.5838E+03  0.5645E+03
      8.866  0.2518E+02  0.3882E+02  0.5899E+03  0.5738E+03
      9.106  0.1922E+02  0.1912E+02  0.5945E+03  0.5784E+03
      9.345  0.2560E+02  0.1411E+02  0.6006E+03  0.5817E+03
      9.585  0.3138E+02  0.2059E+02  0.6081E+03  0.5867E+03
      9.825  0.2650E+02  0.3011E+02  0.6145E+03  0.5939E+03
     10.064  0.2954E+02  0.2656E+02  0.6215E+03  0.6003E+03
     10.304  0.2276E+02  0.3503E+02  0.6270E+03  0.6087E+03
     10.544  0.2039E+02  0.3512E+02  0.6319E+03  0.6171E+03
     10.783  0.2877E+02  0.2803E+02  0.6388E+03  0.6238E+03
     11.023  0.3891E+02  0.2222E+02  0.6481E+03  0.6291E+03
     11.262  0.3947E+02  0.2178E+02  0.6576E+03  0.6343E+03
     11.502  0.3718E+02  0.3235E+02  0.6665E+03  0.6421E+03
     11.742  0.4504E+02  0.3869E+02  0.6773E+03  0.6513E+03
     11.981  0.3838E+02  0.4276E+02  0.6865E+03  0.6616E+03
     12.221  0.3859E+02  0.5211E+02  0.6957E+03  0.6741E+03
     12.460  0.3999E+02  0.4660E+02  0.7053E+03  0.6852E+03
     12.700  0.3639E+02  0.3595E+02  0.7140E+03  0.6939E+03
     12.940  0.3425E+02  0.4135E+02  0.7222E+03  0.7038E+03
     13.179  0.2237E+02  0.3949E+02  0.7276E+03  0.7132E+03
     13.419  0.1802E+01  0.3431E+02  0.7280E+03  0.7215E+03
     13.658  0.0000E+00  0.2351E+02  0.7280E+03  0.7271E+03
     13.898  0.0000E+00  0.3816E+01  0.7280E+03  0.7280E+03
     14.138  0.0000E+00  0.3738E-05  0.7280E+03  0.7280E+03
     14.377  0.0000E+00  0.0000E+00  0.7280E+03  0.7280E+03
     14.617  0.0000E+00  0.0000E+00  0.7280E+03  0.7280E+03
     14.857  0.0000E+00  0.0000E+00  0.7280E+03  0.7280E+03
     15.096  0.0000E+00  0.0000E+00  0.7280E+03  0.7280E+03
     15.336  0.0000E+00  0.0000E+00  0.7280E+03  0.7280E+03
     15.575  0.0000E+00  0.0000E+00  0.7280E+03  0.7280E+03
     15.815  0.0000E+00  0.0000E+00  0.7280E+03  0.7280E+03
     16.055  0.0000E+00  0.0000E+00  0.7280E+03  0.7280E+03
     16.294  0.0000E+00  0.0000E+00  0.7280E+03  0.7280E+03
     16.534  0.0000E+00  0.0000E+00  0.7280E+03  0.7280E+03
     16.773  0.0000E+00  0.0000E+00  0.7280E+03  0.7280E+03
     17.013  0.0000E+00  0.0000E+00  0.7280E+03  0.7280E+03
