<?xml version="1.0" encoding="ISO-8859-1"?>
<modeling>
 <generator>
  <i name="program" type="string">vasp </i>
  <i name="version" type="string">5.4.4.18Apr17-6-g9f103f2a35  </i>
  <i name="subversion" type="string">(build Oct 25 2017 14:42:18) complex            parallel </i>
  <i name="platform" type="string">LinuxIFC </i>
  <i name="date" type="string">2021 04 18 </i>
  <i name="time" type="string">01:19:12 </i>
 </generator>
 <incar>
  <i type="string" name="PREC">accurate</i>
  <i type="string" name="ALGO"> normal</i>
  <i type="logical" name="ADDGRID"> T  </i>
  <i type="int" name="ISPIN">     2</i>
  <i type="int" name="ICHARG">     1</i>
  <i type="int" name="NELM">   200</i>
  <i type="int" name="NELMIN">     8</i>
  <i name="EDIFF">      0.00000100</i>
  <i type="int" name="ISYM">     0</i>
  <i name="ENCUT">    650.00000000</i>
  <v name="MAGMOM">      0.60000000      0.60000000      0.60000000      0.60000000      0.60000000      0.60000000      0.60000000      0.60000000      0.60000000      0.60000000      0.60000000      0.60000000      0.60000000      0.60000000      0.60000000      0.60000000      0.60000000      0.60000000      0.60000000      0.60000000
      0.60000000      0.60000000      0.60000000      0.60000000      0.60000000      0.60000000      0.60000000      0.60000000      0.60000000      0.60000000      0.60000000      0.60000000      0.60000000      0.60000000      0.60000000      0.60000000      0.60000000      0.60000000      0.60000000      0.60000000
      0.60000000      0.60000000      0.60000000      0.60000000      0.60000000      0.60000000      0.60000000      0.60000000      5.00000000      5.00000000      5.00000000      5.00000000      5.00000000      5.00000000      5.00000000      5.00000000      5.00000000      5.00000000      5.00000000      5.00000000
      5.00000000      5.00000000      5.00000000      5.00000000      5.00000000      5.00000000      5.00000000      5.00000000      5.00000000      5.00000000      5.00000000      5.00000000      5.00000000      5.00000000      5.00000000      5.00000000      5.00000000      5.00000000      5.00000000      5.00000000
      5.00000000      5.00000000      5.00000000      5.00000000      0.60000000      0.60000000      0.60000000      0.60000000      0.60000000      0.60000000      0.60000000      0.60000000      0.60000000      0.60000000      0.60000000      0.60000000      0.60000000      0.60000000      0.60000000      0.60000000
      0.60000000      0.60000000      0.60000000      0.60000000      0.60000000      0.60000000      0.60000000      0.60000000      0.60000000      0.60000000      0.60000000      0.60000000      0.60000000      0.60000000      0.60000000      0.60000000      0.60000000      0.60000000      0.60000000      0.60000000
      0.60000000      0.60000000      0.60000000      0.60000000      0.60000000      0.60000000      0.60000000      0.60000000      0.60000000      0.60000000      0.60000000      0.60000000      0.60000000      0.60000000      0.60000000      0.60000000      0.60000000      0.60000000      0.60000000      0.60000000
      0.60000000      0.60000000      0.60000000      0.60000000</v>
  <i type="logical" name="LREAL"> F  </i>
  <i type="int" name="ISMEAR">     0</i>
  <i name="SIGMA">      0.05000000</i>
  <i type="int" name="NWRITE">     1</i>
  <i type="int" name="LMAXMIX">     4</i>
  <i type="logical" name="LWAVE"> F  </i>
  <i type="logical" name="LASPH"> T  </i>
  <v type="int" name="KPOINT_BSE">    -1     0     0     0</v>
  <i type="int" name="NELM">   200</i>
  <i type="string" name="GGA"> pe</i>
  <i type="logical" name="LDAU"> T  </i>
  <v type="int" name="LDAUTYPE">     2</v>
  <v type="int" name="LDAUL">    -1     2    -1    -1</v>
  <v name="LDAUU">      0.00000000      4.00000000      0.00000000      0.00000000</v>
  <v name="LDAUJ">      0.00000000      0.00000000      0.00000000      0.00000000</v>
  <i type="logical" name="LASPH"> T  </i>
 </incar>
 <structure name="primitive_cell" >
  <crystal>
   <varray name="basis" >
    <v>      15.21162830       0.00516956      -2.78361592 </v>
    <v>      -0.40798665      11.93565774      -2.20735884 </v>
    <v>      -0.06175567      -0.11168197      10.54442638 </v>
   </varray>
   <i name="volume">   1908.54869108 </i>
   <varray name="rec_basis" >
    <v>       0.06581343       0.00232549       0.00041008 </v>
    <v>       0.00013433       0.08395174       0.00088997 </v>
    <v>       0.01740216       0.01818827       0.09513139 </v>
   </varray>
  </crystal>
  <varray name="positions" >
   <v>       0.47527516       0.00074367       0.00446200 </v>
   <v>      -0.47527003       0.03239991       0.19439947 </v>
   <v>       0.47618324      -0.03189981      -0.19139884 </v>
   <v>       0.37500000       0.16666667       0.00000000 </v>
   <v>       0.37500000      -0.16666667       0.00000000 </v>
   <v>       0.40535584       0.03794021       0.22764128 </v>
   <v>      -0.35733875       0.02567762       0.15406572 </v>
   <v>       0.47796480       0.13582521      -0.18504874 </v>
   <v>       0.47796480      -0.19750812      -0.18504874 </v>
   <v>       0.34464416      -0.03794021      -0.22764128 </v>
   <v>      -0.39266125      -0.02567762      -0.15406572 </v>
   <v>      -0.47447416       0.19979622       0.19877732 </v>
   <v>      -0.47447416      -0.13353711       0.19877732 </v>
   <v>      -0.37500000       0.16666667       0.00000000 </v>
   <v>      -0.37500000      -0.16666667       0.00000000 </v>
   <v>       0.27472484      -0.00074367      -0.00446200 </v>
   <v>       0.27381676       0.03189981       0.19139884 </v>
   <v>      -0.42788806       0.06536154       0.39216926 </v>
   <v>       0.22527003      -0.03239991      -0.19439947 </v>
   <v>       0.47527516      -0.33258966       0.00446200 </v>
   <v>       0.47527516       0.33407700       0.00446200 </v>
   <v>       0.46517249      -0.06641917      -0.39851502 </v>
   <v>       0.27203520       0.19750812       0.18504874 </v>
   <v>       0.27203520      -0.13582521       0.18504874 </v>
   <v>      -0.47527003       0.36573324       0.19439947 </v>
   <v>      -0.47527003      -0.30093342       0.19439947 </v>
   <v>       0.41542107       0.22793643       0.36761855 </v>
   <v>       0.41542107      -0.10539691       0.36761855 </v>
   <v>       0.22447416       0.13353711      -0.19877732 </v>
   <v>       0.22447416      -0.19979622      -0.19877732 </v>
   <v>       0.33457893       0.10539691      -0.36761855 </v>
   <v>       0.33457893      -0.22793643      -0.36761855 </v>
   <v>       0.47618324       0.30143353      -0.19139884 </v>
   <v>       0.47618324      -0.36523314      -0.19139884 </v>
   <v>      -0.22527516      -0.00074367      -0.00446200 </v>
   <v>      -0.22618324       0.03189981       0.19139884 </v>
   <v>      -0.27472997      -0.03239991      -0.19439947 </v>
   <v>      -0.32385262       0.22809805       0.36858830 </v>
   <v>      -0.32385262      -0.10523528       0.36858830 </v>
   <v>      -0.42614738       0.10523528      -0.36858830 </v>
   <v>      -0.42614738      -0.22809805      -0.36858830 </v>
   <v>       0.40535584       0.37127355       0.22764128 </v>
   <v>       0.40535584      -0.29539312       0.22764128 </v>
   <v>      -0.35733875       0.35901095       0.15406572 </v>
   <v>      -0.35733875      -0.30765571       0.15406572 </v>
   <v>       0.34464416       0.29539312      -0.22764128 </v>
   <v>       0.34464416      -0.37127355      -0.22764128 </v>
   <v>      -0.39266125       0.30765571      -0.15406572 </v>
   <v>      -0.39266125      -0.35901095      -0.15406572 </v>
   <v>      -0.22796480       0.19750812       0.18504874 </v>
   <v>      -0.22796480      -0.13582521       0.18504874 </v>
   <v>       0.27472484       0.33258966      -0.00446200 </v>
   <v>       0.27472484      -0.33407700      -0.00446200 </v>
   <v>      -0.27552584       0.13353711      -0.19877732 </v>
   <v>      -0.27552584      -0.19979622      -0.19877732 </v>
   <v>       0.28482751       0.06641917       0.39851502 </v>
   <v>       0.17788806      -0.06536154      -0.39216926 </v>
   <v>       0.10733875      -0.02567762      -0.15406572 </v>
   <v>      -0.32211194      -0.06536154      -0.39216926 </v>
   <v>       0.14266125       0.02567762       0.15406572 </v>
   <v>       0.27381676       0.36523314       0.19139884 </v>
   <v>       0.27381676      -0.30143353       0.19139884 </v>
   <v>      -0.21517249       0.06641917       0.39851502 </v>
   <v>      -0.42788806       0.39869487       0.39216926 </v>
   <v>      -0.42788806      -0.26797179       0.39216926 </v>
   <v>       0.22527003       0.30093342      -0.19439947 </v>
   <v>       0.22527003      -0.36573324      -0.19439947 </v>
   <v>       0.12500000       0.16666667       0.00000000 </v>
   <v>       0.12500000      -0.16666667       0.00000000 </v>
   <v>       0.46517249       0.26691416      -0.39851502 </v>
   <v>       0.46517249      -0.39975250      -0.39851502 </v>
   <v>      -0.22527516       0.33258966      -0.00446200 </v>
   <v>      -0.22527516      -0.33407700      -0.00446200 </v>
   <v>      -0.22618324       0.36523314       0.19139884 </v>
   <v>      -0.22618324      -0.30143353       0.19139884 </v>
   <v>      -0.27472997       0.30093342      -0.19439947 </v>
   <v>      -0.27472997      -0.36573324      -0.19439947 </v>
   <v>       0.37500000      -0.50000000       0.00000000 </v>
   <v>       0.47796480       0.46915854      -0.18504874 </v>
   <v>      -0.47447416      -0.46687045       0.19877732 </v>
   <v>      -0.37500000      -0.50000000       0.00000000 </v>
   <v>      -0.12500000       0.16666667       0.00000000 </v>
   <v>      -0.12500000      -0.16666667       0.00000000 </v>
   <v>      -0.15535584      -0.03794021      -0.22764128 </v>
   <v>      -0.09464416       0.03794021       0.22764128 </v>
   <v>       0.28482751      -0.26691416       0.39851502 </v>
   <v>      -0.32211194       0.26797179      -0.39216926 </v>
   <v>       0.28482751       0.39975250       0.39851502 </v>
   <v>       0.17614738      -0.10523528       0.36858830 </v>
   <v>       0.17614738       0.22809805       0.36953660 </v>
   <v>       0.17788806       0.26797179      -0.39216926 </v>
   <v>       0.17788806      -0.39869487      -0.39216926 </v>
   <v>       0.10733875       0.30765571      -0.15406572 </v>
   <v>       0.10733875      -0.35901095      -0.15406572 </v>
   <v>      -0.32211194      -0.39869487      -0.39216926 </v>
   <v>       0.14266125       0.35901095       0.15406572 </v>
   <v>       0.14266125      -0.30765571       0.15406572 </v>
   <v>       0.07385262       0.10523528      -0.36858830 </v>
   <v>       0.07385262      -0.22809805      -0.36858830 </v>
   <v>      -0.21517249       0.39975250       0.39851502 </v>
   <v>      -0.21517249      -0.26691416       0.39851502 </v>
   <v>       0.27203520      -0.46915854       0.18504874 </v>
   <v>       0.41542107      -0.43873024       0.36761855 </v>
   <v>       0.22447416       0.46687045      -0.19877732 </v>
   <v>       0.33457893       0.43873024      -0.36761855 </v>
   <v>      -0.08457893       0.22793643       0.36761855 </v>
   <v>      -0.08457893      -0.10539691       0.36761855 </v>
   <v>      -0.32385262      -0.43856862       0.36858830 </v>
   <v>      -0.42614738       0.43856862      -0.36858830 </v>
   <v>       0.02472997       0.03239991       0.19439947 </v>
   <v>      -0.02381676      -0.03189981      -0.19139884 </v>
   <v>      -0.16542107       0.10539691      -0.36761855 </v>
   <v>      -0.16542107      -0.22793643      -0.36761855 </v>
   <v>      -0.22796480      -0.46915854       0.18504874 </v>
   <v>      -0.27552584       0.46687045      -0.19877732 </v>
   <v>      -0.02472484       0.00074367       0.00446200 </v>
   <v>      -0.15535584       0.29539312      -0.22764128 </v>
   <v>      -0.15535584      -0.37127355      -0.22764128 </v>
   <v>      -0.09464416       0.37127355       0.22764128 </v>
   <v>      -0.09464416      -0.29539312       0.22764128 </v>
   <v>      -0.02203520       0.13582521      -0.18504874 </v>
   <v>      -0.02203520      -0.19750812      -0.18504874 </v>
   <v>       0.02552584       0.19979622       0.19877732 </v>
   <v>       0.02552584      -0.13353711       0.19877732 </v>
   <v>       0.07211194       0.06536154       0.39216926 </v>
   <v>       0.12500000      -0.50000000       0.00000000 </v>
   <v>      -0.03482751      -0.06641917      -0.39851502 </v>
   <v>       0.07211194      -0.26797179       0.39216926 </v>
   <v>       0.17614738      -0.43856862       0.36858830 </v>
   <v>       0.02472997       0.36573324       0.19439947 </v>
   <v>       0.02472997      -0.30093342       0.19439947 </v>
   <v>      -0.02381676       0.30143353      -0.19139884 </v>
   <v>      -0.02381676      -0.36523314      -0.19139884 </v>
   <v>      -0.12500000      -0.50000000       0.00000000 </v>
   <v>      -0.16542107       0.43873024      -0.36761855 </v>
   <v>      -0.02472484      -0.33258966       0.00446200 </v>
   <v>      -0.02472484       0.33407700       0.00446200 </v>
   <v>       0.07211194       0.39869487       0.39216926 </v>
   <v>       0.07385262       0.43856862      -0.36858830 </v>
   <v>      -0.03482751       0.26691416      -0.39851502 </v>
   <v>      -0.03482751      -0.39975250      -0.39851502 </v>
   <v>      -0.08457893      -0.43873024       0.36761855 </v>
   <v>      -0.02203520       0.46915854      -0.18504874 </v>
   <v>       0.02552584      -0.46687045       0.19877732 </v>
  </varray>
 </structure>
 <varray name="primitive_index" >
  <v type="int" >        1 </v>
  <v type="int" >      134 </v>
  <v type="int" >      131 </v>
  <v type="int" >       91 </v>
  <v type="int" >       95 </v>
  <v type="int" >       43 </v>
  <v type="int" >       38 </v>
  <v type="int" >       67 </v>
  <v type="int" >       71 </v>
  <v type="int" >       35 </v>
  <v type="int" >       30 </v>
  <v type="int" >       74 </v>
  <v type="int" >       78 </v>
  <v type="int" >       86 </v>
  <v type="int" >       90 </v>
  <v type="int" >       11 </v>
  <v type="int" >      139 </v>
  <v type="int" >       20 </v>
  <v type="int" >      125 </v>
  <v type="int" >        5 </v>
  <v type="int" >        3 </v>
  <v type="int" >       53 </v>
  <v type="int" >       79 </v>
  <v type="int" >       83 </v>
  <v type="int" >      136 </v>
  <v type="int" >      138 </v>
  <v type="int" >      103 </v>
  <v type="int" >      107 </v>
  <v type="int" >       61 </v>
  <v type="int" >       65 </v>
  <v type="int" >      115 </v>
  <v type="int" >      119 </v>
  <v type="int" >      127 </v>
  <v type="int" >      129 </v>
  <v type="int" >       12 </v>
  <v type="int" >      140 </v>
  <v type="int" >      126 </v>
  <v type="int" >       98 </v>
  <v type="int" >      102 </v>
  <v type="int" >      110 </v>
  <v type="int" >      114 </v>
  <v type="int" >       45 </v>
  <v type="int" >       47 </v>
  <v type="int" >       40 </v>
  <v type="int" >       42 </v>
  <v type="int" >       31 </v>
  <v type="int" >       33 </v>
  <v type="int" >       26 </v>
  <v type="int" >       28 </v>
  <v type="int" >       80 </v>
  <v type="int" >       84 </v>
  <v type="int" >        7 </v>
  <v type="int" >        9 </v>
  <v type="int" >       62 </v>
  <v type="int" >       66 </v>
  <v type="int" >       55 </v>
  <v type="int" >       17 </v>
  <v type="int" >       29 </v>
  <v type="int" >       18 </v>
  <v type="int" >       37 </v>
  <v type="int" >      141 </v>
  <v type="int" >      143 </v>
  <v type="int" >       56 </v>
  <v type="int" >       22 </v>
  <v type="int" >       24 </v>
  <v type="int" >      121 </v>
  <v type="int" >      123 </v>
  <v type="int" >       85 </v>
  <v type="int" >       89 </v>
  <v type="int" >       49 </v>
  <v type="int" >       51 </v>
  <v type="int" >        8 </v>
  <v type="int" >       10 </v>
  <v type="int" >      142 </v>
  <v type="int" >      144 </v>
  <v type="int" >      122 </v>
  <v type="int" >      124 </v>
  <v type="int" >       93 </v>
  <v type="int" >       69 </v>
  <v type="int" >       76 </v>
  <v type="int" >       88 </v>
  <v type="int" >       92 </v>
  <v type="int" >       96 </v>
  <v type="int" >       36 </v>
  <v type="int" >       44 </v>
  <v type="int" >       59 </v>
  <v type="int" >       14 </v>
  <v type="int" >       57 </v>
  <v type="int" >      101 </v>
  <v type="int" >       97 </v>
  <v type="int" >       13 </v>
  <v type="int" >       15 </v>
  <v type="int" >       25 </v>
  <v type="int" >       27 </v>
  <v type="int" >       16 </v>
  <v type="int" >       39 </v>
  <v type="int" >       41 </v>
  <v type="int" >      109 </v>
  <v type="int" >      113 </v>
  <v type="int" >       58 </v>
  <v type="int" >       60 </v>
  <v type="int" >       81 </v>
  <v type="int" >      105 </v>
  <v type="int" >       63 </v>
  <v type="int" >      117 </v>
  <v type="int" >      104 </v>
  <v type="int" >      108 </v>
  <v type="int" >      100 </v>
  <v type="int" >      112 </v>
  <v type="int" >      133 </v>
  <v type="int" >      132 </v>
  <v type="int" >      116 </v>
  <v type="int" >      120 </v>
  <v type="int" >       82 </v>
  <v type="int" >       64 </v>
  <v type="int" >        2 </v>
  <v type="int" >       32 </v>
  <v type="int" >       34 </v>
  <v type="int" >       46 </v>
  <v type="int" >       48 </v>
  <v type="int" >       68 </v>
  <v type="int" >       72 </v>
  <v type="int" >       73 </v>
  <v type="int" >       77 </v>
  <v type="int" >       19 </v>
  <v type="int" >       87 </v>
  <v type="int" >       54 </v>
  <v type="int" >       23 </v>
  <v type="int" >       99 </v>
  <v type="int" >      135 </v>
  <v type="int" >      137 </v>
  <v type="int" >      128 </v>
  <v type="int" >      130 </v>
  <v type="int" >       94 </v>
  <v type="int" >      118 </v>
  <v type="int" >        6 </v>
  <v type="int" >        4 </v>
  <v type="int" >       21 </v>
  <v type="int" >      111 </v>
  <v type="int" >       50 </v>
  <v type="int" >       52 </v>
  <v type="int" >      106 </v>
  <v type="int" >       70 </v>
  <v type="int" >       75 </v>
 </varray>
 <kpoints>
  <generation param="Gamma">
   <v type="int" name="divisions">       2        3        3 </v>
   <v name="usershift">      0.00000000       0.00000000       0.00000000 </v>
   <v name="genvec1">      0.50000000       0.00000000      -0.00000000 </v>
   <v name="genvec2">      0.00000000       0.33333333       0.00000000 </v>
   <v name="genvec3">      0.00000000       0.00000000       0.33333333 </v>
   <v name="shift">      0.00000000       0.00000000       0.00000000 </v>
  </generation>
  <varray name="kpointlist" >
   <v>       0.00000000       0.00000000       0.00000000 </v>
   <v>       0.50000000      -0.00000000       0.00000000 </v>
   <v>      -0.00000000       0.33333333      -0.00000000 </v>
   <v>       0.50000000       0.33333333      -0.00000000 </v>
   <v>      -0.00000000       0.00000000       0.33333333 </v>
   <v>       0.50000000       0.00000000       0.33333333 </v>
   <v>      -0.00000000       0.33333333       0.33333333 </v>
   <v>       0.50000000       0.33333333       0.33333333 </v>
   <v>      -0.00000000      -0.33333333       0.33333333 </v>
   <v>       0.50000000      -0.33333333       0.33333333 </v>
  </varray>
  <varray name="weights" >
   <v>       0.05555556 </v>
   <v>       0.05555556 </v>
   <v>       0.11111111 </v>
   <v>       0.11111111 </v>
   <v>       0.11111111 </v>
   <v>       0.11111111 </v>
   <v>       0.11111111 </v>
   <v>       0.11111111 </v>
   <v>       0.11111111 </v>
   <v>       0.11111111 </v>
  </varray>
 </kpoints>
 <parameters>
  <separator name="general" >
   <i type="string" name="SYSTEM">unknown system</i>
   <i type="logical" name="LCOMPAT"> F  </i>
  </separator>
  <separator name="electronic" >
   <i type="string" name="PREC">accura</i>
   <i name="ENMAX">    650.00000000</i>
   <i name="ENAUG">    628.94500000</i>
   <i name="EDIFF">      0.00000100</i>
   <i type="int" name="IALGO">    38</i>
   <i type="int" name="IWAVPR">    10</i>
   <i type="int" name="NBANDS">   728</i>
   <i name="NELECT">   1008.00000000</i>
   <i type="int" name="TURBO">     0</i>
   <i type="int" name="IRESTART">     0</i>
   <i type="int" name="NREBOOT">     0</i>
   <i type="int" name="NMIN">     0</i>
   <i name="EREF">      0.00000000</i>
   <separator name="electronic smearing" >
    <i type="int" name="ISMEAR">     0</i>
    <i name="SIGMA">      0.05000000</i>
    <i name="KSPACING">      0.50000000</i>
    <i type="logical" name="KGAMMA"> T  </i>
   </separator>
   <separator name="electronic projectors" >
    <i type="logical" name="LREAL"> F  </i>
    <v name="ROPT">      0.00000000      0.00000000      0.00000000      0.00000000</v>
    <i type="int" name="LMAXPAW">  -100</i>
    <i type="int" name="LMAXMIX">     4</i>
    <i type="logical" name="NLSPLINE"> F  </i>
   </separator>
   <separator name="electronic startup" >
    <i type="int" name="ISTART">     0</i>
    <i type="int" name="ICHARG">     1</i>
    <i type="int" name="INIWAV">     1</i>
   </separator>
   <separator name="electronic spin" >
    <i type="int" name="ISPIN">     2</i>
    <i type="logical" name="LNONCOLLINEAR"> F  </i>
    <v name="MAGMOM">      0.60000000      0.60000000      0.60000000      0.60000000      0.60000000      0.60000000      0.60000000      0.60000000      0.60000000      0.60000000      0.60000000      0.60000000      0.60000000      0.60000000      0.60000000      0.60000000      0.60000000      0.60000000      0.60000000      0.60000000
      0.60000000      0.60000000      0.60000000      0.60000000      0.60000000      0.60000000      0.60000000      0.60000000      0.60000000      0.60000000      0.60000000      0.60000000      0.60000000      0.60000000      0.60000000      0.60000000      0.60000000      0.60000000      0.60000000      0.60000000
      0.60000000      0.60000000      0.60000000      0.60000000      0.60000000      0.60000000      0.60000000      0.60000000      5.00000000      5.00000000      5.00000000      5.00000000      5.00000000      5.00000000      5.00000000      5.00000000      5.00000000      5.00000000      5.00000000      5.00000000
      5.00000000      5.00000000      5.00000000      5.00000000      5.00000000      5.00000000      5.00000000      5.00000000      5.00000000      5.00000000      5.00000000      5.00000000      5.00000000      5.00000000      5.00000000      5.00000000      5.00000000      5.00000000      5.00000000      5.00000000
      5.00000000      5.00000000      5.00000000      5.00000000      0.60000000      0.60000000      0.60000000      0.60000000      0.60000000      0.60000000      0.60000000      0.60000000      0.60000000      0.60000000      0.60000000      0.60000000      0.60000000      0.60000000      0.60000000      0.60000000
      0.60000000      0.60000000      0.60000000      0.60000000      0.60000000      0.60000000      0.60000000      0.60000000      0.60000000      0.60000000      0.60000000      0.60000000      0.60000000      0.60000000      0.60000000      0.60000000      0.60000000      0.60000000      0.60000000      0.60000000
      0.60000000      0.60000000      0.60000000      0.60000000      0.60000000      0.60000000      0.60000000      0.60000000      0.60000000      0.60000000      0.60000000      0.60000000      0.60000000      0.60000000      0.60000000      0.60000000      0.60000000      0.60000000      0.60000000      0.60000000
      0.60000000      0.60000000      0.60000000      0.60000000</v>
    <i name="NUPDOWN">     -1.00000000</i>
    <i type="logical" name="LSORBIT"> F  </i>
    <v name="SAXIS">      0.00000000      0.00000000      1.00000000</v>
    <i type="logical" name="LSPIRAL"> F  </i>
    <v name="QSPIRAL">      0.00000000      0.00000000      0.00000000</v>
    <i type="logical" name="LZEROZ"> F  </i>
   </separator>
   <separator name="electronic exchange-correlation" >
    <i type="logical" name="LASPH"> T  </i>
    <i type="logical" name="LMETAGGA"> F  </i>
   </separator>
   <separator name="electronic convergence" >
    <i type="int" name="NELM">   200</i>
    <i type="int" name="NELMDL">     0</i>
    <i type="int" name="NELMIN">     8</i>
    <i name="ENINI">    650.00000000</i>
    <separator name="electronic convergence detail" >
     <i type="logical" name="LDIAG"> T  </i>
     <i type="logical" name="LSUBROT"> F  </i>
     <i name="WEIMIN">      0.00000000</i>
     <i name="EBREAK">      0.00000000</i>
     <i name="DEPER">      0.30000000</i>
     <i type="int" name="NRMM">     4</i>
     <i name="TIME">      0.40000000</i>
    </separator>
   </separator>
   <separator name="electronic mixer" >
    <i name="AMIX">      0.40000000</i>
    <i name="BMIX">      1.00000000</i>
    <i name="AMIN">      0.10000000</i>
    <i name="AMIX_MAG">      1.60000000</i>
    <i name="BMIX_MAG">      1.00000000</i>
    <separator name="electronic mixer details" >
     <i type="int" name="IMIX">     4</i>
     <i type="logical" name="MIXFIRST"> F  </i>
     <i type="int" name="MAXMIX">   -45</i>
     <i name="WC">    100.00000000</i>
     <i type="int" name="INIMIX">     1</i>
     <i type="int" name="MIXPRE">     1</i>
     <i type="int" name="MREMOVE">     5</i>
    </separator>
   </separator>
   <separator name="electronic dipolcorrection" >
    <i type="logical" name="LDIPOL"> F  </i>
    <i type="logical" name="LMONO"> F  </i>
    <i type="int" name="IDIPOL">     0</i>
    <i name="EPSILON">      1.00000000</i>
    <v name="DIPOL">   -100.00000000   -100.00000000   -100.00000000</v>
    <i name="EFIELD">      0.00000000</i>
   </separator>
  </separator>
  <separator name="grids" >
   <i type="int" name="NGX">   140</i>
   <i type="int" name="NGY">   108</i>
   <i type="int" name="NGZ">    90</i>
   <i type="int" name="NGXF">   280</i>
   <i type="int" name="NGYF">   216</i>
   <i type="int" name="NGZF">   180</i>
   <i type="logical" name="ADDGRID"> T  </i>
  </separator>
  <separator name="ionic" >
   <i type="int" name="NSW">     0</i>
   <i type="int" name="IBRION">    -1</i>
   <i type="int" name="MDALGO">     0</i>
   <i type="int" name="ISIF">     2</i>
   <i name="PSTRESS">      0.00000000</i>
   <i name="EDIFFG">      0.00001000</i>
   <i type="int" name="NFREE">     0</i>
   <i name="POTIM">      0.50000000</i>
   <i name="SMASS">     -3.00000000</i>
   <i name="SCALEE">      1.00000000</i>
  </separator>
  <separator name="ionic md" >
   <i name="TEBEG">      0.00010000</i>
   <i name="TEEND">      0.00010000</i>
   <i type="int" name="NBLOCK">     1</i>
   <i type="int" name="KBLOCK">     1</i>
   <i type="int" name="NPACO">   256</i>
   <i name="APACO">     16.00000000</i>
  </separator>
  <separator name="symmetry" >
   <i type="int" name="ISYM">     0</i>
   <i name="SYMPREC">      0.00001000</i>
  </separator>
  <separator name="dos" >
   <i type="int" name="LORBIT">     0</i>
   <v name="RWIGS">     -1.00000000     -1.00000000     -1.00000000     -1.00000000</v>
   <i type="int" name="NEDOS">   301</i>
   <i name="EMIN">     10.00000000</i>
   <i name="EMAX">    -10.00000000</i>
   <i name="EFERMI">      0.00000000</i>
  </separator>
  <separator name="writing" >
   <i type="int" name="NWRITE">     1</i>
   <i type="logical" name="LWAVE"> F  </i>
   <i type="logical" name="LDOWNSAMPLE"> F  </i>
   <i type="logical" name="LCHARG"> T  </i>
   <i type="logical" name="LPARD"> F  </i>
   <i type="logical" name="LVTOT"> F  </i>
   <i type="logical" name="LVHAR"> F  </i>
   <i type="logical" name="LELF"> F  </i>
   <i type="logical" name="LOPTICS"> F  </i>
   <v name="STM">      0.00000000      0.00000000      0.00000000      0.00000000      0.00000000      0.00000000      0.00000000</v>
  </separator>
  <separator name="performance" >
   <i type="int" name="NPAR">     4</i>
   <i type="int" name="NSIM">     4</i>
   <i type="int" name="NBLK">    -1</i>
   <i type="logical" name="LPLANE"> T  </i>
   <i type="logical" name="LSCALAPACK"> T  </i>
   <i type="logical" name="LSCAAWARE"> F  </i>
   <i type="logical" name="LSCALU"> F  </i>
   <i type="logical" name="LASYNC"> F  </i>
   <i type="logical" name="LORBITALREAL"> F  </i>
  </separator>
  <separator name="miscellaneous" >
   <i type="int" name="IDIOT">     3</i>
   <i type="int" name="ISPECIAL">     0</i>
   <i type="logical" name="LMUSIC"> F  </i>
   <v name="POMASS">      7.01000000     55.84700000     32.06600000     16.00000000</v>
   <v name="DARWINR">      0.00000000      0.00000000      0.00000000      0.00000000</v>
   <v name="DARWINV">      1.00000000      1.00000000      1.00000000      1.00000000</v>
   <i type="logical" name="LCORR"> T  </i>
  </separator>
  <i type="logical" name="GGA_COMPAT"> T  </i>
  <i type="logical" name="LBERRY"> F  </i>
  <i type="int" name="ICORELEVEL">     0</i>
  <i type="logical" name="LDAU"> T  </i>
  <v type="int" name="LDAUTYPE">     2</v>
  <v type="int" name="LDAUL">    -1</v>
  <v name="LDAUU">      0.00000000</v>
  <v name="LDAUJ">      0.00000000</v>
  <i type="int" name="LDAUPRINT">     0</i>
  <i type="int" name="I_CONSTRAINED_M">     0</i>
  <separator name="electronic exchange-correlation" >
   <i type="string" name="GGA">PE</i>
   <i type="int" name="VOSKOWN">     0</i>
   <i type="logical" name="LHFCALC"> F  </i>
   <i type="string" name="PRECFOCK"></i>
   <i type="logical" name="LSYMGRAD"> F  </i>
   <i type="logical" name="LHFONE"> F  </i>
   <i type="logical" name="LRHFCALC"> F  </i>
   <i type="logical" name="LTHOMAS"> F  </i>
   <i type="logical" name="LMODELHF"> F  </i>
   <i name="ENCUT4O">     -1.00000000</i>
   <i type="int" name="EXXOEP">     0</i>
   <i type="int" name="FOURORBIT">     0</i>
   <i name="AEXX">      0.00000000</i>
   <i name="HFALPHA">      0.00000000</i>
   <i name="MCALPHA">      0.00000000</i>
   <i name="ALDAX">      1.00000000</i>
   <i name="AGGAX">      1.00000000</i>
   <i name="ALDAC">      1.00000000</i>
   <i name="AGGAC">      1.00000000</i>
   <i type="int" name="NKREDX">     1</i>
   <i type="int" name="NKREDY">     1</i>
   <i type="int" name="NKREDZ">     1</i>
   <i type="logical" name="SHIFTRED"> F  </i>
   <i type="logical" name="ODDONLY"> F  </i>
   <i type="logical" name="EVENONLY"> F  </i>
   <i type="int" name="LMAXFOCK">     0</i>
   <i type="int" name="NMAXFOCKAE">     0</i>
   <i type="logical" name="LFOCKAEDFT"> F  </i>
   <i name="HFSCREEN">      0.00000000</i>
   <i name="HFSCREENC">      0.00000000</i>
   <i type="int" name="NBANDSGWLOW">     0</i>
  </separator>
  <separator name="vdW DFT" >
   <i type="logical" name="LUSE_VDW"> F  </i>
   <i name="Zab_VDW">     -0.84910000</i>
   <i name="PARAM1">      0.12340000</i>
   <i name="PARAM2">      1.00000000</i>
   <i name="PARAM3">      0.00000000</i>
  </separator>
  <separator name="model GW" >
   <i type="int" name="MODEL_GW">     0</i>
   <i name="MODEL_EPS0">      7.95228621</i>
   <i name="MODEL_ALPHA">      1.00000000</i>
  </separator>
  <separator name="linear response parameters" >
   <i type="logical" name="LEPSILON"> F  </i>
   <i type="logical" name="LRPA"> F  </i>
   <i type="logical" name="LNABLA"> F  </i>
   <i type="logical" name="LVEL"> F  </i>
   <i type="int" name="KINTER">     0</i>
   <i name="CSHIFT">      0.10000000</i>
   <i name="OMEGAMAX">     -1.00000000</i>
   <i name="DEG_THRESHOLD">      0.00200000</i>
   <i name="RTIME">     -0.10000000</i>
   <i name="WPLASMAI">      0.00000000</i>
   <v name="DFIELD">      0.00000000      0.00000000      0.00000000</v>
   <v name="WPLASMA">      0.00000000      0.00000000      0.00000000      0.00000000      0.00000000      0.00000000      0.00000000      0.00000000      0.00000000</v>
  </separator>
  <separator name="orbital magnetization" >
   <i type="logical" name="NUCIND"> F  </i>
   <v name="MAGPOS">      0.00000000      0.00000000      0.00000000</v>
   <i type="logical" name="LNICSALL"> T  </i>
   <i type="logical" name="ORBITALMAG"> F  </i>
   <i type="logical" name="LMAGBLOCH"> F  </i>
   <i type="logical" name="LCHIMAG"> F  </i>
   <i type="logical" name="LGAUGE"> T  </i>
   <i type="int" name="MAGATOM">     0</i>
   <v name="MAGDIPOL">      0.00000000      0.00000000      0.00000000</v>
   <v name="AVECCONST">      0.00000000      0.00000000      0.00000000</v>
  </separator>
  <separator name="response functions" >
   <i type="logical" name="LADDER"> F  </i>
   <i type="logical" name="LRPAFORCE"> F  </i>
   <i type="logical" name="LFXC"> F  </i>
   <i type="logical" name="LHARTREE"> T  </i>
   <i type="int" name="IBSE">     0</i>
   <v type="int" name="KPOINT">    -1     0     0     0</v>
   <i type="logical" name="LTCTE"> F  </i>
   <i type="logical" name="LTETE"> F  </i>
   <i type="logical" name="LTRIPLET"> F  </i>
   <i type="logical" name="LFXCEPS"> F  </i>
   <i type="logical" name="LFXHEG"> F  </i>
   <i type="int" name="NATURALO">     2</i>
   <i type="logical" name="L2ORDER"> F  </i>
   <i type="logical" name="LMP2LT"> F  </i>
   <i type="logical" name="LUSEW"> F  </i>
   <i name="ENCUTGW">     -2.00000000</i>
   <i name="ENCUTGWSOFT">     -2.00000000</i>
   <i name="ENCUTLF">     -1.00000000</i>
   <i type="int" name="LMAXMP2">    -1</i>
   <i name="SCISSOR">      0.00000000</i>
   <i type="int" name="NOMEGA">     0</i>
   <i type="int" name="NOMEGAR">     0</i>
   <i type="int" name="NBANDSGW">    -1</i>
   <i type="int" name="NBANDSO">    -1</i>
   <i type="int" name="NBANDSV">    -1</i>
   <i type="int" name="NELM">   200</i>
   <i type="int" name="NELMHF">     1</i>
   <i type="int" name="DIM">     3</i>
   <i type="int" name="ANTIRES">     0</i>
   <i name="OMEGAMAX">    -30.00000000</i>
   <i name="OMEGAMIN">    -30.00000000</i>
   <i name="OMEGATL">   -200.00000000</i>
   <i type="int" name="OMEGAGRID">   140</i>
   <i name="CSHIFT">     -0.10000000</i>
   <i type="logical" name="SELFENERGY"> F  </i>
   <i type="logical" name="LSPECTRAL"> F  </i>
   <i type="logical" name="LSPECTRALGW"> F  </i>
   <i type="logical" name="LSINGLES"> F  </i>
   <i type="logical" name="LFERMIGW"> F  </i>
   <i type="logical" name="ODDONLYGW"> F  </i>
   <i type="logical" name="EVENONLYGW"> F  </i>
   <i type="int" name="NKREDLFX">     1</i>
   <i type="int" name="NKREDLFY">     1</i>
   <i type="int" name="NKREDLFZ">     1</i>
   <i type="int" name="MAXMEM">  2800</i>
   <i type="int" name="TELESCOPE">     0</i>
   <i type="int" name="TAUPAR">     1</i>
   <i type="int" name="OMEGAPAR">    -1</i>
   <i name="LAMBDA">      1.00000000</i>
  </separator>
  <separator name="External order field" >
   <i name="OFIELD_KAPPA">      0.00000000</i>
   <v name="OFIELD_K">      0.00000000      0.00000000      0.00000000</v>
   <i name="OFIELD_Q6_NEAR">      0.00000000</i>
   <i name="OFIELD_Q6_FAR">      0.00000000</i>
   <i name="OFIELD_A">      0.00000000</i>
  </separator>
 </parameters>
 <atominfo>
  <atoms>     144 </atoms>
  <types>       4 </types>
  <array name="atoms" >
   <dimension dim="1">ion</dimension>
   <field type="string">element</field>
   <field type="int">atomtype</field>
   <set>
    <rc><c>Li</c><c>   1</c></rc>
    <rc><c>Li</c><c>   1</c></rc>
    <rc><c>Li</c><c>   1</c></rc>
    <rc><c>Li</c><c>   1</c></rc>
    <rc><c>Li</c><c>   1</c></rc>
    <rc><c>Li</c><c>   1</c></rc>
    <rc><c>Li</c><c>   1</c></rc>
    <rc><c>Li</c><c>   1</c></rc>
    <rc><c>Li</c><c>   1</c></rc>
    <rc><c>Li</c><c>   1</c></rc>
    <rc><c>Li</c><c>   1</c></rc>
    <rc><c>Li</c><c>   1</c></rc>
    <rc><c>Li</c><c>   1</c></rc>
    <rc><c>Li</c><c>   1</c></rc>
    <rc><c>Li</c><c>   1</c></rc>
    <rc><c>Li</c><c>   1</c></rc>
    <rc><c>Li</c><c>   1</c></rc>
    <rc><c>Li</c><c>   1</c></rc>
    <rc><c>Li</c><c>   1</c></rc>
    <rc><c>Li</c><c>   1</c></rc>
    <rc><c>Li</c><c>   1</c></rc>
    <rc><c>Li</c><c>   1</c></rc>
    <rc><c>Li</c><c>   1</c></rc>
    <rc><c>Li</c><c>   1</c></rc>
    <rc><c>Li</c><c>   1</c></rc>
    <rc><c>Li</c><c>   1</c></rc>
    <rc><c>Li</c><c>   1</c></rc>
    <rc><c>Li</c><c>   1</c></rc>
    <rc><c>Li</c><c>   1</c></rc>
    <rc><c>Li</c><c>   1</c></rc>
    <rc><c>Li</c><c>   1</c></rc>
    <rc><c>Li</c><c>   1</c></rc>
    <rc><c>Li</c><c>   1</c></rc>
    <rc><c>Li</c><c>   1</c></rc>
    <rc><c>Li</c><c>   1</c></rc>
    <rc><c>Li</c><c>   1</c></rc>
    <rc><c>Li</c><c>   1</c></rc>
    <rc><c>Li</c><c>   1</c></rc>
    <rc><c>Li</c><c>   1</c></rc>
    <rc><c>Li</c><c>   1</c></rc>
    <rc><c>Li</c><c>   1</c></rc>
    <rc><c>Li</c><c>   1</c></rc>
    <rc><c>Li</c><c>   1</c></rc>
    <rc><c>Li</c><c>   1</c></rc>
    <rc><c>Li</c><c>   1</c></rc>
    <rc><c>Li</c><c>   1</c></rc>
    <rc><c>Li</c><c>   1</c></rc>
    <rc><c>Li</c><c>   1</c></rc>
    <rc><c>Fe</c><c>   2</c></rc>
    <rc><c>Fe</c><c>   2</c></rc>
    <rc><c>Fe</c><c>   2</c></rc>
    <rc><c>Fe</c><c>   2</c></rc>
    <rc><c>Fe</c><c>   2</c></rc>
    <rc><c>Fe</c><c>   2</c></rc>
    <rc><c>Fe</c><c>   2</c></rc>
    <rc><c>Fe</c><c>   2</c></rc>
    <rc><c>Fe</c><c>   2</c></rc>
    <rc><c>Fe</c><c>   2</c></rc>
    <rc><c>Fe</c><c>   2</c></rc>
    <rc><c>Fe</c><c>   2</c></rc>
    <rc><c>Fe</c><c>   2</c></rc>
    <rc><c>Fe</c><c>   2</c></rc>
    <rc><c>Fe</c><c>   2</c></rc>
    <rc><c>Fe</c><c>   2</c></rc>
    <rc><c>Fe</c><c>   2</c></rc>
    <rc><c>Fe</c><c>   2</c></rc>
    <rc><c>Fe</c><c>   2</c></rc>
    <rc><c>Fe</c><c>   2</c></rc>
    <rc><c>Fe</c><c>   2</c></rc>
    <rc><c>Fe</c><c>   2</c></rc>
    <rc><c>Fe</c><c>   2</c></rc>
    <rc><c>Fe</c><c>   2</c></rc>
    <rc><c>Fe</c><c>   2</c></rc>
    <rc><c>Fe</c><c>   2</c></rc>
    <rc><c>Fe</c><c>   2</c></rc>
    <rc><c>Fe</c><c>   2</c></rc>
    <rc><c>Fe</c><c>   2</c></rc>
    <rc><c>Fe</c><c>   2</c></rc>
    <rc><c>Fe</c><c>   2</c></rc>
    <rc><c>Fe</c><c>   2</c></rc>
    <rc><c>Fe</c><c>   2</c></rc>
    <rc><c>Fe</c><c>   2</c></rc>
    <rc><c>Fe</c><c>   2</c></rc>
    <rc><c>Fe</c><c>   2</c></rc>
    <rc><c>S </c><c>   3</c></rc>
    <rc><c>S </c><c>   3</c></rc>
    <rc><c>S </c><c>   3</c></rc>
    <rc><c>S </c><c>   3</c></rc>
    <rc><c>S </c><c>   3</c></rc>
    <rc><c>S </c><c>   3</c></rc>
    <rc><c>S </c><c>   3</c></rc>
    <rc><c>S </c><c>   3</c></rc>
    <rc><c>S </c><c>   3</c></rc>
    <rc><c>S </c><c>   3</c></rc>
    <rc><c>S </c><c>   3</c></rc>
    <rc><c>S </c><c>   3</c></rc>
    <rc><c>S </c><c>   3</c></rc>
    <rc><c>S </c><c>   3</c></rc>
    <rc><c>S </c><c>   3</c></rc>
    <rc><c>S </c><c>   3</c></rc>
    <rc><c>S </c><c>   3</c></rc>
    <rc><c>S </c><c>   3</c></rc>
    <rc><c>S </c><c>   3</c></rc>
    <rc><c>S </c><c>   3</c></rc>
    <rc><c>S </c><c>   3</c></rc>
    <rc><c>S </c><c>   3</c></rc>
    <rc><c>S </c><c>   3</c></rc>
    <rc><c>S </c><c>   3</c></rc>
    <rc><c>S </c><c>   3</c></rc>
    <rc><c>S </c><c>   3</c></rc>
    <rc><c>S </c><c>   3</c></rc>
    <rc><c>S </c><c>   3</c></rc>
    <rc><c>S </c><c>   3</c></rc>
    <rc><c>S </c><c>   3</c></rc>
    <rc><c>S </c><c>   3</c></rc>
    <rc><c>S </c><c>   3</c></rc>
    <rc><c>S </c><c>   3</c></rc>
    <rc><c>S </c><c>   3</c></rc>
    <rc><c>S </c><c>   3</c></rc>
    <rc><c>S </c><c>   3</c></rc>
    <rc><c>O </c><c>   4</c></rc>
    <rc><c>O </c><c>   4</c></rc>
    <rc><c>O </c><c>   4</c></rc>
    <rc><c>O </c><c>   4</c></rc>
    <rc><c>O </c><c>   4</c></rc>
    <rc><c>O </c><c>   4</c></rc>
    <rc><c>O </c><c>   4</c></rc>
    <rc><c>O </c><c>   4</c></rc>
    <rc><c>O </c><c>   4</c></rc>
    <rc><c>O </c><c>   4</c></rc>
    <rc><c>O </c><c>   4</c></rc>
    <rc><c>O </c><c>   4</c></rc>
    <rc><c>O </c><c>   4</c></rc>
    <rc><c>O </c><c>   4</c></rc>
    <rc><c>O </c><c>   4</c></rc>
    <rc><c>O </c><c>   4</c></rc>
    <rc><c>O </c><c>   4</c></rc>
    <rc><c>O </c><c>   4</c></rc>
    <rc><c>O </c><c>   4</c></rc>
    <rc><c>O </c><c>   4</c></rc>
    <rc><c>O </c><c>   4</c></rc>
    <rc><c>O </c><c>   4</c></rc>
    <rc><c>O </c><c>   4</c></rc>
    <rc><c>O </c><c>   4</c></rc>
   </set>
  </array>
  <array name="atomtypes" >
   <dimension dim="1">type</dimension>
   <field type="int">atomspertype</field>
   <field type="string">element</field>
   <field>mass</field>
   <field>valence</field>
   <field type="string">pseudopotential</field>
   <set>
    <rc><c>  48</c><c>Li</c><c>      7.01000000</c><c>      3.00000000</c><c>  PAW_PBE Li_sv 10Sep2004               </c></rc>
    <rc><c>  36</c><c>Fe</c><c>     55.84700000</c><c>     14.00000000</c><c>  PAW_PBE Fe_pv 02Aug2007               </c></rc>
    <rc><c>  36</c><c>S </c><c>     32.06600000</c><c>      6.00000000</c><c>  PAW_PBE S 06Sep2000                   </c></rc>
    <rc><c>  24</c><c>O </c><c>     16.00000000</c><c>      6.00000000</c><c>  PAW_PBE O 08Apr2002                   </c></rc>
   </set>
  </array>
 </atominfo>
 <structure name="initialpos" >
  <crystal>
   <varray name="basis" >
    <v>      15.21162830       0.00516956      -2.78361592 </v>
    <v>      -0.40798665      11.93565774      -2.20735884 </v>
    <v>      -0.06175567      -0.11168197      10.54442638 </v>
   </varray>
   <i name="volume">   1908.54869108 </i>
   <varray name="rec_basis" >
    <v>       0.06581343       0.00232549       0.00041008 </v>
    <v>       0.00013433       0.08395174       0.00088997 </v>
    <v>       0.01740216       0.01818827       0.09513139 </v>
   </varray>
  </crystal>
  <varray name="positions" >
   <v>       0.47527516       0.00074367       0.00446200 </v>
   <v>       0.97527516       0.00074367       0.00446200 </v>
   <v>       0.47527516       0.33407700       0.00446200 </v>
   <v>       0.97527516       0.33407700       0.00446200 </v>
   <v>       0.47527516       0.66741034       0.00446200 </v>
   <v>       0.97527516       0.66741034       0.00446200 </v>
   <v>       0.27472484       0.33258966       0.99553800 </v>
   <v>       0.77472484       0.33258966       0.99553800 </v>
   <v>       0.27472484       0.66592300       0.99553800 </v>
   <v>       0.77472484       0.66592300       0.99553800 </v>
   <v>       0.27472484       0.99925633       0.99553800 </v>
   <v>       0.77472484       0.99925633       0.99553800 </v>
   <v>       0.17788805       0.26797179       0.60783074 </v>
   <v>       0.67788805       0.26797179       0.60783074 </v>
   <v>       0.17788805       0.60130513       0.60783074 </v>
   <v>       0.67788805       0.60130513       0.60783074 </v>
   <v>       0.17788805       0.93463846       0.60783074 </v>
   <v>       0.67788805       0.93463846       0.60783074 </v>
   <v>       0.07211195       0.06536154       0.39216926 </v>
   <v>       0.57211195       0.06536154       0.39216926 </v>
   <v>       0.07211195       0.39869487       0.39216926 </v>
   <v>       0.57211195       0.39869487       0.39216926 </v>
   <v>       0.07211195       0.73202821       0.39216926 </v>
   <v>       0.57211195       0.73202821       0.39216926 </v>
   <v>       0.10733875       0.30765571       0.84593428 </v>
   <v>       0.60733875       0.30765571       0.84593428 </v>
   <v>       0.10733875       0.64098905       0.84593428 </v>
   <v>       0.60733875       0.64098905       0.84593428 </v>
   <v>       0.10733875       0.97432238       0.84593428 </v>
   <v>       0.60733875       0.97432238       0.84593428 </v>
   <v>       0.34464416       0.29539312       0.77235872 </v>
   <v>       0.84464416       0.29539312       0.77235872 </v>
   <v>       0.34464416       0.62872645       0.77235872 </v>
   <v>       0.84464416       0.62872645       0.77235872 </v>
   <v>       0.34464416       0.96205979       0.77235872 </v>
   <v>       0.84464416       0.96205979       0.77235872 </v>
   <v>       0.14266125       0.02567762       0.15406572 </v>
   <v>       0.64266125       0.02567762       0.15406572 </v>
   <v>       0.14266125       0.35901095       0.15406572 </v>
   <v>       0.64266125       0.35901095       0.15406572 </v>
   <v>       0.14266125       0.69234429       0.15406572 </v>
   <v>       0.64266125       0.69234429       0.15406572 </v>
   <v>       0.40535584       0.03794021       0.22764128 </v>
   <v>       0.90535584       0.03794021       0.22764128 </v>
   <v>       0.40535584       0.37127355       0.22764128 </v>
   <v>       0.90535584       0.37127355       0.22764128 </v>
   <v>       0.40535584       0.70460688       0.22764128 </v>
   <v>       0.90535584       0.70460688       0.22764128 </v>
   <v>       0.46517249       0.26691416       0.60148498 </v>
   <v>       0.96517249       0.26691416       0.60148498 </v>
   <v>       0.46517249       0.60024750       0.60148498 </v>
   <v>       0.96517249       0.60024750       0.60148498 </v>
   <v>       0.46517249       0.93358083       0.60148498 </v>
   <v>       0.96517249       0.93358083       0.60148498 </v>
   <v>       0.28482751       0.06641917       0.39851502 </v>
   <v>       0.78482751       0.06641917       0.39851502 </v>
   <v>       0.28482751       0.39975250       0.39851502 </v>
   <v>       0.78482751       0.39975250       0.39851502 </v>
   <v>       0.28482751       0.73308584       0.39851502 </v>
   <v>       0.78482751       0.73308584       0.39851502 </v>
   <v>       0.22447416       0.13353711       0.80122268 </v>
   <v>       0.72447416       0.13353711       0.80122268 </v>
   <v>       0.22447416       0.46687045       0.80122268 </v>
   <v>       0.72447416       0.46687045       0.80122268 </v>
   <v>       0.22447416       0.80020378       0.80122268 </v>
   <v>       0.72447416       0.80020378       0.80122268 </v>
   <v>       0.47796479       0.13582521       0.81495126 </v>
   <v>       0.97796479       0.13582521       0.81495126 </v>
   <v>       0.47796479       0.46915854       0.81495126 </v>
   <v>       0.97796479       0.46915854       0.81495126 </v>
   <v>       0.47796479       0.80249188       0.81495126 </v>
   <v>       0.97796479       0.80249188       0.81495126 </v>
   <v>       0.02552584       0.19979622       0.19877732 </v>
   <v>       0.52552584       0.19979622       0.19877732 </v>
   <v>       0.02552584       0.53312955       0.19877732 </v>
   <v>       0.52552584       0.53312955       0.19877732 </v>
   <v>       0.02552584       0.86646289       0.19877732 </v>
   <v>       0.52552584       0.86646289       0.19877732 </v>
   <v>       0.27203521       0.19750812       0.18504874 </v>
   <v>       0.77203521       0.19750812       0.18504874 </v>
   <v>       0.27203521       0.53084146       0.18504874 </v>
   <v>       0.77203521       0.53084146       0.18504874 </v>
   <v>       0.27203521       0.86417479       0.18504874 </v>
   <v>       0.77203521       0.86417479       0.18504874 </v>
   <v>       0.12500000       0.16666667       0.00000000 </v>
   <v>       0.62500000       0.16666667       0.00000000 </v>
   <v>       0.12500000       0.50000000       0.00000000 </v>
   <v>       0.62500000       0.50000000       0.00000000 </v>
   <v>       0.12500000       0.83333333       0.00000000 </v>
   <v>       0.62500000       0.83333333       0.00000000 </v>
   <v>       0.37500000       0.16666667       0.00000000 </v>
   <v>       0.87500000       0.16666667       0.00000000 </v>
   <v>       0.37500000       0.50000000       0.00000000 </v>
   <v>       0.87500000       0.50000000       0.00000000 </v>
   <v>       0.37500000       0.83333333       0.00000000 </v>
   <v>       0.87500000       0.83333333       0.00000000 </v>
   <v>       0.17614737       0.22809805       0.36953660 </v>
   <v>       0.67614737       0.22809805       0.36858830 </v>
   <v>       0.17614737       0.56143138       0.36858830 </v>
   <v>       0.67614737       0.56143138       0.36858830 </v>
   <v>       0.17614737       0.89476472       0.36858830 </v>
   <v>       0.67614737       0.89476472       0.36858830 </v>
   <v>       0.41542106       0.22793643       0.36761855 </v>
   <v>       0.91542106       0.22793643       0.36761855 </v>
   <v>       0.41542106       0.56126976       0.36761855 </v>
   <v>       0.91542106       0.56126976       0.36761855 </v>
   <v>       0.41542106       0.89460309       0.36761855 </v>
   <v>       0.91542106       0.89460309       0.36761855 </v>
   <v>       0.07385263       0.10523528       0.63141170 </v>
   <v>       0.57385263       0.10523528       0.63141170 </v>
   <v>       0.07385263       0.43856862       0.63141170 </v>
   <v>       0.57385263       0.43856862       0.63141170 </v>
   <v>       0.07385263       0.77190195       0.63141170 </v>
   <v>       0.57385263       0.77190195       0.63141170 </v>
   <v>       0.33457894       0.10539691       0.63238145 </v>
   <v>       0.83457894       0.10539691       0.63238145 </v>
   <v>       0.33457894       0.43873024       0.63238145 </v>
   <v>       0.83457894       0.43873024       0.63238145 </v>
   <v>       0.33457894       0.77206357       0.63238145 </v>
   <v>       0.83457894       0.77206357       0.63238145 </v>
   <v>       0.22527003       0.30093342       0.80560053 </v>
   <v>       0.72527003       0.30093342       0.80560053 </v>
   <v>       0.22527003       0.63426676       0.80560053 </v>
   <v>       0.72527003       0.63426676       0.80560053 </v>
   <v>       0.22527003       0.96760009       0.80560053 </v>
   <v>       0.72527003       0.96760009       0.80560053 </v>
   <v>       0.47618324       0.30143353       0.80860116 </v>
   <v>       0.97618324       0.30143353       0.80860116 </v>
   <v>       0.47618324       0.63476686       0.80860116 </v>
   <v>       0.97618324       0.63476686       0.80860116 </v>
   <v>       0.47618324       0.96810019       0.80860116 </v>
   <v>       0.97618324       0.96810019       0.80860116 </v>
   <v>       0.02472997       0.03239991       0.19439947 </v>
   <v>       0.52472997       0.03239991       0.19439947 </v>
   <v>       0.02472997       0.36573324       0.19439947 </v>
   <v>       0.52472997       0.36573324       0.19439947 </v>
   <v>       0.02472997       0.69906658       0.19439947 </v>
   <v>       0.52472997       0.69906658       0.19439947 </v>
   <v>       0.27381676       0.03189981       0.19139884 </v>
   <v>       0.77381676       0.03189981       0.19139884 </v>
   <v>       0.27381676       0.36523314       0.19139884 </v>
   <v>       0.77381676       0.36523314       0.19139884 </v>
   <v>       0.27381676       0.69856647       0.19139884 </v>
   <v>       0.77381676       0.69856647       0.19139884 </v>
  </varray>
 </structure>
 <calculation>
  <scstep>
   <time name="dav">  337.31  340.51</time>
   <time name="total">  339.89  343.14</time>
   <energy>
    <i name="alphaZ">   2668.72143546 </i>
    <i name="ewald"> -68027.89164792 </i>
    <i name="hartreedc"> -39873.42577556 </i>
    <i name="XCdc">   4298.61434195 </i>
    <i name="pawpsdc"> 114383.84820647 </i>
    <i name="pawaedc">-118048.71515856 </i>
    <i name="eentropy">     -0.02978307 </i>
    <i name="bandstr">   -564.29988183 </i>
    <i name="atom"> 118542.86816856 </i>
    <i name="e_fr_energy">  13379.68990550 </i>
    <i name="e_wo_entrp">  13379.71968857 </i>
    <i name="e_0_energy">  13379.70479704 </i>
   </energy>
  </scstep>
  <scstep>
   <time name="dav">  325.96  329.87</time>
   <time name="total">  325.96  329.87</time>
   <energy>
    <i name="e_fr_energy">   1421.88060321 </i>
    <i name="e_wo_entrp">   1421.96531245 </i>
    <i name="e_0_energy">   1421.92295783 </i>
   </energy>
  </scstep>
  <scstep>
   <time name="dav">  351.24  354.94</time>
   <time name="total">  351.25  354.94</time>
   <energy>
    <i name="e_fr_energy">   -473.20418162 </i>
    <i name="e_wo_entrp">   -473.20418162 </i>
    <i name="e_0_energy">   -473.20418162 </i>
   </energy>
  </scstep>
  <scstep>
   <time name="dav">  391.09  394.44</time>
   <time name="total">  391.09  394.44</time>
   <energy>
    <i name="e_fr_energy">   -716.00040492 </i>
    <i name="e_wo_entrp">   -716.00040492 </i>
    <i name="e_0_energy">   -716.00040492 </i>
   </energy>
  </scstep>
  <scstep>
   <time name="dav">  516.24  521.89</time>
   <time name="total">  527.06  532.79</time>
   <energy>
    <i name="e_fr_energy">   -745.36897306 </i>
    <i name="e_wo_entrp">   -745.36897306 </i>
    <i name="e_0_energy">   -745.36897306 </i>
   </energy>
  </scstep>
  <scstep>
   <time name="dav">  412.35  416.90</time>
   <time name="total">  425.78  430.43</time>
   <energy>
    <i name="e_fr_energy">   -746.58264733 </i>
    <i name="e_wo_entrp">   -746.58264733 </i>
    <i name="e_0_energy">   -746.58264733 </i>
   </energy>
  </scstep>
  <scstep>
   <time name="dav">  468.09  472.82</time>
   <time name="total">  481.56  486.35</time>
   <energy>
    <i name="e_fr_energy">   -746.63642488 </i>
    <i name="e_wo_entrp">   -746.63642488 </i>
    <i name="e_0_energy">   -746.63642488 </i>
   </energy>
  </scstep>
  <scstep>
   <time name="dav">  439.48  443.79</time>
   <time name="total">  452.95  457.35</time>
   <energy>
    <i name="e_fr_energy">   -746.63564886 </i>
    <i name="e_wo_entrp">   -746.63564886 </i>
    <i name="e_0_energy">   -746.63564886 </i>
   </energy>
  </scstep>
  <scstep>
   <time name="dav">  469.94  474.41</time>
   <time name="total">  483.28  487.91</time>
   <energy>
    <i name="e_fr_energy">   -746.63503597 </i>
    <i name="e_wo_entrp">   -746.63503597 </i>
    <i name="e_0_energy">   -746.63503597 </i>
   </energy>
  </scstep>
  <scstep>
   <time name="dav">  475.51  480.52</time>
   <time name="total">  488.95  494.07</time>
   <energy>
    <i name="e_fr_energy">   -746.63397210 </i>
    <i name="e_wo_entrp">   -746.63397210 </i>
    <i name="e_0_energy">   -746.63397210 </i>
   </energy>
  </scstep>
  <scstep>
   <time name="dav">  482.99  488.23</time>
   <time name="total">  496.44  501.79</time>
   <energy>
    <i name="e_fr_energy">   -746.63184926 </i>
    <i name="e_wo_entrp">   -746.63184926 </i>
    <i name="e_0_energy">   -746.63184926 </i>
   </energy>
  </scstep>
  <scstep>
   <time name="dav">  376.02  380.73</time>
   <time name="total">  389.47  394.27</time>
   <energy>
    <i name="e_fr_energy">   -746.63135900 </i>
    <i name="e_wo_entrp">   -746.63135900 </i>
    <i name="e_0_energy">   -746.63135900 </i>
   </energy>
  </scstep>
  <scstep>
   <time name="dav">  429.56  434.47</time>
   <time name="total">  442.90  447.97</time>
   <energy>
    <i name="e_fr_energy">   -746.63114288 </i>
    <i name="e_wo_entrp">   -746.63114288 </i>
    <i name="e_0_energy">   -746.63114288 </i>
   </energy>
  </scstep>
  <scstep>
   <time name="dav">  432.17  436.91</time>
   <time name="total">  445.48  450.45</time>
   <energy>
    <i name="e_fr_energy">   -746.63108138 </i>
    <i name="e_wo_entrp">   -746.63108138 </i>
    <i name="e_0_energy">   -746.63108138 </i>
   </energy>
  </scstep>
  <scstep>
   <time name="dav">  358.10  361.38</time>
   <time name="total">  371.55  374.98</time>
   <energy>
    <i name="e_fr_energy">   -746.63098823 </i>
    <i name="e_wo_entrp">   -746.63098823 </i>
    <i name="e_0_energy">   -746.63098823 </i>
   </energy>
  </scstep>
  <scstep>
   <time name="dav">  400.04  403.97</time>
   <time name="total">  413.39  417.52</time>
   <energy>
    <i name="e_fr_energy">   -746.63093044 </i>
    <i name="e_wo_entrp">   -746.63093044 </i>
    <i name="e_0_energy">   -746.63093044 </i>
   </energy>
  </scstep>
  <scstep>
   <time name="dav">  416.77  421.22</time>
   <time name="total">  430.13  434.71</time>
   <energy>
    <i name="e_fr_energy">   -746.63092917 </i>
    <i name="e_wo_entrp">   -746.63092917 </i>
    <i name="e_0_energy">   -746.63092917 </i>
   </energy>
  </scstep>
  <scstep>
   <time name="dav">  314.87  317.98</time>
   <time name="total">  317.44  320.59</time>
   <energy>
    <i name="alphaZ">   2668.72143546 </i>
    <i name="ewald"> -68027.89164792 </i>
    <i name="hartreedc"> -39873.25000910 </i>
    <i name="XCdc">   4298.60657595 </i>
    <i name="pawpsdc"> 114378.20470610 </i>
    <i name="pawaedc">-118042.96968820 </i>
    <i name="eentropy">     -0.00000000 </i>
    <i name="bandstr"> -14690.92047079 </i>
    <i name="atom"> 118542.86816856 </i>
    <i name="e_fr_energy">   -746.63092994 </i>
    <i name="e_wo_entrp">   -746.63092994 </i>
    <i name="e_0_energy">   -746.63092994 </i>
   </energy>
  </scstep>
  <structure>
   <crystal>
    <varray name="basis" >
     <v>      15.21162830       0.00516956      -2.78361592 </v>
     <v>      -0.40798665      11.93565774      -2.20735884 </v>
     <v>      -0.06175567      -0.11168197      10.54442638 </v>
    </varray>
    <i name="volume">   1908.54869108 </i>
    <varray name="rec_basis" >
     <v>       0.06581343       0.00232549       0.00041008 </v>
     <v>       0.00013433       0.08395174       0.00088997 </v>
     <v>       0.01740216       0.01818827       0.09513139 </v>
    </varray>
   </crystal>
   <varray name="positions" >
    <v>       0.47527516       0.00074367       0.00446200 </v>
    <v>       0.97527516       0.00074367       0.00446200 </v>
    <v>       0.47527516       0.33407700       0.00446200 </v>
    <v>       0.97527516       0.33407700       0.00446200 </v>
    <v>       0.47527516       0.66741034       0.00446200 </v>
    <v>       0.97527516       0.66741034       0.00446200 </v>
    <v>       0.27472484       0.33258966       0.99553800 </v>
    <v>       0.77472484       0.33258966       0.99553800 </v>
    <v>       0.27472484       0.66592300       0.99553800 </v>
    <v>       0.77472484       0.66592300       0.99553800 </v>
    <v>       0.27472484       0.99925633       0.99553800 </v>
    <v>       0.77472484       0.99925633       0.99553800 </v>
    <v>       0.17788805       0.26797179       0.60783074 </v>
    <v>       0.67788805       0.26797179       0.60783074 </v>
    <v>       0.17788805       0.60130513       0.60783074 </v>
    <v>       0.67788805       0.60130513       0.60783074 </v>
    <v>       0.17788805       0.93463846       0.60783074 </v>
    <v>       0.67788805       0.93463846       0.60783074 </v>
    <v>       0.07211195       0.06536154       0.39216926 </v>
    <v>       0.57211195       0.06536154       0.39216926 </v>
    <v>       0.07211195       0.39869487       0.39216926 </v>
    <v>       0.57211195       0.39869487       0.39216926 </v>
    <v>       0.07211195       0.73202821       0.39216926 </v>
    <v>       0.57211195       0.73202821       0.39216926 </v>
    <v>       0.10733875       0.30765571       0.84593428 </v>
    <v>       0.60733875       0.30765571       0.84593428 </v>
    <v>       0.10733875       0.64098905       0.84593428 </v>
    <v>       0.60733875       0.64098905       0.84593428 </v>
    <v>       0.10733875       0.97432238       0.84593428 </v>
    <v>       0.60733875       0.97432238       0.84593428 </v>
    <v>       0.34464416       0.29539312       0.77235872 </v>
    <v>       0.84464416       0.29539312       0.77235872 </v>
    <v>       0.34464416       0.62872645       0.77235872 </v>
    <v>       0.84464416       0.62872645       0.77235872 </v>
    <v>       0.34464416       0.96205979       0.77235872 </v>
    <v>       0.84464416       0.96205979       0.77235872 </v>
    <v>       0.14266125       0.02567762       0.15406572 </v>
    <v>       0.64266125       0.02567762       0.15406572 </v>
    <v>       0.14266125       0.35901095       0.15406572 </v>
    <v>       0.64266125       0.35901095       0.15406572 </v>
    <v>       0.14266125       0.69234429       0.15406572 </v>
    <v>       0.64266125       0.69234429       0.15406572 </v>
    <v>       0.40535584       0.03794021       0.22764128 </v>
    <v>       0.90535584       0.03794021       0.22764128 </v>
    <v>       0.40535584       0.37127355       0.22764128 </v>
    <v>       0.90535584       0.37127355       0.22764128 </v>
    <v>       0.40535584       0.70460688       0.22764128 </v>
    <v>       0.90535584       0.70460688       0.22764128 </v>
    <v>       0.46517249       0.26691416       0.60148498 </v>
    <v>       0.96517249       0.26691416       0.60148498 </v>
    <v>       0.46517249       0.60024750       0.60148498 </v>
    <v>       0.96517249       0.60024750       0.60148498 </v>
    <v>       0.46517249       0.93358083       0.60148498 </v>
    <v>       0.96517249       0.93358083       0.60148498 </v>
    <v>       0.28482751       0.06641917       0.39851502 </v>
    <v>       0.78482751       0.06641917       0.39851502 </v>
    <v>       0.28482751       0.39975250       0.39851502 </v>
    <v>       0.78482751       0.39975250       0.39851502 </v>
    <v>       0.28482751       0.73308584       0.39851502 </v>
    <v>       0.78482751       0.73308584       0.39851502 </v>
    <v>       0.22447416       0.13353711       0.80122268 </v>
    <v>       0.72447416       0.13353711       0.80122268 </v>
    <v>       0.22447416       0.46687045       0.80122268 </v>
    <v>       0.72447416       0.46687045       0.80122268 </v>
    <v>       0.22447416       0.80020378       0.80122268 </v>
    <v>       0.72447416       0.80020378       0.80122268 </v>
    <v>       0.47796479       0.13582521       0.81495126 </v>
    <v>       0.97796479       0.13582521       0.81495126 </v>
    <v>       0.47796479       0.46915854       0.81495126 </v>
    <v>       0.97796479       0.46915854       0.81495126 </v>
    <v>       0.47796479       0.80249188       0.81495126 </v>
    <v>       0.97796479       0.80249188       0.81495126 </v>
    <v>       0.02552584       0.19979622       0.19877732 </v>
    <v>       0.52552584       0.19979622       0.19877732 </v>
    <v>       0.02552584       0.53312955       0.19877732 </v>
    <v>       0.52552584       0.53312955       0.19877732 </v>
    <v>       0.02552584       0.86646289       0.19877732 </v>
    <v>       0.52552584       0.86646289       0.19877732 </v>
    <v>       0.27203521       0.19750812       0.18504874 </v>
    <v>       0.77203521       0.19750812       0.18504874 </v>
    <v>       0.27203521       0.53084146       0.18504874 </v>
    <v>       0.77203521       0.53084146       0.18504874 </v>
    <v>       0.27203521       0.86417479       0.18504874 </v>
    <v>       0.77203521       0.86417479       0.18504874 </v>
    <v>       0.12500000       0.16666667       0.00000000 </v>
    <v>       0.62500000       0.16666667       0.00000000 </v>
    <v>       0.12500000       0.50000000       0.00000000 </v>
    <v>       0.62500000       0.50000000       0.00000000 </v>
    <v>       0.12500000       0.83333333       0.00000000 </v>
    <v>       0.62500000       0.83333333       0.00000000 </v>
    <v>       0.37500000       0.16666667       0.00000000 </v>
    <v>       0.87500000       0.16666667       0.00000000 </v>
    <v>       0.37500000       0.50000000       0.00000000 </v>
    <v>       0.87500000       0.50000000       0.00000000 </v>
    <v>       0.37500000       0.83333333       0.00000000 </v>
    <v>       0.87500000       0.83333333       0.00000000 </v>
    <v>       0.17614737       0.22809805       0.36953660 </v>
    <v>       0.67614737       0.22809805       0.36858830 </v>
    <v>       0.17614737       0.56143138       0.36858830 </v>
    <v>       0.67614737       0.56143138       0.36858830 </v>
    <v>       0.17614737       0.89476472       0.36858830 </v>
    <v>       0.67614737       0.89476472       0.36858830 </v>
    <v>       0.41542106       0.22793643       0.36761855 </v>
    <v>       0.91542106       0.22793643       0.36761855 </v>
    <v>       0.41542106       0.56126976       0.36761855 </v>
    <v>       0.91542106       0.56126976       0.36761855 </v>
    <v>       0.41542106       0.89460309       0.36761855 </v>
    <v>       0.91542106       0.89460309       0.36761855 </v>
    <v>       0.07385263       0.10523528       0.63141170 </v>
    <v>       0.57385263       0.10523528       0.63141170 </v>
    <v>       0.07385263       0.43856862       0.63141170 </v>
    <v>       0.57385263       0.43856862       0.63141170 </v>
    <v>       0.07385263       0.77190195       0.63141170 </v>
    <v>       0.57385263       0.77190195       0.63141170 </v>
    <v>       0.33457894       0.10539691       0.63238145 </v>
    <v>       0.83457894       0.10539691       0.63238145 </v>
    <v>       0.33457894       0.43873024       0.63238145 </v>
    <v>       0.83457894       0.43873024       0.63238145 </v>
    <v>       0.33457894       0.77206357       0.63238145 </v>
    <v>       0.83457894       0.77206357       0.63238145 </v>
    <v>       0.22527003       0.30093342       0.80560053 </v>
    <v>       0.72527003       0.30093342       0.80560053 </v>
    <v>       0.22527003       0.63426676       0.80560053 </v>
    <v>       0.72527003       0.63426676       0.80560053 </v>
    <v>       0.22527003       0.96760009       0.80560053 </v>
    <v>       0.72527003       0.96760009       0.80560053 </v>
    <v>       0.47618324       0.30143353       0.80860116 </v>
    <v>       0.97618324       0.30143353       0.80860116 </v>
    <v>       0.47618324       0.63476686       0.80860116 </v>
    <v>       0.97618324       0.63476686       0.80860116 </v>
    <v>       0.47618324       0.96810019       0.80860116 </v>
    <v>       0.97618324       0.96810019       0.80860116 </v>
    <v>       0.02472997       0.03239991       0.19439947 </v>
    <v>       0.52472997       0.03239991       0.19439947 </v>
    <v>       0.02472997       0.36573324       0.19439947 </v>
    <v>       0.52472997       0.36573324       0.19439947 </v>
    <v>       0.02472997       0.69906658       0.19439947 </v>
    <v>       0.52472997       0.69906658       0.19439947 </v>
    <v>       0.27381676       0.03189981       0.19139884 </v>
    <v>       0.77381676       0.03189981       0.19139884 </v>
    <v>       0.27381676       0.36523314       0.19139884 </v>
    <v>       0.77381676       0.36523314       0.19139884 </v>
    <v>       0.27381676       0.69856647       0.19139884 </v>
    <v>       0.77381676       0.69856647       0.19139884 </v>
   </varray>
  </structure>
  <varray name="forces" >
   <v>       0.00029623      -0.00024985      -0.00022830 </v>
   <v>      -0.00022424      -0.00048255      -0.00027567 </v>
   <v>       0.00028558       0.00000220      -0.00028095 </v>
   <v>      -0.00029186       0.00007347      -0.00064676 </v>
   <v>       0.00025088      -0.00010477      -0.00018782 </v>
   <v>       0.00006489      -0.00010141      -0.00021407 </v>
   <v>      -0.00005765       0.00018733      -0.00103525 </v>
   <v>      -0.00024280       0.00018911       0.00014261 </v>
   <v>      -0.00014343       0.00009034       0.00001685 </v>
   <v>      -0.00019601       0.00013571       0.00016284 </v>
   <v>       0.00004004      -0.00033345      -0.00045104 </v>
   <v>      -0.00022497       0.00000358       0.00019977 </v>
   <v>      -0.00142585       0.00223996       0.01110795 </v>
   <v>      -0.00041864       0.00042250       0.00012394 </v>
   <v>      -0.00051962       0.00012045       0.00039254 </v>
   <v>      -0.00042830       0.00040757       0.00013330 </v>
   <v>      -0.00052006       0.00079957      -0.00003992 </v>
   <v>      -0.00044742       0.00044812       0.00010169 </v>
   <v>       0.00074911       0.00012807       0.00157879 </v>
   <v>       0.00057887      -0.00051813      -0.00007239 </v>
   <v>       0.00086384      -0.00087501       0.00207304 </v>
   <v>       0.00057034      -0.00036632      -0.00009428 </v>
   <v>       0.00043653      -0.00020905      -0.00013572 </v>
   <v>       0.00048163      -0.00037919      -0.00011900 </v>
   <v>      -0.00031448       0.00052098      -0.00122970 </v>
   <v>      -0.00036462       0.00010144      -0.00024088 </v>
   <v>      -0.00041121      -0.00017691      -0.00062785 </v>
   <v>      -0.00036131       0.00009911      -0.00021572 </v>
   <v>      -0.00045377      -0.00044575      -0.00090178 </v>
   <v>      -0.00038947       0.00007640      -0.00021914 </v>
   <v>      -0.00168169      -0.00044153      -0.00065419 </v>
   <v>      -0.00134228      -0.00022996      -0.00016004 </v>
   <v>      -0.00127932      -0.00053258      -0.00029656 </v>
   <v>      -0.00126802      -0.00026940      -0.00011721 </v>
   <v>      -0.00120976       0.00000910      -0.00054379 </v>
   <v>      -0.00133044      -0.00029059      -0.00013395 </v>
   <v>      -0.00017663      -0.00175771       0.00065173 </v>
   <v>       0.00034167      -0.00011537       0.00021336 </v>
   <v>      -0.00054364       0.00183267      -0.00117661 </v>
   <v>       0.00034818      -0.00008417       0.00020051 </v>
   <v>       0.00028984       0.00005162       0.00036969 </v>
   <v>       0.00031720      -0.00009036       0.00020321 </v>
   <v>       0.00188754       0.00013194       0.00013926 </v>
   <v>       0.00113534       0.00032494       0.00026752 </v>
   <v>       0.00221592       0.00037080       0.00006423 </v>
   <v>       0.00087703       0.00020866       0.00036819 </v>
   <v>       0.00140357       0.00030727       0.00004593 </v>
   <v>       0.00128399       0.00028671       0.00007746 </v>
   <v>      -0.00053887       0.00047167       0.00066191 </v>
   <v>       0.00102424       0.00043626      -0.00049986 </v>
   <v>      -0.00037356       0.00013027       0.00033008 </v>
   <v>       0.00064133      -0.00008856       0.00014210 </v>
   <v>      -0.00058332       0.00104336       0.00009244 </v>
   <v>       0.00062244       0.00107824      -0.00027839 </v>
   <v>      -0.00015844      -0.00012445       0.00433935 </v>
   <v>       0.00008955      -0.00037308       0.00019199 </v>
   <v>      -0.00057562      -0.00212963       0.00470571 </v>
   <v>       0.00011782      -0.00056028       0.00029576 </v>
   <v>      -0.00009584      -0.00006309       0.00036894 </v>
   <v>       0.00001199      -0.00039830       0.00018859 </v>
   <v>       0.00062183      -0.00001820      -0.00201448 </v>
   <v>      -0.00013074      -0.00024831      -0.00015896 </v>
   <v>      -0.00017379      -0.00075873      -0.00072106 </v>
   <v>      -0.00000306      -0.00022938       0.00002053 </v>
   <v>       0.00003340      -0.00043137       0.00000025 </v>
   <v>       0.00001284      -0.00025788       0.00013447 </v>
   <v>      -0.00079608      -0.00036869      -0.00122339 </v>
   <v>      -0.00100264      -0.00039842      -0.00172352 </v>
   <v>      -0.00063325      -0.00004050      -0.00075189 </v>
   <v>       0.00005353       0.00010032      -0.00107072 </v>
   <v>      -0.00016565       0.00003085      -0.00032557 </v>
   <v>      -0.00033891      -0.00019998      -0.00032301 </v>
   <v>       0.00257872      -0.00008943       0.00459196 </v>
   <v>       0.00013796       0.00020989      -0.00015059 </v>
   <v>      -0.00016259       0.00153053      -0.00034268 </v>
   <v>       0.00003287       0.00030896      -0.00024398 </v>
   <v>       0.00013760      -0.00026723       0.00020140 </v>
   <v>      -0.00000520       0.00013323      -0.00008870 </v>
   <v>      -0.00177864       0.00020949       0.00724000 </v>
   <v>       0.00034593       0.00003615       0.00046480 </v>
   <v>       0.00006954       0.00231089      -0.00032035 </v>
   <v>       0.00020026       0.00002553       0.00018424 </v>
   <v>       0.00011381      -0.00137369       0.00074244 </v>
   <v>       0.00024310      -0.00001201       0.00020519 </v>
   <v>       0.00213576       0.00171480       0.00756702 </v>
   <v>       0.00001617       0.00001832       0.00008746 </v>
   <v>       0.00029251      -0.00032756       0.00089609 </v>
   <v>       0.00003898       0.00000965       0.00006893 </v>
   <v>       0.00017608       0.00042326       0.00019771 </v>
   <v>       0.00003891       0.00001229       0.00005851 </v>
   <v>      -0.00105113       0.00026914       0.00140023 </v>
   <v>       0.00087399       0.00013122       0.00016389 </v>
   <v>      -0.00033153      -0.00023276       0.00087001 </v>
   <v>       0.00031219      -0.00017946       0.00031309 </v>
   <v>      -0.00030206       0.00033735       0.00038362 </v>
   <v>       0.00012779       0.00013818       0.00010444 </v>
   <v>       0.00292061      -0.00040023      -0.05462156 </v>
   <v>      -0.00020153      -0.00041058       0.00010006 </v>
   <v>       0.00015478      -0.00148473      -0.00048334 </v>
   <v>      -0.00002878      -0.00040092       0.00011031 </v>
   <v>       0.00011612      -0.00174457      -0.00049132 </v>
   <v>      -0.00001107      -0.00040103       0.00011094 </v>
   <v>      -0.00151420      -0.00030657      -0.00169461 </v>
   <v>      -0.00081161      -0.00032744      -0.00074493 </v>
   <v>      -0.00022767      -0.00054579      -0.00048837 </v>
   <v>       0.00014745      -0.00042502      -0.00041367 </v>
   <v>       0.00005113      -0.00044045      -0.00056120 </v>
   <v>       0.00001625      -0.00040550      -0.00028712 </v>
   <v>      -0.00206274      -0.00124057       0.00420097 </v>
   <v>       0.00015991       0.00050632      -0.00030261 </v>
   <v>      -0.00183384       0.00268609       0.00185889 </v>
   <v>       0.00007228       0.00028309      -0.00027039 </v>
   <v>       0.00003949       0.00038514      -0.00011063 </v>
   <v>       0.00001072       0.00035014      -0.00017785 </v>
   <v>       0.00336530      -0.00131774       0.00287234 </v>
   <v>      -0.00029118       0.00033951       0.00014456 </v>
   <v>       0.00211313       0.00229285       0.00081338 </v>
   <v>      -0.00033378       0.00029101       0.00006898 </v>
   <v>      -0.00015908       0.00022223      -0.00002519 </v>
   <v>      -0.00014995       0.00033875       0.00001682 </v>
   <v>       0.00034441       0.00003989       0.00221257 </v>
   <v>       0.00008220       0.00003869       0.00019551 </v>
   <v>       0.00008030       0.00052894       0.00038602 </v>
   <v>       0.00003770       0.00010518       0.00012724 </v>
   <v>      -0.00011357       0.00036641       0.00087802 </v>
   <v>       0.00007155       0.00021659       0.00012981 </v>
   <v>      -0.00018668      -0.00001180       0.00015285 </v>
   <v>      -0.00029394      -0.00047785       0.00080574 </v>
   <v>      -0.00017621       0.00034989       0.00011464 </v>
   <v>      -0.00065310       0.00045180       0.00032507 </v>
   <v>      -0.00000591      -0.00054850       0.00045604 </v>
   <v>      -0.00038485       0.00006410       0.00075294 </v>
   <v>       0.00166587       0.00297232      -0.00101458 </v>
   <v>      -0.00016852       0.00006890      -0.00003920 </v>
   <v>       0.00425588      -0.00445437       0.00173067 </v>
   <v>      -0.00018271      -0.00019024       0.00000933 </v>
   <v>      -0.00001698      -0.00042265      -0.00012197 </v>
   <v>      -0.00002967      -0.00016199      -0.00004596 </v>
   <v>      -0.00332910       0.00748918       0.00090264 </v>
   <v>       0.00041692       0.00009143       0.00008881 </v>
   <v>      -0.00464948      -0.00786932       0.00667278 </v>
   <v>       0.00043968       0.00016045       0.00006493 </v>
   <v>       0.00047189      -0.00019345       0.00007945 </v>
   <v>       0.00043166       0.00008800       0.00020044 </v>
  </varray>
  <varray name="stress" >
   <v>      -0.14345948       0.01630861       0.02800372 </v>
   <v>       0.00634356      -0.15750250      -0.07039256 </v>
   <v>      -0.01063856      -0.04151307      -0.10658083 </v>
  </varray>
  <energy>
   <i name="e_fr_energy">   -746.63092994 </i>
   <i name="e_wo_entrp">   -746.63092994 </i>
   <i name="e_0_energy">     -0.00000000 </i>
  </energy>
  <time name="totalsc"> 8151.63 8235.95</time>
  <eigenvalues>
   <array>
    <dimension dim="1">band</dimension>
    <dimension dim="2">kpoint</dimension>
    <dimension dim="3">spin</dimension>
    <field>eigene</field>
    <field>occ</field>
    <set>
     <set comment="spin 1">
      <set comment="kpoint 1">
       <r>  -51.6031    1.0000 </r>
       <r>  -51.6027    1.0000 </r>
       <r>  -51.6027    1.0000 </r>
       <r>  -51.6027    1.0000 </r>
       <r>  -51.6026    1.0000 </r>
       <r>  -51.6025    1.0000 </r>
       <r>  -51.6024    1.0000 </r>
       <r>  -51.6023    1.0000 </r>
       <r>  -51.6023    1.0000 </r>
       <r>  -51.6022    1.0000 </r>
       <r>  -51.6019    1.0000 </r>
       <r>  -51.6010    1.0000 </r>
       <r>  -51.4232    1.0000 </r>
       <r>  -51.4189    1.0000 </r>
       <r>  -51.4184    1.0000 </r>
       <r>  -51.4179    1.0000 </r>
       <r>  -51.4178    1.0000 </r>
       <r>  -51.4178    1.0000 </r>
       <r>  -51.4177    1.0000 </r>
       <r>  -51.4177    1.0000 </r>
       <r>  -51.4175    1.0000 </r>
       <r>  -51.4174    1.0000 </r>
       <r>  -51.4173    1.0000 </r>
       <r>  -51.4172    1.0000 </r>
       <r>  -51.3004    1.0000 </r>
       <r>  -51.2985    1.0000 </r>
       <r>  -51.2981    1.0000 </r>
       <r>  -51.2980    1.0000 </r>
       <r>  -51.2980    1.0000 </r>
       <r>  -51.2979    1.0000 </r>
       <r>  -51.2979    1.0000 </r>
       <r>  -51.2977    1.0000 </r>
       <r>  -51.2977    1.0000 </r>
       <r>  -51.2973    1.0000 </r>
       <r>  -51.2972    1.0000 </r>
       <r>  -51.2969    1.0000 </r>
       <r>  -50.1580    1.0000 </r>
       <r>  -50.1575    1.0000 </r>
       <r>  -50.1575    1.0000 </r>
       <r>  -50.1574    1.0000 </r>
       <r>  -50.1573    1.0000 </r>
       <r>  -50.1572    1.0000 </r>
       <r>  -50.1571    1.0000 </r>
       <r>  -50.1570    1.0000 </r>
       <r>  -50.1568    1.0000 </r>
       <r>  -50.1566    1.0000 </r>
       <r>  -50.1562    1.0000 </r>
       <r>  -50.1553    1.0000 </r>
       <r>  -50.0660    1.0000 </r>
       <r>  -50.0659    1.0000 </r>
       <r>  -50.0658    1.0000 </r>
       <r>  -50.0658    1.0000 </r>
       <r>  -50.0657    1.0000 </r>
       <r>  -50.0656    1.0000 </r>
       <r>  -50.0654    1.0000 </r>
       <r>  -50.0654    1.0000 </r>
       <r>  -50.0652    1.0000 </r>
       <r>  -50.0652    1.0000 </r>
       <r>  -50.0650    1.0000 </r>
       <r>  -50.0638    1.0000 </r>
       <r>  -49.9666    1.0000 </r>
       <r>  -49.9626    1.0000 </r>
       <r>  -49.9621    1.0000 </r>
       <r>  -49.9620    1.0000 </r>
       <r>  -49.9618    1.0000 </r>
       <r>  -49.9616    1.0000 </r>
       <r>  -49.9616    1.0000 </r>
       <r>  -49.9615    1.0000 </r>
       <r>  -49.9615    1.0000 </r>
       <r>  -49.9613    1.0000 </r>
       <r>  -49.9613    1.0000 </r>
       <r>  -49.9611    1.0000 </r>
       <r>  -49.9585    1.0000 </r>
       <r>  -49.9534    1.0000 </r>
       <r>  -49.9530    1.0000 </r>
       <r>  -49.9526    1.0000 </r>
       <r>  -49.9526    1.0000 </r>
       <r>  -49.9525    1.0000 </r>
       <r>  -49.9524    1.0000 </r>
       <r>  -49.9524    1.0000 </r>
       <r>  -49.9524    1.0000 </r>
       <r>  -49.9523    1.0000 </r>
       <r>  -49.9522    1.0000 </r>
       <r>  -49.9520    1.0000 </r>
       <r>  -49.8902    1.0000 </r>
       <r>  -49.8894    1.0000 </r>
       <r>  -49.8891    1.0000 </r>
       <r>  -49.8890    1.0000 </r>
       <r>  -49.8889    1.0000 </r>
       <r>  -49.8889    1.0000 </r>
       <r>  -49.8888    1.0000 </r>
       <r>  -49.8888    1.0000 </r>
       <r>  -49.8888    1.0000 </r>
       <r>  -49.8888    1.0000 </r>
       <r>  -49.8888    1.0000 </r>
       <r>  -49.8883    1.0000 </r>
       <r>  -49.8505    1.0000 </r>
       <r>  -49.8476    1.0000 </r>
       <r>  -49.8473    1.0000 </r>
       <r>  -49.8472    1.0000 </r>
       <r>  -49.8472    1.0000 </r>
       <r>  -49.8472    1.0000 </r>
       <r>  -49.8471    1.0000 </r>
       <r>  -49.8471    1.0000 </r>
[...]
       <r>   -32.5866     0.0000   156.0000 </r>
       <r>   -32.3470     0.0000   156.0000 </r>
       <r>   -32.1074     0.0000   156.0000 </r>
       <r>   -31.8678     0.0000   156.0000 </r>
       <r>   -31.6282     0.0000   156.0000 </r>
       <r>   -31.3885     0.0000   156.0000 </r>
       <r>   -31.1489     0.0000   156.0000 </r>
       <r>   -30.9093     0.0000   156.0000 </r>
       <r>   -30.6697     0.0000   156.0000 </r>
       <r>   -30.4301     0.0000   156.0000 </r>
       <r>   -30.1905     0.0000   156.0000 </r>
       <r>   -29.9509     0.0000   156.0000 </r>
       <r>   -29.7113     0.0000   156.0000 </r>
       <r>   -29.4717     0.0000   156.0000 </r>
       <r>   -29.2320     0.0000   156.0000 </r>
       <r>   -28.9924     0.0000   156.0000 </r>
       <r>   -28.7528     0.0000   156.0000 </r>
       <r>   -28.5132     0.0000   156.0000 </r>
       <r>   -28.2736     0.0000   156.0000 </r>
       <r>   -28.0340     0.0000   156.0000 </r>
       <r>   -27.7944     0.0000   156.0000 </r>
       <r>   -27.5548     0.0000   156.0000 </r>
       <r>   -27.3151     0.0000   156.0000 </r>
       <r>   -27.0755     0.0000   156.0000 </r>
       <r>   -26.8359     0.0000   156.0000 </r>
       <r>   -26.5963     0.0000   156.0000 </r>
       <r>   -26.3567     0.0000   156.0000 </r>
       <r>   -26.1171     0.0000   156.0000 </r>
       <r>   -25.8775     0.0000   156.0000 </r>
       <r>   -25.6379     0.0000   156.0000 </r>
       <r>   -25.3983     0.0000   156.0000 </r>
       <r>   -25.1586     0.0000   156.0000 </r>
       <r>   -24.9190     0.0000   156.0000 </r>
       <r>   -24.6794     0.0000   156.0000 </r>
       <r>   -24.4398     0.0000   156.0000 </r>
       <r>   -24.2002     0.0000   156.0000 </r>
       <r>   -23.9606     0.0000   156.0000 </r>
       <r>   -23.7210     0.0000   156.0000 </r>
       <r>   -23.4814     0.0000   156.0000 </r>
       <r>   -23.2417     0.0000   156.0000 </r>
       <r>   -23.0021     0.0000   156.0000 </r>
       <r>   -22.7625     0.0000   156.0000 </r>
       <r>   -22.5229     0.0000   156.0000 </r>
       <r>   -22.2833     0.0000   156.0000 </r>
       <r>   -22.0437     0.0000   156.0000 </r>
       <r>   -21.8041     0.0000   156.0000 </r>
       <r>   -21.5645     0.0000   156.0000 </r>
       <r>   -21.3248     0.0000   156.0000 </r>
       <r>   -21.0852     0.0000   156.0000 </r>
       <r>   -20.8456     0.0000   156.0000 </r>
       <r>   -20.6060     0.0000   156.0000 </r>
       <r>   -20.3664     0.0000   156.0000 </r>
       <r>   -20.1268     0.0000   156.0000 </r>
       <r>   -19.8872     0.0000   156.0000 </r>
       <r>   -19.6476     0.0000   156.0000 </r>
       <r>   -19.4080     0.0000   156.0000 </r>
       <r>   -19.1683     0.0000   156.0000 </r>
       <r>   -18.9287     0.0000   156.0000 </r>
       <r>   -18.6891     0.0000   156.0000 </r>
       <r>   -18.4495     0.0000   156.0000 </r>
       <r>   -18.2099     0.0000   156.0000 </r>
       <r>   -17.9703     0.0000   156.0000 </r>
       <r>   -17.7307     0.0000   156.0000 </r>
       <r>   -17.4911     0.0000   156.0000 </r>
       <r>   -17.2514     0.0000   156.0000 </r>
       <r>   -17.0118     0.0000   156.0000 </r>
       <r>   -16.7722     0.0000   156.0000 </r>
       <r>   -16.5326     0.0000   156.0000 </r>
       <r>   -16.2930     0.0000   156.0000 </r>
       <r>   -16.0534     0.0000   156.0000 </r>
       <r>   -15.8138     0.0000   156.0000 </r>
       <r>   -15.5742     0.0000   156.0000 </r>
       <r>   -15.3346     0.0000   156.0000 </r>
       <r>   -15.0949     0.0000   156.0000 </r>
       <r>   -14.8553     0.0000   156.0000 </r>
       <r>   -14.6157     0.0000   156.0000 </r>
       <r>   -14.3761     0.0000   156.0000 </r>
       <r>   -14.1365     0.0000   156.0000 </r>
       <r>   -13.8969     0.0000   156.0000 </r>
       <r>   -13.6573     0.0000   156.0000 </r>
       <r>   -13.4177     2.0598   156.4935 </r>
       <r>   -13.1780    44.5989   167.1800 </r>
       <r>   -12.9384     4.2666   168.2023 </r>
       <r>   -12.6988    42.5160   178.3896 </r>
       <r>   -12.4592     6.7208   180.0000 </r>
       <r>   -12.2196     0.0000   180.0000 </r>
       <r>   -11.9800     0.0000   180.0000 </r>
       <r>   -11.7404     0.0000   180.0000 </r>
       <r>   -11.5008     0.0000   180.0000 </r>
       <r>   -11.2612     0.0000   180.0000 </r>
       <r>   -11.0215     0.0000   180.0000 </r>
       <r>   -10.7819     0.0000   180.0000 </r>
       <r>   -10.5423     0.0000   180.0000 </r>
       <r>   -10.3027     0.0000   180.0000 </r>
       <r>   -10.0631     0.0000   180.0000 </r>
       <r>    -9.8235     0.0000   180.0000 </r>
       <r>    -9.5839     0.0000   180.0000 </r>
       <r>    -9.3443     0.0000   180.0000 </r>
       <r>    -9.1046     0.0000   180.0000 </r>
       <r>    -8.8650     0.0000   180.0000 </r>
       <r>    -8.6254     0.0000   180.0000 </r>
       <r>    -8.3858     0.0000   180.0000 </r>
       <r>    -8.1462     0.0000   180.0000 </r>
       <r>    -7.9066     0.0000   180.0000 </r>
       <r>    -7.6670     0.0205   180.0049 </r>
       <r>    -7.4274    12.1834   182.9242 </r>
       <r>    -7.1878    28.9643   189.8644 </r>
       <r>    -6.9481    60.1810   204.2845 </r>
       <r>    -6.7085    45.7982   215.2583 </r>
       <r>    -6.4689     3.0955   216.0000 </r>
       <r>    -6.2293     0.0000   216.0000 </r>
       <r>    -5.9897     0.0000   216.0000 </r>
       <r>    -5.7501     0.0000   216.0000 </r>
       <r>    -5.5105     0.0000   216.0000 </r>
       <r>    -5.2709     0.0000   216.0000 </r>
       <r>    -5.0312     0.0000   216.0000 </r>
       <r>    -4.7916     0.0000   216.0000 </r>
       <r>    -4.5520     0.0000   216.0000 </r>
       <r>    -4.3124     0.0000   216.0000 </r>
       <r>    -4.0728     0.0000   216.0000 </r>
       <r>    -3.8332     0.0000   216.0000 </r>
       <r>    -3.5936     0.0000   216.0000 </r>
       <r>    -3.3540     0.0000   216.0000 </r>
       <r>    -3.1143     0.0000   216.0000 </r>
       <r>    -2.8747     0.0000   216.0000 </r>
       <r>    -2.6351     0.0000   216.0000 </r>
       <r>    -2.3955     0.0000   216.0000 </r>
       <r>    -2.1559     0.0000   216.0000 </r>
       <r>    -1.9163     0.0000   216.0000 </r>
       <r>    -1.6767     0.0000   216.0000 </r>
       <r>    -1.4371     0.0000   216.0000 </r>
       <r>    -1.1975     0.1044   216.0250 </r>
       <r>    -0.9578     4.4428   217.0895 </r>
       <r>    -0.7182    14.2287   220.4989 </r>
       <r>    -0.4786    15.3997   224.1889 </r>
       <r>    -0.2390    19.8561   228.9466 </r>
       <r>     0.0006    41.1835   238.8147 </r>
       <r>     0.2402    33.9416   246.9475 </r>
       <r>     0.4798    42.3388   257.0924 </r>
       <r>     0.7194    33.5449   265.1301 </r>
       <r>     0.9591    53.4362   277.9341 </r>
       <r>     1.1987    60.1125   292.3377 </r>
       <r>     1.4383    44.4296   302.9836 </r>
       <r>     1.6779    39.8446   312.5308 </r>
       <r>     1.9175    38.5536   321.7687 </r>
       <r>     2.1571    37.2959   330.7053 </r>
       <r>     2.3967    38.3482   339.8940 </r>
       <r>     2.6363    49.8733   351.8442 </r>
       <r>     2.8759    62.6693   366.8605 </r>
       <r>     3.1156    58.8039   380.9506 </r>
       <r>     3.3552    47.5535   392.3450 </r>
       <r>     3.5948    30.3447   399.6160 </r>
       <r>     3.8344    61.9808   414.4673 </r>
       <r>     4.0740    71.9135   431.6986 </r>
       <r>     4.3136     1.2578   432.0000 </r>
       <r>     4.5532     0.0000   432.0000 </r>
       <r>     4.7928     0.0000   432.0000 </r>
       <r>     5.0325     0.0000   432.0000 </r>
       <r>     5.2721     0.0000   432.0000 </r>
       <r>     5.5117     0.0000   432.0000 </r>
       <r>     5.7513     0.0000   432.0000 </r>
       <r>     5.9909     0.0000   432.0000 </r>
       <r>     6.2305     0.1580   432.0379 </r>
       <r>     6.4701     8.3441   434.0372 </r>
       <r>     6.7097    30.5327   441.3532 </r>
       <r>     6.9493    43.8052   451.8494 </r>
       <r>     7.1890    73.7241   469.5146 </r>
       <r>     7.4286    80.6124   488.8303 </r>
       <r>     7.6682    65.4434   504.5113 </r>
       <r>     7.9078    87.8712   525.5663 </r>
       <r>     8.1474    70.9735   542.5724 </r>
       <r>     8.3870    54.1393   555.5448 </r>
       <r>     8.6266    37.3011   564.4826 </r>
       <r>     8.8662    38.8212   573.7846 </r>
       <r>     9.1059    19.1169   578.3653 </r>
       <r>     9.3455    14.1089   581.7459 </r>
       <r>     9.5851    20.5898   586.6795 </r>
       <r>     9.8247    30.1094   593.8941 </r>
       <r>    10.0643    26.5556   600.2571 </r>
       <r>    10.3039    35.0298   608.6506 </r>
       <r>    10.5435    35.1180   617.0653 </r>
       <r>    10.7831    28.0326   623.7823 </r>
       <r>    11.0227    22.2191   629.1062 </r>
       <r>    11.2624    21.7827   634.3256 </r>
       <r>    11.5020    32.3543   642.0781 </r>
       <r>    11.7416    38.6900   651.3487 </r>
       <r>    11.9812    42.7584   661.5941 </r>
       <r>    12.2208    52.1128   674.0809 </r>
       <r>    12.4604    46.5981   685.2464 </r>
       <r>    12.7000    35.9468   693.8597 </r>
       <r>    12.9396    41.3519   703.7681 </r>
       <r>    13.1793    39.4943   713.2314 </r>
       <r>    13.4189    34.3125   721.4531 </r>
       <r>    13.6585    23.5074   727.0857 </r>
       <r>    13.8981     3.8157   728.0000 </r>
       <r>    14.1377     0.0000   728.0000 </r>
       <r>    14.3773     0.0000   728.0000 </r>
       <r>    14.6169     0.0000   728.0000 </r>
       <r>    14.8565     0.0000   728.0000 </r>
       <r>    15.0962     0.0000   728.0000 </r>
       <r>    15.3358     0.0000   728.0000 </r>
       <r>    15.5754     0.0000   728.0000 </r>
       <r>    15.8150     0.0000   728.0000 </r>
       <r>    16.0546     0.0000   728.0000 </r>
       <r>    16.2942     0.0000   728.0000 </r>
       <r>    16.5338     0.0000   728.0000 </r>
       <r>    16.7734     0.0000   728.0000 </r>
       <r>    17.0130     0.0000   728.0000 </r>
      </set>
     </set>
    </array>
   </total>
  </dos>
 </calculation>
 <structure name="finalpos" >
  <crystal>
   <varray name="basis" >
    <v>      15.21162830       0.00516956      -2.78361592 </v>
    <v>      -0.40798665      11.93565774      -2.20735884 </v>
    <v>      -0.06175567      -0.11168197      10.54442638 </v>
   </varray>
   <i name="volume">   1908.54869108 </i>
   <varray name="rec_basis" >
    <v>       0.06581343       0.00232549       0.00041008 </v>
    <v>       0.00013433       0.08395174       0.00088997 </v>
    <v>       0.01740216       0.01818827       0.09513139 </v>
   </varray>
  </crystal>
  <varray name="positions" >
   <v>       0.47527516       0.00074367       0.00446200 </v>
   <v>       0.97527516       0.00074367       0.00446200 </v>
   <v>       0.47527516       0.33407700       0.00446200 </v>
   <v>       0.97527516       0.33407700       0.00446200 </v>
   <v>       0.47527516       0.66741034       0.00446200 </v>
   <v>       0.97527516       0.66741034       0.00446200 </v>
   <v>       0.27472484       0.33258966       0.99553800 </v>
   <v>       0.77472484       0.33258966       0.99553800 </v>
   <v>       0.27472484       0.66592300       0.99553800 </v>
   <v>       0.77472484       0.66592300       0.99553800 </v>
   <v>       0.27472484       0.99925633       0.99553800 </v>
   <v>       0.77472484       0.99925633       0.99553800 </v>
   <v>       0.17788805       0.26797179       0.60783074 </v>
   <v>       0.67788805       0.26797179       0.60783074 </v>
   <v>       0.17788805       0.60130513       0.60783074 </v>
   <v>       0.67788805       0.60130513       0.60783074 </v>
   <v>       0.17788805       0.93463846       0.60783074 </v>
   <v>       0.67788805       0.93463846       0.60783074 </v>
   <v>       0.07211195       0.06536154       0.39216926 </v>
   <v>       0.57211195       0.06536154       0.39216926 </v>
   <v>       0.07211195       0.39869487       0.39216926 </v>
   <v>       0.57211195       0.39869487       0.39216926 </v>
   <v>       0.07211195       0.73202821       0.39216926 </v>
   <v>       0.57211195       0.73202821       0.39216926 </v>
   <v>       0.10733875       0.30765571       0.84593428 </v>
   <v>       0.60733875       0.30765571       0.84593428 </v>
   <v>       0.10733875       0.64098905       0.84593428 </v>
   <v>       0.60733875       0.64098905       0.84593428 </v>
   <v>       0.10733875       0.97432238       0.84593428 </v>
   <v>       0.60733875       0.97432238       0.84593428 </v>
   <v>       0.34464416       0.29539312       0.77235872 </v>
   <v>       0.84464416       0.29539312       0.77235872 </v>
   <v>       0.34464416       0.62872645       0.77235872 </v>
   <v>       0.84464416       0.62872645       0.77235872 </v>
   <v>       0.34464416       0.96205979       0.77235872 </v>
   <v>       0.84464416       0.96205979       0.77235872 </v>
   <v>       0.14266125       0.02567762       0.15406572 </v>
   <v>       0.64266125       0.02567762       0.15406572 </v>
   <v>       0.14266125       0.35901095       0.15406572 </v>
   <v>       0.64266125       0.35901095       0.15406572 </v>
   <v>       0.14266125       0.69234429       0.15406572 </v>
   <v>       0.64266125       0.69234429       0.15406572 </v>
   <v>       0.40535584       0.03794021       0.22764128 </v>
   <v>       0.90535584       0.03794021       0.22764128 </v>
   <v>       0.40535584       0.37127355       0.22764128 </v>
   <v>       0.90535584       0.37127355       0.22764128 </v>
   <v>       0.40535584       0.70460688       0.22764128 </v>
   <v>       0.90535584       0.70460688       0.22764128 </v>
   <v>       0.46517249       0.26691416       0.60148498 </v>
   <v>       0.96517249       0.26691416       0.60148498 </v>
   <v>       0.46517249       0.60024750       0.60148498 </v>
   <v>       0.96517249       0.60024750       0.60148498 </v>
   <v>       0.46517249       0.93358083       0.60148498 </v>
   <v>       0.96517249       0.93358083       0.60148498 </v>
   <v>       0.28482751       0.06641917       0.39851502 </v>
   <v>       0.78482751       0.06641917       0.39851502 </v>
   <v>       0.28482751       0.39975250       0.39851502 </v>
   <v>       0.78482751       0.39975250       0.39851502 </v>
   <v>       0.28482751       0.73308584       0.39851502 </v>
   <v>       0.78482751       0.73308584       0.39851502 </v>
   <v>       0.22447416       0.13353711       0.80122268 </v>
   <v>       0.72447416       0.13353711       0.80122268 </v>
   <v>       0.22447416       0.46687045       0.80122268 </v>
   <v>       0.72447416       0.46687045       0.80122268 </v>
   <v>       0.22447416       0.80020378       0.80122268 </v>
   <v>       0.72447416       0.80020378       0.80122268 </v>
   <v>       0.47796479       0.13582521       0.81495126 </v>
   <v>       0.97796479       0.13582521       0.81495126 </v>
   <v>       0.47796479       0.46915854       0.81495126 </v>
   <v>       0.97796479       0.46915854       0.81495126 </v>
   <v>       0.47796479       0.80249188       0.81495126 </v>
   <v>       0.97796479       0.80249188       0.81495126 </v>
   <v>       0.02552584       0.19979622       0.19877732 </v>
   <v>       0.52552584       0.19979622       0.19877732 </v>
   <v>       0.02552584       0.53312955       0.19877732 </v>
   <v>       0.52552584       0.53312955       0.19877732 </v>
   <v>       0.02552584       0.86646289       0.19877732 </v>
   <v>       0.52552584       0.86646289       0.19877732 </v>
   <v>       0.27203521       0.19750812       0.18504874 </v>
   <v>       0.77203521       0.19750812       0.18504874 </v>
   <v>       0.27203521       0.53084146       0.18504874 </v>
   <v>       0.77203521       0.53084146       0.18504874 </v>
   <v>       0.27203521       0.86417479       0.18504874 </v>
   <v>       0.77203521       0.86417479       0.18504874 </v>
   <v>       0.12500000       0.16666667       0.00000000 </v>
   <v>       0.62500000       0.16666667       0.00000000 </v>
   <v>       0.12500000       0.50000000       0.00000000 </v>
   <v>       0.62500000       0.50000000       0.00000000 </v>
   <v>       0.12500000       0.83333333       0.00000000 </v>
   <v>       0.62500000       0.83333333       0.00000000 </v>
   <v>       0.37500000       0.16666667       0.00000000 </v>
   <v>       0.87500000       0.16666667       0.00000000 </v>
   <v>       0.37500000       0.50000000       0.00000000 </v>
   <v>       0.87500000       0.50000000       0.00000000 </v>
   <v>       0.37500000       0.83333333       0.00000000 </v>
   <v>       0.87500000       0.83333333       0.00000000 </v>
   <v>       0.17614737       0.22809805       0.36953660 </v>
   <v>       0.67614737       0.22809805       0.36858830 </v>
   <v>       0.17614737       0.56143138       0.36858830 </v>
   <v>       0.67614737       0.56143138       0.36858830 </v>
   <v>       0.17614737       0.89476472       0.36858830 </v>
   <v>       0.67614737       0.89476472       0.36858830 </v>
   <v>       0.41542106       0.22793643       0.36761855 </v>
   <v>       0.91542106       0.22793643       0.36761855 </v>
   <v>       0.41542106       0.56126976       0.36761855 </v>
   <v>       0.91542106       0.56126976       0.36761855 </v>
   <v>       0.41542106       0.89460309       0.36761855 </v>
   <v>       0.91542106       0.89460309       0.36761855 </v>
   <v>       0.07385263       0.10523528       0.63141170 </v>
   <v>       0.57385263       0.10523528       0.63141170 </v>
   <v>       0.07385263       0.43856862       0.63141170 </v>
   <v>       0.57385263       0.43856862       0.63141170 </v>
   <v>       0.07385263       0.77190195       0.63141170 </v>
   <v>       0.57385263       0.77190195       0.63141170 </v>
   <v>       0.33457894       0.10539691       0.63238145 </v>
   <v>       0.83457894       0.10539691       0.63238145 </v>
   <v>       0.33457894       0.43873024       0.63238145 </v>
   <v>       0.83457894       0.43873024       0.63238145 </v>
   <v>       0.33457894       0.77206357       0.63238145 </v>
   <v>       0.83457894       0.77206357       0.63238145 </v>
   <v>       0.22527003       0.30093342       0.80560053 </v>
   <v>       0.72527003       0.30093342       0.80560053 </v>
   <v>       0.22527003       0.63426676       0.80560053 </v>
   <v>       0.72527003       0.63426676       0.80560053 </v>
   <v>       0.22527003       0.96760009       0.80560053 </v>
   <v>       0.72527003       0.96760009       0.80560053 </v>
   <v>       0.47618324       0.30143353       0.80860116 </v>
   <v>       0.97618324       0.30143353       0.80860116 </v>
   <v>       0.47618324       0.63476686       0.80860116 </v>
   <v>       0.97618324       0.63476686       0.80860116 </v>
   <v>       0.47618324       0.96810019       0.80860116 </v>
   <v>       0.97618324       0.96810019       0.80860116 </v>
   <v>       0.02472997       0.03239991       0.19439947 </v>
   <v>       0.52472997       0.03239991       0.19439947 </v>
   <v>       0.02472997       0.36573324       0.19439947 </v>
   <v>       0.52472997       0.36573324       0.19439947 </v>
   <v>       0.02472997       0.69906658       0.19439947 </v>
   <v>       0.52472997       0.69906658       0.19439947 </v>
   <v>       0.27381676       0.03189981       0.19139884 </v>
   <v>       0.77381676       0.03189981       0.19139884 </v>
   <v>       0.27381676       0.36523314       0.19139884 </v>
   <v>       0.77381676       0.36523314       0.19139884 </v>
   <v>       0.27381676       0.69856647       0.19139884 </v>
   <v>       0.77381676       0.69856647       0.19139884 </v>
  </varray>
 </structure>
</modeling>
