  224  224    1    2
  0.1357572E+02  0.1537960E-08  0.1537962E-08  0.1395899E-08  0.5000000E-15
  1.000000000000000E-004
  CAR 
 unknown system                          
   1664      8   1208
 
  0.0000000E+00  0.0000000E+00  0.0000000E+00  0.1250000E+00
    1      -51.142247    -46.391620   1.000000   1.000000
    2      -51.141923    -46.391141   1.000000   1.000000
    3      -51.141875    -46.391018   1.000000   1.000000
    4      -51.141723    -46.390973   1.000000   1.000000
    5      -51.141592    -46.390690   1.000000   1.000000
    6      -51.141480    -46.390670   1.000000   1.000000
    7      -51.141348    -46.390583   1.000000   1.000000
    8      -51.141328    -46.390441   1.000000   1.000000
    9      -51.141305    -46.390396   1.000000   1.000000
   10      -51.141258    -46.390357   1.000000   1.000000
   11      -51.141150    -46.390313   1.000000   1.000000
   12      -51.141117    -46.390253   1.000000   1.000000
   13      -51.141086    -46.390146   1.000000   1.000000
   14      -51.141002    -46.390098   1.000000   1.000000
   15      -51.140945    -46.390066   1.000000   1.000000
   16      -51.140900    -46.389986   1.000000   1.000000
   17      -51.140892    -46.389978   1.000000   1.000000
   18      -51.140857    -46.389880   1.000000   1.000000
   19      -51.140777    -46.389803   1.000000   1.000000
   20      -51.140747    -46.389703   1.000000   1.000000
   21      -51.140663    -46.389666   1.000000   1.000000
   22      -51.140655    -46.389626   1.000000   1.000000
   23      -51.140599    -46.389585   1.000000   1.000000
   24      -51.140551    -46.389575   1.000000   1.000000
   25      -51.140543    -46.389566   1.000000   1.000000
   26      -51.140528    -46.389549   1.000000   1.000000
   27      -51.140512    -46.389537   1.000000   1.000000
   28      -51.140509    -46.389482   1.000000   1.000000
   29      -51.140479    -46.389449   1.000000   1.000000
   30      -51.140431    -46.389390   1.000000   1.000000
   31      -51.140395    -46.389355   1.000000   1.000000
   32      -51.140387    -46.389221   1.000000   1.000000
   33      -51.140286    -46.389132   1.000000   1.000000
   34      -51.140256    -46.389100   1.000000   1.000000
   35      -51.140233    -46.389085   1.000000   1.000000
   36      -51.140154    -46.388990   1.000000   1.000000
   37      -51.140135    -46.388951   1.000000   1.000000
   38      -51.140101    -46.388901   1.000000   1.000000
   39      -51.140088    -46.388881   1.000000   1.000000
   40      -51.140075    -46.388824   1.000000   1.000000
   41      -51.140067    -46.388823   1.000000   1.000000
   42      -51.140058    -46.388795   1.000000   1.000000
   43      -51.140023    -46.388788   1.000000   1.000000
   44      -51.140019    -46.388772   1.000000   1.000000
   45      -51.139902    -46.388728   1.000000   1.000000
   46      -51.139878    -46.388674   1.000000   1.000000
   47      -51.139833    -46.388623   1.000000   1.000000
   48      -51.139820    -46.388536   1.000000   1.000000
   49      -51.139772    -46.388482   1.000000   1.000000
   50      -51.139733    -46.388420   1.000000   1.000000
   51      -51.139681    -46.388361   1.000000   1.000000
   52      -51.139617    -46.388321   1.000000   1.000000
   53      -51.139585    -46.388283   1.000000   1.000000
   54      -51.139555    -46.388212   1.000000   1.000000
   55      -51.139469    -46.388206   1.000000   1.000000
   56      -51.139445    -46.388127   1.000000   1.000000
   57      -51.139399    -46.388011   1.000000   1.000000
   58      -51.139313    -46.387997   1.000000   1.000000
   59      -51.139254    -46.387926   1.000000   1.000000
   60      -51.139107    -46.387799   1.000000   1.000000
   61      -51.139036    -46.387623   1.000000   1.000000
   62      -51.138896    -46.387556   1.000000   1.000000
   63      -51.138832    -46.387481   1.000000   1.000000
   64      -51.138478    -46.386994   1.000000   1.000000
   65      -49.648410    -45.929646   1.000000   1.000000
   66      -49.648311    -45.929552   1.000000   1.000000
   67      -49.648046    -45.929522   1.000000   1.000000
   68      -49.647867    -45.929427   1.000000   1.000000
   69      -49.647692    -45.929253   1.000000   1.000000
   70      -49.647656    -45.929095   1.000000   1.000000
   71      -49.647577    -45.929075   1.000000   1.000000
   72      -49.647536    -45.928977   1.000000   1.000000
   73      -49.647511    -45.928946   1.000000   1.000000
   74      -49.647393    -45.928904   1.000000   1.000000
   75      -49.647379    -45.928879   1.000000   1.000000
   76      -49.647365    -45.928855   1.000000   1.000000
   77      -49.647325    -45.928733   1.000000   1.000000
   78      -49.647306    -45.928680   1.000000   1.000000
   79      -49.647283    -45.928668   1.000000   1.000000
   80      -49.647241    -45.928660   1.000000   1.000000
   81      -49.647232    -45.928639   1.000000   1.000000
   82      -49.647220    -45.928604   1.000000   1.000000
   83      -49.647210    -45.928556   1.000000   1.000000
   84      -49.647175    -45.928517   1.000000   1.000000
   85      -49.647107    -45.928461   1.000000   1.000000
   86      -49.647091    -45.928409   1.000000   1.000000
   87      -49.647050    -45.928400   1.000000   1.000000
   88      -49.647012    -45.928384   1.000000   1.000000
   89      -49.647003    -45.928359   1.000000   1.000000
   90      -49.646970    -45.928331   1.000000   1.000000
   91      -49.646963    -45.928287   1.000000   1.000000
   92      -49.646938    -45.928258   1.000000   1.000000
   93      -49.646910    -45.928228   1.000000   1.000000
   94      -49.646861    -45.928213   1.000000   1.000000
   95      -49.646708    -45.928176   1.000000   1.000000
   96      -49.646704    -45.928161   1.000000   1.000000
   97      -49.646649    -45.928057   1.000000   1.000000
   98      -49.646628    -45.928041   1.000000   1.000000
   99      -49.646597    -45.928010   1.000000   1.000000
  100      -49.646567    -45.927987   1.000000   1.000000
  101      -49.646535    -45.927930   1.000000   1.000000
  102      -49.646509    -45.927927   1.000000   1.000000
  103      -49.646406    -45.927902   1.000000   1.000000
  104      -49.646375    -45.927889   1.000000   1.000000
  105      -49.646325    -45.927824   1.000000   1.000000
  106      -49.646286    -45.927804   1.000000   1.000000
  107      -49.646280    -45.927761   1.000000   1.000000
  108      -49.646269    -45.927729   1.000000   1.000000
  109      -49.646251    -45.927677   1.000000   1.000000
  110      -49.646240    -45.927615   1.000000   1.000000
  111      -49.646190    -45.927614   1.000000   1.000000
  112      -49.646147    -45.927606   1.000000   1.000000
  113      -49.646107    -45.927555   1.000000   1.000000
  114      -49.646059    -45.927527   1.000000   1.000000
  115      -49.646030    -45.927487   1.000000   1.000000
  116      -49.646011    -45.927452   1.000000   1.000000
  117      -49.645974    -45.927443   1.000000   1.000000
  118      -49.645936    -45.927411   1.000000   1.000000
  119      -49.645929    -45.927399   1.000000   1.000000
  120      -49.645859    -45.927387   1.000000   1.000000
  121      -49.645823    -45.927355   1.000000   1.000000
  122      -49.645790    -45.927351   1.000000   1.000000
  123      -49.645787    -45.927319   1.000000   1.000000
  124      -49.645747    -45.927300   1.000000   1.000000
  125      -49.645651    -45.927224   1.000000   1.000000
  126      -49.645638    -45.927183   1.000000   1.000000
  127      -49.645580    -45.927153   1.000000   1.000000
  128      -49.645560    -45.927124   1.000000   1.000000
  129      -49.645548    -45.927120   1.000000   1.000000
  130      -49.645528    -45.927100   1.000000   1.000000
  131      -49.645496    -45.927089   1.000000   1.000000
  132      -49.645484    -45.927055   1.000000   1.000000
  133      -49.645425    -45.927050   1.000000   1.000000
  134      -49.645412    -45.927017   1.000000   1.000000
  135      -49.645396    -45.926975   1.000000   1.000000
  136      -49.645384    -45.926953   1.000000   1.000000
  137      -49.645370    -45.926947   1.000000   1.000000
  138      -49.645353    -45.926903   1.000000   1.000000
  139      -49.645305    -45.926877   1.000000   1.000000
  140      -49.645240    -45.926843   1.000000   1.000000
  141      -49.645239    -45.926825   1.000000   1.000000
  142      -49.645190    -45.926797   1.000000   1.000000
  143      -49.645186    -45.926755   1.000000   1.000000
  144      -49.645165    -45.926737   1.000000   1.000000
  145      -49.645145    -45.926715   1.000000   1.000000
  146      -49.645119    -45.926702   1.000000   1.000000
  147      -49.645073    -45.926668   1.000000   1.000000
  148      -49.645058    -45.926654   1.000000   1.000000
  149      -49.645055    -45.926634   1.000000   1.000000
  150      -49.644997    -45.926617   1.000000   1.000000
  151      -49.644891    -45.926604   1.000000   1.000000
  152      -49.644873    -45.926588   1.000000   1.000000
  153      -49.644862    -45.926567   1.000000   1.000000
  154      -49.644795    -45.926553   1.000000   1.000000
  155      -49.644767    -45.926532   1.000000   1.000000
  156      -49.644756    -45.926504   1.000000   1.000000
  157      -49.644687    -45.926479   1.000000   1.000000
  158      -49.644670    -45.926449   1.000000   1.000000
  159      -49.644644    -45.926433   1.000000   1.000000
  160      -49.644597    -45.926409   1.000000   1.000000
  161      -49.644568    -45.926383   1.000000   1.000000
  162      -49.644556    -45.926337   1.000000   1.000000
  163      -49.644534    -45.926326   1.000000   1.000000
  164      -49.644503    -45.926290   1.000000   1.000000
  165      -49.644484    -45.926241   1.000000   1.000000
  166      -49.644466    -45.926208   1.000000   1.000000
  167      -49.644414    -45.926191   1.000000   1.000000
  168      -49.644375    -45.926178   1.000000   1.000000
  169      -49.644322    -45.926165   1.000000   1.000000
  170      -49.644278    -45.926144   1.000000   1.000000
  171      -49.644266    -45.926112   1.000000   1.000000
  172      -49.644226    -45.926089   1.000000   1.000000
  173      -49.644200    -45.926031   1.000000   1.000000
  174      -49.644174    -45.926011   1.000000   1.000000
  175      -49.644136    -45.925990   1.000000   1.000000
  176      -49.644098    -45.925966   1.000000   1.000000
  177      -49.644079    -45.925836   1.000000   1.000000
  178      -49.644070    -45.925779   1.000000   1.000000
  179      -49.644008    -45.925753   1.000000   1.000000
  180      -49.643988    -45.925706   1.000000   1.000000
  181      -49.643941    -45.925692   1.000000   1.000000
  182      -49.643872    -45.925658   1.000000   1.000000
  183      -49.643819    -45.925619   1.000000   1.000000
  184      -49.643741    -45.925559   1.000000   1.000000
  185      -49.643657    -45.925538   1.000000   1.000000
  186      -49.643594    -45.925498   1.000000   1.000000
  187      -49.643457    -45.925474   1.000000   1.000000
  188      -49.643391    -45.925425   1.000000   1.000000
  189      -49.643357    -45.925243   1.000000   1.000000
  190      -49.643295    -45.925048   1.000000   1.000000
  191      -49.642975    -45.924975   1.000000   1.000000
  192      -49.642772    -45.924838   1.000000   1.000000
  193      -39.643637    -39.642772   1.000000   1.000000
  194      -39.641045    -39.640128   1.000000   1.000000
  195      -39.638054    -39.637189   1.000000   1.000000
  196      -39.633550    -39.632677   1.000000   1.000000
  197      -39.633436    -39.632563   1.000000   1.000000
  198      -39.633435    -39.632562   1.000000   1.000000
  199      -39.633389    -39.632516   1.000000   1.000000
  200      -39.633355    -39.632482   1.000000   1.000000
  201      -39.633350    -39.632477   1.000000   1.000000
  202      -39.632500    -39.631631   1.000000   1.000000
  203      -39.629769    -39.628928   1.000000   1.000000
  204      -39.627923    -39.627085   1.000000   1.000000
  205      -39.627791    -39.626953   1.000000   1.000000
  206      -39.627765    -39.626927   1.000000   1.000000
  207      -39.627754    -39.626915   1.000000   1.000000
  208      -39.627697    -39.626858   1.000000   1.000000
  209      -39.627656    -39.626818   1.000000   1.000000
  210      -39.626294    -39.625458   1.000000   1.000000
  211      -39.621007    -39.620228   1.000000   1.000000
  212      -39.616544    -39.615769   1.000000   1.000000
  213      -39.616264    -39.615494   1.000000   1.000000
  214      -39.616091    -39.615315   1.000000   1.000000
  215      -39.615966    -39.615189   1.000000   1.000000
  216      -39.615803    -39.615028   1.000000   1.000000
  217      -39.615611    -39.614830   1.000000   1.000000
  218      -39.615583    -39.614803   1.000000   1.000000
  219      -39.615518    -39.614745   1.000000   1.000000
  220      -39.615324    -39.614553   1.000000   1.000000
  221      -39.615284    -39.614513   1.000000   1.000000
  222      -39.615227    -39.614459   1.000000   1.000000
  223      -39.615211    -39.614442   1.000000   1.000000
  224      -39.615162    -39.614394   1.000000   1.000000
  225      -39.615158    -39.614390   1.000000   1.000000
  226      -39.615144    -39.614377   1.000000   1.000000
  227      -39.614993    -39.614224   1.000000   1.000000
  228      -39.614992    -39.614223   1.000000   1.000000
  229      -39.614968    -39.614200   1.000000   1.000000
  230      -39.614864    -39.614097   1.000000   1.000000
  231      -39.614857    -39.614090   1.000000   1.000000
  232      -39.614839    -39.614070   1.000000   1.000000
  233      -39.614502    -39.613732   1.000000   1.000000
  234      -39.614379    -39.613616   1.000000   1.000000
  235      -39.614332    -39.613573   1.000000   1.000000
  236      -39.614232    -39.613474   1.000000   1.000000
  237      -39.613799    -39.613035   1.000000   1.000000
  238      -39.609813    -39.609046   1.000000   1.000000
  239      -39.605291    -39.604569   1.000000   1.000000
  240      -39.603887    -39.603168   1.000000   1.000000
  241      -39.603870    -39.603151   1.000000   1.000000
  242      -39.603805    -39.603086   1.000000   1.000000
  243      -39.603794    -39.603074   1.000000   1.000000
  244      -39.603777    -39.603057   1.000000   1.000000
  245      -39.603698    -39.602978   1.000000   1.000000
  246      -39.602204    -39.601485   1.000000   1.000000
  247      -39.600317    -39.599609   1.000000   1.000000
  248      -39.599596    -39.598890   1.000000   1.000000
  249      -39.599589    -39.598883   1.000000   1.000000
  250      -39.599570    -39.598864   1.000000   1.000000
  251      -39.599511    -39.598805   1.000000   1.000000
  252      -39.599508    -39.598802   1.000000   1.000000
  253      -39.599403    -39.598697   1.000000   1.000000
  254      -39.595189    -39.594484   1.000000   1.000000
  255      -39.593281    -39.592598   1.000000   1.000000
  256      -39.589409    -39.588669   1.000000   1.000000
  257      -12.747203    -12.467735   1.000000   1.000000
  258      -12.747182    -12.467712   1.000000   1.000000
  259      -12.719734    -12.439995   1.000000   1.000000
  260      -12.719377    -12.439617   1.000000   1.000000
  261      -12.719366    -12.439606   1.000000   1.000000
  262      -12.719332    -12.439581   1.000000   1.000000
  263      -12.719313    -12.439563   1.000000   1.000000
  264      -12.719267    -12.439523   1.000000   1.000000
  265      -12.719244    -12.439500   1.000000   1.000000
  266      -12.718939    -12.439177   1.000000   1.000000
  267      -12.697217    -12.417046   1.000000   1.000000
  268      -12.697146    -12.416974   1.000000   1.000000
  269      -12.694891    -12.415283   1.000000   1.000000
  270      -12.694754    -12.415146   1.000000   1.000000
  271      -12.694731    -12.415123   1.000000   1.000000
  272      -12.694668    -12.415059   1.000000   1.000000
  273      -12.692449    -12.413367   1.000000   1.000000
  274      -12.692322    -12.413273   1.000000   1.000000
  275      -12.691244    -12.411211   1.000000   1.000000
  276      -12.691238    -12.411208   1.000000   1.000000
  277      -12.691231    -12.411196   1.000000   1.000000
  278      -12.691070    -12.411074   1.000000   1.000000
  279      -12.672969    -12.392960   1.000000   1.000000
  280      -12.672667    -12.392650   1.000000   1.000000
  281      -12.672649    -12.392636   1.000000   1.000000
  282      -12.672362    -12.392350   1.000000   1.000000
  283      -12.667882    -12.388989   1.000000   1.000000
  284      -12.667598    -12.388705   1.000000   1.000000
  285      -12.667580    -12.388692   1.000000   1.000000
  286      -12.667267    -12.388369   1.000000   1.000000
  287      -12.654507    -12.374554   1.000000   1.000000
  288      -12.643733    -12.366008   1.000000   1.000000
  289       -7.800027     -7.599028   1.000000   1.000000
  290       -7.748235     -7.551513   1.000000   1.000000
  291       -7.505813     -7.319563   1.000000   1.000000
  292       -7.505406     -7.319152   1.000000   1.000000
  293       -7.505321     -7.319064   1.000000   1.000000
  294       -7.504929     -7.318658   1.000000   1.000000
  295       -7.501287     -7.309168   1.000000   1.000000
  296       -7.500997     -7.308856   1.000000   1.000000
  297       -7.500870     -7.308733   1.000000   1.000000
  298       -7.500565     -7.308412   1.000000   1.000000
  299       -7.315184     -7.117729   1.000000   1.000000
  300       -7.315132     -7.117680   1.000000   1.000000
  301       -7.296851     -7.093568   1.000000   1.000000
  302       -7.296820     -7.093538   1.000000   1.000000
  303       -7.296806     -7.093521   1.000000   1.000000
  304       -7.296768     -7.093488   1.000000   1.000000
  305       -7.269240     -7.061939   1.000000   1.000000
  306       -7.269225     -7.061929   1.000000   1.000000
  307       -7.088674     -6.893860   1.000000   1.000000
  308       -7.084673     -6.893845   1.000000   1.000000
  309       -7.084657     -6.893838   1.000000   1.000000
  310       -7.084628     -6.893829   1.000000   1.000000
  311       -7.084593     -6.796734   1.000000   1.000000
  312       -7.046572     -6.783806   1.000000   1.000000
  313       -7.000631     -6.767934   1.000000   1.000000
  314       -6.999851     -6.767920   1.000000   1.000000
  315       -6.999833     -6.767895   1.000000   1.000000
  316       -6.999807     -6.767891   1.000000   1.000000
  317       -6.999768     -6.766977   1.000000   1.000000
  318       -6.999696     -6.766150   1.000000   1.000000
  319       -6.999687     -6.766138   1.000000   1.000000
  320       -6.998963     -6.766095   1.000000   1.000000
  321       -6.994541     -6.766085   1.000000   1.000000
  322       -6.994202     -6.766009   1.000000   1.000000
  323       -6.994095     -6.765997   1.000000   1.000000
  324       -6.993744     -6.765214   1.000000   1.000000
  325       -6.955787     -6.745291   1.000000   1.000000
  326       -6.955766     -6.744924   1.000000   1.000000
  327       -6.955757     -6.744819   1.000000   1.000000
  328       -6.955736     -6.744431   1.000000   1.000000
  329       -6.948327     -6.697467   1.000000   1.000000
  330       -6.948303     -6.697434   1.000000   1.000000
  331       -6.929000     -6.689470   1.000000   1.000000
  332       -6.928663     -6.689123   1.000000   1.000000
  333       -6.928569     -6.689022   1.000000   1.000000
  334       -6.928208     -6.688657   1.000000   1.000000
  335       -6.911316     -6.640040   1.000000   1.000000
  336       -6.911295     -6.639307   1.000000   1.000000
  337       -6.885680     -6.639117   1.000000   1.000000
  338       -6.885666     -6.639098   1.000000   1.000000
  339       -6.885640     -6.639037   1.000000   1.000000
  340       -6.885629     -6.638974   1.000000   1.000000
  341       -6.877632     -6.638966   1.000000   1.000000
  342       -6.876878     -6.638625   1.000000   1.000000
  343       -6.876875     -6.638366   1.000000   1.000000
  344       -6.876811     -6.638331   1.000000   1.000000
  345       -6.876775     -6.638078   1.000000   1.000000
  346       -6.876737     -6.637754   1.000000   1.000000
  347       -6.876732     -6.628071   1.000000   1.000000
  348       -6.875952     -6.628053   1.000000   1.000000
  349       -6.832596     -6.586632   1.000000   1.000000
  350       -6.832586     -6.586625   1.000000   1.000000
  351       -6.794268     -6.499090   1.000000   1.000000
  352       -6.794248     -6.499071   1.000000   1.000000
  353       -1.525512     -0.414583   1.000000   1.000000
  354       -1.467841     -0.414566   1.000000   1.000000
  355       -1.467721     -0.414459   1.000000   1.000000
  356       -1.467611     -0.414439   1.000000   1.000000
  357       -1.467500      0.026135   1.000000   1.000000
  358       -1.460329      0.026292   1.000000   1.000000
  359       -1.460315      0.026452   1.000000   1.000000
  360       -1.460189      0.026600   1.000000   1.000000
  361       -1.460142      0.037414   1.000000   1.000000
  362       -1.421467      0.037898   1.000000   1.000000
  363       -1.421251      0.037975   1.000000   1.000000
  364       -1.382840      0.038028   1.000000   1.000000
  365       -1.382805      0.038063   1.000000   1.000000
  366       -1.382730      0.038127   1.000000   1.000000
  367       -1.382706      0.038235   1.000000   1.000000
  368       -1.332922      0.038715   1.000000   1.000000
  369       -1.332656      0.102807   1.000000   1.000000
  370       -1.332613      0.103009   1.000000   1.000000
  371       -1.332528      0.207422   1.000000   1.000000
  372       -1.332473      0.207497   1.000000   1.000000
  373       -1.332376      0.207604   1.000000   1.000000
  374       -1.332339      0.207685   1.000000   1.000000
  375       -1.332050      0.304170   1.000000   1.000000
  376       -1.292723      0.392324   1.000000   1.000000
  377       -1.292550      0.392514   1.000000   1.000000
  378       -1.292397      0.392692   1.000000   1.000000
  379       -1.292220      0.392874   1.000000   1.000000
  380       -1.256791      0.490897   1.000000   1.000000
  381       -1.256782      0.490906   1.000000   1.000000
  382       -1.232219      0.497564   1.000000   1.000000
  383       -1.232111      0.497652   1.000000   1.000000
  384       -1.220379      0.497749   1.000000   1.000000
  385       -0.822761      0.497829   1.000000   1.000000
  386       -0.822733      0.510664   1.000000   1.000000
  387       -0.822663      0.510699   1.000000   1.000000
  388       -0.822628      0.531188   1.000000   1.000000
  389       -0.722684      0.531210   1.000000   1.000000
  390       -0.722613      0.531293   1.000000   1.000000
  391       -0.699141      0.531304   1.000000   1.000000
  392       -0.699121      0.573801   1.000000   1.000000
  393       -0.698961      0.574246   1.000000   1.000000
  394       -0.698952      0.574328   1.000000   1.000000
  395       -0.688464      0.574382   1.000000   1.000000
  396       -0.688428      0.574395   1.000000   1.000000
  397       -0.688197      0.574420   1.000000   1.000000
  398       -0.688154      0.574517   1.000000   1.000000
  399       -0.666691      0.575002   1.000000   1.000000
  400       -0.666681      0.638620   1.000000   1.000000
  401       -0.666472      0.666240   1.000000   1.000000
  402       -0.666326      0.666399   1.000000   1.000000
  403       -0.651972      0.733092   1.000000   1.000000
  404       -0.651910      0.733111   1.000000   1.000000
  405       -0.651828      0.931380   1.000000   1.000000
  406       -0.651709      0.932553   1.000000   1.000000
  407       -0.589466      0.935564   1.000000   1.000000
  408       -0.589356      0.935690   1.000000   1.000000
  409       -0.576636      0.948920   1.000000   1.000000
  410       -0.576575      0.948951   1.000000   1.000000
  411       -0.576509      0.948967   1.000000   1.000000
  412       -0.576442      0.948988   1.000000   1.000000
  413       -0.553424      0.986125   1.000000   1.000000
  414       -0.553376      0.986132   1.000000   1.000000
  415       -0.553144      0.986292   1.000000   1.000000
  416       -0.552870      0.986295   1.000000   1.000000
  417       -0.497623      0.992778   1.000000   1.000000
  418       -0.496871      0.992975   1.000000   1.000000
  419       -0.472903      1.008930   1.000000   1.000000
  420       -0.472677      1.008942   1.000000   1.000000
  421       -0.461581      1.008957   1.000000   1.000000
  422       -0.461541      1.008970   1.000000   1.000000
  423       -0.461261      1.018468   1.000000   1.000000
  424       -0.461119      1.048961   1.000000   1.000000
  425       -0.459822      1.049247   1.000000   1.000000
  426       -0.459729      1.051633   1.000000   1.000000
  427       -0.459428      1.051699   1.000000   1.000000
  428       -0.459321      1.051790   1.000000   1.000000
  429       -0.410039      1.051867   1.000000   1.000000
  430       -0.409980      1.078672   1.000000   1.000000
  431       -0.407699      1.078776   1.000000   1.000000
  432       -0.407559      1.078831   1.000000   1.000000
  433       -0.407445      1.078910   1.000000   1.000000
  434       -0.407383      1.079791   1.000000   1.000000
  435       -0.407362      1.079875   1.000000   1.000000
  436       -0.407315      1.079903   1.000000   1.000000
  437       -0.383354      1.080051   1.000000   1.000000
  438       -0.383217      1.192867   1.000000   1.000000
  439       -0.378170      1.192873   1.000000   1.000000
  440       -0.368856      1.376465   1.000000   1.000000
  441       -0.368846      1.390357   1.000000   1.000000
  442       -0.368790      1.391143   1.000000   1.000000
  443       -0.368711      1.391217   1.000000   1.000000
  444       -0.368653      1.391333   1.000000   1.000000
  445       -0.368634      1.391384   1.000000   1.000000
  446       -0.368594      1.437319   1.000000   1.000000
  447       -0.368493      1.450211   1.000000   1.000000
  448       -0.353585      1.526146   1.000000   1.000000
  449       -0.353497      1.526393   1.000000   1.000000
  450       -0.349048      1.526468   1.000000   1.000000
  451       -0.341784      1.526592   1.000000   1.000000
  452       -0.335832      1.528749   1.000000   1.000000
  453       -0.335789      1.528899   1.000000   1.000000
  454       -0.335391      1.529030   1.000000   1.000000
  455       -0.335351      1.529219   1.000000   1.000000
  456       -0.334193      1.558297   1.000000   1.000000
  457       -0.334180      1.558332   1.000000   1.000000
  458       -0.334052      1.558333   1.000000   1.000000
  459       -0.334040      1.558388   1.000000   1.000000
  460       -0.324311      1.566411   1.000000   1.000000
  461       -0.324205      1.566837   1.000000   1.000000
  462       -0.323892      1.566917   1.000000   1.000000
  463       -0.323805      1.567059   1.000000   1.000000
  464       -0.321646      1.568005   1.000000   1.000000
  465       -0.321637      1.568388   1.000000   1.000000
  466       -0.321202      1.568433   1.000000   1.000000
  467       -0.321174      1.568683   1.000000   1.000000
  468       -0.303837      1.586595   1.000000   1.000000
  469       -0.295916      1.586661   1.000000   1.000000
  470       -0.288104      1.695593   1.000000   1.000000
  471       -0.287907      1.695847   1.000000   1.000000
  472       -0.287794      1.740897   1.000000   1.000000
  473       -0.287586      1.741037   1.000000   1.000000
  474       -0.280404      1.741227   1.000000   1.000000
  475       -0.280370      1.741351   1.000000   1.000000
  476       -0.275070      1.746867   1.000000   1.000000
  477       -0.275062      1.746870   1.000000   1.000000
  478       -0.274822      1.746904   1.000000   1.000000
  479       -0.274801      1.746908   1.000000   1.000000
  480       -0.241760      1.779044   1.000000   1.000000
  481       -0.241663      1.780550   1.000000   1.000000
  482       -0.241591      1.780711   1.000000   1.000000
  483       -0.241531      1.836894   1.000000   1.000000
  484       -0.241366      1.836924   1.000000   1.000000
  485       -0.241319      1.837077   1.000000   1.000000
  486       -0.241297      1.837460   1.000000   1.000000
  487       -0.241262      1.837738   1.000000   1.000000
  488       -0.207399      1.837795   1.000000   1.000000
  489       -0.207393      1.838446   1.000000   1.000000
  490       -0.199679      1.838677   1.000000   1.000000
  491       -0.199604      1.866206   1.000000   1.000000
  492       -0.199516      1.866410   1.000000   1.000000
  493       -0.199451      1.912917   1.000000   1.000000
  494       -0.194080      1.913305   1.000000   1.000000
  495       -0.193939      1.913540   1.000000   1.000000
  496       -0.163964      1.913580   1.000000   1.000000
  497       -0.163945      1.913619   1.000000   1.000000
  498       -0.163837      1.913639   1.000000   1.000000
  499       -0.163672      1.913829   1.000000   1.000000
  500       -0.156661      1.914256   1.000000   1.000000
  501       -0.156645      1.926975   1.000000   1.000000
  502       -0.156191      1.926995   1.000000   1.000000
  503       -0.156168      1.927036   1.000000   1.000000
  504       -0.139048      1.927112   1.000000   1.000000
  505       -0.139023      2.133132   1.000000   1.000000
  506       -0.138847      2.133376   1.000000   1.000000
  507       -0.138814      2.191258   1.000000   1.000000
  508       -0.091020      2.193189   1.000000   1.000000
  509       -0.090911      2.300586   1.000000   1.000000
  510       -0.082554      2.300732   1.000000   1.000000
  511       -0.082499      2.301074   1.000000   1.000000
  512       -0.082467      2.301308   1.000000   1.000000