<?xml version="1.0" encoding="ISO-8859-1"?>
<modeling>
 <generator>
  <i name="program" type="string">vasp </i>
  <i name="version" type="string">5.4.4.18Apr17-6-g9f103f2a35  </i>
  <i name="subversion" type="string">(build Oct 25 2017 14:42:18) complex            parallel </i>
  <i name="platform" type="string">LinuxIFC </i>
  <i name="date" type="string">2021 04 28 </i>
  <i name="time" type="string">23:18:34 </i>
 </generator>
 <incar>
  <i type="string" name="PREC">accurate</i>
  <i type="string" name="ALGO"> all</i>
  <i type="logical" name="ADDGRID"> T  </i>
  <i type="int" name="ISPIN">     2</i>
  <i type="int" name="ICHARG">     1</i>
  <i type="int" name="NELM">   200</i>
  <i type="int" name="NELMIN">     8</i>
  <i name="EDIFF">      0.00000100</i>
  <i type="int" name="ISYM">     0</i>
  <i name="ENCUT">    650.00000000</i>
  <v name="MAGMOM">      0.60000000      0.60000000      0.60000000      0.60000000      0.60000000      0.60000000      0.60000000      0.60000000      0.60000000      0.60000000      0.60000000      0.60000000      0.60000000      0.60000000      0.60000000      0.60000000      0.60000000      0.60000000      0.60000000      0.60000000
      0.60000000      0.60000000      0.60000000      0.60000000      0.60000000      0.60000000      0.60000000      0.60000000      0.60000000      0.60000000      0.60000000      0.60000000      0.60000000      0.60000000      0.60000000      0.60000000      0.60000000      0.60000000      0.60000000      0.60000000
      0.60000000      0.60000000      0.60000000      0.60000000      0.60000000      0.60000000      0.60000000      0.60000000      0.60000000      0.60000000      0.60000000      0.60000000      0.60000000      0.60000000      0.60000000      0.60000000      0.60000000      0.60000000      0.60000000      0.60000000
      0.60000000      0.60000000      0.60000000      0.60000000      0.60000000      0.60000000      0.60000000      0.60000000      0.60000000      0.60000000      0.60000000      0.60000000      0.60000000      0.60000000      0.60000000      0.60000000      0.60000000      0.60000000      0.60000000      0.60000000
      0.60000000      0.60000000      0.60000000      0.60000000      0.60000000      0.60000000      0.60000000      0.60000000      0.60000000      0.60000000      0.60000000      0.60000000      0.60000000      0.60000000      0.60000000      0.60000000      0.60000000      0.60000000      0.60000000      0.60000000
      0.60000000      0.60000000      0.60000000      0.60000000      0.60000000      0.60000000      0.60000000      0.60000000      0.60000000      0.60000000      0.60000000      0.60000000      0.60000000      0.60000000      0.60000000      0.60000000      0.60000000      0.60000000      0.60000000      0.60000000
      0.60000000      0.60000000      0.60000000      0.60000000      0.60000000      0.60000000      0.60000000      0.60000000      0.60000000      0.60000000      0.60000000      0.60000000      0.60000000      0.60000000      0.60000000      0.60000000      0.60000000      0.60000000      0.60000000      0.60000000
      0.60000000      0.60000000      0.60000000      0.60000000      0.60000000      0.60000000      0.60000000      0.60000000      0.60000000      0.60000000      0.60000000      0.60000000      0.60000000      0.60000000      0.60000000      0.60000000      0.60000000      0.60000000      0.60000000      0.60000000
      5.00000000      5.00000000      5.00000000      5.00000000      5.00000000      5.00000000      5.00000000      5.00000000      5.00000000      5.00000000      5.00000000      5.00000000      5.00000000      5.00000000      5.00000000      5.00000000      5.00000000      5.00000000      5.00000000      5.00000000
      5.00000000      5.00000000      5.00000000      5.00000000      5.00000000      5.00000000      5.00000000      5.00000000      5.00000000      5.00000000      5.00000000      5.00000000      5.00000000      5.00000000      5.00000000      5.00000000      5.00000000      5.00000000      5.00000000      5.00000000
      5.00000000      5.00000000      5.00000000      5.00000000      5.00000000      5.00000000      5.00000000      5.00000000      5.00000000      5.00000000      5.00000000      5.00000000      5.00000000      5.00000000      5.00000000      5.00000000      5.00000000      5.00000000      5.00000000      5.00000000
      5.00000000      5.00000000      5.00000000      5.00000000</v>
  <i type="logical" name="LREAL"> F  </i>
  <i type="int" name="ISMEAR">     0</i>
  <i name="SIGMA">      0.05000000</i>
  <i type="int" name="NWRITE">     1</i>
  <i type="int" name="LMAXMIX">     4</i>
  <i type="logical" name="LWAVE"> F  </i>
  <i type="logical" name="LASPH"> T  </i>
  <v type="int" name="KPOINT_BSE">    -1     0     0     0</v>
  <i type="int" name="NELM">   200</i>
  <i type="string" name="GGA"> pe</i>
  <i type="logical" name="LDAU"> T  </i>
  <v type="int" name="LDAUTYPE">     2</v>
  <v type="int" name="LDAUL">    -1    -1    -1     2</v>
  <v name="LDAUU">      0.00000000      0.00000000      0.00000000      4.00000000</v>
  <v name="LDAUJ">      0.00000000      0.00000000      0.00000000      0.00000000</v>
  <i type="logical" name="LASPH"> T  </i>
 </incar>
 <structure name="primitive_cell" >
  <crystal>
   <varray name="basis" >
    <v>      15.37959744       0.00260798      -0.01267804 </v>
    <v>      -0.00277488      15.37961926      -0.01267806 </v>
    <v>      -3.83358824      -3.83493454      12.86275064 </v>
   </varray>
   <i name="volume">   3040.96152487 </i>
   <varray name="rec_basis" >
    <v>       0.06503719       0.00002772       0.01939182 </v>
    <v>       0.00000496       0.06503710       0.01939181 </v>
    <v>       0.00006411       0.00006413       0.07778210 </v>
   </varray>
  </crystal>
  <varray name="positions" >
   <v>       0.11205242       0.03120913       0.00000252 </v>
   <v>       0.23705088       0.01294823      -0.00000103 </v>
   <v>      -0.01294798       0.01294937       0.00000103 </v>
   <v>       0.14990798       0.17581133       0.15144025 </v>
   <v>       0.07418916       0.10009214      -0.15143682 </v>
   <v>       0.00531414      -0.11205521      -0.00001176 </v>
   <v>      -0.03120913       0.13794758      -0.00000252 </v>
   <v>       0.21879087      -0.11205242      -0.00000252 </v>
   <v>       0.25531414       0.13794479      -0.00001176 </v>
   <v>       0.27677185       0.05270804       0.15897368 </v>
   <v>       0.19728994      -0.02677905      -0.15897707 </v>
   <v>       0.02677905       0.05271006       0.15897707 </v>
   <v>      -0.05270804      -0.02677185      -0.15897368 </v>
   <v>       0.14990786      -0.07418916       0.15143682 </v>
   <v>       0.07418867      -0.14990798      -0.15144025 </v>
   <v>       0.11205521       0.24468586       0.00001176 </v>
   <v>      -0.13794479      -0.00531414       0.00001176 </v>
   <v>       0.36205521      -0.00531414       0.00001176 </v>
   <v>       0.23705202       0.26294937       0.00000103 </v>
   <v>      -0.01294912       0.26294823      -0.00000103 </v>
   <v>       0.11205521      -0.25531414       0.00001176 </v>
   <v>       0.27677905       0.30271006       0.15897707 </v>
   <v>       0.19729196       0.22322815      -0.15897368 </v>
   <v>       0.02677185       0.30270804       0.15897368 </v>
   <v>      -0.05271006       0.22322095      -0.15897707 </v>
   <v>      -0.01294912      -0.23705177      -0.00000103 </v>
   <v>       0.23705202      -0.23705063       0.00000103 </v>
   <v>       0.39990786       0.17581084       0.15143682 </v>
   <v>       0.32418867       0.10009202      -0.15144025 </v>
   <v>      -0.10009214       0.17581084       0.15143682 </v>
   <v>      -0.17581133       0.10009202      -0.15144025 </v>
   <v>       0.02677905       0.05271006      -0.34102293 </v>
   <v>       0.19729196       0.22322815       0.34102632 </v>
   <v>       0.39990798      -0.07418867       0.15144025 </v>
   <v>       0.32418916      -0.14990786      -0.15143682 </v>
   <v>      -0.10009202      -0.07418867       0.15144025 </v>
   <v>      -0.17581084      -0.14990786      -0.15143682 </v>
   <v>       0.32418867       0.10009202       0.34855975 </v>
   <v>       0.07418916       0.10009214       0.34856318 </v>
   <v>       0.14990786      -0.07418916      -0.34856318 </v>
   <v>      -0.10009202      -0.07418867      -0.34855975 </v>
   <v>       0.19728994      -0.02677905       0.34102293 </v>
   <v>       0.02677185      -0.19729196      -0.34102632 </v>
   <v>       0.19729196      -0.27677185      -0.15897368 </v>
   <v>       0.27677905      -0.19728994       0.15897707 </v>
   <v>       0.02677185      -0.19729196       0.15897368 </v>
   <v>      -0.05271006      -0.27677905      -0.15897707 </v>
   <v>       0.36205242       0.28120913       0.00000252 </v>
   <v>      -0.13794758      -0.21879087       0.00000252 </v>
   <v>      -0.13794758       0.28120913       0.00000252 </v>
   <v>       0.36205242      -0.21879087       0.00000252 </v>
   <v>      -0.24468586       0.13794479      -0.00001176 </v>
   <v>       0.46879087       0.13794758      -0.00000252 </v>
   <v>       0.21879087       0.38794758      -0.00000252 </v>
   <v>       0.00531414       0.38794479      -0.00001176 </v>
   <v>       0.48705202       0.01294937       0.00000103 </v>
   <v>      -0.26294912       0.01294823      -0.00000103 </v>
   <v>       0.14990786       0.42581084       0.15143682 </v>
   <v>       0.07418867       0.35009202      -0.15144025 </v>
   <v>       0.14990798       0.17581133      -0.34855975 </v>
   <v>       0.32418916       0.35009214       0.34856318 </v>
   <v>       0.07418867       0.35009202       0.34855975 </v>
   <v>      -0.10009214       0.17581084      -0.34856318 </v>
   <v>       0.44728994       0.22322095       0.34102293 </v>
   <v>       0.27677185       0.05270804      -0.34102632 </v>
   <v>      -0.05271006       0.22322095       0.34102293 </v>
   <v>      -0.22322815       0.05270804      -0.34102632 </v>
   <v>      -0.47322095       0.05271006       0.15897707 </v>
   <v>       0.44729196      -0.02677185      -0.15897368 </v>
   <v>      -0.30271006      -0.02677905      -0.15897707 </v>
   <v>      -0.22322815       0.05270804       0.15897368 </v>
   <v>       0.44729196      -0.02677185       0.34102632 </v>
   <v>       0.27677905      -0.19728994      -0.34102293 </v>
   <v>      -0.05270804      -0.02677185       0.34102632 </v>
   <v>      -0.22322095      -0.19728994      -0.34102293 </v>
   <v>       0.14990798      -0.32418867       0.15144025 </v>
   <v>       0.07418916      -0.39990786      -0.15143682 </v>
   <v>       0.07418867      -0.14990798       0.34855975 </v>
   <v>       0.32418916      -0.14990786       0.34856318 </v>
   <v>       0.14990798      -0.32418867      -0.34855975 </v>
   <v>      -0.10009214      -0.32418916      -0.34856318 </v>
   <v>      -0.28120913      -0.11205242      -0.00000252 </v>
   <v>      -0.03120913      -0.36205242      -0.00000252 </v>
   <v>       0.25531414      -0.36205521      -0.00001176 </v>
   <v>      -0.49468586      -0.11205521      -0.00001176 </v>
   <v>       0.25531414       0.13794479       0.49998824 </v>
   <v>       0.00531414      -0.11205521       0.49998824 </v>
   <v>       0.23705202       0.26294937      -0.49999897 </v>
   <v>      -0.01294798       0.01294937      -0.49999897 </v>
   <v>       0.48705088       0.26294823      -0.00000103 </v>
   <v>      -0.26294798       0.26294937       0.00000103 </v>
   <v>       0.23770109       0.01294823       0.49999897 </v>
   <v>      -0.01294912      -0.23705177       0.49999897 </v>
   <v>      -0.13794479      -0.00531414      -0.49998824 </v>
   <v>       0.11205521       0.24468586      -0.49998824 </v>
   <v>       0.39990798       0.42581133       0.15144025 </v>
   <v>       0.32418916       0.35009214      -0.15143682 </v>
   <v>      -0.10009202       0.42581133       0.15144025 </v>
   <v>      -0.17581084       0.35009214      -0.15143682 </v>
   <v>       0.11205242       0.03120913      -0.49999748 </v>
   <v>       0.36205242       0.28120913      -0.49999748 </v>
   <v>      -0.13794758      -0.21879087      -0.49999748 </v>
   <v>       0.19728994       0.47322095       0.34102293 </v>
   <v>       0.02677185       0.30270804      -0.34102632 </v>
   <v>      -0.47322815       0.30270804       0.15897368 </v>
   <v>       0.44728994       0.22322095      -0.15897707 </v>
   <v>      -0.22322095       0.30271006       0.15897707 </v>
   <v>      -0.30270804       0.22322815      -0.15897368 </v>
   <v>      -0.26294798      -0.23705063       0.00000103 </v>
   <v>       0.48705088      -0.23705177      -0.00000103 </v>
   <v>       0.11205521      -0.25531414      -0.49998824 </v>
   <v>       0.36205521      -0.00531414      -0.49998824 </v>
   <v>       0.39990798      -0.07418867      -0.34855975 </v>
   <v>      -0.42581084       0.10009214       0.34856318 </v>
   <v>      -0.17581133       0.10009202       0.34855975 </v>
   <v>      -0.35009214      -0.07418916      -0.34856318 </v>
   <v>       0.46879087       0.13794758       0.49999748 </v>
   <v>       0.21879087       0.38794758       0.49999748 </v>
   <v>       0.21879087      -0.11205242       0.49999748 </v>
   <v>      -0.03120913       0.13794758       0.49999748 </v>
   <v>      -0.47322815      -0.19729196       0.15897368 </v>
   <v>       0.44728994      -0.27677905      -0.15897707 </v>
   <v>      -0.30270804      -0.27677185      -0.15897368 </v>
   <v>      -0.22322095      -0.19728994       0.15897707 </v>
   <v>      -0.10009214      -0.32418916       0.15143682 </v>
   <v>       0.39990786      -0.32418916       0.15143682 </v>
   <v>      -0.17581133      -0.39990798      -0.15144025 </v>
   <v>       0.32418867      -0.39990798      -0.15144025 </v>
   <v>       0.19729196      -0.27677185       0.34102632 </v>
   <v>       0.02677905      -0.44728994      -0.34102293 </v>
   <v>      -0.28120913      -0.11205242       0.49999748 </v>
   <v>      -0.03120913      -0.36205242       0.49999748 </v>
   <v>       0.23705088      -0.48705177      -0.00000103 </v>
   <v>      -0.01294798      -0.48705063       0.00000103 </v>
   <v>       0.48705088       0.26294823       0.49999897 </v>
   <v>      -0.01294912       0.26294823       0.49999897 </v>
   <v>      -0.26294912       0.01294823       0.49999897 </v>
   <v>      -0.38794758       0.03120913       0.00000252 </v>
   <v>       0.11205242      -0.46879087       0.00000252 </v>
   <v>       0.48705202       0.01294937      -0.49999897 </v>
   <v>      -0.26294798      -0.23705063      -0.49999897 </v>
   <v>       0.23705202      -0.23705063      -0.49999897 </v>
   <v>       0.27677185      -0.44729196       0.15897368 </v>
   <v>       0.19728994       0.47322095      -0.15897707 </v>
   <v>       0.02677905      -0.44728994       0.15897707 </v>
   <v>      -0.05270804       0.47322815      -0.15897368 </v>
   <v>       0.27677905       0.30271006      -0.34102293 </v>
   <v>       0.44729196       0.47322815       0.34102632 </v>
   <v>      -0.22322095       0.30271006      -0.34102293 </v>
   <v>      -0.05270804       0.47322815       0.34102632 </v>
   <v>       0.36205521       0.49468586       0.00001176 </v>
   <v>      -0.13794479       0.49468586       0.00001176 </v>
   <v>      -0.35009202       0.17581133       0.15144025 </v>
   <v>      -0.42581084       0.10009214      -0.15143682 </v>
   <v>      -0.42581133       0.35009202       0.34855975 </v>
   <v>       0.39990786       0.17581084      -0.34856318 </v>
   <v>      -0.17581084       0.35009214       0.34856318 </v>
   <v>      -0.35009202       0.17581133      -0.34855975 </v>
   <v>      -0.24468586      -0.36205521      -0.00001176 </v>
   <v>      -0.49468586       0.38794479      -0.00001176 </v>
   <v>      -0.28120913       0.38794758      -0.00000252 </v>
   <v>       0.46879087      -0.36205242      -0.00000252 </v>
   <v>       0.00531414       0.38794479       0.49998824 </v>
   <v>      -0.24468586       0.13794479       0.49998824 </v>
   <v>      -0.35009214      -0.07418916       0.15143682 </v>
   <v>      -0.42581133      -0.14990798      -0.15144025 </v>
   <v>      -0.38794479       0.24468586       0.00001176 </v>
   <v>      -0.42581133      -0.14990798       0.34855975 </v>
   <v>      -0.17581084      -0.14990786       0.34856318 </v>
   <v>       0.39990786      -0.32418916      -0.34856318 </v>
   <v>      -0.35009202      -0.32418867      -0.34855975 </v>
   <v>       0.44728994      -0.27677905       0.34102293 </v>
   <v>       0.27677185      -0.44729196      -0.34102632 </v>
   <v>      -0.05271006      -0.27677905       0.34102293 </v>
   <v>      -0.22322815      -0.44729196      -0.34102632 </v>
   <v>      -0.49468586       0.38794479       0.49998824 </v>
   <v>      -0.24468586      -0.36205521       0.49998824 </v>
   <v>       0.23705088      -0.48705177       0.49999897 </v>
   <v>       0.36205521       0.49468586      -0.49998824 </v>
   <v>      -0.49468586      -0.11205521       0.49998824 </v>
   <v>       0.25531414      -0.36205521       0.49998824 </v>
   <v>      -0.38794479       0.24468586      -0.49998824 </v>
   <v>      -0.01294798      -0.48705063      -0.49999897 </v>
   <v>      -0.13794758       0.28120913      -0.49999748 </v>
   <v>       0.36205242      -0.21879087      -0.49999748 </v>
   <v>      -0.38794758       0.03120913      -0.49999748 </v>
   <v>       0.11205242      -0.46879087      -0.49999748 </v>
   <v>      -0.38794479      -0.25531414       0.00001176 </v>
   <v>       0.32418867      -0.39990798       0.34855975 </v>
   <v>       0.14990786       0.42581084      -0.34856318 </v>
   <v>       0.07418916      -0.39990786       0.34856318 </v>
   <v>      -0.10009202       0.42581133      -0.34855975 </v>
   <v>      -0.38794479      -0.25531414      -0.49998824 </v>
   <v>      -0.47322095       0.05271006      -0.34102293 </v>
   <v>      -0.30270804       0.22322815       0.34102632 </v>
   <v>      -0.47322815      -0.19729196      -0.34102632 </v>
   <v>      -0.30271006      -0.02677905       0.34102293 </v>
   <v>      -0.13794479       0.49468586      -0.49998824 </v>
   <v>       0.48705202      -0.48705063      -0.49999897 </v>
   <v>      -0.26294798       0.26294937      -0.49999897 </v>
   <v>       0.39990798       0.42581133      -0.34855975 </v>
   <v>       0.48705202      -0.48705063       0.00000103 </v>
   <v>      -0.26294912      -0.48705177      -0.00000103 </v>
   <v>      -0.47322815       0.30270804      -0.34102632 </v>
   <v>      -0.17581133      -0.39990798       0.34855975 </v>
   <v>      -0.30270804      -0.27677185       0.34102632 </v>
   <v>      -0.47322095      -0.44728994       0.15897707 </v>
   <v>       0.44729196       0.47322815      -0.15897368 </v>
   <v>      -0.30271006       0.47322095      -0.15897707 </v>
   <v>      -0.22322815      -0.44729196       0.15897368 </v>
   <v>       0.48705088      -0.23705177       0.49999897 </v>
   <v>      -0.26294912      -0.48705177       0.49999897 </v>
   <v>      -0.35009214       0.42581084       0.15143682 </v>
   <v>      -0.42581133       0.35009202      -0.15144025 </v>
   <v>      -0.35009202      -0.32418867       0.15144025 </v>
   <v>      -0.42581084      -0.39990786      -0.15143682 </v>
   <v>      -0.38794758      -0.46879087      -0.49999748 </v>
   <v>      -0.42581084      -0.39990786       0.34856318 </v>
   <v>      -0.35009214       0.42581084      -0.34856318 </v>
   <v>      -0.30271006       0.47322095       0.34102293 </v>
   <v>      -0.28120913       0.38794758       0.49999748 </v>
   <v>       0.46879087      -0.36205242       0.49999748 </v>
   <v>      -0.47322095      -0.44728994      -0.34102293 </v>
   <v>      -0.38794758      -0.46879087       0.00000252 </v>
  </varray>
 </structure>
 <varray name="primitive_index" >
  <v type="int" >        1 </v>
  <v type="int" >       69 </v>
  <v type="int" >       74 </v>
  <v type="int" >       97 </v>
  <v type="int" >      133 </v>
  <v type="int" >       63 </v>
  <v type="int" >       46 </v>
  <v type="int" >       55 </v>
  <v type="int" >       37 </v>
  <v type="int" >      169 </v>
  <v type="int" >      215 </v>
  <v type="int" >      161 </v>
  <v type="int" >      224 </v>
  <v type="int" >      115 </v>
  <v type="int" >      151 </v>
  <v type="int" >       17 </v>
  <v type="int" >       12 </v>
  <v type="int" >       11 </v>
  <v type="int" >       81 </v>
  <v type="int" >       94 </v>
  <v type="int" >       19 </v>
  <v type="int" >      185 </v>
  <v type="int" >      197 </v>
  <v type="int" >      177 </v>
  <v type="int" >      206 </v>
  <v type="int" >       96 </v>
  <v type="int" >       83 </v>
  <v type="int" >      105 </v>
  <v type="int" >      141 </v>
  <v type="int" >      106 </v>
  <v type="int" >      142 </v>
  <v type="int" >      165 </v>
  <v type="int" >      193 </v>
  <v type="int" >      123 </v>
  <v type="int" >      159 </v>
  <v type="int" >      124 </v>
  <v type="int" >      160 </v>
  <v type="int" >      137 </v>
  <v type="int" >      129 </v>
  <v type="int" >      119 </v>
  <v type="int" >      128 </v>
  <v type="int" >      211 </v>
  <v type="int" >      183 </v>
  <v type="int" >      199 </v>
  <v type="int" >      187 </v>
  <v type="int" >      179 </v>
  <v type="int" >      208 </v>
  <v type="int" >       25 </v>
  <v type="int" >       28 </v>
  <v type="int" >       26 </v>
  <v type="int" >       27 </v>
  <v type="int" >       38 </v>
  <v type="int" >       45 </v>
  <v type="int" >       53 </v>
  <v type="int" >       61 </v>
  <v type="int" >       73 </v>
  <v type="int" >       70 </v>
  <v type="int" >      113 </v>
  <v type="int" >      149 </v>
  <v type="int" >      101 </v>
  <v type="int" >      153 </v>
  <v type="int" >      145 </v>
  <v type="int" >      110 </v>
  <v type="int" >      201 </v>
  <v type="int" >      173 </v>
  <v type="int" >      202 </v>
  <v type="int" >      174 </v>
  <v type="int" >      162 </v>
  <v type="int" >      223 </v>
  <v type="int" >      216 </v>
  <v type="int" >      170 </v>
  <v type="int" >      219 </v>
  <v type="int" >      191 </v>
  <v type="int" >      220 </v>
  <v type="int" >      192 </v>
  <v type="int" >       99 </v>
  <v type="int" >      135 </v>
  <v type="int" >      147 </v>
  <v type="int" >      155 </v>
  <v type="int" >      103 </v>
  <v type="int" >      112 </v>
  <v type="int" >       56 </v>
  <v type="int" >       48 </v>
  <v type="int" >       39 </v>
  <v type="int" >       64 </v>
  <v type="int" >       33 </v>
  <v type="int" >       59 </v>
  <v type="int" >       85 </v>
  <v type="int" >       78 </v>
  <v type="int" >       93 </v>
  <v type="int" >       82 </v>
  <v type="int" >       65 </v>
  <v type="int" >       92 </v>
  <v type="int" >       16 </v>
  <v type="int" >       21 </v>
  <v type="int" >      121 </v>
  <v type="int" >      157 </v>
  <v type="int" >      122 </v>
  <v type="int" >      158 </v>
  <v type="int" >        5 </v>
  <v type="int" >       29 </v>
  <v type="int" >       32 </v>
  <v type="int" >      209 </v>
  <v type="int" >      181 </v>
  <v type="int" >      178 </v>
  <v type="int" >      205 </v>
  <v type="int" >      186 </v>
  <v type="int" >      198 </v>
  <v type="int" >       84 </v>
  <v type="int" >       95 </v>
  <v type="int" >       23 </v>
  <v type="int" >       15 </v>
  <v type="int" >      127 </v>
  <v type="int" >      130 </v>
  <v type="int" >      138 </v>
  <v type="int" >      120 </v>
  <v type="int" >       41 </v>
  <v type="int" >       49 </v>
  <v type="int" >       51 </v>
  <v type="int" >       42 </v>
  <v type="int" >      180 </v>
  <v type="int" >      207 </v>
  <v type="int" >      200 </v>
  <v type="int" >      188 </v>
  <v type="int" >      108 </v>
  <v type="int" >      107 </v>
  <v type="int" >      144 </v>
  <v type="int" >      143 </v>
  <v type="int" >      195 </v>
  <v type="int" >      167 </v>
  <v type="int" >       52 </v>
  <v type="int" >       44 </v>
  <v type="int" >       71 </v>
  <v type="int" >       76 </v>
  <v type="int" >       89 </v>
  <v type="int" >       90 </v>
  <v type="int" >       66 </v>
  <v type="int" >        2 </v>
  <v type="int" >        3 </v>
  <v type="int" >       77 </v>
  <v type="int" >       88 </v>
  <v type="int" >       87 </v>
  <v type="int" >      171 </v>
  <v type="int" >      213 </v>
  <v type="int" >      163 </v>
  <v type="int" >      222 </v>
  <v type="int" >      189 </v>
  <v type="int" >      217 </v>
  <v type="int" >      190 </v>
  <v type="int" >      218 </v>
  <v type="int" >        9 </v>
  <v type="int" >       10 </v>
  <v type="int" >       98 </v>
  <v type="int" >      134 </v>
  <v type="int" >      146 </v>
  <v type="int" >      109 </v>
  <v type="int" >      154 </v>
  <v type="int" >      102 </v>
  <v type="int" >       40 </v>
  <v type="int" >       62 </v>
  <v type="int" >       54 </v>
  <v type="int" >       47 </v>
  <v type="int" >       57 </v>
  <v type="int" >       34 </v>
  <v type="int" >      116 </v>
  <v type="int" >      152 </v>
  <v type="int" >       18 </v>
  <v type="int" >      148 </v>
  <v type="int" >      156 </v>
  <v type="int" >      111 </v>
  <v type="int" >      104 </v>
  <v type="int" >      203 </v>
  <v type="int" >      175 </v>
  <v type="int" >      204 </v>
  <v type="int" >      176 </v>
  <v type="int" >       58 </v>
  <v type="int" >       36 </v>
  <v type="int" >       67 </v>
  <v type="int" >       13 </v>
  <v type="int" >       60 </v>
  <v type="int" >       35 </v>
  <v type="int" >       22 </v>
  <v type="int" >       80 </v>
  <v type="int" >       30 </v>
  <v type="int" >       31 </v>
  <v type="int" >        6 </v>
  <v type="int" >        7 </v>
  <v type="int" >       20 </v>
  <v type="int" >      139 </v>
  <v type="int" >      117 </v>
  <v type="int" >      131 </v>
  <v type="int" >      126 </v>
  <v type="int" >       24 </v>
  <v type="int" >      166 </v>
  <v type="int" >      194 </v>
  <v type="int" >      184 </v>
  <v type="int" >      212 </v>
  <v type="int" >       14 </v>
  <v type="int" >       79 </v>
  <v type="int" >       86 </v>
  <v type="int" >      125 </v>
  <v type="int" >       75 </v>
  <v type="int" >       72 </v>
  <v type="int" >      182 </v>
  <v type="int" >      140 </v>
  <v type="int" >      196 </v>
  <v type="int" >      164 </v>
  <v type="int" >      221 </v>
  <v type="int" >      214 </v>
  <v type="int" >      172 </v>
  <v type="int" >       91 </v>
  <v type="int" >       68 </v>
  <v type="int" >      114 </v>
  <v type="int" >      150 </v>
  <v type="int" >      100 </v>
  <v type="int" >      136 </v>
  <v type="int" >        8 </v>
  <v type="int" >      132 </v>
  <v type="int" >      118 </v>
  <v type="int" >      210 </v>
  <v type="int" >       50 </v>
  <v type="int" >       43 </v>
  <v type="int" >      168 </v>
  <v type="int" >        4 </v>
 </varray>
 <kpoints>
  <generation param="Gamma">
   <v type="int" name="divisions">       2        2        2 </v>
   <v name="usershift">      0.00000000       0.00000000       0.00000000 </v>
   <v name="genvec1">      0.50000000      -0.00000000       0.00000000 </v>
   <v name="genvec2">     -0.00000000       0.50000000       0.00000000 </v>
   <v name="genvec3">     -0.00000000      -0.00000000       0.50000000 </v>
   <v name="shift">      0.00000000       0.00000000       0.00000000 </v>
  </generation>
  <varray name="kpointlist" >
   <v>       0.00000000       0.00000000       0.00000000 </v>
   <v>       0.50000000       0.00000000       0.00000000 </v>
   <v>       0.00000000       0.50000000       0.00000000 </v>
   <v>       0.50000000       0.50000000       0.00000000 </v>
   <v>       0.00000000      -0.00000000       0.50000000 </v>
   <v>       0.50000000       0.00000000       0.50000000 </v>
   <v>      -0.00000000       0.50000000       0.50000000 </v>
   <v>       0.50000000       0.50000000       0.50000000 </v>
  </varray>
  <varray name="weights" >
   <v>       0.12500000 </v>
   <v>       0.12500000 </v>
   <v>       0.12500000 </v>
   <v>       0.12500000 </v>
   <v>       0.12500000 </v>
   <v>       0.12500000 </v>
   <v>       0.12500000 </v>
   <v>       0.12500000 </v>
  </varray>
 </kpoints>
 <parameters>
  <separator name="general" >
   <i type="string" name="SYSTEM">unknown system</i>
   <i type="logical" name="LCOMPAT"> F  </i>
  </separator>
  <separator name="electronic" >
   <i type="string" name="PREC">accura</i>
   <i name="ENMAX">    650.00000000</i>
   <i name="ENAUG">    628.94500000</i>
   <i name="EDIFF">      0.00000100</i>
   <i type="int" name="IALGO">    58</i>
   <i type="int" name="IWAVPR">    10</i>
   <i type="int" name="NBANDS">  1208</i>
   <i name="NELECT">   1664.00000000</i>
   <i type="int" name="TURBO">     0</i>
   <i type="int" name="IRESTART">     0</i>
   <i type="int" name="NREBOOT">     0</i>
   <i type="int" name="NMIN">     0</i>
   <i name="EREF">      0.00000000</i>
   <separator name="electronic smearing" >
    <i type="int" name="ISMEAR">     0</i>
    <i name="SIGMA">      0.05000000</i>
    <i name="KSPACING">      0.50000000</i>
    <i type="logical" name="KGAMMA"> T  </i>
   </separator>
   <separator name="electronic projectors" >
    <i type="logical" name="LREAL"> F  </i>
    <v name="ROPT">      0.00000000      0.00000000      0.00000000      0.00000000</v>
    <i type="int" name="LMAXPAW">  -100</i>
    <i type="int" name="LMAXMIX">     4</i>
    <i type="logical" name="NLSPLINE"> F  </i>
   </separator>
   <separator name="electronic startup" >
    <i type="int" name="ISTART">     0</i>
    <i type="int" name="ICHARG">     1</i>
    <i type="int" name="INIWAV">     1</i>
   </separator>
   <separator name="electronic spin" >
    <i type="int" name="ISPIN">     2</i>
    <i type="logical" name="LNONCOLLINEAR"> F  </i>
    <v name="MAGMOM">      0.60000000      0.60000000      0.60000000      0.60000000      0.60000000      0.60000000      0.60000000      0.60000000      0.60000000      0.60000000      0.60000000      0.60000000      0.60000000      0.60000000      0.60000000      0.60000000      0.60000000      0.60000000      0.60000000      0.60000000
      0.60000000      0.60000000      0.60000000      0.60000000      0.60000000      0.60000000      0.60000000      0.60000000      0.60000000      0.60000000      0.60000000      0.60000000      0.60000000      0.60000000      0.60000000      0.60000000      0.60000000      0.60000000      0.60000000      0.60000000
      0.60000000      0.60000000      0.60000000      0.60000000      0.60000000      0.60000000      0.60000000      0.60000000      0.60000000      0.60000000      0.60000000      0.60000000      0.60000000      0.60000000      0.60000000      0.60000000      0.60000000      0.60000000      0.60000000      0.60000000
      0.60000000      0.60000000      0.60000000      0.60000000      0.60000000      0.60000000      0.60000000      0.60000000      0.60000000      0.60000000      0.60000000      0.60000000      0.60000000      0.60000000      0.60000000      0.60000000      0.60000000      0.60000000      0.60000000      0.60000000
      0.60000000      0.60000000      0.60000000      0.60000000      0.60000000      0.60000000      0.60000000      0.60000000      0.60000000      0.60000000      0.60000000      0.60000000      0.60000000      0.60000000      0.60000000      0.60000000      0.60000000      0.60000000      0.60000000      0.60000000
      0.60000000      0.60000000      0.60000000      0.60000000      0.60000000      0.60000000      0.60000000      0.60000000      0.60000000      0.60000000      0.60000000      0.60000000      0.60000000      0.60000000      0.60000000      0.60000000      0.60000000      0.60000000      0.60000000      0.60000000
      0.60000000      0.60000000      0.60000000      0.60000000      0.60000000      0.60000000      0.60000000      0.60000000      0.60000000      0.60000000      0.60000000      0.60000000      0.60000000      0.60000000      0.60000000      0.60000000      0.60000000      0.60000000      0.60000000      0.60000000
      0.60000000      0.60000000      0.60000000      0.60000000      0.60000000      0.60000000      0.60000000      0.60000000      0.60000000      0.60000000      0.60000000      0.60000000      0.60000000      0.60000000      0.60000000      0.60000000      0.60000000      0.60000000      0.60000000      0.60000000
      5.00000000      5.00000000      5.00000000      5.00000000      5.00000000      5.00000000      5.00000000      5.00000000      5.00000000      5.00000000      5.00000000      5.00000000      5.00000000      5.00000000      5.00000000      5.00000000      5.00000000      5.00000000      5.00000000      5.00000000
      5.00000000      5.00000000      5.00000000      5.00000000      5.00000000      5.00000000      5.00000000      5.00000000      5.00000000      5.00000000      5.00000000      5.00000000      5.00000000      5.00000000      5.00000000      5.00000000      5.00000000      5.00000000      5.00000000      5.00000000
      5.00000000      5.00000000      5.00000000      5.00000000      5.00000000      5.00000000      5.00000000      5.00000000      5.00000000      5.00000000      5.00000000      5.00000000      5.00000000      5.00000000      5.00000000      5.00000000      5.00000000      5.00000000      5.00000000      5.00000000
      5.00000000      5.00000000      5.00000000      5.00000000</v>
    <i name="NUPDOWN">     -1.00000000</i>
    <i type="logical" name="LSORBIT"> F  </i>
    <v name="SAXIS">      0.00000000      0.00000000      1.00000000</v>
    <i type="logical" name="LSPIRAL"> F  </i>
    <v name="QSPIRAL">      0.00000000      0.00000000      0.00000000</v>
    <i type="logical" name="LZEROZ"> F  </i>
   </separator>
   <separator name="electronic exchange-correlation" >
    <i type="logical" name="LASPH"> T  </i>
    <i type="logical" name="LMETAGGA"> F  </i>
   </separator>
   <separator name="electronic convergence" >
    <i type="int" name="NELM">   200</i>
    <i type="int" name="NELMDL">     0</i>
    <i type="int" name="NELMIN">     8</i>
    <i name="ENINI">    650.00000000</i>
    <separator name="electronic convergence detail" >
     <i type="logical" name="LDIAG"> T  </i>
     <i type="logical" name="LSUBROT"> F  </i>
     <i name="WEIMIN">      0.00000000</i>
     <i name="EBREAK">      0.00000000</i>
     <i name="DEPER">      0.30000000</i>
     <i type="int" name="NRMM">     4</i>
     <i name="TIME">      0.40000000</i>
    </separator>
   </separator>
   <separator name="electronic mixer" >
    <i name="AMIX">      0.40000000</i>
    <i name="BMIX">      1.00000000</i>
    <i name="AMIN">      0.10000000</i>
    <i name="AMIX_MAG">      1.60000000</i>
    <i name="BMIX_MAG">      1.00000000</i>
    <separator name="electronic mixer details" >
     <i type="int" name="IMIX">     4</i>
     <i type="logical" name="MIXFIRST"> F  </i>
     <i type="int" name="MAXMIX">   -45</i>
     <i name="WC">    100.00000000</i>
     <i type="int" name="INIMIX">     1</i>
     <i type="int" name="MIXPRE">     1</i>
     <i type="int" name="MREMOVE">     5</i>
    </separator>
   </separator>
   <separator name="electronic dipolcorrection" >
    <i type="logical" name="LDIPOL"> F  </i>
    <i type="logical" name="LMONO"> F  </i>
    <i type="int" name="IDIPOL">     0</i>
    <i name="EPSILON">      1.00000000</i>
    <v name="DIPOL">   -100.00000000   -100.00000000   -100.00000000</v>
    <i name="EFIELD">      0.00000000</i>
   </separator>
  </separator>
  <separator name="grids" >
   <i type="int" name="NGX">   128</i>
   <i type="int" name="NGY">   128</i>
   <i type="int" name="NGZ">   120</i>
   <i type="int" name="NGXF">   256</i>
   <i type="int" name="NGYF">   256</i>
   <i type="int" name="NGZF">   240</i>
   <i type="logical" name="ADDGRID"> T  </i>
  </separator>
  <separator name="ionic" >
   <i type="int" name="NSW">     0</i>
   <i type="int" name="IBRION">    -1</i>
   <i type="int" name="MDALGO">     0</i>
   <i type="int" name="ISIF">     2</i>
   <i name="PSTRESS">      0.00000000</i>
   <i name="EDIFFG">      0.00001000</i>
   <i type="int" name="NFREE">     0</i>
   <i name="POTIM">      0.50000000</i>
   <i name="SMASS">     -3.00000000</i>
   <i name="SCALEE">      1.00000000</i>
  </separator>
  <separator name="ionic md" >
   <i name="TEBEG">      0.00010000</i>
   <i name="TEEND">      0.00010000</i>
   <i type="int" name="NBLOCK">     1</i>
   <i type="int" name="KBLOCK">     1</i>
   <i type="int" name="NPACO">   256</i>
   <i name="APACO">     16.00000000</i>
  </separator>
  <separator name="symmetry" >
   <i type="int" name="ISYM">     0</i>
   <i name="SYMPREC">      0.00001000</i>
  </separator>
  <separator name="dos" >
   <i type="int" name="LORBIT">     0</i>
   <v name="RWIGS">     -1.00000000     -1.00000000     -1.00000000     -1.00000000</v>
   <i type="int" name="NEDOS">   301</i>
   <i name="EMIN">     10.00000000</i>
   <i name="EMAX">    -10.00000000</i>
   <i name="EFERMI">      0.00000000</i>
  </separator>
  <separator name="writing" >
   <i type="int" name="NWRITE">     1</i>
   <i type="logical" name="LWAVE"> F  </i>
   <i type="logical" name="LDOWNSAMPLE"> F  </i>
   <i type="logical" name="LCHARG"> T  </i>
   <i type="logical" name="LPARD"> F  </i>
   <i type="logical" name="LVTOT"> F  </i>
   <i type="logical" name="LVHAR"> F  </i>
   <i type="logical" name="LELF"> F  </i>
   <i type="logical" name="LOPTICS"> F  </i>
   <v name="STM">      0.00000000      0.00000000      0.00000000      0.00000000      0.00000000      0.00000000      0.00000000</v>
  </separator>
  <separator name="performance" >
   <i type="int" name="NPAR">     4</i>
   <i type="int" name="NSIM">     4</i>
   <i type="int" name="NBLK">    -1</i>
   <i type="logical" name="LPLANE"> T  </i>
   <i type="logical" name="LSCALAPACK"> T  </i>
   <i type="logical" name="LSCAAWARE"> F  </i>
   <i type="logical" name="LSCALU"> F  </i>
   <i type="logical" name="LASYNC"> F  </i>
   <i type="logical" name="LORBITALREAL"> F  </i>
  </separator>
  <separator name="miscellaneous" >
   <i type="int" name="IDIOT">     3</i>
   <i type="int" name="ISPECIAL">     0</i>
   <i type="logical" name="LMUSIC"> F  </i>
   <v name="POMASS">      7.01000000     16.00000000     32.06600000     55.84700000</v>
   <v name="DARWINR">      0.00000000      0.00000000      0.00000000      0.00000000</v>
   <v name="DARWINV">      1.00000000      1.00000000      1.00000000      1.00000000</v>
   <i type="logical" name="LCORR"> T  </i>
  </separator>
  <i type="logical" name="GGA_COMPAT"> T  </i>
  <i type="logical" name="LBERRY"> F  </i>
  <i type="int" name="ICORELEVEL">     0</i>
  <i type="logical" name="LDAU"> T  </i>
  <v type="int" name="LDAUTYPE">     2</v>
  <v type="int" name="LDAUL">    -1</v>
  <v name="LDAUU">      0.00000000</v>
  <v name="LDAUJ">      0.00000000</v>
  <i type="int" name="LDAUPRINT">     0</i>
  <i type="int" name="I_CONSTRAINED_M">     0</i>
  <separator name="electronic exchange-correlation" >
   <i type="string" name="GGA">PE</i>
   <i type="int" name="VOSKOWN">     0</i>
   <i type="logical" name="LHFCALC"> F  </i>
   <i type="string" name="PRECFOCK"></i>
   <i type="logical" name="LSYMGRAD"> F  </i>
   <i type="logical" name="LHFONE"> F  </i>
   <i type="logical" name="LRHFCALC"> F  </i>
   <i type="logical" name="LTHOMAS"> F  </i>
   <i type="logical" name="LMODELHF"> F  </i>
   <i name="ENCUT4O">     -1.00000000</i>
   <i type="int" name="EXXOEP">     0</i>
   <i type="int" name="FOURORBIT">     0</i>
   <i name="AEXX">      0.00000000</i>
   <i name="HFALPHA">      0.00000000</i>
   <i name="MCALPHA">      0.00000000</i>
   <i name="ALDAX">      1.00000000</i>
   <i name="AGGAX">      1.00000000</i>
   <i name="ALDAC">      1.00000000</i>
   <i name="AGGAC">      1.00000000</i>
   <i type="int" name="NKREDX">     1</i>
   <i type="int" name="NKREDY">     1</i>
   <i type="int" name="NKREDZ">     1</i>
   <i type="logical" name="SHIFTRED"> F  </i>
   <i type="logical" name="ODDONLY"> F  </i>
   <i type="logical" name="EVENONLY"> F  </i>
   <i type="int" name="LMAXFOCK">     0</i>
   <i type="int" name="NMAXFOCKAE">     0</i>
   <i type="logical" name="LFOCKAEDFT"> F  </i>
   <i name="HFSCREEN">      0.00000000</i>
   <i name="HFSCREENC">      0.00000000</i>
   <i type="int" name="NBANDSGWLOW">     0</i>
  </separator>
  <separator name="vdW DFT" >
   <i type="logical" name="LUSE_VDW"> F  </i>
   <i name="Zab_VDW">     -0.84910000</i>
   <i name="PARAM1">      0.12340000</i>
   <i name="PARAM2">      1.00000000</i>
   <i name="PARAM3">      0.00000000</i>
  </separator>
  <separator name="model GW" >
   <i type="int" name="MODEL_GW">     0</i>
   <i name="MODEL_EPS0">      8.14543266</i>
   <i name="MODEL_ALPHA">      1.00000000</i>
  </separator>
  <separator name="linear response parameters" >
   <i type="logical" name="LEPSILON"> F  </i>
   <i type="logical" name="LRPA"> F  </i>
   <i type="logical" name="LNABLA"> F  </i>
   <i type="logical" name="LVEL"> F  </i>
   <i type="int" name="KINTER">     0</i>
   <i name="CSHIFT">      0.10000000</i>
   <i name="OMEGAMAX">     -1.00000000</i>
   <i name="DEG_THRESHOLD">      0.00200000</i>
   <i name="RTIME">     -0.10000000</i>
   <i name="WPLASMAI">      0.00000000</i>
   <v name="DFIELD">      0.00000000      0.00000000      0.00000000</v>
   <v name="WPLASMA">      0.00000000      0.00000000      0.00000000      0.00000000      0.00000000      0.00000000      0.00000000      0.00000000      0.00000000</v>
  </separator>
  <separator name="orbital magnetization" >
   <i type="logical" name="NUCIND"> F  </i>
   <v name="MAGPOS">      0.00000000      0.00000000      0.00000000</v>
   <i type="logical" name="LNICSALL"> T  </i>
   <i type="logical" name="ORBITALMAG"> F  </i>
   <i type="logical" name="LMAGBLOCH"> F  </i>
   <i type="logical" name="LCHIMAG"> F  </i>
   <i type="logical" name="LGAUGE"> T  </i>
   <i type="int" name="MAGATOM">     0</i>
   <v name="MAGDIPOL">      0.00000000      0.00000000      0.00000000</v>
   <v name="AVECCONST">      0.00000000      0.00000000      0.00000000</v>
  </separator>
  <separator name="response functions" >
   <i type="logical" name="LADDER"> F  </i>
   <i type="logical" name="LRPAFORCE"> F  </i>
   <i type="logical" name="LFXC"> F  </i>
   <i type="logical" name="LHARTREE"> T  </i>
   <i type="int" name="IBSE">     0</i>
   <v type="int" name="KPOINT">    -1     0     0     0</v>
   <i type="logical" name="LTCTE"> F  </i>
   <i type="logical" name="LTETE"> F  </i>
   <i type="logical" name="LTRIPLET"> F  </i>
   <i type="logical" name="LFXCEPS"> F  </i>
   <i type="logical" name="LFXHEG"> F  </i>
   <i type="int" name="NATURALO">     2</i>
   <i type="logical" name="L2ORDER"> F  </i>
   <i type="logical" name="LMP2LT"> F  </i>
   <i type="logical" name="LUSEW"> F  </i>
   <i name="ENCUTGW">     -2.00000000</i>
   <i name="ENCUTGWSOFT">     -2.00000000</i>
   <i name="ENCUTLF">     -1.00000000</i>
   <i type="int" name="LMAXMP2">    -1</i>
   <i name="SCISSOR">      0.00000000</i>
   <i type="int" name="NOMEGA">     0</i>
   <i type="int" name="NOMEGAR">     0</i>
   <i type="int" name="NBANDSGW">    -1</i>
   <i type="int" name="NBANDSO">    -1</i>
   <i type="int" name="NBANDSV">    -1</i>
   <i type="int" name="NELM">   200</i>
   <i type="int" name="NELMHF">     1</i>
   <i type="int" name="DIM">     3</i>
   <i type="int" name="ANTIRES">     0</i>
   <i name="OMEGAMAX">    -30.00000000</i>
   <i name="OMEGAMIN">    -30.00000000</i>
   <i name="OMEGATL">   -200.00000000</i>
   <i type="int" name="OMEGAGRID">   140</i>
   <i name="CSHIFT">     -0.10000000</i>
   <i type="logical" name="SELFENERGY"> F  </i>
   <i type="logical" name="LSPECTRAL"> F  </i>
   <i type="logical" name="LSPECTRALGW"> F  </i>
   <i type="logical" name="LSINGLES"> F  </i>
   <i type="logical" name="LFERMIGW"> F  </i>
   <i type="logical" name="ODDONLYGW"> F  </i>
   <i type="logical" name="EVENONLYGW"> F  </i>
   <i type="int" name="NKREDLFX">     1</i>
   <i type="int" name="NKREDLFY">     1</i>
   <i type="int" name="NKREDLFZ">     1</i>
   <i type="int" name="MAXMEM">  2800</i>
   <i type="int" name="TELESCOPE">     0</i>
   <i type="int" name="TAUPAR">     1</i>
   <i type="int" name="OMEGAPAR">    -1</i>
   <i name="LAMBDA">      1.00000000</i>
  </separator>
  <separator name="External order field" >
   <i name="OFIELD_KAPPA">      0.00000000</i>
   <v name="OFIELD_K">      0.00000000      0.00000000      0.00000000</v>
   <i name="OFIELD_Q6_NEAR">      0.00000000</i>
   <i name="OFIELD_Q6_FAR">      0.00000000</i>
   <i name="OFIELD_A">      0.00000000</i>
  </separator>
 </parameters>
 <atominfo>
  <atoms>     224 </atoms>
  <types>       4 </types>
  <array name="atoms" >
   <dimension dim="1">ion</dimension>
   <field type="string">element</field>
   <field type="int">atomtype</field>
   <set>
    <rc><c>Li</c><c>   1</c></rc>
    <rc><c>Li</c><c>   1</c></rc>
    <rc><c>Li</c><c>   1</c></rc>
    <rc><c>Li</c><c>   1</c></rc>
    <rc><c>Li</c><c>   1</c></rc>
    <rc><c>Li</c><c>   1</c></rc>
    <rc><c>Li</c><c>   1</c></rc>
    <rc><c>Li</c><c>   1</c></rc>
    <rc><c>Li</c><c>   1</c></rc>
    <rc><c>Li</c><c>   1</c></rc>
    <rc><c>Li</c><c>   1</c></rc>
    <rc><c>Li</c><c>   1</c></rc>
    <rc><c>Li</c><c>   1</c></rc>
    <rc><c>Li</c><c>   1</c></rc>
    <rc><c>Li</c><c>   1</c></rc>
    <rc><c>Li</c><c>   1</c></rc>
    <rc><c>Li</c><c>   1</c></rc>
    <rc><c>Li</c><c>   1</c></rc>
    <rc><c>Li</c><c>   1</c></rc>
    <rc><c>Li</c><c>   1</c></rc>
    <rc><c>Li</c><c>   1</c></rc>
    <rc><c>Li</c><c>   1</c></rc>
    <rc><c>Li</c><c>   1</c></rc>
    <rc><c>Li</c><c>   1</c></rc>
    <rc><c>Li</c><c>   1</c></rc>
    <rc><c>Li</c><c>   1</c></rc>
    <rc><c>Li</c><c>   1</c></rc>
    <rc><c>Li</c><c>   1</c></rc>
    <rc><c>Li</c><c>   1</c></rc>
    <rc><c>Li</c><c>   1</c></rc>
    <rc><c>Li</c><c>   1</c></rc>
    <rc><c>Li</c><c>   1</c></rc>
    <rc><c>Li</c><c>   1</c></rc>
    <rc><c>Li</c><c>   1</c></rc>
    <rc><c>Li</c><c>   1</c></rc>
    <rc><c>Li</c><c>   1</c></rc>
    <rc><c>Li</c><c>   1</c></rc>
    <rc><c>Li</c><c>   1</c></rc>
    <rc><c>Li</c><c>   1</c></rc>
    <rc><c>Li</c><c>   1</c></rc>
    <rc><c>Li</c><c>   1</c></rc>
    <rc><c>Li</c><c>   1</c></rc>
    <rc><c>Li</c><c>   1</c></rc>
    <rc><c>Li</c><c>   1</c></rc>
    <rc><c>Li</c><c>   1</c></rc>
    <rc><c>Li</c><c>   1</c></rc>
    <rc><c>Li</c><c>   1</c></rc>
    <rc><c>Li</c><c>   1</c></rc>
    <rc><c>Li</c><c>   1</c></rc>
    <rc><c>Li</c><c>   1</c></rc>
    <rc><c>Li</c><c>   1</c></rc>
    <rc><c>Li</c><c>   1</c></rc>
    <rc><c>Li</c><c>   1</c></rc>
    <rc><c>Li</c><c>   1</c></rc>
    <rc><c>Li</c><c>   1</c></rc>
    <rc><c>Li</c><c>   1</c></rc>
    <rc><c>Li</c><c>   1</c></rc>
    <rc><c>Li</c><c>   1</c></rc>
    <rc><c>Li</c><c>   1</c></rc>
    <rc><c>Li</c><c>   1</c></rc>
    <rc><c>Li</c><c>   1</c></rc>
    <rc><c>Li</c><c>   1</c></rc>
    <rc><c>Li</c><c>   1</c></rc>
    <rc><c>Li</c><c>   1</c></rc>
    <rc><c>O </c><c>   2</c></rc>
    <rc><c>O </c><c>   2</c></rc>
    <rc><c>O </c><c>   2</c></rc>
    <rc><c>O </c><c>   2</c></rc>
    <rc><c>O </c><c>   2</c></rc>
    <rc><c>O </c><c>   2</c></rc>
    <rc><c>O </c><c>   2</c></rc>
    <rc><c>O </c><c>   2</c></rc>
    <rc><c>O </c><c>   2</c></rc>
    <rc><c>O </c><c>   2</c></rc>
    <rc><c>O </c><c>   2</c></rc>
    <rc><c>O </c><c>   2</c></rc>
    <rc><c>O </c><c>   2</c></rc>
    <rc><c>O </c><c>   2</c></rc>
    <rc><c>O </c><c>   2</c></rc>
    <rc><c>O </c><c>   2</c></rc>
    <rc><c>O </c><c>   2</c></rc>
    <rc><c>O </c><c>   2</c></rc>
    <rc><c>O </c><c>   2</c></rc>
    <rc><c>O </c><c>   2</c></rc>
    <rc><c>O </c><c>   2</c></rc>
    <rc><c>O </c><c>   2</c></rc>
    <rc><c>O </c><c>   2</c></rc>
    <rc><c>O </c><c>   2</c></rc>
    <rc><c>O </c><c>   2</c></rc>
    <rc><c>O </c><c>   2</c></rc>
    <rc><c>O </c><c>   2</c></rc>
    <rc><c>O </c><c>   2</c></rc>
    <rc><c>O </c><c>   2</c></rc>
    <rc><c>O </c><c>   2</c></rc>
    <rc><c>O </c><c>   2</c></rc>
    <rc><c>O </c><c>   2</c></rc>
    <rc><c>S </c><c>   3</c></rc>
    <rc><c>S </c><c>   3</c></rc>
    <rc><c>S </c><c>   3</c></rc>
    <rc><c>S </c><c>   3</c></rc>
    <rc><c>S </c><c>   3</c></rc>
    <rc><c>S </c><c>   3</c></rc>
    <rc><c>S </c><c>   3</c></rc>
    <rc><c>S </c><c>   3</c></rc>
    <rc><c>S </c><c>   3</c></rc>
    <rc><c>S </c><c>   3</c></rc>
    <rc><c>S </c><c>   3</c></rc>
    <rc><c>S </c><c>   3</c></rc>
    <rc><c>S </c><c>   3</c></rc>
    <rc><c>S </c><c>   3</c></rc>
    <rc><c>S </c><c>   3</c></rc>
    <rc><c>S </c><c>   3</c></rc>
    <rc><c>S </c><c>   3</c></rc>
    <rc><c>S </c><c>   3</c></rc>
    <rc><c>S </c><c>   3</c></rc>
    <rc><c>S </c><c>   3</c></rc>
    <rc><c>S </c><c>   3</c></rc>
    <rc><c>S </c><c>   3</c></rc>
    <rc><c>S </c><c>   3</c></rc>
    <rc><c>S </c><c>   3</c></rc>
    <rc><c>S </c><c>   3</c></rc>
    <rc><c>S </c><c>   3</c></rc>
    <rc><c>S </c><c>   3</c></rc>
    <rc><c>S </c><c>   3</c></rc>
    <rc><c>S </c><c>   3</c></rc>
    <rc><c>S </c><c>   3</c></rc>
    <rc><c>S </c><c>   3</c></rc>
    <rc><c>S </c><c>   3</c></rc>
    <rc><c>S </c><c>   3</c></rc>
    <rc><c>S </c><c>   3</c></rc>
    <rc><c>S </c><c>   3</c></rc>
    <rc><c>S </c><c>   3</c></rc>
    <rc><c>S </c><c>   3</c></rc>
    <rc><c>S </c><c>   3</c></rc>
    <rc><c>S </c><c>   3</c></rc>
    <rc><c>S </c><c>   3</c></rc>
    <rc><c>S </c><c>   3</c></rc>
    <rc><c>S </c><c>   3</c></rc>
    <rc><c>S </c><c>   3</c></rc>
    <rc><c>S </c><c>   3</c></rc>
    <rc><c>S </c><c>   3</c></rc>
    <rc><c>S </c><c>   3</c></rc>
    <rc><c>S </c><c>   3</c></rc>
    <rc><c>S </c><c>   3</c></rc>
    <rc><c>S </c><c>   3</c></rc>
    <rc><c>S </c><c>   3</c></rc>
    <rc><c>S </c><c>   3</c></rc>
    <rc><c>S </c><c>   3</c></rc>
    <rc><c>S </c><c>   3</c></rc>
    <rc><c>S </c><c>   3</c></rc>
    <rc><c>S </c><c>   3</c></rc>
    <rc><c>S </c><c>   3</c></rc>
    <rc><c>S </c><c>   3</c></rc>
    <rc><c>S </c><c>   3</c></rc>
    <rc><c>S </c><c>   3</c></rc>
    <rc><c>S </c><c>   3</c></rc>
    <rc><c>S </c><c>   3</c></rc>
    <rc><c>S </c><c>   3</c></rc>
    <rc><c>S </c><c>   3</c></rc>
    <rc><c>S </c><c>   3</c></rc>
    <rc><c>Fe</c><c>   4</c></rc>
    <rc><c>Fe</c><c>   4</c></rc>
    <rc><c>Fe</c><c>   4</c></rc>
    <rc><c>Fe</c><c>   4</c></rc>
    <rc><c>Fe</c><c>   4</c></rc>
    <rc><c>Fe</c><c>   4</c></rc>
    <rc><c>Fe</c><c>   4</c></rc>
    <rc><c>Fe</c><c>   4</c></rc>
    <rc><c>Fe</c><c>   4</c></rc>
    <rc><c>Fe</c><c>   4</c></rc>
    <rc><c>Fe</c><c>   4</c></rc>
    <rc><c>Fe</c><c>   4</c></rc>
    <rc><c>Fe</c><c>   4</c></rc>
    <rc><c>Fe</c><c>   4</c></rc>
    <rc><c>Fe</c><c>   4</c></rc>
    <rc><c>Fe</c><c>   4</c></rc>
    <rc><c>Fe</c><c>   4</c></rc>
    <rc><c>Fe</c><c>   4</c></rc>
    <rc><c>Fe</c><c>   4</c></rc>
    <rc><c>Fe</c><c>   4</c></rc>
    <rc><c>Fe</c><c>   4</c></rc>
    <rc><c>Fe</c><c>   4</c></rc>
    <rc><c>Fe</c><c>   4</c></rc>
    <rc><c>Fe</c><c>   4</c></rc>
    <rc><c>Fe</c><c>   4</c></rc>
    <rc><c>Fe</c><c>   4</c></rc>
    <rc><c>Fe</c><c>   4</c></rc>
    <rc><c>Fe</c><c>   4</c></rc>
    <rc><c>Fe</c><c>   4</c></rc>
    <rc><c>Fe</c><c>   4</c></rc>
    <rc><c>Fe</c><c>   4</c></rc>
    <rc><c>Fe</c><c>   4</c></rc>
    <rc><c>Fe</c><c>   4</c></rc>
    <rc><c>Fe</c><c>   4</c></rc>
    <rc><c>Fe</c><c>   4</c></rc>
    <rc><c>Fe</c><c>   4</c></rc>
    <rc><c>Fe</c><c>   4</c></rc>
    <rc><c>Fe</c><c>   4</c></rc>
    <rc><c>Fe</c><c>   4</c></rc>
    <rc><c>Fe</c><c>   4</c></rc>
    <rc><c>Fe</c><c>   4</c></rc>
    <rc><c>Fe</c><c>   4</c></rc>
    <rc><c>Fe</c><c>   4</c></rc>
    <rc><c>Fe</c><c>   4</c></rc>
    <rc><c>Fe</c><c>   4</c></rc>
    <rc><c>Fe</c><c>   4</c></rc>
    <rc><c>Fe</c><c>   4</c></rc>
    <rc><c>Fe</c><c>   4</c></rc>
    <rc><c>Fe</c><c>   4</c></rc>
    <rc><c>Fe</c><c>   4</c></rc>
    <rc><c>Fe</c><c>   4</c></rc>
    <rc><c>Fe</c><c>   4</c></rc>
    <rc><c>Fe</c><c>   4</c></rc>
    <rc><c>Fe</c><c>   4</c></rc>
    <rc><c>Fe</c><c>   4</c></rc>
    <rc><c>Fe</c><c>   4</c></rc>
    <rc><c>Fe</c><c>   4</c></rc>
    <rc><c>Fe</c><c>   4</c></rc>
    <rc><c>Fe</c><c>   4</c></rc>
    <rc><c>Fe</c><c>   4</c></rc>
    <rc><c>Fe</c><c>   4</c></rc>
    <rc><c>Fe</c><c>   4</c></rc>
    <rc><c>Fe</c><c>   4</c></rc>
    <rc><c>Fe</c><c>   4</c></rc>
   </set>
  </array>
  <array name="atomtypes" >
   <dimension dim="1">type</dimension>
   <field type="int">atomspertype</field>
   <field type="string">element</field>
   <field>mass</field>
   <field>valence</field>
   <field type="string">pseudopotential</field>
   <set>
    <rc><c>  64</c><c>Li</c><c>      7.01000000</c><c>      3.00000000</c><c>  PAW_PBE Li_sv 10Sep2004               </c></rc>
    <rc><c>  32</c><c>O </c><c>     16.00000000</c><c>      6.00000000</c><c>  PAW_PBE O 08Apr2002                   </c></rc>
    <rc><c>  64</c><c>S </c><c>     32.06600000</c><c>      6.00000000</c><c>  PAW_PBE S 06Sep2000                   </c></rc>
    <rc><c>  64</c><c>Fe</c><c>     55.84700000</c><c>     14.00000000</c><c>  PAW_PBE Fe_pv 02Aug2007               </c></rc>
   </set>
  </array>
 </atominfo>
 <structure name="initialpos" >
  <crystal>
   <varray name="basis" >
    <v>      15.37959744       0.00260798      -0.01267804 </v>
    <v>      -0.00277488      15.37961926      -0.01267806 </v>
    <v>      -3.83358824      -3.83493454      12.86275064 </v>
   </varray>
   <i name="volume">   3040.96152487 </i>
   <varray name="rec_basis" >
    <v>       0.06503719       0.00002772       0.01939182 </v>
    <v>       0.00000496       0.06503710       0.01939181 </v>
    <v>       0.00006411       0.00006413       0.07778210 </v>
   </varray>
  </crystal>
  <varray name="positions" >
   <v>       0.11205242       0.03120912       0.00000252 </v>
   <v>       0.61205242       0.03120912       0.00000252 </v>
   <v>       0.11205242       0.53120912       0.00000252 </v>
   <v>       0.61205242       0.53120912       0.00000252 </v>
   <v>       0.11205242       0.03120912       0.50000252 </v>
   <v>       0.61205242       0.03120912       0.50000252 </v>
   <v>       0.11205242       0.53120912       0.50000252 </v>
   <v>       0.61205242       0.53120912       0.50000252 </v>
   <v>       0.36205520       0.49468587       0.00001176 </v>
   <v>       0.86205520       0.49468587       0.00001176 </v>
   <v>       0.36205520       0.99468587       0.00001176 </v>
   <v>       0.86205520       0.99468587       0.00001176 </v>
   <v>       0.36205520       0.49468587       0.50001176 </v>
   <v>       0.86205520       0.49468587       0.50001176 </v>
   <v>       0.36205520       0.99468587       0.50001176 </v>
   <v>       0.86205520       0.99468587       0.50001176 </v>
   <v>       0.11205520       0.24468587       0.00001176 </v>
   <v>       0.61205520       0.24468587       0.00001176 </v>
   <v>       0.11205520       0.74468587       0.00001176 </v>
   <v>       0.61205520       0.74468587       0.00001176 </v>
   <v>       0.11205520       0.24468587       0.50001176 </v>
   <v>       0.61205520       0.24468587       0.50001176 </v>
   <v>       0.11205520       0.74468587       0.50001176 </v>
   <v>       0.61205520       0.74468587       0.50001176 </v>
   <v>       0.36205242       0.28120912       0.00000252 </v>
   <v>       0.86205242       0.28120912       0.00000252 </v>
   <v>       0.36205242       0.78120912       0.00000252 </v>
   <v>       0.86205242       0.78120912       0.00000252 </v>
   <v>       0.36205242       0.28120912       0.50000252 </v>
   <v>       0.86205242       0.28120912       0.50000252 </v>
   <v>       0.36205242       0.78120912       0.50000252 </v>
   <v>       0.86205242       0.78120912       0.50000252 </v>
   <v>       0.25531414       0.13794480       0.49998824 </v>
   <v>       0.75531414       0.13794480       0.49998824 </v>
   <v>       0.25531414       0.63794480       0.49998824 </v>
   <v>       0.75531414       0.63794480       0.49998824 </v>
   <v>       0.25531414       0.13794480       0.99998824 </v>
   <v>       0.75531414       0.13794480       0.99998824 </v>
   <v>       0.25531414       0.63794480       0.99998824 </v>
   <v>       0.75531414       0.63794480       0.99998824 </v>
   <v>       0.46879087       0.13794758       0.49999748 </v>
   <v>       0.96879087       0.13794758       0.49999748 </v>
   <v>       0.46879087       0.63794758       0.49999748 </v>
   <v>       0.96879087       0.63794758       0.49999748 </v>
   <v>       0.46879087       0.13794758       0.99999748 </v>
   <v>       0.96879087       0.13794758       0.99999748 </v>
   <v>       0.46879087       0.63794758       0.99999748 </v>
   <v>       0.96879087       0.63794758       0.99999748 </v>
   <v>       0.21879087       0.38794758       0.49999748 </v>
   <v>       0.71879087       0.38794758       0.49999748 </v>
   <v>       0.21879087       0.88794758       0.49999748 </v>
   <v>       0.71879087       0.88794758       0.49999748 </v>
   <v>       0.21879087       0.38794758       0.99999748 </v>
   <v>       0.71879087       0.38794758       0.99999748 </v>
   <v>       0.21879087       0.88794758       0.99999748 </v>
   <v>       0.71879087       0.88794758       0.99999748 </v>
   <v>       0.00531414       0.38794480       0.49998824 </v>
   <v>       0.50531414       0.38794480       0.49998824 </v>
   <v>       0.00531414       0.88794480       0.49998824 </v>
   <v>       0.50531414       0.88794480       0.49998824 </v>
   <v>       0.00531414       0.38794480       0.99998824 </v>
   <v>       0.50531414       0.38794480       0.99998824 </v>
   <v>       0.00531414       0.88794480       0.99998824 </v>
   <v>       0.50531414       0.88794480       0.99998824 </v>
   <v>       0.23770109       0.01294824       0.49999897 </v>
   <v>       0.73705088       0.01294824       0.49999897 </v>
   <v>       0.23705088       0.51294824       0.49999897 </v>
   <v>       0.73705088       0.51294824       0.49999897 </v>
   <v>       0.23705088       0.01294824       0.99999897 </v>
   <v>       0.73705088       0.01294824       0.99999897 </v>
   <v>       0.23705088       0.51294824       0.99999897 </v>
   <v>       0.73705088       0.51294824       0.99999897 </v>
   <v>       0.48705202       0.01294937       0.00000103 </v>
   <v>       0.98705202       0.01294937       0.00000103 </v>
   <v>       0.48705202       0.51294937       0.00000103 </v>
   <v>       0.98705202       0.51294937       0.00000103 </v>
   <v>       0.48705202       0.01294937       0.50000103 </v>
   <v>       0.98705202       0.01294937       0.50000103 </v>
   <v>       0.48705202       0.51294937       0.50000103 </v>
   <v>       0.98705202       0.51294937       0.50000103 </v>
   <v>       0.23705202       0.26294937       0.00000103 </v>
   <v>       0.73705202       0.26294937       0.00000103 </v>
   <v>       0.23705202       0.76294937       0.00000103 </v>
   <v>       0.73705202       0.76294937       0.00000103 </v>
   <v>       0.23705202       0.26294937       0.50000103 </v>
   <v>       0.73705202       0.26294937       0.50000103 </v>
   <v>       0.23705202       0.76294937       0.50000103 </v>
   <v>       0.73705202       0.76294937       0.50000103 </v>
   <v>       0.48705088       0.26294824       0.49999897 </v>
   <v>       0.98705088       0.26294824       0.49999897 </v>
   <v>       0.48705088       0.76294824       0.49999897 </v>
   <v>       0.98705088       0.76294824       0.49999897 </v>
   <v>       0.48705088       0.26294824       0.99999897 </v>
   <v>       0.98705088       0.26294824       0.99999897 </v>
   <v>       0.48705088       0.76294824       0.99999897 </v>
   <v>       0.98705088       0.76294824       0.99999897 </v>
   <v>       0.14990797       0.17581133       0.15144025 </v>
   <v>       0.64990797       0.17581133       0.15144025 </v>
   <v>       0.14990797       0.67581133       0.15144025 </v>
   <v>       0.64990797       0.67581133       0.15144025 </v>
   <v>       0.14990797       0.17581133       0.65144025 </v>
   <v>       0.64990797       0.17581133       0.65144025 </v>
   <v>       0.14990797       0.67581133       0.65144025 </v>
   <v>       0.64990797       0.67581133       0.65144025 </v>
   <v>       0.39990786       0.17581084       0.15143681 </v>
   <v>       0.89990786       0.17581084       0.15143681 </v>
   <v>       0.39990786       0.67581084       0.15143681 </v>
   <v>       0.89990786       0.67581084       0.15143681 </v>
   <v>       0.39990786       0.17581084       0.65143681 </v>
   <v>       0.89990786       0.17581084       0.65143681 </v>
   <v>       0.39990786       0.67581084       0.65143681 </v>
   <v>       0.89990786       0.67581084       0.65143681 </v>
   <v>       0.14990786       0.42581084       0.15143681 </v>
   <v>       0.64990786       0.42581084       0.15143681 </v>
   <v>       0.14990786       0.92581084       0.15143681 </v>
   <v>       0.64990786       0.92581084       0.15143681 </v>
   <v>       0.14990786       0.42581084       0.65143681 </v>
   <v>       0.64990786       0.42581084       0.65143681 </v>
   <v>       0.14990786       0.92581084       0.65143681 </v>
   <v>       0.64990786       0.92581084       0.65143681 </v>
   <v>       0.39990797       0.42581133       0.15144025 </v>
   <v>       0.89990797       0.42581133       0.15144025 </v>
   <v>       0.39990797       0.92581133       0.15144025 </v>
   <v>       0.89990797       0.92581133       0.15144025 </v>
   <v>       0.39990797       0.42581133       0.65144025 </v>
   <v>       0.89990797       0.42581133       0.65144025 </v>
   <v>       0.39990797       0.92581133       0.65144025 </v>
   <v>       0.89990797       0.92581133       0.65144025 </v>
   <v>       0.07418916       0.10009214       0.34856319 </v>
   <v>       0.57418916       0.10009214       0.34856319 </v>
   <v>       0.07418916       0.60009214       0.34856319 </v>
   <v>       0.57418916       0.60009214       0.34856319 </v>
   <v>       0.07418916       0.10009214       0.84856319 </v>
   <v>       0.57418916       0.10009214       0.84856319 </v>
   <v>       0.07418916       0.60009214       0.84856319 </v>
   <v>       0.57418916       0.60009214       0.84856319 </v>
   <v>       0.32418867       0.10009203       0.34855975 </v>
   <v>       0.82418867       0.10009203       0.34855975 </v>
   <v>       0.32418867       0.60009203       0.34855975 </v>
   <v>       0.82418867       0.60009203       0.34855975 </v>
   <v>       0.32418867       0.10009203       0.84855975 </v>
   <v>       0.82418867       0.10009203       0.84855975 </v>
   <v>       0.32418867       0.60009203       0.84855975 </v>
   <v>       0.82418867       0.60009203       0.84855975 </v>
   <v>       0.07418867       0.35009203       0.34855975 </v>
   <v>       0.57418867       0.35009203       0.34855975 </v>
   <v>       0.07418867       0.85009203       0.34855975 </v>
   <v>       0.57418867       0.85009203       0.34855975 </v>
   <v>       0.07418867       0.35009203       0.84855975 </v>
   <v>       0.57418867       0.35009203       0.84855975 </v>
   <v>       0.07418867       0.85009203       0.84855975 </v>
   <v>       0.57418867       0.85009203       0.84855975 </v>
   <v>       0.32418916       0.35009214       0.34856319 </v>
   <v>       0.82418916       0.35009214       0.34856319 </v>
   <v>       0.32418916       0.85009214       0.34856319 </v>
   <v>       0.82418916       0.85009214       0.34856319 </v>
   <v>       0.32418916       0.35009214       0.84856319 </v>
   <v>       0.82418916       0.35009214       0.84856319 </v>
   <v>       0.32418916       0.85009214       0.84856319 </v>
   <v>       0.82418916       0.85009214       0.84856319 </v>
   <v>       0.02677905       0.05271006       0.15897707 </v>
   <v>       0.52677905       0.05271006       0.15897707 </v>
   <v>       0.02677905       0.55271006       0.15897707 </v>
   <v>       0.52677905       0.55271006       0.15897707 </v>
   <v>       0.02677905       0.05271006       0.65897707 </v>
   <v>       0.52677905       0.05271006       0.65897707 </v>
   <v>       0.02677905       0.55271006       0.65897707 </v>
   <v>       0.52677905       0.55271006       0.65897707 </v>
   <v>       0.27677185       0.05270804       0.15897368 </v>
   <v>       0.77677185       0.05270804       0.15897368 </v>
   <v>       0.27677185       0.55270804       0.15897368 </v>
   <v>       0.77677185       0.55270804       0.15897368 </v>
   <v>       0.27677185       0.05270804       0.65897368 </v>
   <v>       0.77677185       0.05270804       0.65897368 </v>
   <v>       0.27677185       0.55270804       0.65897368 </v>
   <v>       0.77677185       0.55270804       0.65897368 </v>
   <v>       0.02677185       0.30270804       0.15897368 </v>
   <v>       0.52677185       0.30270804       0.15897368 </v>
   <v>       0.02677185       0.80270804       0.15897368 </v>
   <v>       0.52677185       0.80270804       0.15897368 </v>
   <v>       0.02677185       0.30270804       0.65897368 </v>
   <v>       0.52677185       0.30270804       0.65897368 </v>
   <v>       0.02677185       0.80270804       0.65897368 </v>
   <v>       0.52677185       0.80270804       0.65897368 </v>
   <v>       0.27677905       0.30271006       0.15897707 </v>
   <v>       0.77677905       0.30271006       0.15897707 </v>
   <v>       0.27677905       0.80271006       0.15897707 </v>
   <v>       0.77677905       0.80271006       0.15897707 </v>
   <v>       0.27677905       0.30271006       0.65897707 </v>
   <v>       0.77677905       0.30271006       0.65897707 </v>
   <v>       0.27677905       0.80271006       0.65897707 </v>
   <v>       0.77677905       0.80271006       0.65897707 </v>
   <v>       0.19729196       0.22322815       0.34102632 </v>
   <v>       0.69729196       0.22322815       0.34102632 </v>
   <v>       0.19729196       0.72322815       0.34102632 </v>
   <v>       0.69729196       0.72322815       0.34102632 </v>
   <v>       0.19729196       0.22322815       0.84102632 </v>
   <v>       0.69729196       0.22322815       0.84102632 </v>
   <v>       0.19729196       0.72322815       0.84102632 </v>
   <v>       0.69729196       0.72322815       0.84102632 </v>
   <v>       0.44728994       0.22322095       0.34102293 </v>
   <v>       0.94728994       0.22322095       0.34102293 </v>
   <v>       0.44728994       0.72322095       0.34102293 </v>
   <v>       0.94728994       0.72322095       0.34102293 </v>
   <v>       0.44728994       0.22322095       0.84102293 </v>
   <v>       0.94728994       0.22322095       0.84102293 </v>
   <v>       0.44728994       0.72322095       0.84102293 </v>
   <v>       0.94728994       0.72322095       0.84102293 </v>
   <v>       0.19728994       0.47322095       0.34102293 </v>
   <v>       0.69728994       0.47322095       0.34102293 </v>
   <v>       0.19728994       0.97322095       0.34102293 </v>
   <v>       0.69728994       0.97322095       0.34102293 </v>
   <v>       0.19728994       0.47322095       0.84102293 </v>
   <v>       0.69728994       0.47322095       0.84102293 </v>
   <v>       0.19728994       0.97322095       0.84102293 </v>
   <v>       0.69728994       0.97322095       0.84102293 </v>
   <v>       0.44729196       0.47322815       0.34102632 </v>
   <v>       0.94729196       0.47322815       0.34102632 </v>
   <v>       0.44729196       0.97322815       0.34102632 </v>
   <v>       0.94729196       0.97322815       0.34102632 </v>
   <v>       0.44729196       0.47322815       0.84102632 </v>
   <v>       0.94729196       0.47322815       0.84102632 </v>
   <v>       0.44729196       0.97322815       0.84102632 </v>
   <v>       0.94729196       0.97322815       0.84102632 </v>
  </varray>
 </structure>
 <calculation>
  <scstep>
   <time name="total"> 1477.47 1490.10</time>
   <energy>
    <i name="alphaZ">   4690.73086636 </i>
    <i name="ewald">-123171.31009178 </i>
    <i name="hartreedc"> -61831.86786838 </i>
    <i name="XCdc">   7068.08929759 </i>
    <i name="pawpsdc"> 195670.66238119 </i>
    <i name="pawaedc">-201814.61936820 </i>
    <i name="eentropy">     -0.03726708 </i>
    <i name="bandstr">    135.57347190 </i>
    <i name="atom"> 201805.03006389 </i>
    <i name="e_fr_energy">  22552.25148550 </i>
    <i name="e_wo_entrp">  22552.28875258 </i>
    <i name="e_0_energy">  22552.27011904 </i>
   </energy>
  </scstep>
  <scstep>
   <time name="total"> 1421.80 1434.13</time>
   <energy>
    <i name="e_fr_energy">   2472.66822033 </i>
    <i name="e_wo_entrp">   2472.80843479 </i>
    <i name="e_0_energy">   2472.73832756 </i>
   </energy>
  </scstep>
  <scstep>
   <time name="total"> 1527.64 1540.88</time>
   <energy>
    <i name="e_fr_energy">   -727.38115521 </i>
    <i name="e_wo_entrp">   -727.38115521 </i>
    <i name="e_0_energy">   -727.38115521 </i>
   </energy>
  </scstep>
  <scstep>
   <time name="total"> 1647.66 1663.42</time>
   <energy>
    <i name="e_fr_energy">  -1122.35799787 </i>
    <i name="e_wo_entrp">  -1122.35799787 </i>
    <i name="e_0_energy">  -1122.35799787 </i>
   </energy>
  </scstep>
  <scstep>
   <time name="total"> 2227.94 2249.05</time>
   <energy>
    <i name="e_fr_energy">  -1167.88474750 </i>
    <i name="e_wo_entrp">  -1167.88474750 </i>
    <i name="e_0_energy">  -1167.88474750 </i>
   </energy>
  </scstep>
  <scstep>
   <time name="total">  829.47  905.04</time>
   <energy>
    <i name="e_fr_energy">  -1167.78189372 </i>
    <i name="e_wo_entrp">  -1167.78189372 </i>
    <i name="e_0_energy">  -1167.78189372 </i>
   </energy>
  </scstep>
  <scstep>
   <time name="total">  791.39  799.99</time>
   <energy>
    <i name="e_fr_energy">  -1168.79842526 </i>
    <i name="e_wo_entrp">  -1168.79842526 </i>
    <i name="e_0_energy">  -1168.79842526 </i>
   </energy>
  </scstep>
  <scstep>
   <time name="total">  790.05  799.36</time>
   <energy>
    <i name="e_fr_energy">  -1169.42274469 </i>
    <i name="e_wo_entrp">  -1169.42274469 </i>
    <i name="e_0_energy">  -1169.42274469 </i>
   </energy>
  </scstep>
  <scstep>
   <time name="total">  790.56  798.78</time>
   <energy>
    <i name="e_fr_energy">  -1169.66797877 </i>
    <i name="e_wo_entrp">  -1169.66797877 </i>
    <i name="e_0_energy">  -1169.66797877 </i>
   </energy>
  </scstep>
  <scstep>
   <time name="total">  789.92  798.83</time>
   <energy>
    <i name="e_fr_energy">  -1169.76213139 </i>
    <i name="e_wo_entrp">  -1169.76213139 </i>
    <i name="e_0_energy">  -1169.76213139 </i>
   </energy>
  </scstep>
  <scstep>
   <time name="total">  789.87  798.67</time>
   <energy>
    <i name="e_fr_energy">  -1169.79835361 </i>
    <i name="e_wo_entrp">  -1169.79835361 </i>
    <i name="e_0_energy">  -1169.79835361 </i>
   </energy>
  </scstep>
  <scstep>
   <time name="total">  790.49  798.61</time>
   <energy>
    <i name="e_fr_energy">  -1169.80950186 </i>
    <i name="e_wo_entrp">  -1169.80950186 </i>
    <i name="e_0_energy">  -1169.80950186 </i>
   </energy>
  </scstep>
  <scstep>
   <time name="total">  792.10  799.95</time>
   <energy>
    <i name="e_fr_energy">  -1169.81484926 </i>
    <i name="e_wo_entrp">  -1169.81484926 </i>
    <i name="e_0_energy">  -1169.81484926 </i>
   </energy>
  </scstep>
  <scstep>
   <time name="total">  789.62  798.33</time>
   <energy>
    <i name="e_fr_energy">  -1169.81801045 </i>
    <i name="e_wo_entrp">  -1169.81801045 </i>
    <i name="e_0_energy">  -1169.81801045 </i>
   </energy>
  </scstep>
  <scstep>
   <time name="total">  789.61  797.66</time>
   <energy>
    <i name="e_fr_energy">  -1169.81995062 </i>
    <i name="e_wo_entrp">  -1169.81995062 </i>
    <i name="e_0_energy">  -1169.81995062 </i>
   </energy>
  </scstep>
  <scstep>
   <time name="total">  789.87  798.10</time>
   <energy>
    <i name="e_fr_energy">  -1169.82101579 </i>
    <i name="e_wo_entrp">  -1169.82101579 </i>
    <i name="e_0_energy">  -1169.82101579 </i>
   </energy>
  </scstep>
  <scstep>
   <time name="total">  790.47  798.31</time>
   <energy>
    <i name="e_fr_energy">  -1169.82162352 </i>
    <i name="e_wo_entrp">  -1169.82162352 </i>
    <i name="e_0_energy">  -1169.82162352 </i>
   </energy>
  </scstep>
  <scstep>
   <time name="total">  788.78  796.95</time>
   <energy>
    <i name="e_fr_energy">  -1169.82199586 </i>
    <i name="e_wo_entrp">  -1169.82199586 </i>
    <i name="e_0_energy">  -1169.82199586 </i>
   </energy>
  </scstep>
  <scstep>
   <time name="total">  791.46  798.68</time>
   <energy>
    <i name="e_fr_energy">  -1169.82228525 </i>
    <i name="e_wo_entrp">  -1169.82228525 </i>
    <i name="e_0_energy">  -1169.82228525 </i>
   </energy>
  </scstep>
  <scstep>
   <time name="total">  788.61  796.75</time>
   <energy>
    <i name="e_fr_energy">  -1169.82247703 </i>
    <i name="e_wo_entrp">  -1169.82247703 </i>
    <i name="e_0_energy">  -1169.82247703 </i>
   </energy>
  </scstep>
  <scstep>
   <time name="total">  789.43  797.40</time>
   <energy>
    <i name="e_fr_energy">  -1169.82257463 </i>
    <i name="e_wo_entrp">  -1169.82257463 </i>
    <i name="e_0_energy">  -1169.82257463 </i>
   </energy>
  </scstep>
  <scstep>
   <time name="total">  789.90  798.69</time>
   <energy>
    <i name="e_fr_energy">  -1169.82262093 </i>
    <i name="e_wo_entrp">  -1169.82262093 </i>
    <i name="e_0_energy">  -1169.82262093 </i>
   </energy>
  </scstep>
  <scstep>
   <time name="total">  788.67  797.50</time>
   <energy>
    <i name="e_fr_energy">  -1169.82265062 </i>
    <i name="e_wo_entrp">  -1169.82265062 </i>
    <i name="e_0_energy">  -1169.82265062 </i>
   </energy>
  </scstep>
  <scstep>
   <time name="total">  787.87  796.89</time>
   <energy>
    <i name="e_fr_energy">  -1169.82266820 </i>
    <i name="e_wo_entrp">  -1169.82266820 </i>
    <i name="e_0_energy">  -1169.82266820 </i>
   </energy>
  </scstep>
  <scstep>
   <time name="total">  789.98  797.89</time>
   <energy>
    <i name="e_fr_energy">  -1169.82267796 </i>
    <i name="e_wo_entrp">  -1169.82267796 </i>
    <i name="e_0_energy">  -1169.82267796 </i>
   </energy>
  </scstep>
  <scstep>
   <time name="total">  789.53  798.88</time>
   <energy>
    <i name="e_fr_energy">  -1169.82268520 </i>
    <i name="e_wo_entrp">  -1169.82268520 </i>
    <i name="e_0_energy">  -1169.82268520 </i>
   </energy>
  </scstep>
  <scstep>
   <time name="total">  788.99  797.14</time>
   <energy>
    <i name="e_fr_energy">  -1169.82269160 </i>
    <i name="e_wo_entrp">  -1169.82269160 </i>
    <i name="e_0_energy">  -1169.82269160 </i>
   </energy>
  </scstep>
  <scstep>
   <time name="total">  789.21  796.41</time>
   <energy>
    <i name="e_fr_energy">  -1169.82269638 </i>
    <i name="e_wo_entrp">  -1169.82269638 </i>
    <i name="e_0_energy">  -1169.82269638 </i>
   </energy>
  </scstep>
  <scstep>
   <time name="total">  788.63  796.32</time>
   <energy>
    <i name="e_fr_energy">  -1169.82269950 </i>
    <i name="e_wo_entrp">  -1169.82269950 </i>
    <i name="e_0_energy">  -1169.82269950 </i>
   </energy>
  </scstep>
  <scstep>
   <time name="total">  789.40  797.88</time>
   <energy>
    <i name="e_fr_energy">  -1169.82270254 </i>
    <i name="e_wo_entrp">  -1169.82270254 </i>
    <i name="e_0_energy">  -1169.82270254 </i>
   </energy>
  </scstep>
  <scstep>
   <time name="total">  788.92  797.81</time>
   <energy>
    <i name="e_fr_energy">  -1169.82270490 </i>
    <i name="e_wo_entrp">  -1169.82270490 </i>
    <i name="e_0_energy">  -1169.82270490 </i>
   </energy>
  </scstep>
  <scstep>
   <time name="total">  788.33  796.72</time>
   <energy>
    <i name="e_fr_energy">  -1169.82270667 </i>
    <i name="e_wo_entrp">  -1169.82270667 </i>
    <i name="e_0_energy">  -1169.82270667 </i>
   </energy>
  </scstep>
  <scstep>
   <time name="total">  788.06  795.28</time>
   <energy>
    <i name="e_fr_energy">  -1169.82270808 </i>
    <i name="e_wo_entrp">  -1169.82270808 </i>
    <i name="e_0_energy">  -1169.82270808 </i>
   </energy>
  </scstep>
  <scstep>
   <time name="total">  865.46  875.91</time>
   <energy>
    <i name="alphaZ">   4690.73086636 </i>
    <i name="ewald">-123171.31009178 </i>
    <i name="hartreedc"> -61831.84074706 </i>
    <i name="XCdc">   7068.08846484 </i>
    <i name="pawpsdc"> 195671.02080350 </i>
    <i name="pawaedc">-201814.97344147 </i>
    <i name="eentropy">     -0.00000000 </i>
    <i name="bandstr"> -23586.56862733 </i>
    <i name="atom"> 201805.03006389 </i>
    <i name="e_fr_energy">  -1169.82270905 </i>
    <i name="e_wo_entrp">  -1169.82270905 </i>
    <i name="e_0_energy">  -1169.82270905 </i>
   </energy>
  </scstep>
  <structure>
   <crystal>
    <varray name="basis" >
     <v>      15.37959744       0.00260798      -0.01267804 </v>
     <v>      -0.00277488      15.37961926      -0.01267806 </v>
     <v>      -3.83358824      -3.83493454      12.86275064 </v>
    </varray>
    <i name="volume">   3040.96152487 </i>
    <varray name="rec_basis" >
     <v>       0.06503719       0.00002772       0.01939182 </v>
     <v>       0.00000496       0.06503710       0.01939181 </v>
     <v>       0.00006411       0.00006413       0.07778210 </v>
    </varray>
   </crystal>
   <varray name="positions" >
    <v>       0.11205242       0.03120912       0.00000252 </v>
    <v>       0.61205242       0.03120912       0.00000252 </v>
    <v>       0.11205242       0.53120912       0.00000252 </v>
    <v>       0.61205242       0.53120912       0.00000252 </v>
    <v>       0.11205242       0.03120912       0.50000252 </v>
    <v>       0.61205242       0.03120912       0.50000252 </v>
    <v>       0.11205242       0.53120912       0.50000252 </v>
    <v>       0.61205242       0.53120912       0.50000252 </v>
    <v>       0.36205520       0.49468587       0.00001176 </v>
    <v>       0.86205520       0.49468587       0.00001176 </v>
    <v>       0.36205520       0.99468587       0.00001176 </v>
    <v>       0.86205520       0.99468587       0.00001176 </v>
    <v>       0.36205520       0.49468587       0.50001176 </v>
    <v>       0.86205520       0.49468587       0.50001176 </v>
    <v>       0.36205520       0.99468587       0.50001176 </v>
    <v>       0.86205520       0.99468587       0.50001176 </v>
    <v>       0.11205520       0.24468587       0.00001176 </v>
    <v>       0.61205520       0.24468587       0.00001176 </v>
    <v>       0.11205520       0.74468587       0.00001176 </v>
    <v>       0.61205520       0.74468587       0.00001176 </v>
    <v>       0.11205520       0.24468587       0.50001176 </v>
    <v>       0.61205520       0.24468587       0.50001176 </v>
    <v>       0.11205520       0.74468587       0.50001176 </v>
    <v>       0.61205520       0.74468587       0.50001176 </v>
    <v>       0.36205242       0.28120912       0.00000252 </v>
    <v>       0.86205242       0.28120912       0.00000252 </v>
    <v>       0.36205242       0.78120912       0.00000252 </v>
    <v>       0.86205242       0.78120912       0.00000252 </v>
    <v>       0.36205242       0.28120912       0.50000252 </v>
    <v>       0.86205242       0.28120912       0.50000252 </v>
    <v>       0.36205242       0.78120912       0.50000252 </v>
    <v>       0.86205242       0.78120912       0.50000252 </v>
[...]
       <r>    -7.3042    22.3158   294.0461 </r>
       <r>    -7.0639    31.0226   301.5036 </r>
       <r>    -6.8235    48.8655   313.2502 </r>
       <r>    -6.5831   138.9220   346.6454 </r>
       <r>    -6.3427    22.2748   352.0000 </r>
       <r>    -6.1023     0.0000   352.0000 </r>
       <r>    -5.8619     0.0000   352.0000 </r>
       <r>    -5.6215     0.0000   352.0000 </r>
       <r>    -5.3811     0.0000   352.0000 </r>
       <r>    -5.1407     0.0000   352.0000 </r>
       <r>    -4.9004     0.0000   352.0000 </r>
       <r>    -4.6600     0.0000   352.0000 </r>
       <r>    -4.4196     0.0000   352.0000 </r>
       <r>    -4.1792     0.0000   352.0000 </r>
       <r>    -3.9388     0.0000   352.0000 </r>
       <r>    -3.6984     0.0000   352.0000 </r>
       <r>    -3.4580     0.0000   352.0000 </r>
       <r>    -3.2176     0.0000   352.0000 </r>
       <r>    -2.9773     0.0000   352.0000 </r>
       <r>    -2.7369     0.0000   352.0000 </r>
       <r>    -2.4965     0.0000   352.0000 </r>
       <r>    -2.2561     0.0000   352.0000 </r>
       <r>    -2.0157     0.0000   352.0000 </r>
       <r>    -1.7753     0.0000   352.0000 </r>
       <r>    -1.5349     0.0000   352.0000 </r>
       <r>    -1.2945     0.0000   352.0000 </r>
       <r>    -1.0542     0.0000   352.0000 </r>
       <r>    -0.8138     0.0000   352.0000 </r>
       <r>    -0.5734     0.0000   352.0000 </r>
       <r>    -0.3330     4.0213   352.9667 </r>
       <r>    -0.0926    24.7103   358.9067 </r>
       <r>     0.1478    40.9833   368.7586 </r>
       <r>     0.3882    42.2955   378.9259 </r>
       <r>     0.6286    71.8456   396.1967 </r>
       <r>     0.8689    60.6308   410.7716 </r>
       <r>     1.1093    65.2182   426.4493 </r>
       <r>     1.3497    67.6964   442.7227 </r>
       <r>     1.5901    77.6365   461.3856 </r>
       <r>     1.8305   110.8926   488.0428 </r>
       <r>     2.0709    62.4743   503.0609 </r>
       <r>     2.3113    37.7252   512.1296 </r>
       <r>     2.5517    77.3376   530.7206 </r>
       <r>     2.7920   103.9112   555.6996 </r>
       <r>     3.0324    70.7838   572.7152 </r>
       <r>     3.2728   131.1548   604.2432 </r>
       <r>     3.5132   117.6640   632.5282 </r>
       <r>     3.7536    25.1436   638.5724 </r>
       <r>     3.9940    43.7340   649.0856 </r>
       <r>     4.2344   178.4762   691.9891 </r>
       <r>     4.4748    48.2671   703.5919 </r>
       <r>     4.7152     1.6977   704.0000 </r>
       <r>     4.9555     0.0000   704.0000 </r>
       <r>     5.1959     0.0000   704.0000 </r>
       <r>     5.4363     0.0000   704.0000 </r>
       <r>     5.6767     0.0000   704.0000 </r>
       <r>     5.9171     0.0000   704.0000 </r>
       <r>     6.1575     0.0000   704.0000 </r>
       <r>     6.3979     1.0252   704.2464 </r>
       <r>     6.6383    10.0946   706.6731 </r>
       <r>     6.8786    26.3861   713.0160 </r>
       <r>     7.1190    65.6710   728.8025 </r>
       <r>     7.3594   111.2850   755.5541 </r>
       <r>     7.5998   139.2613   789.0308 </r>
       <r>     7.8402   118.2562   817.4582 </r>
       <r>     8.0806   178.3501   860.3314 </r>
       <r>     8.3210   146.3397   895.5097 </r>
       <r>     8.5614    61.6759   910.3358 </r>
       <r>     8.8017    82.6355   930.2004 </r>
       <r>     9.0421    73.1386   947.7820 </r>
       <r>     9.2825    57.3575   961.5701 </r>
       <r>     9.5229    23.3235   967.1767 </r>
       <r>     9.7633    34.0497   975.3619 </r>
       <r>    10.0037    22.6686   980.8111 </r>
       <r>    10.2441    38.5912   990.0880 </r>
       <r>    10.4845    43.5690  1000.5615 </r>
       <r>    10.7248    60.8596  1015.1914 </r>
       <r>    10.9652    43.6247  1025.6782 </r>
       <r>    11.2056    40.2301  1035.3491 </r>
       <r>    11.4460    34.4221  1043.6237 </r>
       <r>    11.6864    43.7666  1054.1447 </r>
       <r>    11.9268    51.6671  1066.5648 </r>
       <r>    12.1672    57.6554  1080.4245 </r>
       <r>    12.4076    53.2703  1093.2300 </r>
       <r>    12.6480    66.8042  1109.2889 </r>
       <r>    12.8883    79.7724  1128.4652 </r>
       <r>    13.1287    64.8055  1144.0437 </r>
       <r>    13.3691    66.1939  1159.9559 </r>
       <r>    13.6095    64.7299  1175.5162 </r>
       <r>    13.8499    57.4027  1189.3151 </r>
       <r>    14.0903    53.1492  1202.0915 </r>
       <r>    14.3307    21.5224  1207.2653 </r>
       <r>    14.5711     3.0564  1208.0000 </r>
       <r>    14.8114     0.0000  1208.0000 </r>
       <r>    15.0518     0.0000  1208.0000 </r>
       <r>    15.2922     0.0000  1208.0000 </r>
       <r>    15.5326     0.0000  1208.0000 </r>
       <r>    15.7730     0.0000  1208.0000 </r>
       <r>    16.0134     0.0000  1208.0000 </r>
       <r>    16.2538     0.0000  1208.0000 </r>
       <r>    16.4942     0.0000  1208.0000 </r>
       <r>    16.7345     0.0000  1208.0000 </r>
       <r>    16.9749     0.0000  1208.0000 </r>
       <r>    17.2153     0.0000  1208.0000 </r>
       <r>    17.4557     0.0000  1208.0000 </r>
       <r>    17.6961     0.0000  1208.0000 </r>
      </set>
     </set>
    </array>
   </total>
  </dos>
 </calculation>
 <structure name="finalpos" >
  <crystal>
   <varray name="basis" >
    <v>      15.37959744       0.00260798      -0.01267804 </v>
    <v>      -0.00277488      15.37961926      -0.01267806 </v>
    <v>      -3.83358824      -3.83493454      12.86275064 </v>
   </varray>
   <i name="volume">   3040.96152487 </i>
   <varray name="rec_basis" >
    <v>       0.06503719       0.00002772       0.01939182 </v>
    <v>       0.00000496       0.06503710       0.01939181 </v>
    <v>       0.00006411       0.00006413       0.07778210 </v>
   </varray>
  </crystal>
  <varray name="positions" >
   <v>       0.11205242       0.03120912       0.00000252 </v>
   <v>       0.61205242       0.03120912       0.00000252 </v>
   <v>       0.11205242       0.53120912       0.00000252 </v>
   <v>       0.61205242       0.53120912       0.00000252 </v>
   <v>       0.11205242       0.03120912       0.50000252 </v>
   <v>       0.61205242       0.03120912       0.50000252 </v>
   <v>       0.11205242       0.53120912       0.50000252 </v>
   <v>       0.61205242       0.53120912       0.50000252 </v>
   <v>       0.36205520       0.49468587       0.00001176 </v>
   <v>       0.86205520       0.49468587       0.00001176 </v>
   <v>       0.36205520       0.99468587       0.00001176 </v>
   <v>       0.86205520       0.99468587       0.00001176 </v>
   <v>       0.36205520       0.49468587       0.50001176 </v>
   <v>       0.86205520       0.49468587       0.50001176 </v>
   <v>       0.36205520       0.99468587       0.50001176 </v>
   <v>       0.86205520       0.99468587       0.50001176 </v>
   <v>       0.11205520       0.24468587       0.00001176 </v>
   <v>       0.61205520       0.24468587       0.00001176 </v>
   <v>       0.11205520       0.74468587       0.00001176 </v>
   <v>       0.61205520       0.74468587       0.00001176 </v>
   <v>       0.11205520       0.24468587       0.50001176 </v>
   <v>       0.61205520       0.24468587       0.50001176 </v>
   <v>       0.11205520       0.74468587       0.50001176 </v>
   <v>       0.61205520       0.74468587       0.50001176 </v>
   <v>       0.36205242       0.28120912       0.00000252 </v>
   <v>       0.86205242       0.28120912       0.00000252 </v>
   <v>       0.36205242       0.78120912       0.00000252 </v>
   <v>       0.86205242       0.78120912       0.00000252 </v>
   <v>       0.36205242       0.28120912       0.50000252 </v>
   <v>       0.86205242       0.28120912       0.50000252 </v>
   <v>       0.36205242       0.78120912       0.50000252 </v>
   <v>       0.86205242       0.78120912       0.50000252 </v>
   <v>       0.25531414       0.13794480       0.49998824 </v>
   <v>       0.75531414       0.13794480       0.49998824 </v>
   <v>       0.25531414       0.63794480       0.49998824 </v>
   <v>       0.75531414       0.63794480       0.49998824 </v>
   <v>       0.25531414       0.13794480       0.99998824 </v>
   <v>       0.75531414       0.13794480       0.99998824 </v>
   <v>       0.25531414       0.63794480       0.99998824 </v>
   <v>       0.75531414       0.63794480       0.99998824 </v>
   <v>       0.46879087       0.13794758       0.49999748 </v>
   <v>       0.96879087       0.13794758       0.49999748 </v>
   <v>       0.46879087       0.63794758       0.49999748 </v>
   <v>       0.96879087       0.63794758       0.49999748 </v>
   <v>       0.46879087       0.13794758       0.99999748 </v>
   <v>       0.96879087       0.13794758       0.99999748 </v>
   <v>       0.46879087       0.63794758       0.99999748 </v>
   <v>       0.96879087       0.63794758       0.99999748 </v>
   <v>       0.21879087       0.38794758       0.49999748 </v>
   <v>       0.71879087       0.38794758       0.49999748 </v>
   <v>       0.21879087       0.88794758       0.49999748 </v>
   <v>       0.71879087       0.88794758       0.49999748 </v>
   <v>       0.21879087       0.38794758       0.99999748 </v>
   <v>       0.71879087       0.38794758       0.99999748 </v>
   <v>       0.21879087       0.88794758       0.99999748 </v>
   <v>       0.71879087       0.88794758       0.99999748 </v>
   <v>       0.00531414       0.38794480       0.49998824 </v>
   <v>       0.50531414       0.38794480       0.49998824 </v>
   <v>       0.00531414       0.88794480       0.49998824 </v>
   <v>       0.50531414       0.88794480       0.49998824 </v>
   <v>       0.00531414       0.38794480       0.99998824 </v>
   <v>       0.50531414       0.38794480       0.99998824 </v>
   <v>       0.00531414       0.88794480       0.99998824 </v>
   <v>       0.50531414       0.88794480       0.99998824 </v>
   <v>       0.23770109       0.01294824       0.49999897 </v>
   <v>       0.73705088       0.01294824       0.49999897 </v>
   <v>       0.23705088       0.51294824       0.49999897 </v>
   <v>       0.73705088       0.51294824       0.49999897 </v>
   <v>       0.23705088       0.01294824       0.99999897 </v>
   <v>       0.73705088       0.01294824       0.99999897 </v>
   <v>       0.23705088       0.51294824       0.99999897 </v>
   <v>       0.73705088       0.51294824       0.99999897 </v>
   <v>       0.48705202       0.01294937       0.00000103 </v>
   <v>       0.98705202       0.01294937       0.00000103 </v>
   <v>       0.48705202       0.51294937       0.00000103 </v>
   <v>       0.98705202       0.51294937       0.00000103 </v>
   <v>       0.48705202       0.01294937       0.50000103 </v>
   <v>       0.98705202       0.01294937       0.50000103 </v>
   <v>       0.48705202       0.51294937       0.50000103 </v>
   <v>       0.98705202       0.51294937       0.50000103 </v>
   <v>       0.23705202       0.26294937       0.00000103 </v>
   <v>       0.73705202       0.26294937       0.00000103 </v>
   <v>       0.23705202       0.76294937       0.00000103 </v>
   <v>       0.73705202       0.76294937       0.00000103 </v>
   <v>       0.23705202       0.26294937       0.50000103 </v>
   <v>       0.73705202       0.26294937       0.50000103 </v>
   <v>       0.23705202       0.76294937       0.50000103 </v>
   <v>       0.73705202       0.76294937       0.50000103 </v>
   <v>       0.48705088       0.26294824       0.49999897 </v>
   <v>       0.98705088       0.26294824       0.49999897 </v>
   <v>       0.48705088       0.76294824       0.49999897 </v>
   <v>       0.98705088       0.76294824       0.49999897 </v>
   <v>       0.48705088       0.26294824       0.99999897 </v>
   <v>       0.98705088       0.26294824       0.99999897 </v>
   <v>       0.48705088       0.76294824       0.99999897 </v>
   <v>       0.98705088       0.76294824       0.99999897 </v>
   <v>       0.14990797       0.17581133       0.15144025 </v>
   <v>       0.64990797       0.17581133       0.15144025 </v>
   <v>       0.14990797       0.67581133       0.15144025 </v>
   <v>       0.64990797       0.67581133       0.15144025 </v>
   <v>       0.14990797       0.17581133       0.65144025 </v>
   <v>       0.64990797       0.17581133       0.65144025 </v>
   <v>       0.14990797       0.67581133       0.65144025 </v>
   <v>       0.64990797       0.67581133       0.65144025 </v>
   <v>       0.39990786       0.17581084       0.15143681 </v>
   <v>       0.89990786       0.17581084       0.15143681 </v>
   <v>       0.39990786       0.67581084       0.15143681 </v>
   <v>       0.89990786       0.67581084       0.15143681 </v>
   <v>       0.39990786       0.17581084       0.65143681 </v>
   <v>       0.89990786       0.17581084       0.65143681 </v>
   <v>       0.39990786       0.67581084       0.65143681 </v>
   <v>       0.89990786       0.67581084       0.65143681 </v>
   <v>       0.14990786       0.42581084       0.15143681 </v>
   <v>       0.64990786       0.42581084       0.15143681 </v>
   <v>       0.14990786       0.92581084       0.15143681 </v>
   <v>       0.64990786       0.92581084       0.15143681 </v>
   <v>       0.14990786       0.42581084       0.65143681 </v>
   <v>       0.64990786       0.42581084       0.65143681 </v>
   <v>       0.14990786       0.92581084       0.65143681 </v>
   <v>       0.64990786       0.92581084       0.65143681 </v>
   <v>       0.39990797       0.42581133       0.15144025 </v>
   <v>       0.89990797       0.42581133       0.15144025 </v>
   <v>       0.39990797       0.92581133       0.15144025 </v>
   <v>       0.89990797       0.92581133       0.15144025 </v>
   <v>       0.39990797       0.42581133       0.65144025 </v>
   <v>       0.89990797       0.42581133       0.65144025 </v>
   <v>       0.39990797       0.92581133       0.65144025 </v>
   <v>       0.89990797       0.92581133       0.65144025 </v>
   <v>       0.07418916       0.10009214       0.34856319 </v>
   <v>       0.57418916       0.10009214       0.34856319 </v>
   <v>       0.07418916       0.60009214       0.34856319 </v>
   <v>       0.57418916       0.60009214       0.34856319 </v>
   <v>       0.07418916       0.10009214       0.84856319 </v>
   <v>       0.57418916       0.10009214       0.84856319 </v>
   <v>       0.07418916       0.60009214       0.84856319 </v>
   <v>       0.57418916       0.60009214       0.84856319 </v>
   <v>       0.32418867       0.10009203       0.34855975 </v>
   <v>       0.82418867       0.10009203       0.34855975 </v>
   <v>       0.32418867       0.60009203       0.34855975 </v>
   <v>       0.82418867       0.60009203       0.34855975 </v>
   <v>       0.32418867       0.10009203       0.84855975 </v>
   <v>       0.82418867       0.10009203       0.84855975 </v>
   <v>       0.32418867       0.60009203       0.84855975 </v>
   <v>       0.82418867       0.60009203       0.84855975 </v>
   <v>       0.07418867       0.35009203       0.34855975 </v>
   <v>       0.57418867       0.35009203       0.34855975 </v>
   <v>       0.07418867       0.85009203       0.34855975 </v>
   <v>       0.57418867       0.85009203       0.34855975 </v>
   <v>       0.07418867       0.35009203       0.84855975 </v>
   <v>       0.57418867       0.35009203       0.84855975 </v>
   <v>       0.07418867       0.85009203       0.84855975 </v>
   <v>       0.57418867       0.85009203       0.84855975 </v>
   <v>       0.32418916       0.35009214       0.34856319 </v>
   <v>       0.82418916       0.35009214       0.34856319 </v>
   <v>       0.32418916       0.85009214       0.34856319 </v>
   <v>       0.82418916       0.85009214       0.34856319 </v>
   <v>       0.32418916       0.35009214       0.84856319 </v>
   <v>       0.82418916       0.35009214       0.84856319 </v>
   <v>       0.32418916       0.85009214       0.84856319 </v>
   <v>       0.82418916       0.85009214       0.84856319 </v>
   <v>       0.02677905       0.05271006       0.15897707 </v>
   <v>       0.52677905       0.05271006       0.15897707 </v>
   <v>       0.02677905       0.55271006       0.15897707 </v>
   <v>       0.52677905       0.55271006       0.15897707 </v>
   <v>       0.02677905       0.05271006       0.65897707 </v>
   <v>       0.52677905       0.05271006       0.65897707 </v>
   <v>       0.02677905       0.55271006       0.65897707 </v>
   <v>       0.52677905       0.55271006       0.65897707 </v>
   <v>       0.27677185       0.05270804       0.15897368 </v>
   <v>       0.77677185       0.05270804       0.15897368 </v>
   <v>       0.27677185       0.55270804       0.15897368 </v>
   <v>       0.77677185       0.55270804       0.15897368 </v>
   <v>       0.27677185       0.05270804       0.65897368 </v>
   <v>       0.77677185       0.05270804       0.65897368 </v>
   <v>       0.27677185       0.55270804       0.65897368 </v>
   <v>       0.77677185       0.55270804       0.65897368 </v>
   <v>       0.02677185       0.30270804       0.15897368 </v>
   <v>       0.52677185       0.30270804       0.15897368 </v>
   <v>       0.02677185       0.80270804       0.15897368 </v>
   <v>       0.52677185       0.80270804       0.15897368 </v>
   <v>       0.02677185       0.30270804       0.65897368 </v>
   <v>       0.52677185       0.30270804       0.65897368 </v>
   <v>       0.02677185       0.80270804       0.65897368 </v>
   <v>       0.52677185       0.80270804       0.65897368 </v>
   <v>       0.27677905       0.30271006       0.15897707 </v>
   <v>       0.77677905       0.30271006       0.15897707 </v>
   <v>       0.27677905       0.80271006       0.15897707 </v>
   <v>       0.77677905       0.80271006       0.15897707 </v>
   <v>       0.27677905       0.30271006       0.65897707 </v>
   <v>       0.77677905       0.30271006       0.65897707 </v>
   <v>       0.27677905       0.80271006       0.65897707 </v>
   <v>       0.77677905       0.80271006       0.65897707 </v>
   <v>       0.19729196       0.22322815       0.34102632 </v>
   <v>       0.69729196       0.22322815       0.34102632 </v>
   <v>       0.19729196       0.72322815       0.34102632 </v>
   <v>       0.69729196       0.72322815       0.34102632 </v>
   <v>       0.19729196       0.22322815       0.84102632 </v>
   <v>       0.69729196       0.22322815       0.84102632 </v>
   <v>       0.19729196       0.72322815       0.84102632 </v>
   <v>       0.69729196       0.72322815       0.84102632 </v>
   <v>       0.44728994       0.22322095       0.34102293 </v>
   <v>       0.94728994       0.22322095       0.34102293 </v>
   <v>       0.44728994       0.72322095       0.34102293 </v>
   <v>       0.94728994       0.72322095       0.34102293 </v>
   <v>       0.44728994       0.22322095       0.84102293 </v>
   <v>       0.94728994       0.22322095       0.84102293 </v>
   <v>       0.44728994       0.72322095       0.84102293 </v>
   <v>       0.94728994       0.72322095       0.84102293 </v>
   <v>       0.19728994       0.47322095       0.34102293 </v>
   <v>       0.69728994       0.47322095       0.34102293 </v>
   <v>       0.19728994       0.97322095       0.34102293 </v>
   <v>       0.69728994       0.97322095       0.34102293 </v>
   <v>       0.19728994       0.47322095       0.84102293 </v>
   <v>       0.69728994       0.47322095       0.84102293 </v>
   <v>       0.19728994       0.97322095       0.84102293 </v>
   <v>       0.69728994       0.97322095       0.84102293 </v>
   <v>       0.44729196       0.47322815       0.34102632 </v>
   <v>       0.94729196       0.47322815       0.34102632 </v>
   <v>       0.44729196       0.97322815       0.34102632 </v>
   <v>       0.94729196       0.97322815       0.34102632 </v>
   <v>       0.44729196       0.47322815       0.84102632 </v>
   <v>       0.94729196       0.47322815       0.84102632 </v>
   <v>       0.44729196       0.97322815       0.84102632 </v>
   <v>       0.94729196       0.97322815       0.84102632 </v>
  </varray>
 </structure>
</modeling>
