 vasp.5.4.4.18Apr17-6-g9f103f2a35 (build Oct 25 2017 14:42:18) complex          
  
 executed on             LinuxIFC date 2021.06.02  17:33:00
 running on   24 total cores
 distrk:  each k-point on   12 cores,    2 groups
 distr:  one band on NCORES_PER_BAND=   6 cores,    2 groups


--------------------------------------------------------------------------------------------------------


 INCAR:
 POTCAR:    PAW_PBE Li_sv 10Sep2004               
 POTCAR:    PAW_PBE O 08Apr2002                   
 POTCAR:    PAW_PBE S 06Sep2000                   
 POTCAR:    PAW_PBE Fe_pv 02Aug2007               

 ----------------------------------------------------------------------------- 
|                                                                             |
|           W    W    AA    RRRRR   N    N  II  N    N   GGGG   !!!           |
|           W    W   A  A   R    R  NN   N  II  NN   N  G    G  !!!           |
|           W    W  A    A  R    R  N N  N  II  N N  N  G       !!!           |
|           W WW W  AAAAAA  RRRRR   N  N N  II  N  N N  G  GGG   !            |
|           WW  WW  A    A  R   R   N   NN  II  N   NN  G    G                |
|           W    W  A    A  R    R  N    N  II  N    N   GGGG   !!!           |
|                                                                             |
|      You have enabled k-point parallelism (KPAR>1).                         |
|      This developmental code was originally  written by Paul Kent at ORNL,  |
|      and carefully double checked in Vienna.                                |
|      GW as well as linear response parallelism added by Martijn Marsman     |
|      and Georg Kresse.                                                      |
|      Carefully verify results versus KPAR=1.                                |
|      Report problems to Paul Kent and Vienna.                               |
|                                                                             |
 ----------------------------------------------------------------------------- 

 POTCAR:    PAW_PBE Li_sv 10Sep2004               
  local pseudopotential read in
  atomic valenz-charges read in
  non local Contribution for L=           0  read in
    real space projection operators read in
  non local Contribution for L=           0  read in
    real space projection operators read in
  non local Contribution for L=           1  read in
    real space projection operators read in
    PAW grid and wavefunctions read in
 
   number of l-projection  operators is LMAX  =           3
   number of lm-projection operators is LMMAX =           5
 
 POTCAR:    PAW_PBE O 08Apr2002                   
  local pseudopotential read in
  partial core-charges read in
  partial kinetic energy density read in
  kinetic energy density of atom read in
  atomic valenz-charges read in
  non local Contribution for L=           0  read in
    real space projection operators read in
  non local Contribution for L=           0  read in
    real space projection operators read in
  non local Contribution for L=           1  read in
    real space projection operators read in
  non local Contribution for L=           1  read in
    real space projection operators read in
    PAW grid and wavefunctions read in
 
   number of l-projection  operators is LMAX  =           4
   number of lm-projection operators is LMMAX =           8
 
 POTCAR:    PAW_PBE S 06Sep2000                   
  local pseudopotential read in
  partial core-charges read in
  partial kinetic energy density read in
  atomic valenz-charges read in
  non local Contribution for L=           0  read in
    real space projection operators read in
  non local Contribution for L=           0  read in
    real space projection operators read in
  non local Contribution for L=           1  read in
    real space projection operators read in
  non local Contribution for L=           1  read in
    real space projection operators read in
    PAW grid and wavefunctions read in
 
   number of l-projection  operators is LMAX  =           4
   number of lm-projection operators is LMMAX =           8
 
 POTCAR:    PAW_PBE Fe_pv 02Aug2007               
  local pseudopotential read in
  partial core-charges read in
  partial kinetic energy density read in
  atomic valenz-charges read in
  non local Contribution for L=           1  read in
    real space projection operators read in
  non local Contribution for L=           1  read in
    real space projection operators read in
  non local Contribution for L=           2  read in
    real space projection operators read in
  non local Contribution for L=           2  read in
    real space projection operators read in
  non local Contribution for L=           0  read in
    real space projection operators read in
  non local Contribution for L=           0  read in
    real space projection operators read in
    PAW grid and wavefunctions read in
 
   number of l-projection  operators is LMAX  =           6
   number of lm-projection operators is LMMAX =          18
 

 ----------------------------------------------------------------------------- 
|                                                                             |
|  ADVICE TO THIS USER RUNNING 'VASP/VAMP'   (HEAR YOUR MASTER'S VOICE ...):  |
|                                                                             |
|      You have a (more or less) 'large supercell' and for larger cells       |
|      it might be more efficient to use real space projection opertators     |
|      So try LREAL= Auto  in the INCAR   file.                               |
|      Mind:          For very  accurate calculation you might also keep the  |
|      reciprocal projection scheme          (i.e. LREAL=.FALSE.)             |
|                                                                             |
 ----------------------------------------------------------------------------- 

  PAW_PBE Li_sv 10Sep2004               :
 energy of atom  1       EATOM= -202.7858
 kinetic energy error for atom=    0.0072 (will be added to EATOM!!)
  PAW_PBE O 08Apr2002                   :
 energy of atom  2       EATOM= -432.3788
 kinetic energy error for atom=    0.0129 (will be added to EATOM!!)
  PAW_PBE S 06Sep2000                   :
 energy of atom  3       EATOM= -276.8230
 kinetic energy error for atom=    0.0008 (will be added to EATOM!!)
  PAW_PBE Fe_pv 02Aug2007               :
 energy of atom  4       EATOM=-2457.4239
 kinetic energy error for atom=    0.0041 (will be added to EATOM!!)
 
 
 POSCAR: # Compound: Li16O16S24Fe32. Old comment:
  positions in direct lattice
  No initial velocities read in
 exchange correlation table for  LEXCH =        8
   RHO(1)=    0.500       N(1)  =     2000
   RHO(2)=  100.500       N(2)  =     4000
 


--------------------------------------------------------------------------------------------------------


 ion  position               nearest neighbor table
   1  0.289  0.469  0.156-  27 2.00  29 2.00  55 2.53  49 2.54
   2  0.789  0.469  0.156-  28 2.00  30 2.00  56 2.53  50 2.53
   3  0.289  0.969  0.156-  25 2.00  31 2.00  53 2.53  51 2.53
   4  0.789  0.969  0.156-  26 2.00  32 2.00  54 2.53  52 2.53
   5  0.046  0.219  0.186-  30 1.98  25 1.98
   6  0.546  0.219  0.186-  29 1.98  26 1.98
   7  0.046  0.719  0.186-  32 1.98  27 1.98
   8  0.546  0.719  0.186-  31 1.98  28 1.98
   9  0.454  0.469  0.814-  20 1.98  21 1.98
  10  0.954  0.469  0.814-  19 1.98  22 1.98
  11  0.454  0.969  0.814-  18 1.98  23 1.98
  12  0.954  0.969  0.814-  17 1.98  24 1.98
  13  0.211  0.219  0.844-  21 2.00  17 2.00  53 2.53  49 2.54
  14  0.711  0.219  0.844-  22 2.00  18 2.00  50 2.53  54 2.53
  15  0.211  0.719  0.844-  23 2.00  19 2.00  51 2.53  55 2.53
  16  0.711  0.719  0.844-  24 2.00  20 2.00  52 2.53  56 2.53
  17  0.077  0.095  0.803-  12 1.98  13 2.00  57 2.01  83 2.01  86 2.01
  18  0.577  0.095  0.803-  11 1.98  14 2.00  58 2.01  84 2.01  85 2.01
  19  0.077  0.595  0.803-  10 1.98  15 2.00  59 2.01  81 2.01  88 2.01
  20  0.577  0.595  0.803-   9 1.98  16 2.00  60 2.01  82 2.01  87 2.01
  21  0.325  0.343  0.803-   9 1.98  13 2.00  61 2.01  81 2.01  85 2.01
  22  0.825  0.343  0.803-  10 1.98  14 2.00  62 2.01  82 2.01  86 2.01
  23  0.325  0.843  0.803-  11 1.98  15 2.00  63 2.01  83 2.01  87 2.01
  24  0.825  0.843  0.803-  12 1.98  16 2.00  64 2.01  84 2.01  88 2.01
  25  0.175  0.093  0.197-   5 1.98   3 2.00  65 2.01  77 2.01  75 2.01
  26  0.675  0.093  0.197-   6 1.98   4 2.00  66 2.01  78 2.01  76 2.01
  27  0.175  0.593  0.197-   7 1.98   1 2.00  67 2.01  79 2.01  73 2.01
  28  0.675  0.593  0.197-   8 1.98   2 2.00  68 2.01  80 2.01  74 2.01
  29  0.423  0.345  0.197-   6 1.98   1 2.00  69 2.01  77 2.01  74 2.01
  30  0.923  0.345  0.197-   5 1.98   2 2.00  70 2.01  78 2.01  73 2.01
  31  0.423  0.845  0.197-   8 1.98   3 2.00  71 2.01  79 2.01  76 2.01
  32  0.923  0.845  0.197-   7 1.98   4 2.00  72 2.01  80 2.01  75 2.01
  33  0.219  0.345  0.371-  61 2.41  67 2.65  69 2.65
  34  0.719  0.345  0.371-  62 2.41  68 2.65  70 2.65
  35  0.219  0.845  0.371-  63 2.41  65 2.65  71 2.65
  36  0.719  0.845  0.371-  64 2.41  66 2.65  72 2.65
  37  0.467  0.093  0.371-  58 2.41  71 2.65  65 2.65
  38  0.967  0.093  0.371-  57 2.41  72 2.65  66 2.65
  39  0.467  0.593  0.371-  60 2.41  69 2.65  67 2.65
  40  0.967  0.593  0.371-  59 2.41  70 2.65  68 2.65
  41  0.033  0.343  0.629-  70 2.41  57 2.65  61 2.65
  42  0.533  0.343  0.629-  69 2.41  58 2.65  62 2.65
  43  0.033  0.843  0.629-  72 2.41  59 2.65  63 2.65
  44  0.533  0.843  0.629-  71 2.41  60 2.65  64 2.65
  45  0.281  0.095  0.629-  65 2.41  61 2.65  57 2.65
  46  0.781  0.095  0.629-  66 2.41  62 2.65  58 2.65
  47  0.281  0.595  0.629-  67 2.41  63 2.65  59 2.65
  48  0.781  0.595  0.629-  68 2.41  64 2.65  60 2.65
  49  0.123  0.344  0.000-  73 2.51  86 2.51  81 2.53  77 2.53  13 2.54   1 2.54
  50  0.624  0.344  0.000-  74 2.51  85 2.51  82 2.52  78 2.52  14 2.53   2 2.53
  51  0.124  0.844  0.000-  75 2.51  88 2.51  83 2.52  79 2.52  15 2.53   3 2.53
  52  0.624  0.844  0.000-  76 2.51  87 2.51  84 2.52  80 2.52  16 2.53   4 2.53
  53  0.376  0.094  1.000-  85 2.51  76 2.51  77 2.52  83 2.52   3 2.53  13 2.53
  54  0.876  0.094  1.000-  86 2.51  75 2.51  78 2.52  84 2.52   4 2.53  14 2.53
  55  0.376  0.594  1.000-  87 2.51  74 2.51  79 2.52  81 2.52   1 2.53  15 2.53
  56  0.876  0.594  1.000-  88 2.51  73 2.51  80 2.52  82 2.52   2 2.53  16 2.53
  57  0.038  0.106  0.606-  17 2.01  38 2.41  41 2.65  45 2.65
  58  0.538  0.106  0.606-  18 2.01  37 2.41  42 2.65  46 2.65
  59  0.038  0.606  0.606-  19 2.01  40 2.41  43 2.65  47 2.65
  60  0.538  0.606  0.606-  20 2.01  39 2.41  44 2.65  48 2.65
  61  0.265  0.332  0.606-  21 2.01  33 2.41  45 2.65  41 2.65
  62  0.765  0.332  0.606-  22 2.01  34 2.41  46 2.65  42 2.65
  63  0.265  0.832  0.606-  23 2.01  35 2.41  47 2.65  43 2.65
  64  0.765  0.832  0.606-  24 2.01  36 2.41  48 2.65  44 2.65
  65  0.235  0.082  0.394-  25 2.01  45 2.41  35 2.65  37 2.65
  66  0.735  0.082  0.394-  26 2.01  46 2.41  36 2.65  38 2.65
  67  0.235  0.582  0.394-  27 2.01  47 2.41  33 2.65  39 2.65
  68  0.735  0.582  0.394-  28 2.01  48 2.41  34 2.65  40 2.65
  69  0.462  0.356  0.394-  29 2.01  42 2.41  39 2.65  33 2.65
  70  0.962  0.356  0.394-  30 2.01  41 2.41  40 2.65  34 2.65
  71  0.462  0.856  0.394-  31 2.01  44 2.41  37 2.65  35 2.65
  72  0.962  0.856  0.394-  32 2.01  43 2.41  38 2.65  36 2.65
  73  0.038  0.469  0.154-  30 2.01  27 2.01  49 2.51  56 2.51
  74  0.538  0.469  0.154-  29 2.01  28 2.01  50 2.51  55 2.51
  75  0.038  0.969  0.154-  32 2.01  25 2.01  51 2.51  54 2.51
  76  0.538  0.969  0.154-  31 2.01  26 2.01  52 2.51  53 2.51
  77  0.289  0.219  0.154-  25 2.01  29 2.01  53 2.52  49 2.53
  78  0.789  0.219  0.154-  26 2.01  30 2.01  54 2.52  50 2.52
  79  0.289  0.719  0.154-  27 2.01  31 2.01  55 2.52  51 2.52
  80  0.789  0.719  0.154-  28 2.01  32 2.01  56 2.52  52 2.52
  81  0.211  0.469  0.846-  21 2.01  19 2.01  55 2.52  49 2.53
  82  0.711  0.469  0.846-  22 2.01  20 2.01  50 2.52  56 2.52
  83  0.211  0.969  0.846-  23 2.01  17 2.01  51 2.52  53 2.52
  84  0.711  0.969  0.846-  24 2.01  18 2.01  52 2.52  54 2.52
  85  0.462  0.219  0.846-  18 2.01  21 2.01  53 2.51  50 2.51
  86  0.962  0.219  0.846-  17 2.01  22 2.01  49 2.51  54 2.51
  87  0.462  0.719  0.846-  20 2.01  23 2.01  55 2.51  52 2.51
  88  0.962  0.719  0.846-  19 2.01  24 2.01  56 2.51  51 2.51
 

IMPORTANT INFORMATION: All symmetrisations will be switched off!
NOSYMM: (Re-)initialisation of all symmetry stuff for point group C_1.

 
 
 KPOINTS: # No comment                            

Automatic generation of k-mesh.
Space group operators:
 irot       det(A)        alpha          n_x          n_y          n_z        tau_x        tau_y        tau_z
    1     1.000000     0.000000     1.000000     0.000000     0.000000     0.000000     0.000000     0.000000
 
 Subroutine IBZKPT returns following result:
 ===========================================
 
 Found     14 irreducible k-points:
 
 Following reciprocal coordinates:
            Coordinates               Weight
  0.000000  0.000000  0.000000      1.000000
  0.333333  0.000000  0.000000      2.000000
  0.000000  0.333333  0.000000      2.000000
  0.333333  0.333333  0.000000      2.000000
 -0.333333  0.333333 -0.000000      2.000000
  0.000000  0.000000  0.333333      2.000000
  0.333333  0.000000  0.333333      2.000000
 -0.333333  0.000000  0.333333      2.000000
  0.000000  0.333333  0.333333      2.000000
  0.333333  0.333333  0.333333      2.000000
 -0.333333  0.333333  0.333333      2.000000
  0.000000 -0.333333  0.333333      2.000000
  0.333333 -0.333333  0.333333      2.000000
 -0.333333 -0.333333  0.333333      2.000000
 
 Following cartesian coordinates:
            Coordinates               Weight
  0.000000  0.000000  0.000000      1.000000
  0.029997  0.000000  0.008162      2.000000
  0.000000  0.029983  0.000000      2.000000
  0.029997  0.029983  0.008162      2.000000
 -0.029997  0.029983 -0.008162      2.000000
  0.000001  0.000000  0.032684      2.000000
  0.029998  0.000000  0.040846      2.000000
 -0.029996  0.000000  0.024522      2.000000
  0.000001  0.029983  0.032684      2.000000
  0.029998  0.029983  0.040846      2.000000
 -0.029996  0.029983  0.024522      2.000000
  0.000001 -0.029983  0.032684      2.000000
  0.029998 -0.029983  0.040846      2.000000
 -0.029996 -0.029983  0.024522      2.000000
 


--------------------------------------------------------------------------------------------------------




 Dimension of arrays:
   k-points           NKPTS =     14   k-points in BZ     NKDIM =     14   number of bands    NBANDS=    538
   number of dos      NEDOS =    301   number of ions     NIONS =     88
   non local maximal  LDIM  =      6   non local SUM 2l+1 LMDIM =     18
   total plane-waves  NPLWV = 829440
   max r-space proj   IRMAX =      1   max aug-charges    IRDMAX= 166102
   dimension x,y,z NGX =    96 NGY =   96 NGZ =   90
   dimension x,y,z NGXF=   192 NGYF=  192 NGZF=  180
   support grid    NGXF=   384 NGYF=  384 NGZF=  360
   ions per type =              16  16  24  32
   NGX,Y,Z   is equivalent  to a cutoff of  14.36, 14.36, 14.16 a.u.
   NGXF,Y,Z  is equivalent  to a cutoff of  28.72, 28.71, 28.31 a.u.

 SYSTEM =  unknown system                          
 POSCAR =  # Compound: Li16O16S24Fe32. Old comment:

 Startparameter for this run:
   NWRITE =      1    write-flag & timer
   PREC   = accura    normal or accurate (medium, high low for compatibility)
   ISTART =      0    job   : 0-new  1-cont  2-samecut
   ICHARG =      1    charge: 1-file 2-atom 10-const
   ISPIN  =      2    spin polarized calculation?
   LNONCOLLINEAR =      F non collinear calculations
   LSORBIT =      F    spin-orbit coupling
   INIWAV =      1    electr: 0-lowe 1-rand  2-diag
   LASPH  =      T    aspherical Exc in radial PAW
   METAGGA=      F    non-selfconsistent MetaGGA calc.

 Electronic Relaxation 1
   ENCUT  =  650.0 eV  47.77 Ry    6.91 a.u.  23.10 23.11 21.97*2*pi/ulx,y,z
   ENINI  =  650.0     initial cutoff
   ENAUG  =  628.9 eV  augmentation charge cutoff
   NELM   =    200;   NELMIN=  8; NELMDL=  0     # of ELM steps 
   EDIFF  = 0.1E-05   stopping-criterion for ELM
   LREAL  =      F    real-space projection
   NLSPLINE    = F    spline interpolate recip. space projectors
   LCOMPAT=      F    compatible to vasp.4.4
   GGA_COMPAT  = T    GGA compatible to vasp.4.4-vasp.4.6
   LMAXPAW     = -100 max onsite density
   LMAXMIX     =    4 max onsite mixed and CHGCAR
   VOSKOWN=      0    Vosko Wilk Nusair interpolation
   ROPT   =    0.00000   0.00000   0.00000   0.00000
 Ionic relaxation
   EDIFFG = 0.1E-04   stopping-criterion for IOM
   NSW    =      0    number of steps for IOM
   NBLOCK =      1;   KBLOCK =      1    inner block; outer block 
   IBRION =     -1    ionic relax: 0-MD 1-quasi-New 2-CG
   NFREE  =      0    steps in history (QN), initial steepest desc. (CG)
   ISIF   =      2    stress and relaxation
   IWAVPR =     10    prediction:  0-non 1-charg 2-wave 3-comb
   ISYM   =      0    0-nonsym 1-usesym 2-fastsym
   LCORR  =      T    Harris-Foulkes like correction to forces

   POTIM  = 0.5000    time-step for ionic-motion
   TEIN   =    0.0    initial temperature
   TEBEG  =    0.0;   TEEND  =   0.0 temperature during run
   SMASS  =  -3.00    Nose mass-parameter (am)
   estimated Nose-frequenzy (Omega)   =  0.10E-29 period in steps =****** mass=  -0.282E-26a.u.
   SCALEE = 1.0000    scale energy and forces
   NPACO  =    256;   APACO  = 16.0  distance and # of slots for P.C.
   PSTRESS=    0.0 pullay stress

  Mass of Ions in am
   POMASS =   7.01 16.00 32.07 55.85
  Ionic Valenz
   ZVAL   =   3.00  6.00  6.00 14.00
  Atomic Wigner-Seitz radii
   RWIGS  =  -1.00 -1.00 -1.00 -1.00
  virtual crystal weights 
   VCA    =   1.00  1.00  1.00  1.00
   NELECT =     736.0000    total number of electrons
   NUPDOWN=      -1.0000    fix difference up-down

 DOS related values:
   EMIN   =  10.00;   EMAX   =-10.00  energy-range for DOS
   EFERMI =   0.00
   ISMEAR =     0;   SIGMA  =   0.05  broadening in eV -4-tet -1-fermi 0-gaus

 Electronic relaxation 2 (details)
   IALGO  =     38    algorithm
   LDIAG  =      T    sub-space diagonalisation (order eigenvalues)
   LSUBROT=      F    optimize rotation matrix (better conditioning)
   TURBO    =      0    0=normal 1=particle mesh
   IRESTART =      0    0=no restart 2=restart with 2 vectors
   NREBOOT  =      0    no. of reboots
   NMIN     =      0    reboot dimension
   EREF     =   0.00    reference energy to select bands
   IMIX   =      4    mixing-type and parameters
     AMIX     =   0.40;   BMIX     =  1.00
     AMIX_MAG =   1.60;   BMIX_MAG =  1.00
     AMIN     =   0.10
     WC   =   100.;   INIMIX=   1;  MIXPRE=   1;  MAXMIX= -45

 Intra band minimization:
   WEIMIN = 0.0000     energy-eigenvalue tresh-hold
   EBREAK =  0.46E-09  absolut break condition
   DEPER  =   0.30     relativ break condition  

   TIME   =   0.40     timestep for ELM

  volume/ion in A,a.u.               =      14.32        96.62
  Fermi-wavevector in a.u.,A,eV,Ry     =   1.368520  2.586127 25.481613  1.872846
  Thomas-Fermi vector in A             =   2.494476
 
 Write flags
   LWAVE        =      F    write WAVECAR
   LDOWNSAMPLE  =      F    k-point downsampling of WAVECAR
   LCHARG       =      T    write CHGCAR
   LVTOT        =      F    write LOCPOT, total local potential
   LVHAR        =      F    write LOCPOT, Hartree potential only
   LELF         =      F    write electronic localiz. function (ELF)
   LORBIT       =      0    0 simple, 1 ext, 2 COOP (PROOUT), +10 PAW based schemes


 Dipole corrections
   LMONO  =      F    monopole corrections only (constant potential shift)
   LDIPOL =      F    correct potential (dipole corrections)
   IDIPOL =      0    1-x, 2-y, 3-z, 4-all directions 
   EPSILON=  1.0000000 bulk dielectric constant

 LDA+U is selected, type is set to LDAUTYPE =  2
   angular momentum for each species LDAUL =    -1   -1   -1    2
   U (eV)           for each species LDAUU =   0.0  0.0  0.0  4.0
   J (eV)           for each species LDAUJ =   0.0  0.0  0.0  0.0
 Exchange correlation treatment:
   GGA     =    PE    GGA type
   LEXCH   =     8    internal setting for exchange type
   VOSKOWN=      0    Vosko Wilk Nusair interpolation
   LHFCALC =     F    Hartree Fock is set to
   LHFONE  =     F    Hartree Fock one center treatment
   AEXX    =    0.0000 exact exchange contribution

 Linear response parameters
   LEPSILON=     F    determine dielectric tensor
   LRPA    =     F    only Hartree local field effects (RPA)
   LNABLA  =     F    use nabla operator in PAW spheres
   LVEL    =     F    velocity operator in full k-point grid
   LINTERFAST=   F  fast interpolation
   KINTER  =     0    interpolate to denser k-point grid
   CSHIFT  =0.1000    complex shift for real part using Kramers Kronig
   OMEGAMAX=  -1.0    maximum frequency
   DEG_THRESHOLD= 0.2000000E-02 threshold for treating states as degnerate
   RTIME   =   -0.100 relaxation time in fs
  (WPLASMAI=    0.000 imaginary part of plasma frequency in eV, 0.658/RTIME)
   DFIELD  = 0.0000000 0.0000000 0.0000000 field for delta impulse in time
 
 Orbital magnetization related:
   ORBITALMAG=     F  switch on orbital magnetization
   LCHIMAG   =     F  perturbation theory with respect to B field
   DQ        =  0.001000  dq finite difference perturbation B field
   LLRAUG    =     F  two centre corrections for induced B field



--------------------------------------------------------------------------------------------------------


 Static calculation
 charge density and potential will be updated during run
 spin polarized calculation
 Variant of blocked Davidson
 Davidson routine will perform the subspace rotation
 perform sub-space diagonalisation
    after iterative eigenvector-optimisation
 modified Broyden-mixing scheme, WC =      100.0
 initial mixing is a Kerker type mixing with AMIX =  0.4000 and BMIX =      1.0000
 Hartree-type preconditioning will be used
 using additional bands          170
 reciprocal scheme for non local part
 use partial core corrections
 calculate Harris-corrections to forces 
   (improved forces if not selfconsistent)
 use gradient corrections 
 use of overlap-Matrix (Vanderbilt PP)
 Gauss-broadening in eV      SIGMA  =   0.05


--------------------------------------------------------------------------------------------------------


  energy-cutoff  :      650.00
  volume of cell :     1259.94
      direct lattice vectors                 reciprocal lattice vectors
    11.112233740  0.000000000 -0.000290340     0.089991547  0.000000000  0.024487024
     0.000000000 11.117451940  0.000000000     0.000000000  0.089948669  0.000000000
    -2.775108980  0.000000000 10.198722210     0.000002562  0.000000000  0.098052196

  length of vectors
    11.112233744 11.117451940 10.569539468     0.093263567  0.089948669  0.098052196


 
 k-points in units of 2pi/SCALE and weight: # No comment                            
   0.00000000  0.00000000  0.00000000       0.037
   0.02999718  0.00000000  0.00816234       0.074
   0.00000000  0.02998289  0.00000000       0.074
   0.02999718  0.02998289  0.00816234       0.074
  -0.02999718  0.02998289 -0.00816234       0.074
   0.00000085  0.00000000  0.03268407       0.074
   0.02999804  0.00000000  0.04084641       0.074
  -0.02999633  0.00000000  0.02452172       0.074
   0.00000085  0.02998289  0.03268407       0.074
   0.02999804  0.02998289  0.04084641       0.074
  -0.02999633  0.02998289  0.02452172       0.074
   0.00000085 -0.02998289  0.03268407       0.074
   0.02999804 -0.02998289  0.04084641       0.074
  -0.02999633 -0.02998289  0.02452172       0.074
 
 k-points in reciprocal lattice and weights: # No comment                            
   0.00000000  0.00000000  0.00000000       0.037
   0.33333333  0.00000000  0.00000000       0.074
   0.00000000  0.33333333  0.00000000       0.074
   0.33333333  0.33333333  0.00000000       0.074
  -0.33333333  0.33333333 -0.00000000       0.074
   0.00000000  0.00000000  0.33333333       0.074
   0.33333333  0.00000000  0.33333333       0.074
  -0.33333333  0.00000000  0.33333333       0.074
   0.00000000  0.33333333  0.33333333       0.074
   0.33333333  0.33333333  0.33333333       0.074
  -0.33333333  0.33333333  0.33333333       0.074
   0.00000000 -0.33333333  0.33333333       0.074
   0.33333333 -0.33333333  0.33333333       0.074
  -0.33333333 -0.33333333  0.33333333       0.074
 
 position of ions in fractional coordinates (direct lattice) 
   0.28894969  0.46933910  0.15583616
   0.78894969  0.46933910  0.15583616
   0.28894969  0.96933910  0.15583616
   0.78894969  0.96933910  0.15583616
   0.04646972  0.21934976  0.18586770
   0.54646972  0.21934976  0.18586770
   0.04646972  0.71934976  0.18586770
   0.54646972  0.71934976  0.18586770
   0.45353028  0.46934976  0.81413230
   0.95353028  0.46934976  0.81413230
   0.45353028  0.96934976  0.81413230
   0.95353028  0.96934976  0.81413230
   0.21105031  0.21933910  0.84416384
   0.71105031  0.21933910  0.84416384
   0.21105031  0.71933910  0.84416384
   0.71105031  0.71933910  0.84416384
   0.07654971  0.09530995  0.80250593
   0.57654971  0.09530995  0.80250593
   0.07654971  0.59530995  0.80250593
   0.57654971  0.59530995  0.80250593
   0.32470466  0.34338175  0.80250383
   0.82470466  0.34338175  0.80250383
   0.32470466  0.84338175  0.80250383
   0.82470466  0.84338175  0.80250383
   0.17529534  0.09338175  0.19749617
   0.67529534  0.09338175  0.19749617
   0.17529534  0.59338175  0.19749617
   0.67529534  0.59338175  0.19749617
   0.42345029  0.34530995  0.19749407
   0.92345029  0.34530995  0.19749407
   0.42345029  0.84530995  0.19749407
   0.92345029  0.84530995  0.19749407
   0.21868463  0.34523395  0.37102476
   0.71868463  0.34523395  0.37102476
   0.21868463  0.84523395  0.37102476
   0.71868463  0.84523395  0.37102476
   0.46681660  0.09344897  0.37102399
   0.96681660  0.09344897  0.37102399
   0.46681660  0.59344897  0.37102399
   0.96681660  0.59344897  0.37102399
   0.03318340  0.34344897  0.62897601
   0.53318340  0.34344897  0.62897601
   0.03318340  0.84344897  0.62897601
   0.53318340  0.84344897  0.62897601
   0.28131537  0.09523395  0.62897524
   0.78131537  0.09523395  0.62897524
   0.28131537  0.59523395  0.62897524
   0.78131537  0.59523395  0.62897524
   0.12349288  0.34434306  0.00000412
   0.62439279  0.34434306  0.00000412
   0.12439279  0.84434306  0.00000412
   0.62439279  0.84434306  0.00000412
   0.37560721  0.09434306  0.99999588
   0.87560721  0.09434306  0.99999588
   0.37560721  0.59434306  0.99999588
   0.87560721  0.59434306  0.99999588
   0.03824426  0.10634799  0.60632306
   0.53824426  0.10634799  0.60632306
   0.03824426  0.60634799  0.60632306
   0.53824426  0.60634799  0.60632306
   0.26492712  0.33232651  0.60632763
   0.76492712  0.33232651  0.60632763
   0.26492712  0.83232651  0.60632763
   0.76492712  0.83232651  0.60632763
   0.23507288  0.08232651  0.39367237
   0.73507288  0.08232651  0.39367237
   0.23507288  0.58232651  0.39367237
   0.73507288  0.58232651  0.39367237
   0.46175574  0.35634799  0.39367694
   0.96175574  0.35634799  0.39367694
   0.46175574  0.85634799  0.39367694
   0.96175574  0.85634799  0.39367694
   0.03848398  0.46936404  0.15397331
   0.53848398  0.46936404  0.15397331
   0.03848398  0.96936404  0.15397331
   0.53848398  0.96936404  0.15397331
   0.28861657  0.21935690  0.15447525
   0.78861657  0.21935690  0.15447525
   0.28861657  0.71935690  0.15447525
   0.78861657  0.71935690  0.15447525
   0.21138343  0.46935690  0.84552475
   0.71138343  0.46935690  0.84552475
   0.21138343  0.96935690  0.84552475
   0.71138343  0.96935690  0.84552475
   0.46151602  0.21936404  0.84602669
   0.96151602  0.21936404  0.84602669
   0.46151602  0.71936404  0.84602669
   0.96151602  0.71936404  0.84602669
 
 position of ions in cartesian coordinates  (Angst):
   2.77841422  5.21785483  1.58924581
   8.33453109  5.21785483  1.58910064
   2.77841422 10.77658080  1.58924581
   8.33453109 10.77658080  1.58910064
   0.00057921  2.43861041  1.89559955
   5.55669608  2.43861041  1.89545438
   0.00057921  7.99733638  1.89559955
   5.55669608  7.99733638  1.89545438
   2.78042868  5.21797340  8.30297749
   8.33654555  5.21797340  8.30283232
   2.78042868 10.77669937  8.30297749
   8.33654555 10.77669937  8.30283232
   0.00259367  2.43849185  8.60933123
   5.55871054  2.43849185  8.60918606
   0.00259367  7.99721782  8.60933123
   5.55871054  7.99721782  8.60918606
  -1.37640314  1.05960384  8.18451283
   4.17971373  1.05960384  8.18436766
  -1.37640314  6.61832981  8.18451283
   4.17971373  6.61832981  8.18436766
   1.38115855  3.81753010  8.18441936
   6.93727542  3.81753010  8.18427419
   1.38115855  9.37625607  8.18441936
   6.93727542  9.37625607  8.18427419
   1.39984934  1.03816712  2.01415768
   6.95596621  1.03816712  2.01401251
   1.39984934  6.59689309  2.01415768
   6.95596621  6.59689309  2.01401251
   4.15741103  3.83896683  2.01406421
   9.71352790  3.83896683  2.01391904
   4.15741103  9.39769280  2.01406421
   9.71352790  9.39769280  2.01391904
   1.40044058  3.83812185  3.78391497
   6.95655745  3.83812185  3.78376980
   1.40044058  9.39684782  3.78391497
   6.95655745  9.39684782  3.78376980
   4.15774317  1.03891443  3.78383507
   9.71386004  1.03891443  3.78368990
   4.15774317  6.59764040  3.78383507
   9.71386004  6.59764040  3.78368990
  -1.37673528  3.81827742  6.41474197
   4.17938159  3.81827742  6.41459680
  -1.37673528  9.37700339  6.41474197
   4.17938159  9.37700339  6.41459680
   1.38056731  1.05875886  6.41466207
   6.93668418  1.05875886  6.41451690
   1.38056731  6.61748483  6.41466207
   6.93668418  6.61748483  6.41451690
   1.37227032  3.82821742  0.00000616
   6.93838719  3.82821742 -0.00013927
   1.38227032  9.38694339  0.00000590
   6.93838719  9.38694339 -0.00013927
   1.39873757  1.04885444 10.19857114
   6.95485444  1.04885444 10.19842597
   1.39873757  6.60758041 10.19857114
   6.95485444  6.60758041 10.19842597
  -1.25763347  1.18231867  6.18370935
   4.29848340  1.18231867  6.18356418
  -1.25763347  6.74104464  6.18370935
   4.29848340  6.74104464  6.18356418
   1.26130689  3.69462400  6.18369015
   6.81742376  3.69462400  6.18354498
   1.26130689  9.25334997  6.18369015
   6.81742376  9.25334997  6.18354498
   1.51970100  0.91526102  4.01488689
   7.07581787  0.91526102  4.01474172
   1.51970100  6.47398699  4.01488689
   7.07581787  6.47398699  4.01474172
   4.03864136  3.96168165  4.01486769
   9.59475823  3.96168165  4.01472252
   4.03864136  9.52040762  4.01486769
   9.59475823  9.52040762  4.01472252
   0.00035027  5.21813216  1.57031984
   5.55646714  5.21813216  1.57017467
   0.00035027 10.77685813  1.57031984
   5.55646714 10.77685813  1.57017467
   2.77848919  2.43868979  1.57536637
   8.33460606  2.43868979  1.57522120
   2.77848919  7.99741576  1.57536637
   8.33460606  7.99741576  1.57522120
   0.00251870  5.21805278  8.62321067
   5.55863557  5.21805278  8.62306550
   0.00251870 10.77677875  8.62321067
   5.55863557 10.77677875  8.62306550
   2.78065762  2.43876917  8.62825720
   8.33677449  2.43876917  8.62811203
   2.78065762  7.99749514  8.62825720
   8.33677449  7.99749514  8.62811203
 


--------------------------------------------------------------------------------------------------------


 k-point  1 :   0.0000 0.0000 0.0000  plane waves:   47369
 k-point  2 :   0.3333 0.0000 0.0000  plane waves:   47373
 k-point  3 :   0.0000 0.3333 0.0000  plane waves:   47370
 k-point  4 :   0.3333 0.3333 0.0000  plane waves:   47404
 k-point  5 :  -0.3333 0.3333-0.0000  plane waves:   47404
 k-point  6 :   0.0000 0.0000 0.3333  plane waves:   47419
 k-point  7 :   0.3333 0.0000 0.3333  plane waves:   47399
 k-point  8 :  -0.3333 0.0000 0.3333  plane waves:   47417
 k-point  9 :   0.0000 0.3333 0.3333  plane waves:   47409
 k-point 10 :   0.3333 0.3333 0.3333  plane waves:   47422
 k-point 11 :  -0.3333 0.3333 0.3333  plane waves:   47440
 k-point 12 :   0.0000-0.3333 0.3333  plane waves:   47409
 k-point 13 :   0.3333-0.3333 0.3333  plane waves:   47422
 k-point 14 :  -0.3333-0.3333 0.3333  plane waves:   47440

 maximum and minimum number of plane-waves per node :      7942     7858

 maximum number of plane-waves:     47440
 maximum index in each direction: 
   IXMAX=   23   IYMAX=   23   IZMAX=   21
   IXMIN=  -23   IYMIN=  -23   IZMIN=  -22


 parallel 3D FFT for wavefunctions:
    minimum data exchange during FFTs selected (reduces bandwidth)
 parallel 3D FFT for charge:
    minimum data exchange during FFTs selected (reduces bandwidth)


 total amount of memory used by VASP MPI-rank0  1233264. kBytes
=======================================================================

   base      :      30000. kBytes
   nonl-proj :      75226. kBytes
   fftplans  :      85054. kBytes
   grid      :      64684. kBytes
   one-center:        466. kBytes
   wavefun   :     977834. kBytes
 
     INWAV:  cpu time    0.0000: real time    0.0000
 Broyden mixing: mesh for mixing (old mesh)
   NGX = 47   NGY = 47   NGZ = 43
  (NGX  =192   NGY  =192   NGZ  =180)
  gives a total of  94987 points

 initial charge density was supplied:
 number of electron     736.0000016 magnetization     127.9999885
 keeping initial charge density in first step


--------------------------------------------------------------------------------------------------------


 Maximum index for augmentation-charges        13229 (set IRDMAX)


--------------------------------------------------------------------------------------------------------


 First call to EWALD:  gamma=   0.164
 Maximum number of real-space cells 3x 3x 3
 Maximum number of reciprocal cells 3x 3x 3

    FEWALD:  cpu time    0.0045: real time    0.0048


--------------------------------------- Iteration      1(   1)  ---------------------------------------


    POTLOK:  cpu time    1.0297: real time    1.0607
    SETDIJ:  cpu time    2.2658: real time    2.3068
     EDDAV:  cpu time  314.7268: real time  317.6946
       DOS:  cpu time    0.0080: real time    0.0080
    --------------------------------------------
      LOOP:  cpu time  318.0304: real time  321.0701

 eigenvalue-minimisations  : 30944
 total energy-change (2. order) : 0.1040963E+05  (-0.4118847E+05)
 number of electron     736.0000016 magnetization     127.9999885
 augmentation part      736.0000016 magnetization     127.9999885

 Free energy of the ion-electron system (eV)
  ---------------------------------------------------
  alpha Z        PSCENC =      2314.49656628
  Ewald energy   TEWEN  =    -57723.13616506
  -Hartree energ DENC   =    -30348.79303406
  -exchange      EXHF   =         0.00000000
  -V(xc)+E(xc)   XCENC  =      3229.29859391
  PAW double counting   =     92679.89207989   -95535.38516353
  entropy T*S    EENTRO =        -0.01863576
  eigenvalues    EBANDS =       349.80001002
  atomic energy  EATOM  =     95443.47970955
  Solvation  Ediel_sol  =         0.00000000
  ---------------------------------------------------
  free energy    TOTEN  =     10409.63396123 eV

  energy without entropy =    10409.65259699  energy(sigma->0) =    10409.64327911


--------------------------------------------------------------------------------------------------------




--------------------------------------- Iteration      1(   2)  ---------------------------------------


     EDDAV:  cpu time  307.7209: real time  310.7771
       DOS:  cpu time    0.0085: real time    0.0085
    --------------------------------------------
      LOOP:  cpu time  307.7294: real time  310.7856

 eigenvalue-minimisations  : 30128
 total energy-change (2. order) :-0.9232157E+04  (-0.8658358E+04)
 number of electron     736.0000016 magnetization     127.9999885
 augmentation part      736.0000016 magnetization     127.9999885

 Free energy of the ion-electron system (eV)
  ---------------------------------------------------
  alpha Z        PSCENC =      2314.49656628
  Ewald energy   TEWEN  =    -57723.13616506
  -Hartree energ DENC   =    -30348.79303406
  -exchange      EXHF   =         0.00000000
  -V(xc)+E(xc)   XCENC  =      3229.29859391
  PAW double counting   =     92679.89207989   -95535.38516353
  entropy T*S    EENTRO =        -0.06580498
  eigenvalues    EBANDS =     -8882.31027470
  atomic energy  EATOM  =     95443.47970955
  Solvation  Ediel_sol  =         0.00000000
  ---------------------------------------------------
  free energy    TOTEN  =      1177.47650729 eV

  energy without entropy =     1177.54231227  energy(sigma->0) =     1177.50940978


--------------------------------------------------------------------------------------------------------




--------------------------------------- Iteration      1(   3)  ---------------------------------------


     EDDAV:  cpu time  325.6046: real time  328.5615
       DOS:  cpu time    0.0024: real time    0.0024
    --------------------------------------------
      LOOP:  cpu time  325.6070: real time  328.5639

 eigenvalue-minimisations  : 32360
 total energy-change (2. order) :-0.1485599E+04  (-0.1278926E+04)
 number of electron     736.0000016 magnetization     127.9999885
 augmentation part      736.0000016 magnetization     127.9999885

 Free energy of the ion-electron system (eV)
  ---------------------------------------------------
  alpha Z        PSCENC =      2314.49656628
  Ewald energy   TEWEN  =    -57723.13616506
  -Hartree energ DENC   =    -30348.79303406
  -exchange      EXHF   =         0.00000000
  -V(xc)+E(xc)   XCENC  =      3229.29859391
  PAW double counting   =     92679.89207989   -95535.38516353
  entropy T*S    EENTRO =        -0.00000000
  eigenvalues    EBANDS =    -10367.97520451
  atomic energy  EATOM  =     95443.47970955
  Solvation  Ediel_sol  =         0.00000000
  ---------------------------------------------------
  free energy    TOTEN  =      -308.12261754 eV

  energy without entropy =     -308.12261754  energy(sigma->0) =     -308.12261754


--------------------------------------------------------------------------------------------------------




--------------------------------------- Iteration      1(   4)  ---------------------------------------


     EDDAV:  cpu time  347.9179: real time  351.3636
       DOS:  cpu time    0.0024: real time    0.0024
    --------------------------------------------
      LOOP:  cpu time  347.9203: real time  351.3660

 eigenvalue-minimisations  : 35008
 total energy-change (2. order) :-0.1681799E+03  (-0.1654236E+03)
 number of electron     736.0000016 magnetization     127.9999885
 augmentation part      736.0000016 magnetization     127.9999885

 Free energy of the ion-electron system (eV)
  ---------------------------------------------------
  alpha Z        PSCENC =      2314.49656628
  Ewald energy   TEWEN  =    -57723.13616506
  -Hartree energ DENC   =    -30348.79303406
  -exchange      EXHF   =         0.00000000
  -V(xc)+E(xc)   XCENC  =      3229.29859391
  PAW double counting   =     92679.89207989   -95535.38516353
  entropy T*S    EENTRO =        -0.00000000
  eigenvalues    EBANDS =    -10536.15515275
  atomic energy  EATOM  =     95443.47970955
  Solvation  Ediel_sol  =         0.00000000
  ---------------------------------------------------
  free energy    TOTEN  =      -476.30256578 eV

  energy without entropy =     -476.30256578  energy(sigma->0) =     -476.30256578


--------------------------------------------------------------------------------------------------------




--------------------------------------- Iteration      1(   5)  ---------------------------------------


     EDDAV:  cpu time  459.9691: real time  464.1930
       DOS:  cpu time    0.0026: real time    0.0026
    CHARGE:  cpu time    9.4824: real time    9.5098
    MIXING:  cpu time    0.0332: real time    0.0333
    --------------------------------------------
      LOOP:  cpu time  469.4873: real time  473.7388

 eigenvalue-minimisations  : 49712
 total energy-change (2. order) :-0.1243110E+02  (-0.1230787E+02)
 number of electron     736.0000016 magnetization     127.9999932
 augmentation part      278.4632929 magnetization      84.1334679

 Broyden mixing:
  rms(total) = 0.20867E+00    rms(broyden)= 0.20851E+00
  rms(prec ) = 0.21211E+00
  weight for this iteration     100.00

 Free energy of the ion-electron system (eV)
  ---------------------------------------------------
  alpha Z        PSCENC =      2314.49656628
  Ewald energy   TEWEN  =    -57723.13616506
  -Hartree energ DENC   =    -30348.79303406
  -exchange      EXHF   =         0.00000000
  -V(xc)+E(xc)   XCENC  =      3229.29859391
  PAW double counting   =     92679.89207989   -95535.38516353
  entropy T*S    EENTRO =        -0.00000000
  eigenvalues    EBANDS =    -10548.58624992
  atomic energy  EATOM  =     95443.47970955
  Solvation  Ediel_sol  =         0.00000000
  ---------------------------------------------------
  free energy    TOTEN  =      -488.73366294 eV

  energy without entropy =     -488.73366294  energy(sigma->0) =     -488.73366294


--------------------------------------------------------------------------------------------------------




--------------------------------------- Iteration      1(   6)  ---------------------------------------


    POTLOK:  cpu time    1.0470: real time    1.0504
    SETDIJ:  cpu time    2.2943: real time    2.3067
     EDDAV:  cpu time  401.3265: real time  404.9611
       DOS:  cpu time    0.0029: real time    0.0045
    CHARGE:  cpu time    9.1463: real time    9.2901
    MIXING:  cpu time    0.0364: real time    0.0380
    --------------------------------------------
      LOOP:  cpu time  413.8534: real time  417.6509

 eigenvalue-minimisations  : 42008
 total energy-change (2. order) :-0.4667660E+00  (-0.4809115E+00)
 number of electron     736.0000016 magnetization     127.9999951
 augmentation part      277.9610565 magnetization      84.1629549

 Broyden mixing:
  rms(total) = 0.10409E+00    rms(broyden)= 0.10393E+00
  rms(prec ) = 0.10476E+00
  weight for this iteration     100.00

 eigenvalues of (default mixing * dielectric matrix)
  average eigenvalue GAMMA=   0.6532
  0.6532

 Free energy of the ion-electron system (eV)
  ---------------------------------------------------
  alpha Z        PSCENC =      2314.49656628
  Ewald energy   TEWEN  =    -57723.13616506
  -Hartree energ DENC   =    -30346.97677806
  -exchange      EXHF   =         0.00000000
  -V(xc)+E(xc)   XCENC  =      3228.99858340
  PAW double counting   =     92521.52779454   -95375.36776105
  entropy T*S    EENTRO =        -0.00000000
  eigenvalues    EBANDS =    -10552.22237854
  atomic energy  EATOM  =     95443.47970955
  Solvation  Ediel_sol  =         0.00000000
  ---------------------------------------------------
  free energy    TOTEN  =      -489.20042894 eV

  energy without entropy =     -489.20042894  energy(sigma->0) =     -489.20042894


--------------------------------------------------------------------------------------------------------




--------------------------------------- Iteration      1(   7)  ---------------------------------------


    POTLOK:  cpu time    1.0435: real time    1.0556
    SETDIJ:  cpu time    2.2705: real time    2.2937
     EDDAV:  cpu time  435.3176: real time  439.3078
       DOS:  cpu time    0.0029: real time    0.0029
    CHARGE:  cpu time    9.1687: real time    9.3119
    MIXING:  cpu time    0.0340: real time    0.0372
    --------------------------------------------
      LOOP:  cpu time  447.8372: real time  452.0092

 eigenvalue-minimisations  : 46344
 total energy-change (2. order) :-0.1672784E-01  (-0.1757733E-01)
 number of electron     736.0000016 magnetization     127.9999959
 augmentation part      277.8797435 magnetization      84.1547009

 Broyden mixing:
  rms(total) = 0.59256E-01    rms(broyden)= 0.59214E-01
  rms(prec ) = 0.60671E-01
  weight for this iteration     100.00

 eigenvalues of (default mixing * dielectric matrix)
  average eigenvalue GAMMA=   0.5770
  0.5770  0.5770

 Free energy of the ion-electron system (eV)
  ---------------------------------------------------
  alpha Z        PSCENC =      2314.49656628
  Ewald energy   TEWEN  =    -57723.13616506
  -Hartree energ DENC   =    -30347.90063860
  -exchange      EXHF   =         0.00000000
  -V(xc)+E(xc)   XCENC  =      3229.08345663
  PAW double counting   =     92579.66950873   -95434.08422412
  entropy T*S    EENTRO =        -0.00000000
  eigenvalues    EBANDS =    -10550.82537018
  atomic energy  EATOM  =     95443.47970955
  Solvation  Ediel_sol  =         0.00000000
  ---------------------------------------------------
  free energy    TOTEN  =      -489.21715678 eV

  energy without entropy =     -489.21715678  energy(sigma->0) =     -489.21715678


--------------------------------------------------------------------------------------------------------




--------------------------------------- Iteration      1(   8)  ---------------------------------------


    POTLOK:  cpu time    1.0374: real time    1.0553
    SETDIJ:  cpu time    2.2870: real time    2.3284
     EDDAV:  cpu time  404.8653: real time  408.3887
       DOS:  cpu time    0.0030: real time    0.0030
    CHARGE:  cpu time    9.1913: real time    9.3729
    MIXING:  cpu time    0.0321: real time    0.0334
    --------------------------------------------
      LOOP:  cpu time  417.4161: real time  421.1817

 eigenvalue-minimisations  : 42672
 total energy-change (2. order) : 0.4830896E-03  (-0.3630289E-03)
 number of electron     736.0000016 magnetization     127.9999963
 augmentation part      277.8715287 magnetization      84.1567021

 Broyden mixing:
  rms(total) = 0.52928E-01    rms(broyden)= 0.52925E-01
  rms(prec ) = 0.54169E-01
  weight for this iteration     100.00

 eigenvalues of (default mixing * dielectric matrix)
  average eigenvalue GAMMA=   0.5486
  0.6081  0.6081  0.4295

 Free energy of the ion-electron system (eV)
  ---------------------------------------------------
  alpha Z        PSCENC =      2314.49656628
  Ewald energy   TEWEN  =    -57723.13616506
  -Hartree energ DENC   =    -30347.86220358
  -exchange      EXHF   =         0.00000000
  -V(xc)+E(xc)   XCENC  =      3229.11256506
  PAW double counting   =     92593.38627120   -95447.93593685
  entropy T*S    EENTRO =        -0.00000000
  eigenvalues    EBANDS =    -10550.75748028
  atomic energy  EATOM  =     95443.47970955
  Solvation  Ediel_sol  =         0.00000000
  ---------------------------------------------------
  free energy    TOTEN  =      -489.21667369 eV

  energy without entropy =     -489.21667369  energy(sigma->0) =     -489.21667369


--------------------------------------------------------------------------------------------------------




--------------------------------------- Iteration      1(   9)  ---------------------------------------


    POTLOK:  cpu time    1.0375: real time    1.0493
    SETDIJ:  cpu time    2.2750: real time    2.2811
     EDDAV:  cpu time  444.6201: real time  448.1378
       DOS:  cpu time    0.0028: real time    0.0028
    CHARGE:  cpu time    9.0831: real time    9.2876
    MIXING:  cpu time    0.0352: real time    0.0361
    --------------------------------------------
      LOOP:  cpu time  457.0538: real time  460.7948

 eigenvalue-minimisations  : 47648
 total energy-change (2. order) : 0.3832408E-03  (-0.2137984E-04)
 number of electron     736.0000016 magnetization     127.9999973
 augmentation part      277.8736797 magnetization      84.1566959

 Broyden mixing:
  rms(total) = 0.47300E-01    rms(broyden)= 0.47299E-01
  rms(prec ) = 0.48381E-01
  weight for this iteration     100.00

 eigenvalues of (default mixing * dielectric matrix)
  average eigenvalue GAMMA=   0.6040
  0.7229  0.7229  0.4852  0.4852

 Free energy of the ion-electron system (eV)
  ---------------------------------------------------
  alpha Z        PSCENC =      2314.49656628
  Ewald energy   TEWEN  =    -57723.13616506
  -Hartree energ DENC   =    -30347.92793722
  -exchange      EXHF   =         0.00000000
  -V(xc)+E(xc)   XCENC  =      3229.13303699
  PAW double counting   =     92600.49825455   -95455.14259439
  entropy T*S    EENTRO =        -0.00000000
  eigenvalues    EBANDS =    -10550.61716114
  atomic energy  EATOM  =     95443.47970955
  Solvation  Ediel_sol  =         0.00000000
  ---------------------------------------------------
  free energy    TOTEN  =      -489.21629045 eV

  energy without entropy =     -489.21629045  energy(sigma->0) =     -489.21629045


--------------------------------------------------------------------------------------------------------




--------------------------------------- Iteration      1(  10)  ---------------------------------------


    POTLOK:  cpu time    1.0340: real time    1.0545
    SETDIJ:  cpu time    2.2628: real time    2.3014
     EDDAV:  cpu time  441.5908: real time  446.2082
       DOS:  cpu time    0.0031: real time    0.0033
    CHARGE:  cpu time    9.1623: real time    9.3038
    MIXING:  cpu time    0.0327: real time    0.0327
    --------------------------------------------
      LOOP:  cpu time  454.0858: real time  458.9039

 eigenvalue-minimisations  : 47184
 total energy-change (2. order) : 0.6435522E-03  (-0.2559976E-04)
 number of electron     736.0000016 magnetization     127.9999990
 augmentation part      277.8803195 magnetization      84.1573809

 Broyden mixing:
  rms(total) = 0.34857E-01    rms(broyden)= 0.34856E-01
  rms(prec ) = 0.35536E-01
  weight for this iteration     100.00

 eigenvalues of (default mixing * dielectric matrix)
  average eigenvalue GAMMA=   0.8598
  1.3274  1.3274  0.5874  0.5874  0.4692

 Free energy of the ion-electron system (eV)
  ---------------------------------------------------
  alpha Z        PSCENC =      2314.49656628
  Ewald energy   TEWEN  =    -57723.13616506
  -Hartree energ DENC   =    -30348.17526259
  -exchange      EXHF   =         0.00000000
  -V(xc)+E(xc)   XCENC  =      3229.18410445
  PAW double counting   =     92618.91407181   -95473.80215085
  entropy T*S    EENTRO =        -0.00000000
  eigenvalues    EBANDS =    -10550.17652047
  atomic energy  EATOM  =     95443.47970955
  Solvation  Ediel_sol  =         0.00000000
  ---------------------------------------------------
  free energy    TOTEN  =      -489.21564690 eV

  energy without entropy =     -489.21564690  energy(sigma->0) =     -489.21564690


--------------------------------------------------------------------------------------------------------




--------------------------------------- Iteration      1(  11)  ---------------------------------------


    POTLOK:  cpu time    1.0438: real time    1.0460
    SETDIJ:  cpu time    2.2890: real time    2.2928
     EDDAV:  cpu time  393.3809: real time  397.0654
       DOS:  cpu time    0.0027: real time    0.0029
    CHARGE:  cpu time    9.1685: real time    9.3182
    MIXING:  cpu time    0.0323: real time    0.0341
    --------------------------------------------
      LOOP:  cpu time  405.9172: real time  409.7594

 eigenvalue-minimisations  : 40952
 total energy-change (2. order) : 0.5091414E-03  (-0.4800481E-04)
 number of electron     736.0000016 magnetization     127.9999994
 augmentation part      277.8883567 magnetization      84.1580757

 Broyden mixing:
  rms(total) = 0.15370E-01    rms(broyden)= 0.15369E-01
  rms(prec ) = 0.15509E-01
  weight for this iteration     100.00

 eigenvalues of (default mixing * dielectric matrix)
  average eigenvalue GAMMA=   0.8682
  1.4334  1.4334  0.6560  0.6560  0.5153  0.5153

 Free energy of the ion-electron system (eV)
  ---------------------------------------------------
  alpha Z        PSCENC =      2314.49656628
  Ewald energy   TEWEN  =    -57723.13616506
  -Hartree energ DENC   =    -30348.55251719
  -exchange      EXHF   =         0.00000000
  -V(xc)+E(xc)   XCENC  =      3229.26128024
  PAW double counting   =     92650.18929628   -95505.45927594
  entropy T*S    EENTRO =        -0.00000000
  eigenvalues    EBANDS =    -10549.49403191
  atomic energy  EATOM  =     95443.47970955
  Solvation  Ediel_sol  =         0.00000000
  ---------------------------------------------------
  free energy    TOTEN  =      -489.21513776 eV

  energy without entropy =     -489.21513776  energy(sigma->0) =     -489.21513776


--------------------------------------------------------------------------------------------------------




--------------------------------------- Iteration      1(  12)  ---------------------------------------


    POTLOK:  cpu time    1.0380: real time    1.0514
    SETDIJ:  cpu time    2.3044: real time    2.3221
     EDDAV:  cpu time  369.5172: real time  373.0571
       DOS:  cpu time    0.0062: real time    0.0081
    CHARGE:  cpu time    9.2206: real time    9.3429
    MIXING:  cpu time    0.0394: real time    0.0412
    --------------------------------------------
      LOOP:  cpu time  382.1257: real time  385.8228

 eigenvalue-minimisations  : 37936
 total energy-change (2. order) : 0.1704133E-04  (-0.1613988E-04)
 number of electron     736.0000016 magnetization     127.9999996
 augmentation part      277.8903047 magnetization      84.1580751

 Broyden mixing:
  rms(total) = 0.10581E-01    rms(broyden)= 0.10581E-01
  rms(prec ) = 0.10643E-01
  weight for this iteration     100.00

 eigenvalues of (default mixing * dielectric matrix)
  average eigenvalue GAMMA=   0.9166
  1.5800  1.5800  0.8225  0.8225  0.5607  0.5607  0.4895

 Free energy of the ion-electron system (eV)
  ---------------------------------------------------
  alpha Z        PSCENC =      2314.49656628
  Ewald energy   TEWEN  =    -57723.13616506
  -Hartree energ DENC   =    -30348.62835684
  -exchange      EXHF   =         0.00000000
  -V(xc)+E(xc)   XCENC  =      3229.27611254
  PAW double counting   =     92658.61926140   -95513.96553120
  entropy T*S    EENTRO =        -0.00000000
  eigenvalues    EBANDS =    -10549.35671738
  atomic energy  EATOM  =     95443.47970955
  Solvation  Ediel_sol  =         0.00000000
  ---------------------------------------------------
  free energy    TOTEN  =      -489.21512072 eV

  energy without entropy =     -489.21512072  energy(sigma->0) =     -489.21512072


--------------------------------------------------------------------------------------------------------




--------------------------------------- Iteration      1(  13)  ---------------------------------------


    POTLOK:  cpu time    1.0345: real time    1.0536
    SETDIJ:  cpu time    2.3151: real time    2.3358
     EDDAV:  cpu time  375.4898: real time  379.2049
       DOS:  cpu time    0.0037: real time    0.0037
    CHARGE:  cpu time    9.3126: real time    9.3969
    MIXING:  cpu time    0.0386: real time    0.0404
    --------------------------------------------
      LOOP:  cpu time  388.1943: real time  392.0353

 eigenvalue-minimisations  : 38648
 total energy-change (2. order) :-0.6572649E-05  (-0.2150833E-05)
 number of electron     736.0000016 magnetization     128.0000000
 augmentation part      277.8918152 magnetization      84.1580438

 Broyden mixing:
  rms(total) = 0.95425E-02    rms(broyden)= 0.95418E-02
  rms(prec ) = 0.96047E-02
  weight for this iteration     100.00

 eigenvalues of (default mixing * dielectric matrix)
  average eigenvalue GAMMA=   1.0633
  2.1988  2.1988  0.9503  0.9503  0.6104  0.6104  0.4939  0.4939

 Free energy of the ion-electron system (eV)
  ---------------------------------------------------
  alpha Z        PSCENC =      2314.49656628
  Ewald energy   TEWEN  =    -57723.13616506
  -Hartree energ DENC   =    -30348.63730084
  -exchange      EXHF   =         0.00000000
  -V(xc)+E(xc)   XCENC  =      3229.27669105
  PAW double counting   =     92660.79107207   -95516.14148938
  entropy T*S    EENTRO =        -0.00000000
  eigenvalues    EBANDS =    -10549.34421096
  atomic energy  EATOM  =     95443.47970955
  Solvation  Ediel_sol  =         0.00000000
  ---------------------------------------------------
  free energy    TOTEN  =      -489.21512729 eV

  energy without entropy =     -489.21512729  energy(sigma->0) =     -489.21512729


--------------------------------------------------------------------------------------------------------




--------------------------------------- Iteration      1(  14)  ---------------------------------------


    POTLOK:  cpu time    1.0429: real time    1.0468
    SETDIJ:  cpu time    2.2882: real time    2.2972
     EDDAV:  cpu time  247.7307: real time  250.1112
       DOS:  cpu time    0.0026: real time    0.0026
    CHARGE:  cpu time    9.3481: real time    9.3825
    MIXING:  cpu time    0.0340: real time    0.0339
    --------------------------------------------
      LOOP:  cpu time  260.4464: real time  262.8742

 eigenvalue-minimisations  : 22184
 total energy-change (2. order) : 0.2687608E-05  (-0.1869538E-06)
 number of electron     736.0000016 magnetization     128.0000004
 augmentation part      277.8917143 magnetization      84.1580607

 Broyden mixing:
  rms(total) = 0.52612E-02    rms(broyden)= 0.52600E-02
  rms(prec ) = 0.53282E-02
  weight for this iteration     100.00

 eigenvalues of (default mixing * dielectric matrix)
  average eigenvalue GAMMA=   1.1124
  2.3470  2.3470  1.0857  1.0857  0.7208  0.7208  0.5817  0.5817  0.5410

 Free energy of the ion-electron system (eV)
  ---------------------------------------------------
  alpha Z        PSCENC =      2314.49656628
  Ewald energy   TEWEN  =    -57723.13616506
  -Hartree energ DENC   =    -30348.69984572
  -exchange      EXHF   =         0.00000000
  -V(xc)+E(xc)   XCENC  =      3229.28446056
  PAW double counting   =     92669.81185515   -95525.21233926
  entropy T*S    EENTRO =        -0.00000000
  eigenvalues    EBANDS =    -10549.23936609
  atomic energy  EATOM  =     95443.47970955
  Solvation  Ediel_sol  =         0.00000000
  ---------------------------------------------------
  free energy    TOTEN  =      -489.21512460 eV

  energy without entropy =     -489.21512460  energy(sigma->0) =     -489.21512460


--------------------------------------------------------------------------------------------------------




--------------------------------------- Iteration      1(  15)  ---------------------------------------


    POTLOK:  cpu time    1.0421: real time    1.0438
    SETDIJ:  cpu time    2.2857: real time    2.2894
     EDDAV:  cpu time  324.0414: real time  326.6129
       DOS:  cpu time    0.0028: real time    0.0028
    CHARGE:  cpu time    9.1842: real time    9.3319
    MIXING:  cpu time    0.0334: real time    0.0334
    --------------------------------------------
      LOOP:  cpu time  336.5895: real time  339.3142

 eigenvalue-minimisations  : 32104
 total energy-change (2. order) : 0.1002867E-04  (-0.1474013E-05)
 number of electron     736.0000016 magnetization     128.0000004
 augmentation part      277.8926617 magnetization      84.1581319

 Broyden mixing:
  rms(total) = 0.81140E-03    rms(broyden)= 0.80358E-03
  rms(prec ) = 0.81525E-03
  weight for this iteration     100.00

 eigenvalues of (default mixing * dielectric matrix)
  average eigenvalue GAMMA=   1.0693
  2.2521  2.2521  1.1796  1.1796  0.7892  0.7892  0.6118  0.6118  0.5136  0.5136

 Free energy of the ion-electron system (eV)
  ---------------------------------------------------
  alpha Z        PSCENC =      2314.49656628
  Ewald energy   TEWEN  =    -57723.13616506
  -Hartree energ DENC   =    -30348.78619480
  -exchange      EXHF   =         0.00000000
  -V(xc)+E(xc)   XCENC  =      3229.29870815
  PAW double counting   =     92678.50059944   -95533.98176325
  entropy T*S    EENTRO =        -0.00000000
  eigenvalues    EBANDS =    -10549.08657487
  atomic energy  EATOM  =     95443.47970955
  Solvation  Ediel_sol  =         0.00000000
  ---------------------------------------------------
  free energy    TOTEN  =      -489.21511457 eV

  energy without entropy =     -489.21511457  energy(sigma->0) =     -489.21511457


--------------------------------------------------------------------------------------------------------




--------------------------------------- Iteration      1(  16)  ---------------------------------------


    POTLOK:  cpu time    1.0390: real time    1.0468
    SETDIJ:  cpu time    2.2765: real time    2.2845
     EDDAV:  cpu time  306.9120: real time  310.1303
       DOS:  cpu time    0.0025: real time    0.0025
    --------------------------------------------
      LOOP:  cpu time  310.2300: real time  313.4641

 eigenvalue-minimisations  : 29720
 total energy-change (2. order) :-0.6579212E-06  (-0.5390266E-06)
 number of electron     736.0000016 magnetization     128.0000004
 augmentation part      277.8926617 magnetization      84.1581319

 Free energy of the ion-electron system (eV)
  ---------------------------------------------------
  alpha Z        PSCENC =      2314.49656628
  Ewald energy   TEWEN  =    -57723.13616506
  -Hartree energ DENC   =    -30348.78586207
  -exchange      EXHF   =         0.00000000
  -V(xc)+E(xc)   XCENC  =      3229.29876063
  PAW double counting   =     92678.81911537   -95534.30266388
  entropy T*S    EENTRO =        -0.00000000
  eigenvalues    EBANDS =    -10549.08457603
  atomic energy  EATOM  =     95443.47970955
  Solvation  Ediel_sol  =         0.00000000
  ---------------------------------------------------
  free energy    TOTEN  =      -489.21511523 eV

  energy without entropy =     -489.21511523  energy(sigma->0) =     -489.21511523


--------------------------------------------------------------------------------------------------------




 average (electrostatic) potential at core
  the test charge radii are     0.7079  0.7215  0.9698  0.9500
  (the norm of the test charge is              1.0000)
       1 -58.9533       2 -58.9475       3 -58.9492       4 -58.9480       5 -58.9442
       6 -58.9485       7 -58.9473       8 -58.9481       9 -58.9486      10 -58.9440
      11 -58.9481      12 -58.9471      13 -58.9533      14 -58.9477      15 -58.9491
      16 -58.9480      17 -69.8159      18 -69.8164      19 -69.8165      20 -69.8163
      21 -69.8194      22 -69.8134      23 -69.8169      24 -69.8158      25 -69.8167
      26 -69.8162      27 -69.8161      28 -69.8163      29 -69.8193      30 -69.8134
      31 -69.8168      32 -69.8158      33 -85.5799      34 -85.5797      35 -85.5799
      36 -85.5797      37 -85.5803      38 -85.5795      39 -85.5802      40 -85.5794
      41 -85.5797      42 -85.5799      43 -85.5797      44 -85.5799      45 -85.5802
      46 -85.5793      47 -85.5803      48 -85.5794      49 -85.6388      50 -85.6388
      51 -85.6388      52 -85.6388      53 -85.6409      54 -85.6368      55 -85.6410
      56 -85.6368      57 -78.5740      58 -78.5743      59 -78.5740      60 -78.5743
      61 -78.5748      62 -78.5733      63 -78.5743      64 -78.5738      65 -78.5743
      66 -78.5738      67 -78.5742      68 -78.5739      69 -78.5749      70 -78.5734
      71 -78.5744      72 -78.5739      73 -78.5780      74 -78.5829      75 -78.5816
      76 -78.5826      77 -78.5955      78 -78.5906      79 -78.5920      80 -78.5909
      81 -78.5955      82 -78.5906      83 -78.5920      84 -78.5910      85 -78.5830
      86 -78.5780      87 -78.5826      88 -78.5815
 
 
 
 E-fermi :   5.2017     XC(G=0): -10.4850     alpha+bet :-11.8156


 spin component 1

 k-point     1 :       0.0000    0.0000    0.0000
  band No.  band energies     occupation 
      1     -51.0558      1.00000
      2     -51.0557      1.00000
      3     -51.0546      1.00000
      4     -51.0546      1.00000
      5     -51.0540      1.00000
      6     -51.0539      1.00000
      7     -51.0536      1.00000
      8     -51.0535      1.00000
      9     -51.0529      1.00000
     10     -51.0526      1.00000
     11     -51.0525      1.00000
     12     -51.0522      1.00000
     13     -51.0522      1.00000
     14     -51.0512      1.00000
     15     -51.0511      1.00000
     16     -51.0502      1.00000
     17     -51.0470      1.00000
     18     -51.0469      1.00000
     19     -51.0444      1.00000
     20     -51.0443      1.00000
     21     -51.0436      1.00000
     22     -51.0436      1.00000
     23     -51.0432      1.00000
     24     -51.0431      1.00000
     25     -51.0404      1.00000
     26     -51.0403      1.00000
     27     -51.0399      1.00000
     28     -51.0399      1.00000
     29     -51.0391      1.00000
     30     -51.0390      1.00000
     31     -51.0357      1.00000
     32     -51.0356      1.00000
     33     -49.7059      1.00000
     34     -49.7059      1.00000
     35     -49.7020      1.00000
     36     -49.7019      1.00000
     37     -49.7010      1.00000
     38     -49.7009      1.00000
     39     -49.7007      1.00000
     40     -49.7007      1.00000
     41     -49.6950      1.00000
     42     -49.6949      1.00000
     43     -49.6947      1.00000
     44     -49.6946      1.00000
     45     -49.6937      1.00000
     46     -49.6936      1.00000
     47     -49.6897      1.00000
     48     -49.6897      1.00000
     49     -49.5985      1.00000
     50     -49.5977      1.00000
     51     -49.5976      1.00000
     52     -49.5974      1.00000
     53     -49.5973      1.00000
     54     -49.5973      1.00000
     55     -49.5970      1.00000
     56     -49.5965      1.00000
     57     -49.5964      1.00000
     58     -49.5963      1.00000
     59     -49.5962      1.00000
     60     -49.5961      1.00000
     61     -49.5960      1.00000
     62     -49.5958      1.00000
     63     -49.5957      1.00000
     64     -49.5955      1.00000
     65     -49.5673      1.00000
     66     -49.5665      1.00000
     67     -49.5663      1.00000
     68     -49.5662      1.00000
     69     -49.5661      1.00000
     70     -49.5660      1.00000
     71     -49.5657      1.00000
     72     -49.5649      1.00000
     73     -49.5645      1.00000
     74     -49.5645      1.00000
     75     -49.5644      1.00000
     76     -49.5643      1.00000
     77     -49.5641      1.00000
     78     -49.5640      1.00000
     79     -49.5638      1.00000
     80     -49.5637      1.00000
     81     -49.5580      1.00000
     82     -49.5579      1.00000
     83     -49.5547      1.00000
     84     -49.5546      1.00000
     85     -49.5536      1.00000
     86     -49.5535      1.00000
     87     -49.5533      1.00000
     88     -49.5532      1.00000
     89     -49.5404      1.00000
     90     -49.5403      1.00000
     91     -49.5401      1.00000
     92     -49.5400      1.00000
     93     -49.5390      1.00000
     94     -49.5389      1.00000
     95     -49.5355      1.00000
     96     -49.5354      1.00000
     97     -39.8696      1.00000
     98     -39.8695      1.00000
     99     -39.8657      1.00000
    100     -39.8656      1.00000
    101     -39.8654      1.00000
    102     -39.8653      1.00000
    103     -39.8650      1.00000
    104     -39.8649      1.00000
    105     -39.8644      1.00000
    106     -39.8643      1.00000
    107     -39.8639      1.00000
    108     -39.8639      1.00000
    109     -39.8638      1.00000
    110     -39.8637      1.00000
    111     -39.8611      1.00000
    112     -39.8609      1.00000
    113     -13.2249      1.00000
    114     -13.2248      1.00000
    115     -13.2104      1.00000
    116     -13.1836      1.00000
    117     -13.1013      1.00000
    118     -13.0989      1.00000
    119     -13.0988      1.00000
    120     -13.0930      1.00000
    121     -13.0862      1.00000
    122     -13.0802      1.00000
    123     -13.0800      1.00000
    124     -13.0775      1.00000
    125     -12.9882      1.00000
    126     -12.9774      1.00000
    127     -12.9418      1.00000
    128     -12.9418      1.00000
    129      -7.6453      1.00000
    130      -7.4068      1.00000
    131      -7.3263      1.00000
    132      -7.3260      1.00000
    133      -7.3094      1.00000
    134      -7.3092      1.00000
    135      -7.3089      1.00000
    136      -7.3068      1.00000
    137      -7.1698      1.00000
    138      -7.1570      1.00000
    139      -7.1238      1.00000
    140      -7.1237      1.00000
    141      -7.0365      1.00000
    142      -7.0219      1.00000
    143      -7.0021      1.00000
    144      -7.0021      1.00000
    145      -6.9409      1.00000
    146      -6.9408      1.00000
    147      -6.8872      1.00000
    148      -6.8872      1.00000
    149      -6.8656      1.00000
    150      -6.8617      1.00000
    151      -6.8345      1.00000
    152      -6.8038      1.00000
    153      -1.9355      1.00000
    154      -1.9355      1.00000
    155      -1.9105      1.00000
    156      -1.8936      1.00000
    157      -1.6665      1.00000
    158      -1.6664      1.00000
    159      -1.6586      1.00000
    160      -1.6573      1.00000
    161      -1.5997      1.00000
    162      -1.5980      1.00000
    163      -1.5862      1.00000
    164      -1.5862      1.00000
    165      -1.2982      1.00000
    166      -1.1747      1.00000
    167      -1.1747      1.00000
    168      -1.1134      1.00000
    169      -1.1131      1.00000
    170      -1.1072      1.00000
    171      -1.0493      1.00000
    172      -0.9808      1.00000
    173      -0.9646      1.00000
    174      -0.9596      1.00000
    175      -0.9576      1.00000
    176      -0.9576      1.00000
    177      -0.9469      1.00000
    178      -0.9452      1.00000
    179      -0.9230      1.00000
    180      -0.8712      1.00000
    181      -0.8712      1.00000
    182      -0.8034      1.00000
    183      -0.8026      1.00000
    184      -0.8026      1.00000
    185      -0.7753      1.00000
    186      -0.7741      1.00000
    187      -0.7741      1.00000
    188      -0.7608      1.00000
    189      -0.7166      1.00000
    190      -0.7166      1.00000
    191      -0.7066      1.00000
    192      -0.7049      1.00000
    193      -0.6991      1.00000
    194      -0.6990      1.00000
    195      -0.6087      1.00000
    196      -0.6086      1.00000
    197      -0.5615      1.00000
    198      -0.5615      1.00000
    199      -0.5494      1.00000
    200      -0.5480      1.00000
    201      -0.4084      1.00000
    202      -0.4077      1.00000
    203      -0.3572      1.00000
    204      -0.3482      1.00000
    205      -0.3295      1.00000
    206      -0.3293      1.00000
    207      -0.2987      1.00000
    208      -0.2984      1.00000
    209      -0.2814      1.00000
    210      -0.2692      1.00000
    211      -0.2628      1.00000
    212      -0.2559      1.00000
    213      -0.2551      1.00000
    214      -0.2091      1.00000
    215      -0.2086      1.00000
    216      -0.1884      1.00000
    217      -0.1867      1.00000
    218      -0.1867      1.00000
    219      -0.1758      1.00000
    220      -0.1582      1.00000
    221      -0.1256      1.00000
    222      -0.1255      1.00000
    223      -0.1091      1.00000
    224      -0.0712      1.00000
    225      -0.0703      1.00000
    226      -0.0606      1.00000
    227      -0.0433      1.00000
    228      -0.0175      1.00000
    229      -0.0174      1.00000
    230      -0.0116      1.00000
    231       0.0016      1.00000
    232       0.0018      1.00000
    233       0.0465      1.00000
    234       0.0493      1.00000
    235       0.0495      1.00000
    236       0.0912      1.00000
    237       0.0929      1.00000
    238       0.1185      1.00000
    239       0.1185      1.00000
    240       0.1577      1.00000
    241       0.1627      1.00000
    242       0.1765      1.00000
    243       0.1793      1.00000
    244       0.1820      1.00000
    245       0.1821      1.00000
    246       0.1855      1.00000
    247       0.1892      1.00000
    248       0.1933      1.00000
    249       0.1946      1.00000
    250       0.2006      1.00000
    251       0.2014      1.00000
    252       0.2386      1.00000
    253       0.2513      1.00000
    254       0.2571      1.00000
    255       0.2572      1.00000
    256       0.2766      1.00000
    257       0.3373      1.00000
    258       0.3475      1.00000
    259       0.3588      1.00000
    260       0.3590      1.00000
    261       0.3604      1.00000
    262       0.3607      1.00000
    263       0.3883      1.00000
    264       0.4016      1.00000
    265       0.4526      1.00000
    266       0.4526      1.00000
    267       0.5788      1.00000
    268       0.5789      1.00000
    269       0.5839      1.00000
    270       0.6020      1.00000
    271       0.6021      1.00000
    272       0.6070      1.00000
    273       0.6080      1.00000
    274       0.6399      1.00000
    275       0.6511      1.00000
    276       0.6512      1.00000
    277       0.6622      1.00000
    278       0.6623      1.00000
    279       0.6655      1.00000
    280       0.6731      1.00000
    281       0.6750      1.00000
    282       0.6751      1.00000
    283       0.6970      1.00000
    284       0.7229      1.00000
    285       0.7833      1.00000
    286       0.8198      1.00000
    287       0.8294      1.00000
    288       0.8321      1.00000
    289       0.8322      1.00000
    290       0.8611      1.00000
    291       0.8612      1.00000
    292       0.9093      1.00000
    293       0.9402      1.00000
    294       0.9483      1.00000
    295       0.9483      1.00000
    296       0.9832      1.00000
    297       1.0261      1.00000
    298       1.0704      1.00000
    299       1.2693      1.00000
    300       1.2982      1.00000
    301       1.2983      1.00000
    302       1.3117      1.00000
    303       1.3332      1.00000
    304       1.3332      1.00000
    305       1.3380      1.00000
    306       1.3845      1.00000
    307       1.4050      1.00000
    308       1.4282      1.00000
    309       1.4668      1.00000
    310       1.4680      1.00000
    311       1.4681      1.00000
    312       1.4815      1.00000
    313       1.5109      1.00000
    314       1.5111      1.00000
    315       1.5408      1.00000
    316       1.5611      1.00000
    317       1.5769      1.00000
    318       1.6464      1.00000
    319       1.6557      1.00000
    320       1.7562      1.00000
    321       1.7563      1.00000
    322       1.7631      1.00000
    323       1.7784      1.00000
    324       1.8027      1.00000
    325       1.8028      1.00000
    326       1.8108      1.00000
    327       1.8233      1.00000
    328       1.8366      1.00000
    329       1.8368      1.00000
    330       1.8460      1.00000
    331       1.8467      1.00000
    332       1.8783      1.00000
    333       1.8896      1.00000
    334       1.9472      1.00000
    335       1.9932      1.00000
    336       1.9941      1.00000
    337       2.0063      1.00000
    338       2.0067      1.00000
    339       2.0100      1.00000
    340       2.0188      1.00000
    341       2.0202      1.00000
    342       2.0202      1.00000
    343       2.0395      1.00000
    344       2.0468      1.00000
    345       2.0468      1.00000
    346       2.0573      1.00000
    347       2.0687      1.00000
    348       2.0688      1.00000
    349       2.0917      1.00000
    350       2.1129      1.00000
    351       2.1907      1.00000
    352       2.1908      1.00000
    353       2.2469      1.00000
    354       2.2470      1.00000
    355       2.2706      1.00000
    356       2.2732      1.00000
    357       2.2846      1.00000
    358       2.4278      1.00000
    359       2.4663      1.00000
    360       2.4666      1.00000
    361       2.4776      1.00000
    362       2.5036      1.00000
    363       2.5276      1.00000
    364       2.5543      1.00000
    365       2.5921      1.00000
    366       2.6268      1.00000
    367       2.6268      1.00000
    368       2.6561      1.00000
    369       2.7385      1.00000
    370       2.7385      1.00000
    371       2.7610      1.00000
    372       2.7611      1.00000
    373       2.8339      1.00000
    374       2.8725      1.00000
    375       2.9269      1.00000
    376       2.9344      1.00000
    377       2.9345      1.00000
    378       2.9689      1.00000
    379       3.0273      1.00000
    380       3.0274      1.00000
    381       3.0616      1.00000
    382       3.0971      1.00000
    383       3.3073      1.00000
    384       3.3109      1.00000
    385       3.3482      1.00000
    386       3.3758      1.00000
    387       3.4216      1.00000
    388       3.4218      1.00000
    389       3.4404      1.00000
    390       3.4586      1.00000
    391       3.4586      1.00000
    392       3.5316      1.00000
    393       3.7479      1.00000
    394       3.8083      1.00000
    395       3.8091      1.00000
    396       3.8153      1.00000
    397       3.8156      1.00000
    398       3.8825      1.00000
    399       3.8825      1.00000
    400       3.9328      1.00000
    401       3.9346      1.00000
    402       3.9408      1.00000
    403       3.9410      1.00000
    404       4.0386      1.00000
    405       4.0397      1.00000
    406       4.0701      1.00000
    407       4.1387      1.00000
    408       4.1491      1.00000
    409       4.1512      1.00000
    410       4.3151      1.00000
    411       4.3181      1.00000
    412       4.3380      1.00000
    413       4.3584      1.00000
    414       4.3585      1.00000
    415       4.4284      1.00000
    416       4.4444      1.00000
    417       4.4462      1.00000
    418       4.4543      1.00000
    419       4.4565      1.00000
    420       4.4565      1.00000
    421       4.6362      1.00000
    422       4.6365      1.00000
    423       4.7324      1.00000
    424       4.7327      1.00000
    425       4.7641      1.00000
    426       4.7641      1.00000
    427       4.7693      1.00000
    428       4.7695      1.00000
    429       4.8103      1.00000
    430       4.8532      1.00000
    431       4.8534      1.00000
    432       4.8575      1.00000
    433       7.3436      0.00000
    434       8.1284      0.00000
    435       8.4449      0.00000
    436       8.6425      0.00000
    437       8.6425      0.00000
    438       8.8581      0.00000
    439       9.0846      0.00000
    440       9.0846      0.00000
    441       9.2613      0.00000
    442       9.2733      0.00000
    443       9.2891      0.00000
    444       9.2892      0.00000
    445       9.7277      0.00000
    446       9.7715      0.00000
    447       9.7719      0.00000
    448       9.7886      0.00000
    449       9.8545      0.00000
    450       9.8547      0.00000
    451       9.8589      0.00000
    452       9.8789      0.00000
    453       9.8890      0.00000
    454      10.0610      0.00000
    455      10.0825      0.00000
    456      10.1362      0.00000
    457      10.1362      0.00000
    458      10.3061      0.00000
    459      10.3062      0.00000
    460      10.4166      0.00000
    461      10.5266      0.00000
    462      10.5699      0.00000
    463      10.5711      0.00000
    464      10.5729      0.00000
    465      10.5783      0.00000
    466      10.5793      0.00000
    467      10.6759      0.00000
    468      10.9761      0.00000
    469      11.0188      0.00000
    470      11.0197      0.00000
    471      11.0407      0.00000
    472      11.0407      0.00000
    473      11.0780      0.00000
    474      11.1280      0.00000
    475      11.1781      0.00000
[...]
   -.203E-01 -.102E+00 -.258E+02   0.217E-01 0.971E-01 0.255E+02   -.222E-02 0.380E-02 0.245E+00   0.238E-04 -.522E-04 0.533E-04
   0.131E-01 -.608E-02 -.259E+02   -.120E-01 0.615E-02 0.257E+02   -.658E-03 -.273E-03 0.251E+00   -.156E-04 0.446E-05 0.474E-04
   -.146E-01 0.163E-01 -.259E+02   0.141E-01 -.154E-01 0.257E+02   0.296E-03 -.709E-03 0.250E+00   -.123E-04 0.271E-04 0.374E-04
   0.188E-02 -.138E+00 -.422E+02   0.139E-03 0.132E+00 0.422E+02   -.516E-02 0.676E-02 0.194E-01   0.271E-04 -.665E-04 0.222E-04
   0.598E-01 0.302E-01 -.420E+02   -.571E-01 -.283E-01 0.420E+02   -.167E-02 -.170E-02 0.109E-01   -.240E-04 0.138E-04 0.213E-04
   -.101E-01 0.298E-01 -.421E+02   0.944E-02 -.281E-01 0.421E+02   0.218E-03 -.146E-02 0.111E-01   0.853E-05 0.298E-04 0.378E-04
   0.224E-01 0.443E-02 -.421E+02   -.208E-01 -.397E-02 0.420E+02   -.119E-02 -.687E-03 0.102E-01   -.166E-04 0.588E-05 0.497E-05
   0.158E+02 0.149E+02 -.126E+03   -.162E+02 -.153E+02 0.131E+03   0.393E+00 0.379E+00 -.463E+01   -.133E-03 0.126E-04 0.122E-03
   0.159E+02 0.149E+02 -.126E+03   -.163E+02 -.153E+02 0.131E+03   0.383E+00 0.381E+00 -.463E+01   -.314E-04 0.586E-04 0.110E-03
   0.158E+02 0.149E+02 -.126E+03   -.162E+02 -.153E+02 0.131E+03   0.393E+00 0.379E+00 -.463E+01   -.169E-03 -.297E-04 0.944E-04
   0.159E+02 0.149E+02 -.126E+03   -.163E+02 -.153E+02 0.131E+03   0.383E+00 0.381E+00 -.463E+01   -.449E-04 0.715E-04 0.106E-03
   -.158E+02 -.149E+02 -.126E+03   0.162E+02 0.153E+02 0.131E+03   -.407E+00 -.377E+00 -.461E+01   0.177E-03 0.107E-04 0.883E-04
   -.158E+02 -.149E+02 -.126E+03   0.162E+02 0.153E+02 0.130E+03   -.408E+00 -.378E+00 -.464E+01   0.147E-03 0.140E-04 0.912E-04
   -.159E+02 -.149E+02 -.126E+03   0.163E+02 0.153E+02 0.131E+03   -.389E+00 -.379E+00 -.463E+01   0.490E-04 -.177E-04 0.113E-03
   -.159E+02 -.149E+02 -.126E+03   0.163E+02 0.153E+02 0.131E+03   -.389E+00 -.379E+00 -.463E+01   -.129E-04 -.864E-04 0.913E-04
   0.158E+02 -.149E+02 0.126E+03   -.162E+02 0.153E+02 -.131E+03   0.396E+00 -.379E+00 0.463E+01   -.136E-03 0.712E-05 -.705E-04
   0.160E+02 -.149E+02 0.126E+03   -.164E+02 0.153E+02 -.131E+03   0.386E+00 -.380E+00 0.463E+01   -.779E-04 0.169E-05 -.124E-03
   0.158E+02 -.149E+02 0.126E+03   -.162E+02 0.153E+02 -.131E+03   0.396E+00 -.378E+00 0.463E+01   -.154E-03 0.208E-04 -.114E-03
   0.160E+02 -.149E+02 0.126E+03   -.164E+02 0.153E+02 -.131E+03   0.386E+00 -.380E+00 0.463E+01   -.436E-04 -.579E-04 -.123E-03
   -.157E+02 0.149E+02 0.126E+03   0.161E+02 -.153E+02 -.131E+03   -.404E+00 0.378E+00 0.461E+01   0.195E-03 -.385E-05 -.109E-03
   -.157E+02 0.149E+02 0.126E+03   0.161E+02 -.153E+02 -.130E+03   -.404E+00 0.379E+00 0.464E+01   0.139E-03 0.237E-04 -.798E-04
   -.159E+02 0.149E+02 0.126E+03   0.163E+02 -.153E+02 -.131E+03   -.386E+00 0.380E+00 0.463E+01   0.363E-04 0.296E-04 -.125E-03
   -.159E+02 0.149E+02 0.126E+03   0.163E+02 -.153E+02 -.131E+03   -.386E+00 0.380E+00 0.463E+01   0.553E-04 0.405E-04 -.712E-04
   0.279E+02 0.282E+02 0.333E+02   -.283E+02 -.285E+02 -.339E+02   0.354E+00 0.352E+00 0.519E+00   -.830E-04 -.756E-05 -.135E-04
   0.280E+02 0.282E+02 0.334E+02   -.284E+02 -.285E+02 -.339E+02   0.348E+00 0.353E+00 0.519E+00   -.118E-04 -.146E-04 -.233E-04
   0.280E+02 0.282E+02 0.333E+02   -.283E+02 -.285E+02 -.339E+02   0.351E+00 0.353E+00 0.519E+00   -.202E-04 0.355E-05 -.255E-04
   0.280E+02 0.282E+02 0.333E+02   -.284E+02 -.285E+02 -.339E+02   0.350E+00 0.353E+00 0.518E+00   -.496E-04 -.930E-05 -.272E-04
   -.279E+02 -.282E+02 0.334E+02   0.283E+02 0.286E+02 -.339E+02   -.350E+00 -.353E+00 0.518E+00   0.138E-04 -.317E-04 -.974E-06
   -.279E+02 -.282E+02 0.333E+02   0.283E+02 0.286E+02 -.338E+02   -.349E+00 -.354E+00 0.520E+00   0.500E-04 -.117E-04 -.240E-04
   -.279E+02 -.282E+02 0.334E+02   0.283E+02 0.286E+02 -.339E+02   -.349E+00 -.354E+00 0.518E+00   0.162E-04 0.143E-05 -.227E-04
   -.279E+02 -.282E+02 0.333E+02   0.283E+02 0.286E+02 -.338E+02   -.349E+00 -.353E+00 0.520E+00   0.510E-04 -.329E-04 -.476E-04
   0.278E+02 -.282E+02 -.333E+02   -.282E+02 0.286E+02 0.339E+02   0.353E+00 -.353E+00 -.519E+00   -.646E-04 -.238E-05 0.230E-04
   0.280E+02 -.282E+02 -.333E+02   -.283E+02 0.286E+02 0.338E+02   0.346E+00 -.354E+00 -.519E+00   -.224E-04 -.120E-04 0.468E-04
   0.279E+02 -.282E+02 -.333E+02   -.282E+02 0.286E+02 0.338E+02   0.350E+00 -.354E+00 -.519E+00   0.688E-05 -.212E-04 0.296E-04
   0.279E+02 -.282E+02 -.333E+02   -.283E+02 0.286E+02 0.338E+02   0.348E+00 -.354E+00 -.519E+00   -.472E-04 -.894E-05 0.272E-04
   -.280E+02 0.282E+02 -.334E+02   0.284E+02 -.285E+02 0.339E+02   -.350E+00 0.354E+00 -.518E+00   0.466E-04 -.259E-04 0.277E-04
   -.280E+02 0.282E+02 -.333E+02   0.283E+02 -.286E+02 0.338E+02   -.351E+00 0.353E+00 -.520E+00   0.388E-04 0.285E-04 0.482E-04
   -.280E+02 0.282E+02 -.334E+02   0.284E+02 -.286E+02 0.339E+02   -.350E+00 0.352E+00 -.518E+00   0.621E-04 0.238E-04 0.163E-04
   -.280E+02 0.282E+02 -.333E+02   0.283E+02 -.285E+02 0.338E+02   -.351E+00 0.354E+00 -.519E+00   0.253E-04 -.166E-04 0.590E-04
   0.816E+01 0.470E-01 -.107E-01   -.831E+01 -.475E-01 0.108E-01   0.215E+00 0.392E-03 0.515E-04   -.112E-03 0.202E-04 0.888E-05
   0.100E+02 0.471E-01 -.643E-02   -.101E+02 -.475E-01 0.662E-02   0.112E+00 0.384E-03 -.129E-03   0.269E-04 0.107E-04 -.147E-04
   0.986E+01 0.470E-01 -.104E-01   -.997E+01 -.475E-01 0.104E-01   0.116E+00 0.395E-03 0.115E-03   0.155E-04 0.118E-04 0.192E-04
   0.993E+01 0.471E-01 -.711E-02   -.100E+02 -.475E-01 0.730E-02   0.112E+00 0.392E-03 -.127E-03   -.641E-04 -.207E-05 -.294E-04
   -.983E+01 -.738E-01 0.750E-02   0.995E+01 0.701E-01 -.884E-02   -.120E+00 0.682E-02 0.153E-02   0.477E-04 -.463E-04 -.198E-04
   -.983E+01 0.171E+00 0.771E-02   0.995E+01 -.168E+00 -.881E-02   -.120E+00 -.609E-02 0.128E-02   0.649E-04 0.716E-04 -.377E-04
   -.983E+01 0.168E+00 0.100E-01   0.995E+01 -.165E+00 -.884E-02   -.120E+00 -.600E-02 -.152E-02   0.495E-04 0.750E-04 0.133E-04
   -.983E+01 -.767E-01 0.975E-02   0.995E+01 0.727E-01 -.881E-02   -.120E+00 0.688E-02 -.128E-02   0.581E-04 -.291E-04 0.220E-04
   0.189E+02 0.189E+02 0.185E+03   -.179E+02 -.179E+02 -.183E+03   -.106E+01 -.108E+01 -.241E+01   0.243E-04 0.558E-04 -.532E-04
   0.191E+02 0.189E+02 0.185E+03   -.180E+02 -.178E+02 -.183E+03   -.106E+01 -.108E+01 -.241E+01   -.477E-04 0.256E-04 -.107E-03
   0.189E+02 0.189E+02 0.185E+03   -.179E+02 -.179E+02 -.183E+03   -.106E+01 -.108E+01 -.241E+01   0.313E-04 0.565E-04 -.219E-04
   0.191E+02 0.189E+02 0.185E+03   -.180E+02 -.179E+02 -.183E+03   -.106E+01 -.108E+01 -.241E+01   -.401E-04 0.591E-04 -.661E-04
   -.189E+02 -.189E+02 0.185E+03   0.178E+02 0.178E+02 -.182E+03   0.107E+01 0.109E+01 -.240E+01   0.209E-04 -.614E-05 -.193E-03
   -.188E+02 -.189E+02 0.185E+03   0.178E+02 0.178E+02 -.183E+03   0.106E+01 0.108E+01 -.242E+01   -.378E-04 0.737E-05 0.606E-04
   -.189E+02 -.189E+02 0.185E+03   0.179E+02 0.178E+02 -.183E+03   0.106E+01 0.108E+01 -.241E+01   0.838E-05 0.177E-04 -.586E-04
   -.189E+02 -.189E+02 0.185E+03   0.178E+02 0.178E+02 -.183E+03   0.106E+01 0.109E+01 -.241E+01   -.115E-03 0.771E-05 -.294E-04
   0.188E+02 -.189E+02 -.185E+03   -.178E+02 0.178E+02 0.183E+03   -.106E+01 0.109E+01 0.241E+01   0.667E-04 0.125E-05 0.439E-04
   0.190E+02 -.189E+02 -.185E+03   -.179E+02 0.178E+02 0.183E+03   -.106E+01 0.109E+01 0.241E+01   -.162E-05 0.606E-04 0.707E-04
   0.188E+02 -.189E+02 -.185E+03   -.178E+02 0.178E+02 0.183E+03   -.106E+01 0.109E+01 0.241E+01   0.426E-04 0.116E-05 0.568E-04
   0.190E+02 -.189E+02 -.185E+03   -.179E+02 0.178E+02 0.183E+03   -.107E+01 0.108E+01 0.241E+01   0.154E-04 0.121E-04 0.494E-04
   -.190E+02 0.189E+02 -.185E+03   0.179E+02 -.179E+02 0.183E+03   0.106E+01 -.109E+01 0.240E+01   -.982E-05 0.653E-04 0.215E-03
   -.190E+02 0.189E+02 -.185E+03   0.179E+02 -.178E+02 0.183E+03   0.106E+01 -.108E+01 0.242E+01   0.481E-04 0.714E-04 -.240E-04
   -.190E+02 0.189E+02 -.185E+03   0.179E+02 -.179E+02 0.183E+03   0.106E+01 -.108E+01 0.241E+01   -.300E-04 0.489E-04 0.104E-03
   -.190E+02 0.189E+02 -.185E+03   0.180E+02 -.179E+02 0.183E+03   0.106E+01 -.108E+01 0.241E+01   0.432E-04 0.364E-04 0.314E-04
   -.177E-01 -.796E+00 0.208E+03   0.183E-01 0.762E+00 -.210E+03   -.102E-01 0.390E-01 0.210E+01   0.693E-05 -.529E-04 -.356E-03
   0.269E+00 0.752E-02 0.209E+03   -.261E+00 -.660E-02 -.211E+03   -.643E-02 -.217E-03 0.206E+01   0.393E-04 0.577E-04 -.409E-03
   -.577E-01 0.584E-02 0.209E+03   0.518E-01 -.707E-02 -.211E+03   0.479E-02 0.152E-02 0.207E+01   0.120E-03 -.338E-04 -.330E-03
   0.961E-01 -.110E+00 0.209E+03   -.917E-01 0.105E+00 -.211E+03   -.354E-02 0.432E-02 0.206E+01   -.839E-04 -.502E-04 -.475E-03
   0.813E-02 -.767E+00 0.200E+03   -.823E-02 0.735E+00 -.202E+03   -.934E-02 0.372E-01 0.203E+01   -.168E-04 -.152E-03 -.417E-03
   0.266E+00 0.278E-01 0.199E+03   -.258E+00 -.265E-01 -.201E+03   -.640E-02 -.673E-03 0.206E+01   0.886E-04 0.137E-03 -.413E-03
   -.471E-01 0.248E-01 0.199E+03   0.420E-01 -.257E-01 -.201E+03   0.418E-02 0.113E-02 0.206E+01   0.110E-03 -.177E-04 -.445E-03
   0.931E-01 -.936E-01 0.199E+03   -.887E-01 0.895E-01 -.201E+03   -.375E-02 0.382E-02 0.207E+01   0.534E-04 0.316E-04 -.359E-03
   -.455E-01 0.660E+00 -.200E+03   0.451E-01 -.632E+00 0.202E+03   -.917E-02 -.335E-01 -.203E+01   -.944E-04 0.152E-03 0.412E-03
   0.228E+00 -.133E+00 -.199E+03   -.219E+00 0.128E+00 0.201E+03   -.683E-02 0.437E-02 -.206E+01   -.180E-04 -.664E-04 0.379E-03
   -.982E-01 -.130E+00 -.199E+03   0.928E-01 0.127E+00 0.201E+03   0.428E-02 0.251E-02 -.206E+01   0.113E-03 0.548E-04 0.462E-03
   0.536E-01 -.136E-01 -.199E+03   -.486E-01 0.138E-01 0.201E+03   -.418E-02 -.901E-04 -.207E+01   -.110E-03 0.153E-04 0.345E-03
   0.224E+00 -.150E+00 -.209E+03   -.214E+00 0.145E+00 0.211E+03   -.739E-02 0.476E-02 -.206E+01   0.537E-04 -.976E-04 0.384E-03
   -.480E-01 0.655E+00 -.208E+03   0.504E-01 -.626E+00 0.210E+03   -.118E-01 -.344E-01 -.210E+01   -.484E-04 0.628E-04 0.383E-03
   0.520E-01 -.309E-01 -.209E+03   -.467E-01 0.308E-01 0.211E+03   -.457E-02 0.243E-03 -.206E+01   0.797E-05 0.105E-04 0.433E-03
   -.903E-01 -.148E+00 -.209E+03   0.862E-01 0.145E+00 0.211E+03   0.322E-02 0.317E-02 -.207E+01   0.554E-04 -.521E-04 0.362E-03
 -----------------------------------------------------------------------------------------------
   0.632E-01 -.294E-01 -.286E-04   0.583E-13 0.971E-15 -.966E-12   -.636E-01 0.277E-01 -.544E-04   0.398E-03 0.584E-03 0.777E-04
 
 
 POSITION                                       TOTAL-FORCE (eV/Angst)
 -----------------------------------------------------------------------------------
      2.77841      5.21785      1.58925        -0.002952     -0.000848     -0.001578
      8.33453      5.21785      1.58910         0.001006     -0.000203     -0.000124
      2.77841     10.77658      1.58925        -0.000260     -0.000209      0.000144
      8.33453     10.77658      1.58910         0.000458      0.000248     -0.000391
      0.00058      2.43861      1.89560        -0.000948      0.001057     -0.000828
      5.55670      2.43861      1.89545         0.000915     -0.000254      0.000204
      0.00058      7.99734      1.89560        -0.000367     -0.000207     -0.000186
      5.55670      7.99734      1.89545         0.000364      0.000233      0.000392
      2.78043      5.21797      8.30298         0.000972      0.000299     -0.000178
      8.33655      5.21797      8.30283        -0.000795     -0.001022      0.000804
      2.78043     10.77670      8.30298         0.000411     -0.000179     -0.000358
      8.33655     10.77670      8.30283        -0.000204      0.000237      0.000159
      0.00259      2.43849      8.60933        -0.003116      0.000910      0.001541
      5.55871      2.43849      8.60919         0.000917      0.000251      0.000158
      0.00259      7.99722      8.60933        -0.000424      0.000269     -0.000167
      5.55871      7.99722      8.60919         0.000365     -0.000211      0.000426
     -1.37640      1.05960      8.18451         0.002485     -0.001092     -0.000211
      4.17971      1.05960      8.18437        -0.000854      0.000349     -0.000099
     -1.37640      6.61833      8.18451         0.002393     -0.000796      0.000063
      4.17971      6.61833      8.18437        -0.000819      0.000326     -0.000206
      1.38116      3.81753      8.18442        -0.006209      0.001218      0.005609
      6.93728      3.81753      8.18427        -0.006381      0.001031     -0.005581
      1.38116      9.37626      8.18442        -0.000011     -0.000023      0.000373
      6.93728      9.37626      8.18427        -0.000151      0.000013     -0.000517
      1.39985      1.03817      2.01416         0.002384      0.000817      0.000084
      6.95597      1.03817      2.01401        -0.000838     -0.000324      0.000052
      1.39985      6.59689      2.01416         0.002475      0.001094      0.000364
      6.95597      6.59689      2.01401        -0.000866     -0.000313     -0.000049
      4.15741      3.83897      2.01406        -0.006321     -0.001246     -0.005595
      9.71353      3.83897      2.01392        -0.006315     -0.000991      0.005577
      4.15741      9.39769      2.01406        -0.000120     -0.000006     -0.000371
      9.71353      9.39769      2.01392        -0.000045      0.000048      0.000517
      1.40044      3.83812      3.78391         0.001266     -0.000291      0.000288
      6.95656      3.83812      3.78377        -0.001128     -0.000064      0.000025
      1.40044      9.39685      3.78391         0.000193     -0.000057      0.000262
      6.95656      9.39685      3.78377        -0.000294     -0.000129     -0.000035
      4.15774      1.03891      3.78384        -0.000112      0.000363     -0.000443
      9.71386      1.03891      3.78369         0.000218     -0.000129      0.000645
      4.15774      6.59764      3.78384        -0.000031     -0.000142     -0.000233
      9.71386      6.59764      3.78369         0.000146      0.000379      0.000800
     -1.37674      3.81828      6.41474         0.001247      0.000277     -0.000153
      4.17938      3.81828      6.41460        -0.001164      0.000102     -0.000352
     -1.37674      9.37700      6.41474         0.000177      0.000067     -0.000061
      4.17938      9.37700      6.41460        -0.000343      0.000141     -0.000352
      1.38057      1.05876      6.41466         0.000236      0.000132      0.000361
      6.93668      1.05876      6.41452        -0.000174     -0.000345     -0.000740
      1.38057      6.61748      6.41466         0.000148     -0.000383      0.000495
      6.93668      6.61748      6.41452        -0.000102      0.000170     -0.000515
      1.37227      3.82822      0.00001         0.065295     -0.000024      0.000093
      6.93839      3.82822     -0.00014        -0.001245     -0.000026      0.000044
      1.38227      9.38694      0.00001         0.000550     -0.000028      0.000128
      6.93839      9.38694     -0.00014        -0.001034     -0.000020      0.000042
      1.39874      1.04885     10.19857        -0.002268      0.003008      0.000166
      6.95485      1.04885     10.19843        -0.002275     -0.002950      0.000150
      1.39874      6.60758     10.19857        -0.002264     -0.003052     -0.000332
      6.95485      6.60758     10.19843        -0.002276      0.002897     -0.000319
     -1.25763      1.18232      6.18371        -0.000645      0.000004      0.000039
      4.29848      1.18232      6.18356         0.000066      0.000032      0.000354
     -1.25763      6.74104      6.18371        -0.000639      0.000061     -0.000347
      4.29848      6.74104      6.18356         0.000039     -0.000005      0.000392
      1.26131      3.69462      6.18369         0.000085     -0.000151     -0.001664
      6.81742      3.69462      6.18354         0.000264      0.000016      0.001807
      1.26131      9.25335      6.18369         0.000087      0.000060     -0.000070
      6.81742      9.25335      6.18354         0.000316     -0.000017      0.000336
      1.51970      0.91526      4.01489        -0.000498     -0.000043     -0.000236
      7.07582      0.91526      4.01474         0.000013     -0.000030      0.000145
      1.51970      6.47399      4.01489        -0.000556     -0.000062     -0.000603
      7.07582      6.47399      4.01474         0.000081      0.000006      0.000134
      4.03864      3.96168      4.01487         0.000107      0.000091      0.001720
      9.59476      3.96168      4.01472         0.000348      0.000027     -0.001790
      4.03864      9.52041      4.01487         0.000289     -0.000049      0.000122
      9.59476      9.52041      4.01472         0.000219     -0.000008     -0.000324
      0.00035      5.21813      1.57032        -0.009623      0.005445      0.006226
      5.55647      5.21813      1.57017         0.001902      0.000772      0.000263
      0.00035     10.77686      1.57032        -0.000939      0.000264     -0.000513
      5.55647     10.77686      1.57017         0.000745     -0.000178      0.000744
      2.77849      2.43869      1.57537        -0.009454      0.004635     -0.005443
      8.33461      2.43869      1.57522         0.001802      0.000769     -0.000193
      2.77849      7.99742      1.57537        -0.000811      0.000215      0.000466
      8.33461      7.99742      1.57522         0.000725     -0.000206     -0.000662
      0.00252      5.21805      8.62321        -0.009679     -0.004700      0.005393
      5.55864      5.21805      8.62307         0.001791     -0.000838      0.000247
      0.00252     10.77678      8.62321        -0.001012     -0.000268     -0.000527
      5.55864     10.77678      8.62307         0.000695      0.000134      0.000727
      2.78066      2.43877      8.62826         0.001866     -0.000773     -0.000209
      8.33677      2.43877      8.62811        -0.009456     -0.005453     -0.006274
      2.78066      7.99750      8.62826         0.000733      0.000170     -0.000698
      8.33677      7.99750      8.62811        -0.000779     -0.000294      0.000449
 -----------------------------------------------------------------------------------
    total drift:                                0.000051     -0.001165     -0.000005


--------------------------------------------------------------------------------------------------------



  FREE ENERGIE OF THE ION-ELECTRON SYSTEM (eV)
  ---------------------------------------------------
  free  energy   TOTEN  =      -489.21511523 eV

  energy  without entropy=     -489.21511523  energy(sigma->0) =     -489.21511523
 


--------------------------------------------------------------------------------------------------------


    POTLOK:  cpu time    3.2787: real time    3.3786


--------------------------------------------------------------------------------------------------------


     LOOP+:  cpu time 6576.5943: real time 6638.0695
    4ORBIT:  cpu time    0.0000: real time    0.0000

 total amount of memory used by VASP MPI-rank0  1233264. kBytes
=======================================================================

   base      :      30000. kBytes
   nonl-proj :      75226. kBytes
   fftplans  :      85054. kBytes
   grid      :      64684. kBytes
   one-center:        466. kBytes
   wavefun   :     977834. kBytes
 
  
  
 General timing and accounting informations for this job:
 ========================================================
  
                  Total CPU time used (sec):     6674.859
                            User time (sec):     6602.292
                          System time (sec):       72.567
                         Elapsed time (sec):     6737.767
  
                   Maximum memory used (kb):     1436372.
                   Average memory used (kb):           0.
  
                          Minor page faults:       858467
                          Major page faults:           11
                 Voluntary context switches:        64536
