    7    7   60    2
  0.1321625E+02  0.5417761E-09  0.3831708E-09  0.6854777E-09  0.5000000E-15
  1.000000000000000E-004
  CAR 
 unknown system                          
     52     90     40
 
  0.0000000E+00  0.0000000E+00  0.0000000E+00  0.5208333E-02
    1      -55.858274    -49.204876   1.000000   1.000000
    2      -55.855535    -49.199603   1.000000   1.000000
    3      -54.309575    -49.168650   1.000000   1.000000
    4      -54.309468    -49.167979   1.000000   1.000000
    5      -54.306936    -49.164706   1.000000   1.000000
    6      -54.306818    -49.164057   1.000000   1.000000
    7      -43.066354    -43.067514   1.000000   1.000000
    8      -43.007950    -43.009753   1.000000   1.000000
    9      -15.306164    -14.901140   1.000000   1.000000
   10       -9.534821     -9.237501   1.000000   1.000000
   11       -8.692419     -8.346881   1.000000   1.000000
   12       -2.514387     -0.922507   1.000000   1.000000
   13       -1.222165      0.128583   1.000000   1.000000
   14       -1.222119      0.129546   1.000000   1.000000
   15       -1.000932      0.193497   1.000000   1.000000
   16       -0.430028      2.528002   1.000000   1.000000
   17       -0.429027      2.550180   1.000000   1.000000
   18        0.106916      2.915588   1.000000   1.000000
   19        0.277000      3.393260   1.000000   1.000000
   20        0.823760      3.557693   1.000000   1.000000
   21        0.829101      3.895414   1.000000   1.000000
   22        1.141510      3.910293   1.000000   1.000000
   23        1.254737      7.067330   1.000000   0.000000
   24        1.254831      7.664139   1.000000   0.000000
   25        2.009925      7.668659   1.000000   0.000000
   26        2.338788      8.116543   1.000000   0.000000
   27        2.339189      8.161870   1.000000   0.000000
   28        3.338906      8.681734   1.000000   0.000000
   29        3.580694      9.071938   1.000000   0.000000
   30        3.581406      9.074775   1.000000   0.000000
   31        8.782527      9.904128   0.000000   0.000000
   32        9.934521     11.711472   0.000000   0.000000
   33       11.550298     12.181453   0.000000   0.000000
   34       13.073708     13.589143   0.000000   0.000000
   35       13.150943     13.888829   0.000000   0.000000
   36       14.961225     15.134959   0.000000   0.000000
   37       14.968256     15.141220   0.000000   0.000000
   38       15.348546     16.362498   0.000000   0.000000
   39       15.391902     16.476097   0.000000   0.000000
   40       15.891793     16.639436   0.000000   0.000000
 
  0.1666667E+00  0.1910560E-16 -0.2600656E-14  0.1041667E-01
    1      -55.858075    -49.204515   1.000000   1.000000
    2      -55.855666    -49.199951   1.000000   1.000000
    3      -54.309759    -49.168340   1.000000   1.000000
    4      -54.309379    -49.167552   1.000000   1.000000
    5      -54.307253    -49.164951   1.000000   1.000000
    6      -54.306880    -49.164151   1.000000   1.000000
    7      -43.062188    -43.063396   1.000000   1.000000
    8      -43.011638    -43.013403   1.000000   1.000000
    9      -15.318392    -14.913157   1.000000   1.000000
   10       -9.412087     -9.118223   1.000000   1.000000
   11       -8.625379     -8.285989   1.000000   1.000000
   12       -2.481280     -1.006039   1.000000   1.000000
   13       -1.512051     -0.415521   1.000000   1.000000
   14       -1.201947      0.211828   1.000000   1.000000
   15       -0.824636      0.977665   1.000000   1.000000
   16       -0.535384      1.643851   1.000000   1.000000
   17       -0.454898      2.540909   1.000000   1.000000
   18       -0.040482      2.587065   1.000000   1.000000
   19        0.061543      3.228060   1.000000   1.000000
   20        0.378906      3.548607   1.000000   1.000000
   21        0.806108      3.576437   1.000000   1.000000
   22        1.150813      3.845436   1.000000   1.000000
   23        1.240425      7.728431   1.000000   0.000000
   24        1.257883      7.743824   1.000000   0.000000
   25        1.401371      7.783818   1.000000   0.000000
   26        2.610605      8.630758   1.000000   0.000000
   27        2.886742      8.675222   1.000000   0.000000
   28        3.396958      8.970203   1.000000   0.000000
   29        3.797140      9.007560   1.000000   0.000000
   30        3.837696      9.058016   1.000000   0.000000
   31        9.606726     10.469535   0.000000   0.000000
   32       10.047701     11.444344   0.000000   0.000000
   33       11.999533     12.562205   0.000000   0.000000
   34       12.920464     13.525073   0.000000   0.000000
   35       13.216341     13.674458   0.000000   0.000000
   36       13.568227     14.323544   0.000000   0.000000
   37       14.178805     14.598293   0.000000   0.000000
   38       14.743203     15.246319   0.000000   0.000000
   39       14.878127     15.802403   0.000000   0.000000
   40       15.449286     16.498048   0.000000   0.000000
 
  0.3333333E+00  0.3803483E-16 -0.1626751E-14  0.1041667E-01
    1      -55.857573    -49.203560   1.000000   1.000000
    2      -55.856085    -49.200909   1.000000   1.000000
    3      -54.310168    -49.167831   1.000000   1.000000
    4      -54.309187    -49.166354   1.000000   1.000000
    5      -54.307995    -49.165852   1.000000   1.000000
    6      -54.307011    -49.164325   1.000000   1.000000
    7      -43.051124    -43.052462   1.000000   1.000000
    8      -43.021895    -43.023553   1.000000   1.000000
    9      -15.343347    -14.937750   1.000000   1.000000
   10       -9.088937     -8.799882   1.000000   1.000000
   11       -8.546594     -8.228108   1.000000   1.000000
   12       -2.458451     -1.318978   1.000000   1.000000
   13       -1.659765     -0.571362   1.000000   1.000000
   14       -1.147387      0.406417   1.000000   1.000000
   15       -1.111304      0.763475   1.000000   1.000000
   16       -0.908190      1.230904   1.000000   1.000000
   17       -0.611370      1.859697   1.000000   1.000000
   18       -0.432367      2.543426   1.000000   1.000000
   19       -0.330365      2.799018   1.000000   1.000000
   20       -0.078961      2.974101   1.000000   1.000000
   21        0.695378      3.954877   1.000000   1.000000
   22        1.206069      4.060246   1.000000   1.000000
   23        1.267725      7.955540   1.000000   0.000000
   24        1.418149      7.998538   1.000000   0.000000
   25        1.670341      8.556929   1.000000   0.000000
   26        1.977177      8.750635   1.000000   0.000000
   27        3.655658      8.838104   1.000000   0.000000
   28        3.869096      9.436681   1.000000   0.000000
   29        4.345090      9.725677   1.000000   0.000000
   30        4.408625      9.818543   1.000000   0.000000
   31        9.793172     10.560889   0.000000   0.000000
   32       10.478940     11.117071   0.000000   0.000000
   33       11.765442     12.521958   0.000000   0.000000
   34       12.577216     13.104001   0.000000   0.000000
   35       12.597512     13.321998   0.000000   0.000000
   36       12.985092     13.699157   0.000000   0.000000
   37       13.264069     14.269725   0.000000   0.000000
   38       14.026742     14.564679   0.000000   0.000000
   39       14.473485     14.958093   0.000000   0.000000
   40       15.731106     16.276013   0.000000   0.000000
 
  0.5000000E+00  0.2943339E-16  0.2807600E-14  0.1041667E-01
    1      -55.857165    -49.202523   1.000000   1.000000
    2      -55.856468    -49.201953   1.000000   1.000000
    3      -54.310365    -49.167349   1.000000   1.000000
    4      -54.309089    -49.166671   1.000000   1.000000
    5      -54.308363    -49.165270   1.000000   1.000000
    6      -54.307092    -49.164795   1.000000   1.000000
    7      -43.037196    -43.038692   1.000000   1.000000
    8      -43.035424    -43.036937   1.000000   1.000000
    9      -15.355973    -14.950222   1.000000   1.000000
   10       -8.803167     -8.508381   1.000000   1.000000
   11       -8.620013     -8.324401   1.000000   1.000000
   12       -2.493637     -1.535387   1.000000   1.000000
   13       -1.616286     -0.250297   1.000000   1.000000
   14       -1.460921     -0.049796   1.000000   1.000000
   15       -1.103754      0.527649   1.000000   1.000000
   16       -0.987429      0.955018   1.000000   1.000000
   17       -0.784544      2.172018   1.000000   1.000000
   18       -0.720319      2.515892   1.000000   1.000000
   19       -0.470869      2.603039   1.000000   1.000000
   20       -0.086370      2.718521   1.000000   1.000000
   21        0.644155      4.152920   1.000000   1.000000
   22        1.206598      4.170004   1.000000   1.000000
   23        1.285143      8.114946   1.000000   0.000000
   24        1.504089      8.150354   1.000000   0.000000
   25        1.732144      8.572765   1.000000   0.000000
   26        1.936202      8.733353   1.000000   0.000000
   27        3.824410      9.078877   1.000000   0.000000
   28        4.373303      9.704273   1.000000   0.000000
   29        4.610541      9.906956   1.000000   0.000000
   30        4.632351     10.412287   1.000000   0.000000
   31        9.515816     10.546222   0.000000   0.000000
   32       10.364897     10.828724   0.000000   0.000000
   33       11.487787     12.284232   0.000000   0.000000
   34       11.773759     12.359476   0.000000   0.000000
   35       12.358515     12.867673   0.000000   0.000000
   36       12.611095     13.306611   0.000000   0.000000
   37       13.377844     14.410601   0.000000   0.000000
   38       14.143207     14.551234   0.000000   0.000000
   39       14.473660     14.856889   0.000000   0.000000
   40       16.236880     16.980840   0.000000   0.000000
 
  0.1402510E-24  0.1250000E+00 -0.3136771E-14  0.1041667E-01
    1      -55.858095    -49.204486   1.000000   1.000000
    2      -55.855655    -49.199968   1.000000   1.000000
    3      -54.309728    -49.168793   1.000000   1.000000
    4      -54.309455    -49.167061   1.000000   1.000000
    5      -54.307315    -49.164807   1.000000   1.000000
    6      -54.306868    -49.164438   1.000000   1.000000
    7      -43.061787    -43.063000   1.000000   1.000000
    8      -43.011955    -43.013717   1.000000   1.000000
    9      -15.321667    -14.916447   1.000000   1.000000
   10       -9.396680     -9.102513   1.000000   1.000000
   11       -8.608446     -8.269025   1.000000   1.000000
   12       -2.494339     -1.013360   1.000000   1.000000
   13       -1.515863     -0.384182   1.000000   1.000000
   14       -1.240934      0.111537   1.000000   1.000000
   15       -0.834434      1.053243   1.000000   1.000000
   16       -0.552558      1.718033   1.000000   1.000000
   17       -0.475170      2.191340   1.000000   1.000000
   18       -0.055259      2.707735   1.000000   1.000000
   19        0.005590      3.070472   1.000000   1.000000
   20        0.673937      3.417382   1.000000   1.000000
   21        0.879453      3.600696   1.000000   1.000000
   22        1.099665      4.240173   1.000000   1.000000
   23        1.211887      7.505824   1.000000   0.000000
   24        1.318115      7.554971   1.000000   0.000000
   25        1.374897      7.942972   1.000000   0.000000
   26        2.263076      8.504146   1.000000   0.000000
   27        2.892220      8.706532   1.000000   0.000000
   28        3.460085      8.939805   1.000000   0.000000
   29        3.499364      9.077217   1.000000   0.000000
   30        4.096492      9.293235   1.000000   0.000000
   31        9.690107     10.536318   0.000000   0.000000
   32       10.436601     11.864763   0.000000   0.000000
   33       12.009966     12.506998   0.000000   0.000000
   34       12.719902     13.322426   0.000000   0.000000
   35       13.372502     13.736832   0.000000   0.000000
   36       13.437640     14.201375   0.000000   0.000000
   37       13.577655     14.325476   0.000000   0.000000
   38       14.373487     15.309209   0.000000   0.000000
   39       15.141223     15.445575   0.000000   0.000000
   40       15.272487     16.202075   0.000000   0.000000
 
  0.1666667E+00  0.1250000E+00  0.1365439E-14  0.1041667E-01
    1      -55.858138    -49.204646   1.000000   1.000000
    2      -55.855620    -49.199822   1.000000   1.000000
    3      -54.309655    -49.168271   1.000000   1.000000
    4      -54.309448    -49.167910   1.000000   1.000000
    5      -54.307040    -49.164866   1.000000   1.000000
    6      -54.306954    -49.164093   1.000000   1.000000
    7      -43.063720    -43.064910   1.000000   1.000000
    8      -43.010244    -43.012023   1.000000   1.000000
    9      -15.313946    -14.908780   1.000000   1.000000
   10       -9.457928     -9.162744   1.000000   1.000000
   11       -8.649848     -8.307560   1.000000   1.000000
   12       -2.484231     -0.957554   1.000000   1.000000
   13       -1.428706     -0.298506   1.000000   1.000000
   14       -1.215600      0.160658   1.000000   1.000000
   15       -0.840426      0.810578   1.000000   1.000000
   16       -0.486599      1.885348   1.000000   1.000000
   17       -0.440416      2.471321   1.000000   1.000000
   18        0.010543      2.902789   1.000000   1.000000
   19        0.111011      3.294587   1.000000   1.000000
   20        0.619915      3.435771   1.000000   1.000000
   21        0.823650      3.528009   1.000000   1.000000
   22        1.127186      3.979278   1.000000   1.000000
   23        1.238228      7.516225   1.000000   0.000000
   24        1.257527      7.664998   1.000000   0.000000
   25        1.405659      7.798527   1.000000   0.000000
   26        2.539069      8.465343   1.000000   0.000000
   27        2.748710      8.484516   1.000000   0.000000
   28        3.454308      8.906286   1.000000   0.000000
   29        3.679115      9.024402   1.000000   0.000000
   30        3.714824      9.056055   1.000000   0.000000
   31        9.377494     10.324822   0.000000   0.000000
   32       10.004313     11.495801   0.000000   0.000000
   33       11.829299     12.394147   0.000000   0.000000
   34       13.039043     13.581440   0.000000   0.000000
   35       13.239131     13.816550   0.000000   0.000000
   36       13.755137     14.419389   0.000000   0.000000
   37       14.380603     14.860412   0.000000   0.000000
   38       14.723108     15.312644   0.000000   0.000000
   39       15.256058     16.000831   0.000000   0.000000
   40       15.781718     16.916745   0.000000   0.000000
 
  0.3333333E+00  0.1250000E+00  0.2336390E-14  0.1041667E-01
    1      -55.857827    -49.204133   1.000000   1.000000
    2      -55.855848    -49.200293   1.000000   1.000000
    3      -54.309989    -49.168224   1.000000   1.000000
    4      -54.309289    -49.167220   1.000000   1.000000
    5      -54.307584    -49.165408   1.000000   1.000000
    6      -54.306968    -49.164145   1.000000   1.000000
    7      -43.058074    -43.059332   1.000000   1.000000
    8      -43.015302    -43.017029   1.000000   1.000000
    9      -15.332036    -14.926677   1.000000   1.000000
   10       -9.279242     -8.985290   1.000000   1.000000
   11       -8.583052     -8.246734   1.000000   1.000000
   12       -2.422697     -0.996583   1.000000   1.000000
   13       -1.486305     -0.350021   1.000000   1.000000
   14       -1.221528      0.134899   1.000000   1.000000
   15       -0.809525      1.260144   1.000000   1.000000
   16       -0.720143      1.447043   1.000000   1.000000
   17       -0.483471      1.869108   1.000000   1.000000
   18       -0.277296      2.226536   1.000000   1.000000
   19        0.004555      2.940279   1.000000   1.000000
   20        0.299570      3.105557   1.000000   1.000000
   21        0.871216      3.806092   1.000000   1.000000
   22        1.006778      4.235188   1.000000   1.000000
   23        1.254224      7.579003   1.000000   0.000000
   24        1.294681      7.846715   1.000000   0.000000
   25        1.441469      8.103513   1.000000   0.000000
   26        2.220735      8.621878   1.000000   0.000000
   27        2.585911      8.789102   1.000000   0.000000
   28        3.478269      9.011722   1.000000   0.000000
   29        3.901592      9.174959   1.000000   0.000000
   30        4.408010      9.733489   1.000000   0.000000
   31       10.268639     11.055770   0.000000   0.000000
   32       10.420175     11.433316   0.000000   0.000000
   33       12.015991     12.683589   0.000000   0.000000
   34       12.514622     13.046242   0.000000   0.000000
   35       12.957911     13.587784   0.000000   0.000000
   36       13.059070     13.741068   0.000000   0.000000
   37       13.527474     14.340920   0.000000   0.000000
   38       13.751778     14.540952   0.000000   0.000000
   39       15.012769     15.933570   0.000000   0.000000
   40       15.621983     16.028840   0.000000   0.000000
 
  0.5000000E+00  0.1250000E+00 -0.3079619E-15  0.2083333E-01
    1      -55.857320    -49.203125   1.000000   1.000000
    2      -55.856277    -49.201240   1.000000   1.000000
    3      -54.310384    -49.167927   1.000000   1.000000
    4      -54.309107    -49.166587   1.000000   1.000000
    5      -54.308279    -49.166040   1.000000   1.000000
    6      -54.307044    -49.164291   1.000000   1.000000
    7      -43.046608    -43.048000   1.000000   1.000000
    8      -43.025966    -43.027582   1.000000   1.000000
    9      -15.358103    -14.952551   1.000000   1.000000
   10       -8.932569     -8.635547   1.000000   1.000000
   11       -8.557956     -8.240757   1.000000   1.000000
   12       -2.407083     -1.266637   1.000000   1.000000
   13       -1.524376     -0.293346   1.000000   1.000000
   14       -1.254936      0.171352   1.000000   1.000000
   15       -1.094810      0.686560   1.000000   1.000000
   16       -0.871565      0.954696   1.000000   1.000000
   17       -0.691525      1.950911   1.000000   1.000000
   18       -0.611022      2.311127   1.000000   1.000000
   19       -0.322168      2.447274   1.000000   1.000000
   20       -0.022522      2.892161   1.000000   1.000000
   21        0.706132      4.068190   1.000000   1.000000
   22        1.135987      4.190620   1.000000   1.000000
   23        1.318286      7.744588   1.000000   0.000000
   24        1.459993      8.093618   1.000000   0.000000
   25        1.670132      8.515151   1.000000   0.000000
   26        1.786432      8.733196   1.000000   0.000000
   27        3.415147      8.809370   1.000000   0.000000
   28        3.783423      9.224389   1.000000   0.000000
   29        3.972245      9.677244   1.000000   0.000000
   30        4.553482     10.066717   1.000000   0.000000
   31       10.339743     10.977705   0.000000   0.000000
   32       10.916671     11.689897   0.000000   0.000000
   33       11.029417     11.876807   0.000000   0.000000
   34       11.652769     12.659347   0.000000   0.000000
   35       12.397744     13.194042   0.000000   0.000000
   36       12.688782     13.309230   0.000000   0.000000
   37       14.094406     14.741218   0.000000   0.000000
   38       14.397493     14.899917   0.000000   0.000000
   39       14.769893     15.256844   0.000000   0.000000
   40       15.804785     16.392356   0.000000   0.000000
 
 -0.3333333E+00  0.1250000E+00 -0.1466963E-14  0.1041667E-01
    1      -55.857185    -49.202580   1.000000   1.000000
    2      -55.856388    -49.201756   1.000000   1.000000
    3      -54.310480    -49.167926   1.000000   1.000000
    4      -54.309072    -49.166874   1.000000   1.000000
    5      -54.308477    -49.165271   1.000000   1.000000
    6      -54.307054    -49.164753   1.000000   1.000000
    7      -43.039811    -43.041278   1.000000   1.000000
    8      -43.032553    -43.034100   1.000000   1.000000
    9      -15.365875    -14.960288   1.000000   1.000000
   10       -8.812999     -8.513747   1.000000   1.000000
   11       -8.557381     -8.248472   1.000000   1.000000
   12       -2.431119     -1.407154   1.000000   1.000000
   13       -1.626552     -0.451499   1.000000   1.000000
   14       -1.370813      0.149219   1.000000   1.000000
   15       -1.126576      0.713212   1.000000   1.000000
   16       -1.046077      0.870213   1.000000   1.000000
   17       -0.693671      2.080961   1.000000   1.000000
   18       -0.566975      2.188805   1.000000   1.000000
   19       -0.406933      2.526491   1.000000   1.000000
   20       -0.048358      2.824281   1.000000   1.000000
   21        0.628653      4.148008   1.000000   1.000000
   22        1.233665      4.170667   1.000000   1.000000
   23        1.354637      7.771258   1.000000   0.000000
   24        1.497765      8.082747   1.000000   0.000000
   25        1.718389      8.548602   1.000000   0.000000
   26        1.914224      8.756452   1.000000   0.000000
   27        3.566014      8.860893   1.000000   0.000000
   28        3.810250      9.471373   1.000000   0.000000
   29        4.029611      9.716018   1.000000   0.000000
   30        4.514480     10.017157   1.000000   0.000000
   31       10.343431     11.131793   0.000000   0.000000
   32       10.827136     11.549379   0.000000   0.000000
   33       10.938027     11.671212   0.000000   0.000000
   34       11.370958     12.358347   0.000000   0.000000
   35       12.158419     12.981592   0.000000   0.000000
   36       12.674745     13.368998   0.000000   0.000000
   37       14.097322     14.493698   0.000000   0.000000
   38       14.664935     15.234031   0.000000   0.000000
   39       14.776761     15.428470   0.000000   0.000000
   40       15.995624     16.683219   0.000000   0.000000
 
 -0.1666667E+00  0.1250000E+00 -0.5149055E-15  0.1041667E-01
    1      -55.857691    -49.203683   1.000000   1.000000
    2      -55.855957    -49.200695   1.000000   1.000000
    3      -54.310170    -49.168628   1.000000   1.000000
    4      -54.309243    -49.166001   1.000000   1.000000
    5      -54.308000    -49.165598   1.000000   1.000000
    6      -54.306959    -49.164707   1.000000   1.000000
    7      -43.052915    -43.054233   1.000000   1.000000
    8      -43.020046    -43.021726   1.000000   1.000000
    9      -15.347564    -14.942118   1.000000   1.000000
   10       -9.132060     -8.839785   1.000000   1.000000
   11       -8.508332     -8.179819   1.000000   1.000000
   12       -2.448665     -1.200165   1.000000   1.000000
   13       -1.677167     -0.566006   1.000000   1.000000
   14       -1.213236      0.236231   1.000000   1.000000
   15       -0.947905      1.027971   1.000000   1.000000
   16       -0.942083      1.353687   1.000000   1.000000
   17       -0.568698      1.768120   1.000000   1.000000
   18       -0.289554      2.161836   1.000000   1.000000
   19       -0.091090      2.896436   1.000000   1.000000
   20        0.005748      3.046495   1.000000   1.000000
   21        0.756420      3.962550   1.000000   1.000000
   22        1.185670      4.215055   1.000000   1.000000
   23        1.316389      7.495956   1.000000   0.000000
   24        1.368331      8.057407   1.000000   0.000000
   25        1.545424      8.242745   1.000000   0.000000
   26        2.347035      8.643955   1.000000   0.000000
   27        2.876366      8.875540   1.000000   0.000000
   28        3.288855      9.026660   1.000000   0.000000
   29        3.920651      9.428250   1.000000   0.000000
   30        4.685002     10.076853   1.000000   0.000000
   31       10.505145     11.143866   0.000000   0.000000
   32       10.749697     11.529945   0.000000   0.000000
   33       11.682367     12.528812   0.000000   0.000000
   34       11.960515     12.965758   0.000000   0.000000
   35       12.504506     13.204250   0.000000   0.000000
   36       13.211084     13.844149   0.000000   0.000000
   37       13.595393     14.361392   0.000000   0.000000
   38       13.978815     14.556344   0.000000   0.000000
   39       14.857475     15.298328   0.000000   0.000000
   40       15.270259     15.778260   0.000000   0.000000
 
 -0.1013467E-23  0.2500000E+00  0.8363483E-15  0.1041667E-01
    1      -55.857599    -49.203441   1.000000   1.000000
    2      -55.855975    -49.200784   1.000000   1.000000
    3      -54.310344    -49.169137   1.000000   1.000000
    4      -54.309208    -49.165963   1.000000   1.000000
    5      -54.308240    -49.165556   1.000000   1.000000
    6      -54.306952    -49.164998   1.000000   1.000000
    7      -43.050872    -43.052215   1.000000   1.000000
    8      -43.021635    -43.023299   1.000000   1.000000
    9      -15.362637    -14.957311   1.000000   1.000000
   10       -9.056172     -8.757644   1.000000   1.000000
   11       -8.457735     -8.121420   1.000000   1.000000
   12       -2.410458     -1.074239   1.000000   1.000000
   13       -1.596789     -0.355133   1.000000   1.000000
   14       -1.290279      0.046022   1.000000   1.000000
   15       -1.015119      0.900925   1.000000   1.000000
   16       -0.910449      0.961992   1.000000   1.000000
   17       -0.592430      1.765633   1.000000   1.000000
   18       -0.225523      2.012380   1.000000   1.000000
   19       -0.075285      2.858784   1.000000   1.000000
   20        0.397922      3.102059   1.000000   1.000000
   21        0.966904      4.035543   1.000000   1.000000
   22        1.055761      4.411436   1.000000   1.000000
   23        1.090705      7.149239   1.000000   0.000000
   24        1.400419      7.788743   1.000000   0.000000
   25        1.439446      8.348333   1.000000   0.000000
   26        2.013618      8.412998   1.000000   0.000000
   27        2.604378      8.679212   1.000000   0.000000
   28        3.218507      9.082402   1.000000   0.000000
   29        3.464992      9.346233   1.000000   0.000000
   30        4.764768     10.164300   1.000000   0.000000
   31       10.184061     11.269183   0.000000   0.000000
   32       11.089985     11.943117   0.000000   0.000000
   33       11.308798     11.970638   0.000000   0.000000
   34       12.089211     13.333985   0.000000   0.000000
   35       13.062737     13.566629   0.000000   0.000000
   36       13.278740     13.984132   0.000000   0.000000
   37       13.418222     14.422211   0.000000   0.000000
   38       14.153568     14.673261   0.000000   0.000000
   39       14.940069     15.532897   0.000000   0.000000
   40       15.594817     15.759165   0.000000   0.000000
 
  0.1666667E+00  0.2500000E+00 -0.1774925E-14  0.1041667E-01
    1      -55.857851    -49.204029   1.000000   1.000000
    2      -55.855845    -49.200412   1.000000   1.000000
    3      -54.309940    -49.168519   1.000000   1.000000
    4      -54.309372    -49.166517   1.000000   1.000000
    5      -54.307676    -49.165311   1.000000   1.000000
    6      -54.306983    -49.164488   1.000000   1.000000
    7      -43.056605    -43.057879   1.000000   1.000000
    8      -43.016705    -43.018418   1.000000   1.000000
    9      -15.335586    -14.930182   1.000000   1.000000
   10       -9.243371     -8.951974   1.000000   1.000000
   11       -8.547855     -8.216557   1.000000   1.000000
   12       -2.466226     -1.147572   1.000000   1.000000
   13       -1.653255     -0.565512   1.000000   1.000000
   14       -1.203145      0.243481   1.000000   1.000000
   15       -0.873243      1.173037   1.000000   1.000000
   16       -0.790656      1.510155   1.000000   1.000000
   17       -0.525136      1.801040   1.000000   1.000000
   18       -0.221143      2.335718   1.000000   1.000000
   19       -0.071732      3.062138   1.000000   1.000000
   20        0.072138      3.128211   1.000000   1.000000
   21        0.770410      3.834385   1.000000   1.000000
   22        1.170628      4.117792   1.000000   1.000000
   23        1.283176      7.598384   1.000000   0.000000
   24        1.325705      7.988968   1.000000   0.000000
   25        1.514427      8.103194   1.000000   0.000000
   26        2.424315      8.780701   1.000000   0.000000
   27        2.973597      8.856405   1.000000   0.000000
   28        3.332336      9.009677   1.000000   0.000000
   29        3.950973      9.223610   1.000000   0.000000
   30        4.438551      9.718641   1.000000   0.000000
   31       10.270804     10.998004   0.000000   0.000000
   32       10.411361     11.401900   0.000000   0.000000
   33       12.157181     12.882751   0.000000   0.000000
   34       12.499907     13.120607   0.000000   0.000000
   35       12.669720     13.400513   0.000000   0.000000
   36       13.179196     13.750256   0.000000   0.000000
   37       13.635643     14.371868   0.000000   0.000000
   38       13.880431     14.711327   0.000000   0.000000
   39       14.863106     15.326621   0.000000   0.000000
   40       15.085243     15.706860   0.000000   0.000000
 
  0.3333333E+00  0.2500000E+00 -0.7673562E-15  0.1041667E-01
    1      -55.857776    -49.204015   1.000000   1.000000
    2      -55.855901    -49.200430   1.000000   1.000000
    3      -54.309980    -49.168034   1.000000   1.000000
    4      -54.309318    -49.167108   1.000000   1.000000
    5      -54.307628    -49.165515   1.000000   1.000000
    6      -54.307035    -49.164155   1.000000   1.000000
    7      -43.056578    -43.057853   1.000000   1.000000
    8      -43.016722    -43.018434   1.000000   1.000000
    9      -15.334314    -14.928889   1.000000   1.000000
   10       -9.237731     -8.945347   1.000000   1.000000
   11       -8.572375     -8.240552   1.000000   1.000000
   12       -2.430819     -1.082629   1.000000   1.000000
   13       -1.550143     -0.448696   1.000000   1.000000
   14       -1.189988      0.239974   1.000000   1.000000
   15       -0.833619      1.100639   1.000000   1.000000
   16       -0.787787      1.482881   1.000000   1.000000
   17       -0.514096      1.767957   1.000000   1.000000
   18       -0.306213      2.337385   1.000000   1.000000
   19       -0.039006      2.986904   1.000000   1.000000