 144 144   0   0
  0.1325381E+02  0.1546422E-08  0.1214491E-08  0.1054520E-08  0.5000000E-15
  1.000000000000000E-004
  CAR 
 unknown system                          
     17.00821887    -54.87239402  301      5.08801723      1.00000000
    -54.872  0.0000E+00  0.0000E+00  0.0000E+00  0.0000E+00
    -54.633  0.0000E+00  0.0000E+00  0.0000E+00  0.0000E+00
    -54.393  0.0000E+00  0.0000E+00  0.0000E+00  0.0000E+00
    -54.154  0.0000E+00  0.0000E+00  0.0000E+00  0.0000E+00
    -53.914  0.0000E+00  0.0000E+00  0.0000E+00  0.0000E+00
    -53.674  0.0000E+00  0.0000E+00  0.0000E+00  0.0000E+00
    -53.435  0.0000E+00  0.0000E+00  0.0000E+00  0.0000E+00
    -53.195  0.0000E+00  0.0000E+00  0.0000E+00  0.0000E+00
    -52.956  0.0000E+00  0.0000E+00  0.0000E+00  0.0000E+00
    -52.716  0.0000E+00  0.0000E+00  0.0000E+00  0.0000E+00
    -52.476  0.0000E+00  0.0000E+00  0.0000E+00  0.0000E+00
    -52.237  0.0000E+00  0.0000E+00  0.0000E+00  0.0000E+00
    -51.997  0.0000E+00  0.0000E+00  0.0000E+00  0.0000E+00
    -51.758  0.3010E-03  0.0000E+00  0.7213E-04  0.0000E+00
    -51.518  0.4979E+02  0.0000E+00  0.1193E+02  0.0000E+00
    -51.278  0.8554E+02  0.0000E+00  0.3242E+02  0.0000E+00
    -51.039  0.1492E+02  0.0000E+00  0.3600E+02  0.0000E+00
    -50.799  0.0000E+00  0.0000E+00  0.3600E+02  0.0000E+00
    -50.560  0.0000E+00  0.0000E+00  0.3600E+02  0.0000E+00
    -50.320  0.1085E-03  0.0000E+00  0.3600E+02  0.0000E+00
    -50.080  0.6645E+02  0.0000E+00  0.5192E+02  0.0000E+00
    -49.841  0.2078E+03  0.0000E+00  0.1017E+03  0.0000E+00
    -49.601  0.2628E+02  0.0000E+00  0.1080E+03  0.0000E+00
    -49.362  0.0000E+00  0.0000E+00  0.1080E+03  0.0000E+00
    -49.122  0.0000E+00  0.0000E+00  0.1080E+03  0.0000E+00
    -48.882  0.0000E+00  0.0000E+00  0.1080E+03  0.0000E+00
    -48.643  0.0000E+00  0.0000E+00  0.1080E+03  0.0000E+00
    -48.403  0.0000E+00  0.0000E+00  0.1080E+03  0.0000E+00
    -48.164  0.0000E+00  0.0000E+00  0.1080E+03  0.0000E+00
    -47.924  0.0000E+00  0.0000E+00  0.1080E+03  0.0000E+00
    -47.684  0.0000E+00  0.0000E+00  0.1080E+03  0.0000E+00
    -47.445  0.0000E+00  0.0000E+00  0.1080E+03  0.0000E+00
    -47.205  0.0000E+00  0.0000E+00  0.1080E+03  0.0000E+00
    -46.966  0.0000E+00  0.5862E-01  0.1080E+03  0.1404E-01
    -46.726  0.0000E+00  0.5088E+02  0.1080E+03  0.1221E+02
    -46.486  0.0000E+00  0.9509E+02  0.1080E+03  0.3499E+02
    -46.247  0.0000E+00  0.1453E+03  0.1080E+03  0.6980E+02
    -46.007  0.0000E+00  0.1594E+03  0.1080E+03  0.1080E+03
    -45.768  0.0000E+00  0.5566E-02  0.1080E+03  0.1080E+03
    -45.528  0.0000E+00  0.0000E+00  0.1080E+03  0.1080E+03
    -45.288  0.0000E+00  0.0000E+00  0.1080E+03  0.1080E+03
    -45.049  0.0000E+00  0.0000E+00  0.1080E+03  0.1080E+03
    -44.809  0.0000E+00  0.0000E+00  0.1080E+03  0.1080E+03
    -44.570  0.0000E+00  0.0000E+00  0.1080E+03  0.1080E+03
    -44.330  0.0000E+00  0.0000E+00  0.1080E+03  0.1080E+03
    -44.090  0.0000E+00  0.0000E+00  0.1080E+03  0.1080E+03
    -43.851  0.0000E+00  0.0000E+00  0.1080E+03  0.1080E+03
    -43.611  0.0000E+00  0.0000E+00  0.1080E+03  0.1080E+03
    -43.371  0.0000E+00  0.0000E+00  0.1080E+03  0.1080E+03
    -43.132  0.0000E+00  0.0000E+00  0.1080E+03  0.1080E+03
    -42.892  0.0000E+00  0.0000E+00  0.1080E+03  0.1080E+03
    -42.653  0.0000E+00  0.0000E+00  0.1080E+03  0.1080E+03
    -42.413  0.0000E+00  0.0000E+00  0.1080E+03  0.1080E+03
    -42.173  0.0000E+00  0.0000E+00  0.1080E+03  0.1080E+03
    -41.934  0.0000E+00  0.0000E+00  0.1080E+03  0.1080E+03
    -41.694  0.0000E+00  0.0000E+00  0.1080E+03  0.1080E+03
    -41.455  0.0000E+00  0.0000E+00  0.1080E+03  0.1080E+03
    -41.215  0.0000E+00  0.0000E+00  0.1080E+03  0.1080E+03
    -40.975  0.0000E+00  0.0000E+00  0.1080E+03  0.1080E+03
    -40.736  0.1120E-08  0.3652E-09  0.1080E+03  0.1080E+03
    -40.496  0.2866E+02  0.2539E+02  0.1149E+03  0.1141E+03
    -40.257  0.4648E+02  0.5009E+02  0.1260E+03  0.1261E+03
    -40.017  0.1001E+03  0.1001E+03  0.1500E+03  0.1501E+03
    -39.777  0.2511E+02  0.2479E+02  0.1560E+03  0.1560E+03
    -39.538  0.0000E+00  0.0000E+00  0.1560E+03  0.1560E+03
    -39.298  0.0000E+00  0.0000E+00  0.1560E+03  0.1560E+03
    -39.059  0.0000E+00  0.0000E+00  0.1560E+03  0.1560E+03
    -38.819  0.0000E+00  0.0000E+00  0.1560E+03  0.1560E+03
    -38.579  0.0000E+00  0.0000E+00  0.1560E+03  0.1560E+03
    -38.340  0.0000E+00  0.0000E+00  0.1560E+03  0.1560E+03
    -38.100  0.0000E+00  0.0000E+00  0.1560E+03  0.1560E+03
    -37.861  0.0000E+00  0.0000E+00  0.1560E+03  0.1560E+03
    -37.621  0.0000E+00  0.0000E+00  0.1560E+03  0.1560E+03
    -37.381  0.0000E+00  0.0000E+00  0.1560E+03  0.1560E+03
    -37.142  0.0000E+00  0.0000E+00  0.1560E+03  0.1560E+03
    -36.902  0.0000E+00  0.0000E+00  0.1560E+03  0.1560E+03
    -36.663  0.0000E+00  0.0000E+00  0.1560E+03  0.1560E+03
    -36.423  0.0000E+00  0.0000E+00  0.1560E+03  0.1560E+03
    -36.183  0.0000E+00  0.0000E+00  0.1560E+03  0.1560E+03
    -35.944  0.0000E+00  0.0000E+00  0.1560E+03  0.1560E+03
    -35.704  0.0000E+00  0.0000E+00  0.1560E+03  0.1560E+03
    -35.465  0.0000E+00  0.0000E+00  0.1560E+03  0.1560E+03
    -35.225  0.0000E+00  0.0000E+00  0.1560E+03  0.1560E+03
    -34.985  0.0000E+00  0.0000E+00  0.1560E+03  0.1560E+03
    -34.746  0.0000E+00  0.0000E+00  0.1560E+03  0.1560E+03
    -34.506  0.0000E+00  0.0000E+00  0.1560E+03  0.1560E+03
    -34.267  0.0000E+00  0.0000E+00  0.1560E+03  0.1560E+03
    -34.027  0.0000E+00  0.0000E+00  0.1560E+03  0.1560E+03
    -33.787  0.0000E+00  0.0000E+00  0.1560E+03  0.1560E+03
    -33.548  0.0000E+00  0.0000E+00  0.1560E+03  0.1560E+03
    -33.308  0.0000E+00  0.0000E+00  0.1560E+03  0.1560E+03
    -33.069  0.0000E+00  0.0000E+00  0.1560E+03  0.1560E+03
    -32.829  0.0000E+00  0.0000E+00  0.1560E+03  0.1560E+03
    -32.589  0.0000E+00  0.0000E+00  0.1560E+03  0.1560E+03
    -32.350  0.0000E+00  0.0000E+00  0.1560E+03  0.1560E+03
    -32.110  0.0000E+00  0.0000E+00  0.1560E+03  0.1560E+03
    -31.871  0.0000E+00  0.0000E+00  0.1560E+03  0.1560E+03
    -31.631  0.0000E+00  0.0000E+00  0.1560E+03  0.1560E+03
    -31.391  0.0000E+00  0.0000E+00  0.1560E+03  0.1560E+03
    -31.152  0.0000E+00  0.0000E+00  0.1560E+03  0.1560E+03
    -30.912  0.0000E+00  0.0000E+00  0.1560E+03  0.1560E+03
    -30.673  0.0000E+00  0.0000E+00  0.1560E+03  0.1560E+03
    -30.433  0.0000E+00  0.0000E+00  0.1560E+03  0.1560E+03
    -30.193  0.0000E+00  0.0000E+00  0.1560E+03  0.1560E+03
    -29.954  0.0000E+00  0.0000E+00  0.1560E+03  0.1560E+03
    -29.714  0.0000E+00  0.0000E+00  0.1560E+03  0.1560E+03
    -29.475  0.0000E+00  0.0000E+00  0.1560E+03  0.1560E+03
    -29.235  0.0000E+00  0.0000E+00  0.1560E+03  0.1560E+03
    -28.995  0.0000E+00  0.0000E+00  0.1560E+03  0.1560E+03
    -28.756  0.0000E+00  0.0000E+00  0.1560E+03  0.1560E+03
    -28.516  0.0000E+00  0.0000E+00  0.1560E+03  0.1560E+03
    -28.277  0.0000E+00  0.0000E+00  0.1560E+03  0.1560E+03
    -28.037  0.0000E+00  0.0000E+00  0.1560E+03  0.1560E+03
    -27.797  0.0000E+00  0.0000E+00  0.1560E+03  0.1560E+03
    -27.558  0.0000E+00  0.0000E+00  0.1560E+03  0.1560E+03
    -27.318  0.0000E+00  0.0000E+00  0.1560E+03  0.1560E+03
    -27.079  0.0000E+00  0.0000E+00  0.1560E+03  0.1560E+03
    -26.839  0.0000E+00  0.0000E+00  0.1560E+03  0.1560E+03
    -26.599  0.0000E+00  0.0000E+00  0.1560E+03  0.1560E+03
    -26.360  0.0000E+00  0.0000E+00  0.1560E+03  0.1560E+03
    -26.120  0.0000E+00  0.0000E+00  0.1560E+03  0.1560E+03
    -25.881  0.0000E+00  0.0000E+00  0.1560E+03  0.1560E+03
    -25.641  0.0000E+00  0.0000E+00  0.1560E+03  0.1560E+03
    -25.401  0.0000E+00  0.0000E+00  0.1560E+03  0.1560E+03
    -25.162  0.0000E+00  0.0000E+00  0.1560E+03  0.1560E+03
    -24.922  0.0000E+00  0.0000E+00  0.1560E+03  0.1560E+03
    -24.683  0.0000E+00  0.0000E+00  0.1560E+03  0.1560E+03
    -24.443  0.0000E+00  0.0000E+00  0.1560E+03  0.1560E+03
    -24.203  0.0000E+00  0.0000E+00  0.1560E+03  0.1560E+03
    -23.964  0.0000E+00  0.0000E+00  0.1560E+03  0.1560E+03
    -23.724  0.0000E+00  0.0000E+00  0.1560E+03  0.1560E+03
    -23.485  0.0000E+00  0.0000E+00  0.1560E+03  0.1560E+03
    -23.245  0.0000E+00  0.0000E+00  0.1560E+03  0.1560E+03
    -23.005  0.0000E+00  0.0000E+00  0.1560E+03  0.1560E+03
    -22.766  0.0000E+00  0.0000E+00  0.1560E+03  0.1560E+03
    -22.526  0.0000E+00  0.0000E+00  0.1560E+03  0.1560E+03
    -22.287  0.0000E+00  0.0000E+00  0.1560E+03  0.1560E+03
    -22.047  0.0000E+00  0.0000E+00  0.1560E+03  0.1560E+03
    -21.807  0.0000E+00  0.0000E+00  0.1560E+03  0.1560E+03
    -21.568  0.0000E+00  0.0000E+00  0.1560E+03  0.1560E+03
    -21.328  0.0000E+00  0.0000E+00  0.1560E+03  0.1560E+03
    -21.089  0.0000E+00  0.0000E+00  0.1560E+03  0.1560E+03
    -20.849  0.0000E+00  0.0000E+00  0.1560E+03  0.1560E+03
    -20.609  0.0000E+00  0.0000E+00  0.1560E+03  0.1560E+03
    -20.370  0.0000E+00  0.0000E+00  0.1560E+03  0.1560E+03
    -20.130  0.0000E+00  0.0000E+00  0.1560E+03  0.1560E+03
    -19.890  0.0000E+00  0.0000E+00  0.1560E+03  0.1560E+03
    -19.651  0.0000E+00  0.0000E+00  0.1560E+03  0.1560E+03
    -19.411  0.0000E+00  0.0000E+00  0.1560E+03  0.1560E+03
    -19.172  0.0000E+00  0.0000E+00  0.1560E+03  0.1560E+03
    -18.932  0.0000E+00  0.0000E+00  0.1560E+03  0.1560E+03
    -18.692  0.0000E+00  0.0000E+00  0.1560E+03  0.1560E+03
    -18.453  0.0000E+00  0.0000E+00  0.1560E+03  0.1560E+03
    -18.213  0.0000E+00  0.0000E+00  0.1560E+03  0.1560E+03
    -17.974  0.0000E+00  0.0000E+00  0.1560E+03  0.1560E+03
    -17.734  0.0000E+00  0.0000E+00  0.1560E+03  0.1560E+03
    -17.494  0.0000E+00  0.0000E+00  0.1560E+03  0.1560E+03
    -17.255  0.0000E+00  0.0000E+00  0.1560E+03  0.1560E+03
    -17.015  0.0000E+00  0.0000E+00  0.1560E+03  0.1560E+03
    -16.776  0.0000E+00  0.0000E+00  0.1560E+03  0.1560E+03
    -16.536  0.0000E+00  0.0000E+00  0.1560E+03  0.1560E+03
    -16.296  0.0000E+00  0.0000E+00  0.1560E+03  0.1560E+03
    -16.057  0.0000E+00  0.0000E+00  0.1560E+03  0.1560E+03
    -15.817  0.0000E+00  0.0000E+00  0.1560E+03  0.1560E+03
    -15.578  0.0000E+00  0.0000E+00  0.1560E+03  0.1560E+03
    -15.338  0.0000E+00  0.0000E+00  0.1560E+03  0.1560E+03
    -15.098  0.0000E+00  0.0000E+00  0.1560E+03  0.1560E+03
    -14.859  0.0000E+00  0.0000E+00  0.1560E+03  0.1560E+03
    -14.619  0.0000E+00  0.0000E+00  0.1560E+03  0.1560E+03
    -14.380  0.0000E+00  0.0000E+00  0.1560E+03  0.1560E+03
    -14.140  0.0000E+00  0.0000E+00  0.1560E+03  0.1560E+03
    -13.900  0.1240E-02  0.0000E+00  0.1560E+03  0.1560E+03
    -13.661  0.2215E+02  0.6004E-13  0.1613E+03  0.1560E+03
    -13.421  0.2774E+02  0.1787E+01  0.1680E+03  0.1564E+03
    -13.182  0.8613E+01  0.4444E+02  0.1700E+03  0.1671E+03
    -12.942  0.3150E+02  0.4498E+01  0.1776E+03  0.1682E+03
    -12.702  0.1016E+02  0.4177E+02  0.1800E+03  0.1782E+03
    -12.463  0.0000E+00  0.7667E+01  0.1800E+03  0.1800E+03
    -12.223  0.0000E+00  0.0000E+00  0.1800E+03  0.1800E+03
    -11.984  0.0000E+00  0.0000E+00  0.1800E+03  0.1800E+03
    -11.744  0.0000E+00  0.0000E+00  0.1800E+03  0.1800E+03
    -11.504  0.0000E+00  0.0000E+00  0.1800E+03  0.1800E+03
    -11.265  0.0000E+00  0.0000E+00  0.1800E+03  0.1800E+03
    -11.025  0.0000E+00  0.0000E+00  0.1800E+03  0.1800E+03
    -10.786  0.0000E+00  0.0000E+00  0.1800E+03  0.1800E+03
    -10.546  0.0000E+00  0.0000E+00  0.1800E+03  0.1800E+03
    -10.306  0.0000E+00  0.0000E+00  0.1800E+03  0.1800E+03
    -10.067  0.0000E+00  0.0000E+00  0.1800E+03  0.1800E+03
     -9.827  0.0000E+00  0.0000E+00  0.1800E+03  0.1800E+03
     -9.588  0.0000E+00  0.0000E+00  0.1800E+03  0.1800E+03
     -9.348  0.0000E+00  0.0000E+00  0.1800E+03  0.1800E+03
     -9.108  0.0000E+00  0.0000E+00  0.1800E+03  0.1800E+03
     -8.869  0.0000E+00  0.0000E+00  0.1800E+03  0.1800E+03
     -8.629  0.0000E+00  0.0000E+00  0.1800E+03  0.1800E+03
     -8.390  0.0000E+00  0.0000E+00  0.1800E+03  0.1800E+03
     -8.150  0.0000E+00  0.0000E+00  0.1800E+03  0.1800E+03
     -7.910  0.2106E-02  0.0000E+00  0.1800E+03  0.1800E+03
     -7.671  0.9346E+01  0.1593E-01  0.1822E+03  0.1800E+03
     -7.431  0.2304E+02  0.1192E+02  0.1878E+03  0.1829E+03
     -7.192  0.5559E+02  0.2845E+02  0.2011E+03  0.1897E+03
     -6.952  0.5821E+02  0.5981E+02  0.2150E+03  0.2040E+03
     -6.712  0.4062E+01  0.4666E+02  0.2160E+03  0.2152E+03
     -6.473  0.0000E+00  0.3390E+01  0.2160E+03  0.2160E+03
     -6.233  0.0000E+00  0.0000E+00  0.2160E+03  0.2160E+03
     -5.994  0.0000E+00  0.0000E+00  0.2160E+03  0.2160E+03
     -5.754  0.0000E+00  0.0000E+00  0.2160E+03  0.2160E+03
     -5.514  0.0000E+00  0.0000E+00  0.2160E+03  0.2160E+03
     -5.275  0.0000E+00  0.0000E+00  0.2160E+03  0.2160E+03
     -5.035  0.0000E+00  0.0000E+00  0.2160E+03  0.2160E+03
     -4.796  0.0000E+00  0.0000E+00  0.2160E+03  0.2160E+03
     -4.556  0.0000E+00  0.0000E+00  0.2160E+03  0.2160E+03
     -4.316  0.0000E+00  0.0000E+00  0.2160E+03  0.2160E+03
     -4.077  0.0000E+00  0.0000E+00  0.2160E+03  0.2160E+03
     -3.837  0.0000E+00  0.0000E+00  0.2160E+03  0.2160E+03
     -3.598  0.0000E+00  0.0000E+00  0.2160E+03  0.2160E+03
     -3.358  0.0000E+00  0.0000E+00  0.2160E+03  0.2160E+03
     -3.118  0.0000E+00  0.0000E+00  0.2160E+03  0.2160E+03
     -2.879  0.1596E-13  0.0000E+00  0.2160E+03  0.2160E+03
     -2.639  0.8342E+00  0.0000E+00  0.2162E+03  0.2160E+03
     -2.400  0.1030E+02  0.0000E+00  0.2187E+03  0.2160E+03
     -2.160  0.2036E+02  0.0000E+00  0.2235E+03  0.2160E+03
     -1.920  0.1972E+01  0.0000E+00  0.2240E+03  0.2160E+03
     -1.681  0.3455E+02  0.0000E+00  0.2323E+03  0.2160E+03
     -1.441  0.1947E+02  0.4119E-15  0.2370E+03  0.2160E+03
     -1.202  0.4411E+02  0.8577E-01  0.2475E+03  0.2160E+03
     -0.962  0.4956E+02  0.4411E+01  0.2594E+03  0.2171E+03
     -0.722  0.7499E+02  0.1404E+02  0.2774E+03  0.2204E+03
     -0.483  0.1032E+03  0.1528E+02  0.3021E+03  0.2241E+03
     -0.243  0.8545E+02  0.1955E+02  0.3226E+03  0.2288E+03
     -0.004  0.1105E+03  0.4130E+02  0.3491E+03  0.2387E+03
      0.236  0.6992E+02  0.3393E+02  0.3658E+03  0.2468E+03
      0.476  0.3832E+02  0.4213E+02  0.3750E+03  0.2569E+03
      0.715  0.4569E+02  0.3366E+02  0.3859E+03  0.2650E+03
      0.955  0.4869E+02  0.5278E+02  0.3976E+03  0.2776E+03
      1.194  0.5549E+02  0.6058E+02  0.4109E+03  0.2921E+03
      1.434  0.6418E+02  0.4443E+02  0.4263E+03  0.3028E+03
      1.674  0.1009E+03  0.4012E+02  0.4504E+03  0.3124E+03
      1.913  0.5265E+02  0.3844E+02  0.4631E+03  0.3216E+03
      2.153  0.3872E+02  0.3741E+02  0.4723E+03  0.3306E+03
      2.392  0.4653E+02  0.3827E+02  0.4835E+03  0.3397E+03
      2.632  0.4780E+02  0.4931E+02  0.4949E+03  0.3515E+03
      2.872  0.4357E+02  0.6293E+02  0.5054E+03  0.3666E+03
      3.111  0.4013E+02  0.5875E+02  0.5150E+03  0.3807E+03
      3.351  0.4739E+02  0.4808E+02  0.5263E+03  0.3922E+03
      3.591  0.5255E+02  0.2988E+02  0.5389E+03  0.3994E+03
      3.830  0.4545E+02  0.6116E+02  0.5498E+03  0.4140E+03
      4.070  0.3196E+02  0.7359E+02  0.5575E+03  0.4317E+03
      4.309  0.4246E+02  0.1397E+01  0.5677E+03  0.4320E+03
      4.549  0.2366E+02  0.0000E+00  0.5733E+03  0.4320E+03
      4.789  0.1025E+02  0.0000E+00  0.5758E+03  0.4320E+03
      5.028  0.9248E+00  0.0000E+00  0.5760E+03  0.4320E+03
      5.268  0.0000E+00  0.0000E+00  0.5760E+03  0.4320E+03
      5.507  0.0000E+00  0.0000E+00  0.5760E+03  0.4320E+03
      5.747  0.0000E+00  0.0000E+00  0.5760E+03  0.4320E+03
      5.987  0.0000E+00  0.4672E-11  0.5760E+03  0.4320E+03
      6.226  0.0000E+00  0.1429E+00  0.5760E+03  0.4320E+03
      6.466  0.0000E+00  0.8119E+01  0.5760E+03  0.4340E+03
      6.705  0.0000E+00  0.3020E+02  0.5760E+03  0.4412E+03
      6.945  0.6354E-12  0.4334E+02  0.5760E+03  0.4516E+03
      7.185  0.1053E+00  0.7310E+02  0.5760E+03  0.4691E+03
      7.424  0.1326E+00  0.8085E+02  0.5761E+03  0.4885E+03
      7.664  0.8878E+00  0.6540E+02  0.5763E+03  0.5042E+03
      7.903  0.3493E+01  0.8789E+02  0.5771E+03  0.5252E+03
      8.143  0.4268E+01  0.7134E+02  0.5781E+03  0.5423E+03
      8.383  0.7017E+01  0.5446E+02  0.5798E+03  0.5554E+03
      8.622  0.1634E+02  0.3720E+02  0.5837E+03  0.5643E+03
      8.862  0.2530E+02  0.3922E+02  0.5898E+03  0.5737E+03
      9.101  0.1924E+02  0.1941E+02  0.5944E+03  0.5783E+03
      9.341  0.2533E+02  0.1386E+02  0.6005E+03  0.5816E+03
      9.581  0.3122E+02  0.2058E+02  0.6079E+03  0.5866E+03
      9.820  0.2663E+02  0.2998E+02  0.6143E+03  0.5938E+03
     10.060  0.2967E+02  0.2655E+02  0.6214E+03  0.6001E+03
     10.299  0.2276E+02  0.3467E+02  0.6269E+03  0.6084E+03
     10.539  0.2041E+02  0.3550E+02  0.6318E+03  0.6169E+03
     10.779  0.2849E+02  0.2793E+02  0.6386E+03  0.6236E+03
     11.018  0.3896E+02  0.2248E+02  0.6479E+03  0.6290E+03
     11.258  0.3938E+02  0.2155E+02  0.6574E+03  0.6342E+03
     11.497  0.3730E+02  0.3228E+02  0.6663E+03  0.6419E+03
     11.737  0.4479E+02  0.3876E+02  0.6770E+03  0.6512E+03
     11.977  0.3855E+02  0.4256E+02  0.6863E+03  0.6614E+03
     12.216  0.3854E+02  0.5194E+02  0.6955E+03  0.6738E+03
     12.456  0.3988E+02  0.4684E+02  0.7051E+03  0.6851E+03
     12.695  0.3656E+02  0.3597E+02  0.7138E+03  0.6937E+03
     12.935  0.3449E+02  0.4126E+02  0.7221E+03  0.7036E+03
     13.175  0.2293E+02  0.3979E+02  0.7276E+03  0.7131E+03
     13.414  0.1708E+01  0.3424E+02  0.7280E+03  0.7213E+03
     13.654  0.0000E+00  0.2416E+02  0.7280E+03  0.7271E+03
     13.893  0.0000E+00  0.3771E+01  0.7280E+03  0.7280E+03
     14.133  0.0000E+00  0.3741E-05  0.7280E+03  0.7280E+03
     14.373  0.0000E+00  0.0000E+00  0.7280E+03  0.7280E+03
     14.612  0.0000E+00  0.0000E+00  0.7280E+03  0.7280E+03
     14.852  0.0000E+00  0.0000E+00  0.7280E+03  0.7280E+03
     15.091  0.0000E+00  0.0000E+00  0.7280E+03  0.7280E+03
     15.331  0.0000E+00  0.0000E+00  0.7280E+03  0.7280E+03
     15.571  0.0000E+00  0.0000E+00  0.7280E+03  0.7280E+03
     15.810  0.0000E+00  0.0000E+00  0.7280E+03  0.7280E+03
     16.050  0.0000E+00  0.0000E+00  0.7280E+03  0.7280E+03
     16.289  0.0000E+00  0.0000E+00  0.7280E+03  0.7280E+03
     16.529  0.0000E+00  0.0000E+00  0.7280E+03  0.7280E+03
     16.769  0.0000E+00  0.0000E+00  0.7280E+03  0.7280E+03
     17.008  0.0000E+00  0.0000E+00  0.7280E+03  0.7280E+03
