<?xml version="1.0" encoding="ISO-8859-1"?>
<modeling>
 <generator>
  <i name="program" type="string">vasp </i>
  <i name="version" type="string">5.4.4.18Apr17-6-g9f103f2a35  </i>
  <i name="subversion" type="string">(build Oct 25 2017 14:42:18) complex            parallel </i>
  <i name="platform" type="string">LinuxIFC </i>
  <i name="date" type="string">2021 04 18 </i>
  <i name="time" type="string">01:27:36 </i>
 </generator>
 <incar>
  <i type="string" name="PREC">accurate</i>
  <i type="string" name="ALGO"> normal</i>
  <i type="logical" name="ADDGRID"> T  </i>
  <i type="int" name="ISPIN">     2</i>
  <i type="int" name="ICHARG">     1</i>
  <i type="int" name="NELM">   200</i>
  <i type="int" name="NELMIN">     8</i>
  <i name="EDIFF">      0.00000100</i>
  <i type="int" name="ISYM">     0</i>
  <i name="ENCUT">    650.00000000</i>
  <v name="MAGMOM">      0.60000000      0.60000000      0.60000000      0.60000000      0.60000000      0.60000000      0.60000000      0.60000000      0.60000000      0.60000000      0.60000000      0.60000000      0.60000000      0.60000000      0.60000000      0.60000000      0.60000000      0.60000000      0.60000000      0.60000000
      0.60000000      0.60000000      0.60000000      0.60000000      0.60000000      0.60000000      0.60000000      0.60000000      0.60000000      0.60000000      0.60000000      0.60000000      0.60000000      0.60000000      0.60000000      0.60000000      0.60000000      0.60000000      0.60000000      0.60000000
      0.60000000      0.60000000      0.60000000      0.60000000      0.60000000      0.60000000      0.60000000      0.60000000      5.00000000      5.00000000      5.00000000      5.00000000      5.00000000      5.00000000      5.00000000      5.00000000      5.00000000      5.00000000      5.00000000      5.00000000
      5.00000000      5.00000000      5.00000000      5.00000000      5.00000000      5.00000000      5.00000000      5.00000000      5.00000000      5.00000000      5.00000000      5.00000000      5.00000000      5.00000000      5.00000000      5.00000000      5.00000000      5.00000000      5.00000000      5.00000000
      5.00000000      5.00000000      5.00000000      5.00000000      0.60000000      0.60000000      0.60000000      0.60000000      0.60000000      0.60000000      0.60000000      0.60000000      0.60000000      0.60000000      0.60000000      0.60000000      0.60000000      0.60000000      0.60000000      0.60000000
      0.60000000      0.60000000      0.60000000      0.60000000      0.60000000      0.60000000      0.60000000      0.60000000      0.60000000      0.60000000      0.60000000      0.60000000      0.60000000      0.60000000      0.60000000      0.60000000      0.60000000      0.60000000      0.60000000      0.60000000
      0.60000000      0.60000000      0.60000000      0.60000000      0.60000000      0.60000000      0.60000000      0.60000000      0.60000000      0.60000000      0.60000000      0.60000000      0.60000000      0.60000000      0.60000000      0.60000000      0.60000000      0.60000000      0.60000000      0.60000000
      0.60000000      0.60000000      0.60000000      0.60000000</v>
  <i type="logical" name="LREAL"> F  </i>
  <i type="int" name="ISMEAR">     0</i>
  <i name="SIGMA">      0.05000000</i>
  <i type="int" name="NWRITE">     1</i>
  <i type="int" name="LMAXMIX">     4</i>
  <i type="logical" name="LWAVE"> F  </i>
  <i type="logical" name="LASPH"> T  </i>
  <v type="int" name="KPOINT_BSE">    -1     0     0     0</v>
  <i type="int" name="NELM">   200</i>
  <i type="string" name="GGA"> pe</i>
  <i type="logical" name="LDAU"> T  </i>
  <v type="int" name="LDAUTYPE">     2</v>
  <v type="int" name="LDAUL">    -1     2    -1    -1</v>
  <v name="LDAUU">      0.00000000      4.00000000      0.00000000      0.00000000</v>
  <v name="LDAUJ">      0.00000000      0.00000000      0.00000000      0.00000000</v>
  <i type="logical" name="LASPH"> T  </i>
 </incar>
 <structure name="primitive_cell" >
  <crystal>
   <varray name="basis" >
    <v>      15.21162830       0.00516956      -2.78361592 </v>
    <v>      -0.40798665      11.93565774      -2.20735884 </v>
    <v>      -0.06175567      -0.11168197      10.54442638 </v>
   </varray>
   <i name="volume">   1908.54869108 </i>
   <varray name="rec_basis" >
    <v>       0.06581343       0.00232549       0.00041008 </v>
    <v>       0.00013433       0.08395174       0.00088997 </v>
    <v>       0.01740216       0.01818827       0.09513139 </v>
   </varray>
  </crystal>
  <varray name="positions" >
   <v>       0.47527516       0.00074367       0.00446200 </v>
   <v>      -0.47527003       0.03239991       0.19439947 </v>
   <v>       0.47618324      -0.03189981      -0.19139884 </v>
   <v>       0.37500000       0.16666667       0.00000000 </v>
   <v>       0.37500000      -0.16666667       0.00000000 </v>
   <v>       0.40535584       0.03794021       0.22764128 </v>
   <v>      -0.35733875       0.02567762       0.15406572 </v>
   <v>       0.47796480       0.13582521      -0.18504874 </v>
   <v>       0.47796480      -0.19750812      -0.18504874 </v>
   <v>       0.34464416      -0.03794021      -0.22764128 </v>
   <v>      -0.39266125      -0.02567762      -0.15406572 </v>
   <v>      -0.47447416       0.19979622       0.19877732 </v>
   <v>      -0.47447416      -0.13353711       0.19877732 </v>
   <v>      -0.37500000       0.16666667       0.00000000 </v>
   <v>      -0.37500000      -0.16666667       0.00000000 </v>
   <v>       0.27472484      -0.00074367      -0.00446200 </v>
   <v>       0.27381676       0.03189981       0.19139884 </v>
   <v>      -0.42788806       0.06536154       0.39216926 </v>
   <v>       0.22527003      -0.03239991      -0.19439947 </v>
   <v>       0.47527516      -0.33258966       0.00446200 </v>
   <v>       0.47527516       0.33407700       0.00446200 </v>
   <v>       0.46517249      -0.06641917      -0.39851502 </v>
   <v>       0.27203520       0.19750812       0.18504874 </v>
   <v>       0.27203520      -0.13582521       0.18504874 </v>
   <v>      -0.47527003       0.36573324       0.19439947 </v>
   <v>      -0.47527003      -0.30093342       0.19439947 </v>
   <v>       0.41542107       0.22793643       0.36761855 </v>
   <v>       0.41542107      -0.10539691       0.36761855 </v>
   <v>       0.22447416       0.13353711      -0.19877732 </v>
   <v>       0.22447416      -0.19979622      -0.19877732 </v>
   <v>       0.33457893       0.10539691      -0.36761855 </v>
   <v>       0.33457893      -0.22793643      -0.36761855 </v>
   <v>       0.47618324       0.30143353      -0.19139884 </v>
   <v>       0.47618324      -0.36523314      -0.19139884 </v>
   <v>      -0.22527516      -0.00074367      -0.00446200 </v>
   <v>      -0.22618324       0.03189981       0.19139884 </v>
   <v>      -0.27472997      -0.03239991      -0.19439947 </v>
   <v>      -0.32385262       0.22809805       0.36858830 </v>
   <v>      -0.32385262      -0.10523528       0.36858830 </v>
   <v>      -0.42614738       0.10523528      -0.36858830 </v>
   <v>      -0.42614738      -0.22809805      -0.36858830 </v>
   <v>       0.40535584       0.37127355       0.22764128 </v>
   <v>       0.40535584      -0.29539312       0.22764128 </v>
   <v>      -0.35733875       0.35901095       0.15406572 </v>
   <v>      -0.35733875      -0.30765571       0.15406572 </v>
   <v>       0.34529081       0.29539312      -0.22764128 </v>
   <v>       0.34464416      -0.37127355      -0.22764128 </v>
   <v>      -0.39266125       0.30765571      -0.15406572 </v>
   <v>      -0.39266125      -0.35901095      -0.15406572 </v>
   <v>      -0.22796480       0.19750812       0.18504874 </v>
   <v>      -0.22796480      -0.13582521       0.18504874 </v>
   <v>       0.27472484       0.33258966      -0.00446200 </v>
   <v>       0.27472484      -0.33407700      -0.00446200 </v>
   <v>      -0.27552584       0.13353711      -0.19877732 </v>
   <v>      -0.27552584      -0.19979622      -0.19877732 </v>
   <v>       0.28482751       0.06641917       0.39851502 </v>
   <v>       0.17788806      -0.06536154      -0.39216926 </v>
   <v>       0.10733875      -0.02567762      -0.15406572 </v>
   <v>      -0.32211194      -0.06536154      -0.39216926 </v>
   <v>       0.14266125       0.02567762       0.15406572 </v>
   <v>       0.27381676       0.36523314       0.19139884 </v>
   <v>       0.27381676      -0.30143353       0.19139884 </v>
   <v>      -0.21517249       0.06641917       0.39851502 </v>
   <v>      -0.42788806       0.39869487       0.39216926 </v>
   <v>      -0.42788806      -0.26797179       0.39216926 </v>
   <v>       0.22527003       0.30093342      -0.19439947 </v>
   <v>       0.22527003      -0.36573324      -0.19439947 </v>
   <v>       0.12500000       0.16666667       0.00000000 </v>
   <v>       0.12500000      -0.16666667       0.00000000 </v>
   <v>       0.46517249       0.26691416      -0.39851502 </v>
   <v>       0.46517249      -0.39975250      -0.39851502 </v>
   <v>      -0.22527516       0.33258966      -0.00446200 </v>
   <v>      -0.22527516      -0.33407700      -0.00446200 </v>
   <v>      -0.22618324       0.36523314       0.19139884 </v>
   <v>      -0.22618324      -0.30143353       0.19139884 </v>
   <v>      -0.27472997       0.30093342      -0.19439947 </v>
   <v>      -0.27472997      -0.36573324      -0.19439947 </v>
   <v>       0.37500000      -0.50000000       0.00000000 </v>
   <v>       0.47796480       0.46915854      -0.18504874 </v>
   <v>      -0.47447416      -0.46687045       0.19877732 </v>
   <v>      -0.37500000      -0.50000000       0.00000000 </v>
   <v>      -0.12500000       0.16666667       0.00000000 </v>
   <v>      -0.12500000      -0.16666667       0.00000000 </v>
   <v>      -0.15535584      -0.03794021      -0.22764128 </v>
   <v>      -0.09464416       0.03794021       0.22764128 </v>
   <v>       0.28482751      -0.26691416       0.39851502 </v>
   <v>      -0.32211194       0.26797179      -0.39216926 </v>
   <v>       0.28482751       0.39975250       0.39851502 </v>
   <v>       0.17614738       0.22809805       0.36858830 </v>
   <v>       0.17614738      -0.10523528       0.36858830 </v>
   <v>       0.17788806       0.26797179      -0.39216926 </v>
   <v>       0.17788806      -0.39869487      -0.39216926 </v>
   <v>       0.10733875       0.30765571      -0.15406572 </v>
   <v>       0.10733875      -0.35901095      -0.15406572 </v>
   <v>      -0.32211194      -0.39869487      -0.39216926 </v>
   <v>       0.14266125       0.35901095       0.15406572 </v>
   <v>       0.14266125      -0.30765571       0.15406572 </v>
   <v>       0.07385262       0.10523528      -0.36858830 </v>
   <v>       0.07385262      -0.22809805      -0.36858830 </v>
   <v>      -0.21517249       0.39975250       0.39851502 </v>
   <v>      -0.21517249      -0.26691416       0.39851502 </v>
   <v>       0.27203520      -0.46915854       0.18504874 </v>
   <v>       0.41542107      -0.43873024       0.36761855 </v>
   <v>       0.22447416       0.46687045      -0.19877732 </v>
   <v>       0.33457893       0.43873024      -0.36761855 </v>
   <v>      -0.08457893       0.22793643       0.36761855 </v>
   <v>      -0.08457893      -0.10539691       0.36761855 </v>
   <v>      -0.32385262      -0.43856862       0.36858830 </v>
   <v>      -0.42614738       0.43856862      -0.36858830 </v>
   <v>       0.02472997       0.03239991       0.19439947 </v>
   <v>      -0.02381676      -0.03189981      -0.19139884 </v>
   <v>      -0.16542107       0.10539691      -0.36761855 </v>
   <v>      -0.16542107      -0.22793643      -0.36761855 </v>
   <v>      -0.22796480      -0.46915854       0.18504874 </v>
   <v>      -0.27552584       0.46687045      -0.19877732 </v>
   <v>      -0.02472484       0.00074367       0.00446200 </v>
   <v>      -0.15535584       0.29539312      -0.22764128 </v>
   <v>      -0.15535584      -0.37127355      -0.22764128 </v>
   <v>      -0.09464416       0.37127355       0.22764128 </v>
   <v>      -0.09464416      -0.29539312       0.22764128 </v>
   <v>      -0.02203520       0.13582521      -0.18504874 </v>
   <v>      -0.02203520      -0.19750812      -0.18504874 </v>
   <v>       0.02552584       0.19979622       0.19877732 </v>
   <v>       0.02552584      -0.13353711       0.19877732 </v>
   <v>       0.07211194       0.06536154       0.39216926 </v>
   <v>       0.12500000      -0.50000000       0.00000000 </v>
   <v>      -0.03482751      -0.06641917      -0.39851502 </v>
   <v>       0.07211194      -0.26797179       0.39216926 </v>
   <v>       0.17614738      -0.43856862       0.36858830 </v>
   <v>       0.02472997       0.36573324       0.19439947 </v>
   <v>       0.02472997      -0.30093342       0.19439947 </v>
   <v>      -0.02381676       0.30143353      -0.19139884 </v>
   <v>      -0.02381676      -0.36523314      -0.19139884 </v>
   <v>      -0.12500000      -0.50000000       0.00000000 </v>
   <v>      -0.16542107       0.43873024      -0.36761855 </v>
   <v>      -0.02472484      -0.33258966       0.00446200 </v>
   <v>      -0.02472484       0.33407700       0.00446200 </v>
   <v>       0.07211194       0.39869487       0.39216926 </v>
   <v>       0.07385262       0.43856862      -0.36858830 </v>
   <v>      -0.03482751       0.26691416      -0.39851502 </v>
   <v>      -0.03482751      -0.39975250      -0.39851502 </v>
   <v>      -0.08457893      -0.43873024       0.36761855 </v>
   <v>      -0.02203520       0.46915854      -0.18504874 </v>
   <v>       0.02552584      -0.46687045       0.19877732 </v>
  </varray>
 </structure>
 <varray name="primitive_index" >
  <v type="int" >        1 </v>
  <v type="int" >      134 </v>
  <v type="int" >      131 </v>
  <v type="int" >       91 </v>
  <v type="int" >       95 </v>
  <v type="int" >       43 </v>
  <v type="int" >       38 </v>
  <v type="int" >       67 </v>
  <v type="int" >       71 </v>
  <v type="int" >       35 </v>
  <v type="int" >       30 </v>
  <v type="int" >       74 </v>
  <v type="int" >       78 </v>
  <v type="int" >       86 </v>
  <v type="int" >       90 </v>
  <v type="int" >       11 </v>
  <v type="int" >      139 </v>
  <v type="int" >       20 </v>
  <v type="int" >      125 </v>
  <v type="int" >        5 </v>
  <v type="int" >        3 </v>
  <v type="int" >       53 </v>
  <v type="int" >       79 </v>
  <v type="int" >       83 </v>
  <v type="int" >      136 </v>
  <v type="int" >      138 </v>
  <v type="int" >      103 </v>
  <v type="int" >      107 </v>
  <v type="int" >       61 </v>
  <v type="int" >       65 </v>
  <v type="int" >      115 </v>
  <v type="int" >      119 </v>
  <v type="int" >      127 </v>
  <v type="int" >      129 </v>
  <v type="int" >       12 </v>
  <v type="int" >      140 </v>
  <v type="int" >      126 </v>
  <v type="int" >       98 </v>
  <v type="int" >      102 </v>
  <v type="int" >      110 </v>
  <v type="int" >      114 </v>
  <v type="int" >       45 </v>
  <v type="int" >       47 </v>
  <v type="int" >       40 </v>
  <v type="int" >       42 </v>
  <v type="int" >       31 </v>
  <v type="int" >       33 </v>
  <v type="int" >       26 </v>
  <v type="int" >       28 </v>
  <v type="int" >       80 </v>
  <v type="int" >       84 </v>
  <v type="int" >        7 </v>
  <v type="int" >        9 </v>
  <v type="int" >       62 </v>
  <v type="int" >       66 </v>
  <v type="int" >       55 </v>
  <v type="int" >       17 </v>
  <v type="int" >       29 </v>
  <v type="int" >       18 </v>
  <v type="int" >       37 </v>
  <v type="int" >      141 </v>
  <v type="int" >      143 </v>
  <v type="int" >       56 </v>
  <v type="int" >       22 </v>
  <v type="int" >       24 </v>
  <v type="int" >      121 </v>
  <v type="int" >      123 </v>
  <v type="int" >       85 </v>
  <v type="int" >       89 </v>
  <v type="int" >       49 </v>
  <v type="int" >       51 </v>
  <v type="int" >        8 </v>
  <v type="int" >       10 </v>
  <v type="int" >      142 </v>
  <v type="int" >      144 </v>
  <v type="int" >      122 </v>
  <v type="int" >      124 </v>
  <v type="int" >       93 </v>
  <v type="int" >       69 </v>
  <v type="int" >       76 </v>
  <v type="int" >       88 </v>
  <v type="int" >       92 </v>
  <v type="int" >       96 </v>
  <v type="int" >       36 </v>
  <v type="int" >       44 </v>
  <v type="int" >       59 </v>
  <v type="int" >       14 </v>
  <v type="int" >       57 </v>
  <v type="int" >       97 </v>
  <v type="int" >      101 </v>
  <v type="int" >       13 </v>
  <v type="int" >       15 </v>
  <v type="int" >       25 </v>
  <v type="int" >       27 </v>
  <v type="int" >       16 </v>
  <v type="int" >       39 </v>
  <v type="int" >       41 </v>
  <v type="int" >      109 </v>
  <v type="int" >      113 </v>
  <v type="int" >       58 </v>
  <v type="int" >       60 </v>
  <v type="int" >       81 </v>
  <v type="int" >      105 </v>
  <v type="int" >       63 </v>
  <v type="int" >      117 </v>
  <v type="int" >      104 </v>
  <v type="int" >      108 </v>
  <v type="int" >      100 </v>
  <v type="int" >      112 </v>
  <v type="int" >      133 </v>
  <v type="int" >      132 </v>
  <v type="int" >      116 </v>
  <v type="int" >      120 </v>
  <v type="int" >       82 </v>
  <v type="int" >       64 </v>
  <v type="int" >        2 </v>
  <v type="int" >       32 </v>
  <v type="int" >       34 </v>
  <v type="int" >       46 </v>
  <v type="int" >       48 </v>
  <v type="int" >       68 </v>
  <v type="int" >       72 </v>
  <v type="int" >       73 </v>
  <v type="int" >       77 </v>
  <v type="int" >       19 </v>
  <v type="int" >       87 </v>
  <v type="int" >       54 </v>
  <v type="int" >       23 </v>
  <v type="int" >       99 </v>
  <v type="int" >      135 </v>
  <v type="int" >      137 </v>
  <v type="int" >      128 </v>
  <v type="int" >      130 </v>
  <v type="int" >       94 </v>
  <v type="int" >      118 </v>
  <v type="int" >        6 </v>
  <v type="int" >        4 </v>
  <v type="int" >       21 </v>
  <v type="int" >      111 </v>
  <v type="int" >       50 </v>
  <v type="int" >       52 </v>
  <v type="int" >      106 </v>
  <v type="int" >       70 </v>
  <v type="int" >       75 </v>
 </varray>
 <kpoints>
  <generation param="Gamma">
   <v type="int" name="divisions">       2        3        3 </v>
   <v name="usershift">      0.00000000       0.00000000       0.00000000 </v>
   <v name="genvec1">      0.50000000       0.00000000      -0.00000000 </v>
   <v name="genvec2">      0.00000000       0.33333333       0.00000000 </v>
   <v name="genvec3">      0.00000000       0.00000000       0.33333333 </v>
   <v name="shift">      0.00000000       0.00000000       0.00000000 </v>
  </generation>
  <varray name="kpointlist" >
   <v>       0.00000000       0.00000000       0.00000000 </v>
   <v>       0.50000000      -0.00000000       0.00000000 </v>
   <v>      -0.00000000       0.33333333      -0.00000000 </v>
   <v>       0.50000000       0.33333333      -0.00000000 </v>
   <v>      -0.00000000       0.00000000       0.33333333 </v>
   <v>       0.50000000       0.00000000       0.33333333 </v>
   <v>      -0.00000000       0.33333333       0.33333333 </v>
   <v>       0.50000000       0.33333333       0.33333333 </v>
   <v>      -0.00000000      -0.33333333       0.33333333 </v>
   <v>       0.50000000      -0.33333333       0.33333333 </v>
  </varray>
  <varray name="weights" >
   <v>       0.05555556 </v>
   <v>       0.05555556 </v>
   <v>       0.11111111 </v>
   <v>       0.11111111 </v>
   <v>       0.11111111 </v>
   <v>       0.11111111 </v>
   <v>       0.11111111 </v>
   <v>       0.11111111 </v>
   <v>       0.11111111 </v>
   <v>       0.11111111 </v>
  </varray>
 </kpoints>
 <parameters>
  <separator name="general" >
   <i type="string" name="SYSTEM">unknown system</i>
   <i type="logical" name="LCOMPAT"> F  </i>
  </separator>
  <separator name="electronic" >
   <i type="string" name="PREC">accura</i>
   <i name="ENMAX">    650.00000000</i>
   <i name="ENAUG">    628.94500000</i>
   <i name="EDIFF">      0.00000100</i>
   <i type="int" name="IALGO">    38</i>
   <i type="int" name="IWAVPR">    10</i>
   <i type="int" name="NBANDS">   728</i>
   <i name="NELECT">   1008.00000000</i>
   <i type="int" name="TURBO">     0</i>
   <i type="int" name="IRESTART">     0</i>
   <i type="int" name="NREBOOT">     0</i>
   <i type="int" name="NMIN">     0</i>
   <i name="EREF">      0.00000000</i>
   <separator name="electronic smearing" >
    <i type="int" name="ISMEAR">     0</i>
    <i name="SIGMA">      0.05000000</i>
    <i name="KSPACING">      0.50000000</i>
    <i type="logical" name="KGAMMA"> T  </i>
   </separator>
   <separator name="electronic projectors" >
    <i type="logical" name="LREAL"> F  </i>
    <v name="ROPT">      0.00000000      0.00000000      0.00000000      0.00000000</v>
    <i type="int" name="LMAXPAW">  -100</i>
    <i type="int" name="LMAXMIX">     4</i>
    <i type="logical" name="NLSPLINE"> F  </i>
   </separator>
   <separator name="electronic startup" >
    <i type="int" name="ISTART">     0</i>
    <i type="int" name="ICHARG">     1</i>
    <i type="int" name="INIWAV">     1</i>
   </separator>
   <separator name="electronic spin" >
    <i type="int" name="ISPIN">     2</i>
    <i type="logical" name="LNONCOLLINEAR"> F  </i>
    <v name="MAGMOM">      0.60000000      0.60000000      0.60000000      0.60000000      0.60000000      0.60000000      0.60000000      0.60000000      0.60000000      0.60000000      0.60000000      0.60000000      0.60000000      0.60000000      0.60000000      0.60000000      0.60000000      0.60000000      0.60000000      0.60000000
      0.60000000      0.60000000      0.60000000      0.60000000      0.60000000      0.60000000      0.60000000      0.60000000      0.60000000      0.60000000      0.60000000      0.60000000      0.60000000      0.60000000      0.60000000      0.60000000      0.60000000      0.60000000      0.60000000      0.60000000
      0.60000000      0.60000000      0.60000000      0.60000000      0.60000000      0.60000000      0.60000000      0.60000000      5.00000000      5.00000000      5.00000000      5.00000000      5.00000000      5.00000000      5.00000000      5.00000000      5.00000000      5.00000000      5.00000000      5.00000000
      5.00000000      5.00000000      5.00000000      5.00000000      5.00000000      5.00000000      5.00000000      5.00000000      5.00000000      5.00000000      5.00000000      5.00000000      5.00000000      5.00000000      5.00000000      5.00000000      5.00000000      5.00000000      5.00000000      5.00000000
      5.00000000      5.00000000      5.00000000      5.00000000      0.60000000      0.60000000      0.60000000      0.60000000      0.60000000      0.60000000      0.60000000      0.60000000      0.60000000      0.60000000      0.60000000      0.60000000      0.60000000      0.60000000      0.60000000      0.60000000
      0.60000000      0.60000000      0.60000000      0.60000000      0.60000000      0.60000000      0.60000000      0.60000000      0.60000000      0.60000000      0.60000000      0.60000000      0.60000000      0.60000000      0.60000000      0.60000000      0.60000000      0.60000000      0.60000000      0.60000000
      0.60000000      0.60000000      0.60000000      0.60000000      0.60000000      0.60000000      0.60000000      0.60000000      0.60000000      0.60000000      0.60000000      0.60000000      0.60000000      0.60000000      0.60000000      0.60000000      0.60000000      0.60000000      0.60000000      0.60000000
      0.60000000      0.60000000      0.60000000      0.60000000</v>
    <i name="NUPDOWN">     -1.00000000</i>
    <i type="logical" name="LSORBIT"> F  </i>
    <v name="SAXIS">      0.00000000      0.00000000      1.00000000</v>
    <i type="logical" name="LSPIRAL"> F  </i>
    <v name="QSPIRAL">      0.00000000      0.00000000      0.00000000</v>
    <i type="logical" name="LZEROZ"> F  </i>
   </separator>
   <separator name="electronic exchange-correlation" >
    <i type="logical" name="LASPH"> T  </i>
    <i type="logical" name="LMETAGGA"> F  </i>
   </separator>
   <separator name="electronic convergence" >
    <i type="int" name="NELM">   200</i>
    <i type="int" name="NELMDL">     0</i>
    <i type="int" name="NELMIN">     8</i>
    <i name="ENINI">    650.00000000</i>
    <separator name="electronic convergence detail" >
     <i type="logical" name="LDIAG"> T  </i>
     <i type="logical" name="LSUBROT"> F  </i>
     <i name="WEIMIN">      0.00000000</i>
     <i name="EBREAK">      0.00000000</i>
     <i name="DEPER">      0.30000000</i>
     <i type="int" name="NRMM">     4</i>
     <i name="TIME">      0.40000000</i>
    </separator>
   </separator>
   <separator name="electronic mixer" >
    <i name="AMIX">      0.40000000</i>
    <i name="BMIX">      1.00000000</i>
    <i name="AMIN">      0.10000000</i>
    <i name="AMIX_MAG">      1.60000000</i>
    <i name="BMIX_MAG">      1.00000000</i>
    <separator name="electronic mixer details" >
     <i type="int" name="IMIX">     4</i>
     <i type="logical" name="MIXFIRST"> F  </i>
     <i type="int" name="MAXMIX">   -45</i>
     <i name="WC">    100.00000000</i>
     <i type="int" name="INIMIX">     1</i>
     <i type="int" name="MIXPRE">     1</i>
     <i type="int" name="MREMOVE">     5</i>
    </separator>
   </separator>
   <separator name="electronic dipolcorrection" >
    <i type="logical" name="LDIPOL"> F  </i>
    <i type="logical" name="LMONO"> F  </i>
    <i type="int" name="IDIPOL">     0</i>
    <i name="EPSILON">      1.00000000</i>
    <v name="DIPOL">   -100.00000000   -100.00000000   -100.00000000</v>
    <i name="EFIELD">      0.00000000</i>
   </separator>
  </separator>
  <separator name="grids" >
   <i type="int" name="NGX">   140</i>
   <i type="int" name="NGY">   108</i>
   <i type="int" name="NGZ">    90</i>
   <i type="int" name="NGXF">   280</i>
   <i type="int" name="NGYF">   216</i>
   <i type="int" name="NGZF">   180</i>
   <i type="logical" name="ADDGRID"> T  </i>
  </separator>
  <separator name="ionic" >
   <i type="int" name="NSW">     0</i>
   <i type="int" name="IBRION">    -1</i>
   <i type="int" name="MDALGO">     0</i>
   <i type="int" name="ISIF">     2</i>
   <i name="PSTRESS">      0.00000000</i>
   <i name="EDIFFG">      0.00001000</i>
   <i type="int" name="NFREE">     0</i>
   <i name="POTIM">      0.50000000</i>
   <i name="SMASS">     -3.00000000</i>
   <i name="SCALEE">      1.00000000</i>
  </separator>
  <separator name="ionic md" >
   <i name="TEBEG">      0.00010000</i>
   <i name="TEEND">      0.00010000</i>
   <i type="int" name="NBLOCK">     1</i>
   <i type="int" name="KBLOCK">     1</i>
   <i type="int" name="NPACO">   256</i>
   <i name="APACO">     16.00000000</i>
  </separator>
  <separator name="symmetry" >
   <i type="int" name="ISYM">     0</i>
   <i name="SYMPREC">      0.00001000</i>
  </separator>
  <separator name="dos" >
   <i type="int" name="LORBIT">     0</i>
   <v name="RWIGS">     -1.00000000     -1.00000000     -1.00000000     -1.00000000</v>
   <i type="int" name="NEDOS">   301</i>
   <i name="EMIN">     10.00000000</i>
   <i name="EMAX">    -10.00000000</i>
   <i name="EFERMI">      0.00000000</i>
  </separator>
  <separator name="writing" >
   <i type="int" name="NWRITE">     1</i>
   <i type="logical" name="LWAVE"> F  </i>
   <i type="logical" name="LDOWNSAMPLE"> F  </i>
   <i type="logical" name="LCHARG"> T  </i>
   <i type="logical" name="LPARD"> F  </i>
   <i type="logical" name="LVTOT"> F  </i>
   <i type="logical" name="LVHAR"> F  </i>
   <i type="logical" name="LELF"> F  </i>
   <i type="logical" name="LOPTICS"> F  </i>
   <v name="STM">      0.00000000      0.00000000      0.00000000      0.00000000      0.00000000      0.00000000      0.00000000</v>
  </separator>
  <separator name="performance" >
   <i type="int" name="NPAR">     4</i>
   <i type="int" name="NSIM">     4</i>
   <i type="int" name="NBLK">    -1</i>
   <i type="logical" name="LPLANE"> T  </i>
   <i type="logical" name="LSCALAPACK"> T  </i>
   <i type="logical" name="LSCAAWARE"> F  </i>
   <i type="logical" name="LSCALU"> F  </i>
   <i type="logical" name="LASYNC"> F  </i>
   <i type="logical" name="LORBITALREAL"> F  </i>
  </separator>
  <separator name="miscellaneous" >
   <i type="int" name="IDIOT">     3</i>
   <i type="int" name="ISPECIAL">     0</i>
   <i type="logical" name="LMUSIC"> F  </i>
   <v name="POMASS">      7.01000000     55.84700000     32.06600000     16.00000000</v>
   <v name="DARWINR">      0.00000000      0.00000000      0.00000000      0.00000000</v>
   <v name="DARWINV">      1.00000000      1.00000000      1.00000000      1.00000000</v>
   <i type="logical" name="LCORR"> T  </i>
  </separator>
  <i type="logical" name="GGA_COMPAT"> T  </i>
  <i type="logical" name="LBERRY"> F  </i>
  <i type="int" name="ICORELEVEL">     0</i>
  <i type="logical" name="LDAU"> T  </i>
  <v type="int" name="LDAUTYPE">     2</v>
  <v type="int" name="LDAUL">    -1</v>
  <v name="LDAUU">      0.00000000</v>
  <v name="LDAUJ">      0.00000000</v>
  <i type="int" name="LDAUPRINT">     0</i>
  <i type="int" name="I_CONSTRAINED_M">     0</i>
  <separator name="electronic exchange-correlation" >
   <i type="string" name="GGA">PE</i>
   <i type="int" name="VOSKOWN">     0</i>
   <i type="logical" name="LHFCALC"> F  </i>
   <i type="string" name="PRECFOCK"></i>
   <i type="logical" name="LSYMGRAD"> F  </i>
   <i type="logical" name="LHFONE"> F  </i>
   <i type="logical" name="LRHFCALC"> F  </i>
   <i type="logical" name="LTHOMAS"> F  </i>
   <i type="logical" name="LMODELHF"> F  </i>
   <i name="ENCUT4O">     -1.00000000</i>
   <i type="int" name="EXXOEP">     0</i>
   <i type="int" name="FOURORBIT">     0</i>
   <i name="AEXX">      0.00000000</i>
   <i name="HFALPHA">      0.00000000</i>
   <i name="MCALPHA">      0.00000000</i>
   <i name="ALDAX">      1.00000000</i>
   <i name="AGGAX">      1.00000000</i>
   <i name="ALDAC">      1.00000000</i>
   <i name="AGGAC">      1.00000000</i>
   <i type="int" name="NKREDX">     1</i>
   <i type="int" name="NKREDY">     1</i>
   <i type="int" name="NKREDZ">     1</i>
   <i type="logical" name="SHIFTRED"> F  </i>
   <i type="logical" name="ODDONLY"> F  </i>
   <i type="logical" name="EVENONLY"> F  </i>
   <i type="int" name="LMAXFOCK">     0</i>
   <i type="int" name="NMAXFOCKAE">     0</i>
   <i type="logical" name="LFOCKAEDFT"> F  </i>
   <i name="HFSCREEN">      0.00000000</i>
   <i name="HFSCREENC">      0.00000000</i>
   <i type="int" name="NBANDSGWLOW">     0</i>
  </separator>
  <separator name="vdW DFT" >
   <i type="logical" name="LUSE_VDW"> F  </i>
   <i name="Zab_VDW">     -0.84910000</i>
   <i name="PARAM1">      0.12340000</i>
   <i name="PARAM2">      1.00000000</i>
   <i name="PARAM3">      0.00000000</i>
  </separator>
  <separator name="model GW" >
   <i type="int" name="MODEL_GW">     0</i>
   <i name="MODEL_EPS0">      7.95228621</i>
   <i name="MODEL_ALPHA">      1.00000000</i>
  </separator>
  <separator name="linear response parameters" >
   <i type="logical" name="LEPSILON"> F  </i>
   <i type="logical" name="LRPA"> F  </i>
   <i type="logical" name="LNABLA"> F  </i>
   <i type="logical" name="LVEL"> F  </i>
   <i type="int" name="KINTER">     0</i>
   <i name="CSHIFT">      0.10000000</i>
   <i name="OMEGAMAX">     -1.00000000</i>
   <i name="DEG_THRESHOLD">      0.00200000</i>
   <i name="RTIME">     -0.10000000</i>
   <i name="WPLASMAI">      0.00000000</i>
   <v name="DFIELD">      0.00000000      0.00000000      0.00000000</v>
   <v name="WPLASMA">      0.00000000      0.00000000      0.00000000      0.00000000      0.00000000      0.00000000      0.00000000      0.00000000      0.00000000</v>
  </separator>
  <separator name="orbital magnetization" >
   <i type="logical" name="NUCIND"> F  </i>
   <v name="MAGPOS">      0.00000000      0.00000000      0.00000000</v>
   <i type="logical" name="LNICSALL"> T  </i>
   <i type="logical" name="ORBITALMAG"> F  </i>
   <i type="logical" name="LMAGBLOCH"> F  </i>
   <i type="logical" name="LCHIMAG"> F  </i>
   <i type="logical" name="LGAUGE"> T  </i>
   <i type="int" name="MAGATOM">     0</i>
   <v name="MAGDIPOL">      0.00000000      0.00000000      0.00000000</v>
   <v name="AVECCONST">      0.00000000      0.00000000      0.00000000</v>
  </separator>
  <separator name="response functions" >
   <i type="logical" name="LADDER"> F  </i>
   <i type="logical" name="LRPAFORCE"> F  </i>
   <i type="logical" name="LFXC"> F  </i>
   <i type="logical" name="LHARTREE"> T  </i>
   <i type="int" name="IBSE">     0</i>
   <v type="int" name="KPOINT">    -1     0     0     0</v>
   <i type="logical" name="LTCTE"> F  </i>
   <i type="logical" name="LTETE"> F  </i>
   <i type="logical" name="LTRIPLET"> F  </i>
   <i type="logical" name="LFXCEPS"> F  </i>
   <i type="logical" name="LFXHEG"> F  </i>
   <i type="int" name="NATURALO">     2</i>
   <i type="logical" name="L2ORDER"> F  </i>
   <i type="logical" name="LMP2LT"> F  </i>
   <i type="logical" name="LUSEW"> F  </i>
   <i name="ENCUTGW">     -2.00000000</i>
   <i name="ENCUTGWSOFT">     -2.00000000</i>
   <i name="ENCUTLF">     -1.00000000</i>
   <i type="int" name="LMAXMP2">    -1</i>
   <i name="SCISSOR">      0.00000000</i>
   <i type="int" name="NOMEGA">     0</i>
   <i type="int" name="NOMEGAR">     0</i>
   <i type="int" name="NBANDSGW">    -1</i>
   <i type="int" name="NBANDSO">    -1</i>
   <i type="int" name="NBANDSV">    -1</i>
   <i type="int" name="NELM">   200</i>
   <i type="int" name="NELMHF">     1</i>
   <i type="int" name="DIM">     3</i>
   <i type="int" name="ANTIRES">     0</i>
   <i name="OMEGAMAX">    -30.00000000</i>
   <i name="OMEGAMIN">    -30.00000000</i>
   <i name="OMEGATL">   -200.00000000</i>
   <i type="int" name="OMEGAGRID">   140</i>
   <i name="CSHIFT">     -0.10000000</i>
   <i type="logical" name="SELFENERGY"> F  </i>
   <i type="logical" name="LSPECTRAL"> F  </i>
   <i type="logical" name="LSPECTRALGW"> F  </i>
   <i type="logical" name="LSINGLES"> F  </i>
   <i type="logical" name="LFERMIGW"> F  </i>
   <i type="logical" name="ODDONLYGW"> F  </i>
   <i type="logical" name="EVENONLYGW"> F  </i>
   <i type="int" name="NKREDLFX">     1</i>
   <i type="int" name="NKREDLFY">     1</i>
   <i type="int" name="NKREDLFZ">     1</i>
   <i type="int" name="MAXMEM">  2800</i>
   <i type="int" name="TELESCOPE">     0</i>
   <i type="int" name="TAUPAR">     1</i>
   <i type="int" name="OMEGAPAR">    -1</i>
   <i name="LAMBDA">      1.00000000</i>
  </separator>
  <separator name="External order field" >
   <i name="OFIELD_KAPPA">      0.00000000</i>
   <v name="OFIELD_K">      0.00000000      0.00000000      0.00000000</v>
   <i name="OFIELD_Q6_NEAR">      0.00000000</i>
   <i name="OFIELD_Q6_FAR">      0.00000000</i>
   <i name="OFIELD_A">      0.00000000</i>
  </separator>
 </parameters>
 <atominfo>
  <atoms>     144 </atoms>
  <types>       4 </types>
  <array name="atoms" >
   <dimension dim="1">ion</dimension>
   <field type="string">element</field>
   <field type="int">atomtype</field>
   <set>
    <rc><c>Li</c><c>   1</c></rc>
    <rc><c>Li</c><c>   1</c></rc>
    <rc><c>Li</c><c>   1</c></rc>
    <rc><c>Li</c><c>   1</c></rc>
    <rc><c>Li</c><c>   1</c></rc>
    <rc><c>Li</c><c>   1</c></rc>
    <rc><c>Li</c><c>   1</c></rc>
    <rc><c>Li</c><c>   1</c></rc>
    <rc><c>Li</c><c>   1</c></rc>
    <rc><c>Li</c><c>   1</c></rc>
    <rc><c>Li</c><c>   1</c></rc>
    <rc><c>Li</c><c>   1</c></rc>
    <rc><c>Li</c><c>   1</c></rc>
    <rc><c>Li</c><c>   1</c></rc>
    <rc><c>Li</c><c>   1</c></rc>
    <rc><c>Li</c><c>   1</c></rc>
    <rc><c>Li</c><c>   1</c></rc>
    <rc><c>Li</c><c>   1</c></rc>
    <rc><c>Li</c><c>   1</c></rc>
    <rc><c>Li</c><c>   1</c></rc>
    <rc><c>Li</c><c>   1</c></rc>
    <rc><c>Li</c><c>   1</c></rc>
    <rc><c>Li</c><c>   1</c></rc>
    <rc><c>Li</c><c>   1</c></rc>
    <rc><c>Li</c><c>   1</c></rc>
    <rc><c>Li</c><c>   1</c></rc>
    <rc><c>Li</c><c>   1</c></rc>
    <rc><c>Li</c><c>   1</c></rc>
    <rc><c>Li</c><c>   1</c></rc>
    <rc><c>Li</c><c>   1</c></rc>
    <rc><c>Li</c><c>   1</c></rc>
    <rc><c>Li</c><c>   1</c></rc>
    <rc><c>Li</c><c>   1</c></rc>
    <rc><c>Li</c><c>   1</c></rc>
    <rc><c>Li</c><c>   1</c></rc>
    <rc><c>Li</c><c>   1</c></rc>
    <rc><c>Li</c><c>   1</c></rc>
    <rc><c>Li</c><c>   1</c></rc>
    <rc><c>Li</c><c>   1</c></rc>
    <rc><c>Li</c><c>   1</c></rc>
    <rc><c>Li</c><c>   1</c></rc>
    <rc><c>Li</c><c>   1</c></rc>
    <rc><c>Li</c><c>   1</c></rc>
    <rc><c>Li</c><c>   1</c></rc>
    <rc><c>Li</c><c>   1</c></rc>
    <rc><c>Li</c><c>   1</c></rc>
    <rc><c>Li</c><c>   1</c></rc>
    <rc><c>Li</c><c>   1</c></rc>
    <rc><c>Fe</c><c>   2</c></rc>
    <rc><c>Fe</c><c>   2</c></rc>
    <rc><c>Fe</c><c>   2</c></rc>
    <rc><c>Fe</c><c>   2</c></rc>
    <rc><c>Fe</c><c>   2</c></rc>
    <rc><c>Fe</c><c>   2</c></rc>
    <rc><c>Fe</c><c>   2</c></rc>
    <rc><c>Fe</c><c>   2</c></rc>
    <rc><c>Fe</c><c>   2</c></rc>
    <rc><c>Fe</c><c>   2</c></rc>
    <rc><c>Fe</c><c>   2</c></rc>
    <rc><c>Fe</c><c>   2</c></rc>
    <rc><c>Fe</c><c>   2</c></rc>
    <rc><c>Fe</c><c>   2</c></rc>
    <rc><c>Fe</c><c>   2</c></rc>
    <rc><c>Fe</c><c>   2</c></rc>
    <rc><c>Fe</c><c>   2</c></rc>
    <rc><c>Fe</c><c>   2</c></rc>
    <rc><c>Fe</c><c>   2</c></rc>
    <rc><c>Fe</c><c>   2</c></rc>
    <rc><c>Fe</c><c>   2</c></rc>
    <rc><c>Fe</c><c>   2</c></rc>
    <rc><c>Fe</c><c>   2</c></rc>
    <rc><c>Fe</c><c>   2</c></rc>
    <rc><c>Fe</c><c>   2</c></rc>
    <rc><c>Fe</c><c>   2</c></rc>
    <rc><c>Fe</c><c>   2</c></rc>
    <rc><c>Fe</c><c>   2</c></rc>
    <rc><c>Fe</c><c>   2</c></rc>
    <rc><c>Fe</c><c>   2</c></rc>
    <rc><c>Fe</c><c>   2</c></rc>
    <rc><c>Fe</c><c>   2</c></rc>
    <rc><c>Fe</c><c>   2</c></rc>
    <rc><c>Fe</c><c>   2</c></rc>
    <rc><c>Fe</c><c>   2</c></rc>
    <rc><c>Fe</c><c>   2</c></rc>
    <rc><c>S </c><c>   3</c></rc>
    <rc><c>S </c><c>   3</c></rc>
    <rc><c>S </c><c>   3</c></rc>
    <rc><c>S </c><c>   3</c></rc>
    <rc><c>S </c><c>   3</c></rc>
    <rc><c>S </c><c>   3</c></rc>
    <rc><c>S </c><c>   3</c></rc>
    <rc><c>S </c><c>   3</c></rc>
    <rc><c>S </c><c>   3</c></rc>
    <rc><c>S </c><c>   3</c></rc>
    <rc><c>S </c><c>   3</c></rc>
    <rc><c>S </c><c>   3</c></rc>
    <rc><c>S </c><c>   3</c></rc>
    <rc><c>S </c><c>   3</c></rc>
    <rc><c>S </c><c>   3</c></rc>
    <rc><c>S </c><c>   3</c></rc>
    <rc><c>S </c><c>   3</c></rc>
    <rc><c>S </c><c>   3</c></rc>
    <rc><c>S </c><c>   3</c></rc>
    <rc><c>S </c><c>   3</c></rc>
    <rc><c>S </c><c>   3</c></rc>
    <rc><c>S </c><c>   3</c></rc>
    <rc><c>S </c><c>   3</c></rc>
    <rc><c>S </c><c>   3</c></rc>
    <rc><c>S </c><c>   3</c></rc>
    <rc><c>S </c><c>   3</c></rc>
    <rc><c>S </c><c>   3</c></rc>
    <rc><c>S </c><c>   3</c></rc>
    <rc><c>S </c><c>   3</c></rc>
    <rc><c>S </c><c>   3</c></rc>
    <rc><c>S </c><c>   3</c></rc>
    <rc><c>S </c><c>   3</c></rc>
    <rc><c>S </c><c>   3</c></rc>
    <rc><c>S </c><c>   3</c></rc>
    <rc><c>S </c><c>   3</c></rc>
    <rc><c>S </c><c>   3</c></rc>
    <rc><c>O </c><c>   4</c></rc>
    <rc><c>O </c><c>   4</c></rc>
    <rc><c>O </c><c>   4</c></rc>
    <rc><c>O </c><c>   4</c></rc>
    <rc><c>O </c><c>   4</c></rc>
    <rc><c>O </c><c>   4</c></rc>
    <rc><c>O </c><c>   4</c></rc>
    <rc><c>O </c><c>   4</c></rc>
    <rc><c>O </c><c>   4</c></rc>
    <rc><c>O </c><c>   4</c></rc>
    <rc><c>O </c><c>   4</c></rc>
    <rc><c>O </c><c>   4</c></rc>
    <rc><c>O </c><c>   4</c></rc>
    <rc><c>O </c><c>   4</c></rc>
    <rc><c>O </c><c>   4</c></rc>
    <rc><c>O </c><c>   4</c></rc>
    <rc><c>O </c><c>   4</c></rc>
    <rc><c>O </c><c>   4</c></rc>
    <rc><c>O </c><c>   4</c></rc>
    <rc><c>O </c><c>   4</c></rc>
    <rc><c>O </c><c>   4</c></rc>
    <rc><c>O </c><c>   4</c></rc>
    <rc><c>O </c><c>   4</c></rc>
    <rc><c>O </c><c>   4</c></rc>
   </set>
  </array>
  <array name="atomtypes" >
   <dimension dim="1">type</dimension>
   <field type="int">atomspertype</field>
   <field type="string">element</field>
   <field>mass</field>
   <field>valence</field>
   <field type="string">pseudopotential</field>
   <set>
    <rc><c>  48</c><c>Li</c><c>      7.01000000</c><c>      3.00000000</c><c>  PAW_PBE Li_sv 10Sep2004               </c></rc>
    <rc><c>  36</c><c>Fe</c><c>     55.84700000</c><c>     14.00000000</c><c>  PAW_PBE Fe_pv 02Aug2007               </c></rc>
    <rc><c>  36</c><c>S </c><c>     32.06600000</c><c>      6.00000000</c><c>  PAW_PBE S 06Sep2000                   </c></rc>
    <rc><c>  24</c><c>O </c><c>     16.00000000</c><c>      6.00000000</c><c>  PAW_PBE O 08Apr2002                   </c></rc>
   </set>
  </array>
 </atominfo>
 <structure name="initialpos" >
  <crystal>
   <varray name="basis" >
    <v>      15.21162830       0.00516956      -2.78361592 </v>
    <v>      -0.40798665      11.93565774      -2.20735884 </v>
    <v>      -0.06175567      -0.11168197      10.54442638 </v>
   </varray>
   <i name="volume">   1908.54869108 </i>
   <varray name="rec_basis" >
    <v>       0.06581343       0.00232549       0.00041008 </v>
    <v>       0.00013433       0.08395174       0.00088997 </v>
    <v>       0.01740216       0.01818827       0.09513139 </v>
   </varray>
  </crystal>
  <varray name="positions" >
   <v>       0.47527516       0.00074367       0.00446200 </v>
   <v>       0.97527516       0.00074367       0.00446200 </v>
   <v>       0.47527516       0.33407700       0.00446200 </v>
   <v>       0.97527516       0.33407700       0.00446200 </v>
   <v>       0.47527516       0.66741034       0.00446200 </v>
   <v>       0.97527516       0.66741034       0.00446200 </v>
   <v>       0.27472484       0.33258966       0.99553800 </v>
   <v>       0.77472484       0.33258966       0.99553800 </v>
   <v>       0.27472484       0.66592300       0.99553800 </v>
   <v>       0.77472484       0.66592300       0.99553800 </v>
   <v>       0.27472484       0.99925633       0.99553800 </v>
   <v>       0.77472484       0.99925633       0.99553800 </v>
   <v>       0.17788805       0.26797179       0.60783074 </v>
   <v>       0.67788805       0.26797179       0.60783074 </v>
   <v>       0.17788805       0.60130513       0.60783074 </v>
   <v>       0.67788805       0.60130513       0.60783074 </v>
   <v>       0.17788805       0.93463846       0.60783074 </v>
   <v>       0.67788805       0.93463846       0.60783074 </v>
   <v>       0.07211195       0.06536154       0.39216926 </v>
   <v>       0.57211195       0.06536154       0.39216926 </v>
   <v>       0.07211195       0.39869487       0.39216926 </v>
   <v>       0.57211195       0.39869487       0.39216926 </v>
   <v>       0.07211195       0.73202821       0.39216926 </v>
   <v>       0.57211195       0.73202821       0.39216926 </v>
   <v>       0.10733875       0.30765571       0.84593428 </v>
   <v>       0.60733875       0.30765571       0.84593428 </v>
   <v>       0.10733875       0.64098905       0.84593428 </v>
   <v>       0.60733875       0.64098905       0.84593428 </v>
   <v>       0.10733875       0.97432238       0.84593428 </v>
   <v>       0.60733875       0.97432238       0.84593428 </v>
   <v>       0.34529081       0.29539312       0.77235872 </v>
   <v>       0.84464416       0.29539312       0.77235872 </v>
   <v>       0.34464416       0.62872645       0.77235872 </v>
   <v>       0.84464416       0.62872645       0.77235872 </v>
   <v>       0.34464416       0.96205979       0.77235872 </v>
   <v>       0.84464416       0.96205979       0.77235872 </v>
   <v>       0.14266125       0.02567762       0.15406572 </v>
   <v>       0.64266125       0.02567762       0.15406572 </v>
   <v>       0.14266125       0.35901095       0.15406572 </v>
   <v>       0.64266125       0.35901095       0.15406572 </v>
   <v>       0.14266125       0.69234429       0.15406572 </v>
   <v>       0.64266125       0.69234429       0.15406572 </v>
   <v>       0.40535584       0.03794021       0.22764128 </v>
   <v>       0.90535584       0.03794021       0.22764128 </v>
   <v>       0.40535584       0.37127355       0.22764128 </v>
   <v>       0.90535584       0.37127355       0.22764128 </v>
   <v>       0.40535584       0.70460688       0.22764128 </v>
   <v>       0.90535584       0.70460688       0.22764128 </v>
   <v>       0.46517249       0.26691416       0.60148498 </v>
   <v>       0.96517249       0.26691416       0.60148498 </v>
   <v>       0.46517249       0.60024750       0.60148498 </v>
   <v>       0.96517249       0.60024750       0.60148498 </v>
   <v>       0.46517249       0.93358083       0.60148498 </v>
   <v>       0.96517249       0.93358083       0.60148498 </v>
   <v>       0.28482751       0.06641917       0.39851502 </v>
   <v>       0.78482751       0.06641917       0.39851502 </v>
   <v>       0.28482751       0.39975250       0.39851502 </v>
   <v>       0.78482751       0.39975250       0.39851502 </v>
   <v>       0.28482751       0.73308584       0.39851502 </v>
   <v>       0.78482751       0.73308584       0.39851502 </v>
   <v>       0.22447416       0.13353711       0.80122268 </v>
   <v>       0.72447416       0.13353711       0.80122268 </v>
   <v>       0.22447416       0.46687045       0.80122268 </v>
   <v>       0.72447416       0.46687045       0.80122268 </v>
   <v>       0.22447416       0.80020378       0.80122268 </v>
   <v>       0.72447416       0.80020378       0.80122268 </v>
   <v>       0.47796479       0.13582521       0.81495126 </v>
   <v>       0.97796479       0.13582521       0.81495126 </v>
   <v>       0.47796479       0.46915854       0.81495126 </v>
   <v>       0.97796479       0.46915854       0.81495126 </v>
   <v>       0.47796479       0.80249188       0.81495126 </v>
   <v>       0.97796479       0.80249188       0.81495126 </v>
   <v>       0.02552584       0.19979622       0.19877732 </v>
   <v>       0.52552584       0.19979622       0.19877732 </v>
   <v>       0.02552584       0.53312955       0.19877732 </v>
   <v>       0.52552584       0.53312955       0.19877732 </v>
   <v>       0.02552584       0.86646289       0.19877732 </v>
   <v>       0.52552584       0.86646289       0.19877732 </v>
   <v>       0.27203521       0.19750812       0.18504874 </v>
   <v>       0.77203521       0.19750812       0.18504874 </v>
   <v>       0.27203521       0.53084146       0.18504874 </v>
   <v>       0.77203521       0.53084146       0.18504874 </v>
   <v>       0.27203521       0.86417479       0.18504874 </v>
   <v>       0.77203521       0.86417479       0.18504874 </v>
   <v>       0.12500000       0.16666667       0.00000000 </v>
   <v>       0.62500000       0.16666667       0.00000000 </v>
   <v>       0.12500000       0.50000000       0.00000000 </v>
   <v>       0.62500000       0.50000000       0.00000000 </v>
   <v>       0.12500000       0.83333333       0.00000000 </v>
   <v>       0.62500000       0.83333333       0.00000000 </v>
   <v>       0.37500000       0.16666667       0.00000000 </v>
   <v>       0.87500000       0.16666667       0.00000000 </v>
   <v>       0.37500000       0.50000000       0.00000000 </v>
   <v>       0.87500000       0.50000000       0.00000000 </v>
   <v>       0.37500000       0.83333333       0.00000000 </v>
   <v>       0.87500000       0.83333333       0.00000000 </v>
   <v>       0.17614737       0.22809805       0.36858830 </v>
   <v>       0.67614737       0.22809805       0.36858830 </v>
   <v>       0.17614737       0.56143138       0.36858830 </v>
   <v>       0.67614737       0.56143138       0.36858830 </v>
   <v>       0.17614737       0.89476472       0.36858830 </v>
   <v>       0.67614737       0.89476472       0.36858830 </v>
   <v>       0.41542106       0.22793643       0.36761855 </v>
   <v>       0.91542106       0.22793643       0.36761855 </v>
   <v>       0.41542106       0.56126976       0.36761855 </v>
   <v>       0.91542106       0.56126976       0.36761855 </v>
   <v>       0.41542106       0.89460309       0.36761855 </v>
   <v>       0.91542106       0.89460309       0.36761855 </v>
   <v>       0.07385263       0.10523528       0.63141170 </v>
   <v>       0.57385263       0.10523528       0.63141170 </v>
   <v>       0.07385263       0.43856862       0.63141170 </v>
   <v>       0.57385263       0.43856862       0.63141170 </v>
   <v>       0.07385263       0.77190195       0.63141170 </v>
   <v>       0.57385263       0.77190195       0.63141170 </v>
   <v>       0.33457894       0.10539691       0.63238145 </v>
   <v>       0.83457894       0.10539691       0.63238145 </v>
   <v>       0.33457894       0.43873024       0.63238145 </v>
   <v>       0.83457894       0.43873024       0.63238145 </v>
   <v>       0.33457894       0.77206357       0.63238145 </v>
   <v>       0.83457894       0.77206357       0.63238145 </v>
   <v>       0.22527003       0.30093342       0.80560053 </v>
   <v>       0.72527003       0.30093342       0.80560053 </v>
   <v>       0.22527003       0.63426676       0.80560053 </v>
   <v>       0.72527003       0.63426676       0.80560053 </v>
   <v>       0.22527003       0.96760009       0.80560053 </v>
   <v>       0.72527003       0.96760009       0.80560053 </v>
   <v>       0.47618324       0.30143353       0.80860116 </v>
   <v>       0.97618324       0.30143353       0.80860116 </v>
   <v>       0.47618324       0.63476686       0.80860116 </v>
   <v>       0.97618324       0.63476686       0.80860116 </v>
   <v>       0.47618324       0.96810019       0.80860116 </v>
   <v>       0.97618324       0.96810019       0.80860116 </v>
   <v>       0.02472997       0.03239991       0.19439947 </v>
   <v>       0.52472997       0.03239991       0.19439947 </v>
   <v>       0.02472997       0.36573324       0.19439947 </v>
   <v>       0.52472997       0.36573324       0.19439947 </v>
   <v>       0.02472997       0.69906658       0.19439947 </v>
   <v>       0.52472997       0.69906658       0.19439947 </v>
   <v>       0.27381676       0.03189981       0.19139884 </v>
   <v>       0.77381676       0.03189981       0.19139884 </v>
   <v>       0.27381676       0.36523314       0.19139884 </v>
   <v>       0.77381676       0.36523314       0.19139884 </v>
   <v>       0.27381676       0.69856647       0.19139884 </v>
   <v>       0.77381676       0.69856647       0.19139884 </v>
  </varray>
 </structure>
 <calculation>
  <scstep>
   <time name="dav">  341.34  345.74</time>
   <time name="total">  343.97  348.40</time>
   <energy>
    <i name="alphaZ">   2668.72143546 </i>
    <i name="ewald"> -68025.55122745 </i>
    <i name="hartreedc"> -39875.69783787 </i>
    <i name="XCdc">   4298.62164722 </i>
    <i name="pawpsdc"> 114383.84820647 </i>
    <i name="pawaedc">-118048.71515856 </i>
    <i name="eentropy">     -0.02973048 </i>
    <i name="bandstr">   -564.35837435 </i>
    <i name="atom"> 118542.86816856 </i>
    <i name="e_fr_energy">  13379.70712901 </i>
    <i name="e_wo_entrp">  13379.73685948 </i>
    <i name="e_0_energy">  13379.72199424 </i>
   </energy>
  </scstep>
  <scstep>
   <time name="dav">  329.13  333.32</time>
   <time name="total">  329.13  333.33</time>
   <energy>
    <i name="e_fr_energy">   1421.86913181 </i>
    <i name="e_wo_entrp">   1421.95397055 </i>
    <i name="e_0_energy">   1421.91155118 </i>
   </energy>
  </scstep>
  <scstep>
   <time name="dav">  354.32  358.63</time>
   <time name="total">  354.32  358.63</time>
   <energy>
    <i name="e_fr_energy">   -473.21988214 </i>
    <i name="e_wo_entrp">   -473.21988214 </i>
    <i name="e_0_energy">   -473.21988214 </i>
   </energy>
  </scstep>
  <scstep>
   <time name="dav">  396.13  400.49</time>
   <time name="total">  396.13  400.49</time>
   <energy>
    <i name="e_fr_energy">   -715.95932381 </i>
    <i name="e_wo_entrp">   -715.95932381 </i>
    <i name="e_0_energy">   -715.95932381 </i>
   </energy>
  </scstep>
  <scstep>
   <time name="dav">  522.67  529.05</time>
   <time name="total">  533.38  539.87</time>
   <energy>
    <i name="e_fr_energy">   -745.36880668 </i>
    <i name="e_wo_entrp">   -745.36880668 </i>
    <i name="e_0_energy">   -745.36880668 </i>
   </energy>
  </scstep>
  <scstep>
   <time name="dav">  415.46  420.40</time>
   <time name="total">  428.69  433.84</time>
   <energy>
    <i name="e_fr_energy">   -746.58198789 </i>
    <i name="e_wo_entrp">   -746.58198789 </i>
    <i name="e_0_energy">   -746.58198789 </i>
   </energy>
  </scstep>
  <scstep>
   <time name="dav">  474.46  480.24</time>
   <time name="total">  487.78  493.73</time>
   <energy>
    <i name="e_fr_energy">   -746.63634833 </i>
    <i name="e_wo_entrp">   -746.63634833 </i>
    <i name="e_0_energy">   -746.63634833 </i>
   </energy>
  </scstep>
  <scstep>
   <time name="dav">  447.19  452.39</time>
   <time name="total">  460.65  465.90</time>
   <energy>
    <i name="e_fr_energy">   -746.63556933 </i>
    <i name="e_wo_entrp">   -746.63556933 </i>
    <i name="e_0_energy">   -746.63556933 </i>
   </energy>
  </scstep>
  <scstep>
   <time name="dav">  472.38  477.87</time>
   <time name="total">  485.92  491.47</time>
   <energy>
    <i name="e_fr_energy">   -746.63496698 </i>
    <i name="e_wo_entrp">   -746.63496698 </i>
    <i name="e_0_energy">   -746.63496698 </i>
   </energy>
  </scstep>
  <scstep>
   <time name="dav">  454.43  459.58</time>
   <time name="total">  467.76  473.05</time>
   <energy>
    <i name="e_fr_energy">   -746.63414850 </i>
    <i name="e_wo_entrp">   -746.63414850 </i>
    <i name="e_0_energy">   -746.63414850 </i>
   </energy>
  </scstep>
  <scstep>
   <time name="dav">  496.84  502.62</time>
   <time name="total">  510.25  516.19</time>
   <energy>
    <i name="e_fr_energy">   -746.63191102 </i>
    <i name="e_wo_entrp">   -746.63191102 </i>
    <i name="e_0_energy">   -746.63191102 </i>
   </energy>
  </scstep>
  <scstep>
   <time name="dav">  368.85  373.37</time>
   <time name="total">  382.16  386.91</time>
   <energy>
    <i name="e_fr_energy">   -746.63150577 </i>
    <i name="e_wo_entrp">   -746.63150577 </i>
    <i name="e_0_energy">   -746.63150577 </i>
   </energy>
  </scstep>
  <scstep>
   <time name="dav">  425.16  429.80</time>
   <time name="total">  438.56  443.34</time>
   <energy>
    <i name="e_fr_energy">   -746.63127800 </i>
    <i name="e_wo_entrp">   -746.63127800 </i>
    <i name="e_0_energy">   -746.63127800 </i>
   </energy>
  </scstep>
  <scstep>
   <time name="dav">  419.86  425.09</time>
   <time name="total">  433.35  438.63</time>
   <energy>
    <i name="e_fr_energy">   -746.63123563 </i>
    <i name="e_wo_entrp">   -746.63123563 </i>
    <i name="e_0_energy">   -746.63123563 </i>
   </energy>
  </scstep>
  <scstep>
   <time name="dav">  311.86  314.73</time>
   <time name="total">  325.22  328.26</time>
   <energy>
    <i name="e_fr_energy">   -746.63112440 </i>
    <i name="e_wo_entrp">   -746.63112440 </i>
    <i name="e_0_energy">   -746.63112440 </i>
   </energy>
  </scstep>
  <scstep>
   <time name="dav">  465.95  472.13</time>
   <time name="total">  479.24  485.68</time>
   <energy>
    <i name="e_fr_energy">   -746.63087183 </i>
    <i name="e_wo_entrp">   -746.63087183 </i>
    <i name="e_0_energy">   -746.63087183 </i>
   </energy>
  </scstep>
  <scstep>
   <time name="dav">  365.51  369.86</time>
   <time name="total">  378.97  383.44</time>
   <energy>
    <i name="e_fr_energy">   -746.63086765 </i>
    <i name="e_wo_entrp">   -746.63086765 </i>
    <i name="e_0_energy">   -746.63086765 </i>
   </energy>
  </scstep>
  <scstep>
   <time name="dav">  369.47  373.67</time>
   <time name="total">  382.89  387.21</time>
   <energy>
    <i name="e_fr_energy">   -746.63086909 </i>
    <i name="e_wo_entrp">   -746.63086909 </i>
    <i name="e_0_energy">   -746.63086909 </i>
   </energy>
  </scstep>
  <scstep>
   <time name="dav">  243.53  246.32</time>
   <time name="total">  256.91  259.79</time>
   <energy>
    <i name="e_fr_energy">   -746.63087016 </i>
    <i name="e_wo_entrp">   -746.63087016 </i>
    <i name="e_0_energy">   -746.63087016 </i>
   </energy>
  </scstep>
  <scstep>
   <time name="dav">  234.47  237.07</time>
   <time name="total">  237.06  239.69</time>
   <energy>
    <i name="alphaZ">   2668.72143546 </i>
    <i name="ewald"> -68025.55122745 </i>
    <i name="hartreedc"> -39875.67617718 </i>
    <i name="XCdc">   4298.61261207 </i>
    <i name="pawpsdc"> 114381.57780105 </i>
    <i name="pawaedc">-118046.38922015 </i>
    <i name="eentropy">     -0.00000000 </i>
    <i name="bandstr"> -14690.79426351 </i>
    <i name="atom"> 118542.86816856 </i>
    <i name="e_fr_energy">   -746.63087115 </i>
    <i name="e_wo_entrp">   -746.63087115 </i>
    <i name="e_0_energy">   -746.63087115 </i>
   </energy>
  </scstep>
  <structure>
   <crystal>
    <varray name="basis" >
     <v>      15.21162830       0.00516956      -2.78361592 </v>
     <v>      -0.40798665      11.93565774      -2.20735884 </v>
     <v>      -0.06175567      -0.11168197      10.54442638 </v>
    </varray>
    <i name="volume">   1908.54869108 </i>
    <varray name="rec_basis" >
     <v>       0.06581343       0.00232549       0.00041008 </v>
     <v>       0.00013433       0.08395174       0.00088997 </v>
     <v>       0.01740216       0.01818827       0.09513139 </v>
    </varray>
   </crystal>
   <varray name="positions" >
    <v>       0.47527516       0.00074367       0.00446200 </v>
    <v>       0.97527516       0.00074367       0.00446200 </v>
    <v>       0.47527516       0.33407700       0.00446200 </v>
    <v>       0.97527516       0.33407700       0.00446200 </v>
    <v>       0.47527516       0.66741034       0.00446200 </v>
    <v>       0.97527516       0.66741034       0.00446200 </v>
    <v>       0.27472484       0.33258966       0.99553800 </v>
    <v>       0.77472484       0.33258966       0.99553800 </v>
    <v>       0.27472484       0.66592300       0.99553800 </v>
    <v>       0.77472484       0.66592300       0.99553800 </v>
    <v>       0.27472484       0.99925633       0.99553800 </v>
    <v>       0.77472484       0.99925633       0.99553800 </v>
    <v>       0.17788805       0.26797179       0.60783074 </v>
    <v>       0.67788805       0.26797179       0.60783074 </v>
    <v>       0.17788805       0.60130513       0.60783074 </v>
    <v>       0.67788805       0.60130513       0.60783074 </v>
    <v>       0.17788805       0.93463846       0.60783074 </v>
    <v>       0.67788805       0.93463846       0.60783074 </v>
    <v>       0.07211195       0.06536154       0.39216926 </v>
    <v>       0.57211195       0.06536154       0.39216926 </v>
    <v>       0.07211195       0.39869487       0.39216926 </v>
    <v>       0.57211195       0.39869487       0.39216926 </v>
    <v>       0.07211195       0.73202821       0.39216926 </v>
    <v>       0.57211195       0.73202821       0.39216926 </v>
    <v>       0.10733875       0.30765571       0.84593428 </v>
    <v>       0.60733875       0.30765571       0.84593428 </v>
    <v>       0.10733875       0.64098905       0.84593428 </v>
    <v>       0.60733875       0.64098905       0.84593428 </v>
    <v>       0.10733875       0.97432238       0.84593428 </v>
    <v>       0.60733875       0.97432238       0.84593428 </v>
    <v>       0.34529081       0.29539312       0.77235872 </v>
    <v>       0.84464416       0.29539312       0.77235872 </v>
    <v>       0.34464416       0.62872645       0.77235872 </v>
    <v>       0.84464416       0.62872645       0.77235872 </v>
    <v>       0.34464416       0.96205979       0.77235872 </v>
    <v>       0.84464416       0.96205979       0.77235872 </v>
    <v>       0.14266125       0.02567762       0.15406572 </v>
    <v>       0.64266125       0.02567762       0.15406572 </v>
    <v>       0.14266125       0.35901095       0.15406572 </v>
    <v>       0.64266125       0.35901095       0.15406572 </v>
    <v>       0.14266125       0.69234429       0.15406572 </v>
    <v>       0.64266125       0.69234429       0.15406572 </v>
    <v>       0.40535584       0.03794021       0.22764128 </v>
    <v>       0.90535584       0.03794021       0.22764128 </v>
    <v>       0.40535584       0.37127355       0.22764128 </v>
    <v>       0.90535584       0.37127355       0.22764128 </v>
    <v>       0.40535584       0.70460688       0.22764128 </v>
    <v>       0.90535584       0.70460688       0.22764128 </v>
    <v>       0.46517249       0.26691416       0.60148498 </v>
    <v>       0.96517249       0.26691416       0.60148498 </v>
    <v>       0.46517249       0.60024750       0.60148498 </v>
    <v>       0.96517249       0.60024750       0.60148498 </v>
    <v>       0.46517249       0.93358083       0.60148498 </v>
    <v>       0.96517249       0.93358083       0.60148498 </v>
    <v>       0.28482751       0.06641917       0.39851502 </v>
    <v>       0.78482751       0.06641917       0.39851502 </v>
    <v>       0.28482751       0.39975250       0.39851502 </v>
    <v>       0.78482751       0.39975250       0.39851502 </v>
    <v>       0.28482751       0.73308584       0.39851502 </v>
    <v>       0.78482751       0.73308584       0.39851502 </v>
    <v>       0.22447416       0.13353711       0.80122268 </v>
    <v>       0.72447416       0.13353711       0.80122268 </v>
    <v>       0.22447416       0.46687045       0.80122268 </v>
    <v>       0.72447416       0.46687045       0.80122268 </v>
    <v>       0.22447416       0.80020378       0.80122268 </v>
    <v>       0.72447416       0.80020378       0.80122268 </v>
    <v>       0.47796479       0.13582521       0.81495126 </v>
    <v>       0.97796479       0.13582521       0.81495126 </v>
    <v>       0.47796479       0.46915854       0.81495126 </v>
    <v>       0.97796479       0.46915854       0.81495126 </v>
    <v>       0.47796479       0.80249188       0.81495126 </v>
    <v>       0.97796479       0.80249188       0.81495126 </v>
    <v>       0.02552584       0.19979622       0.19877732 </v>
    <v>       0.52552584       0.19979622       0.19877732 </v>
    <v>       0.02552584       0.53312955       0.19877732 </v>
    <v>       0.52552584       0.53312955       0.19877732 </v>
    <v>       0.02552584       0.86646289       0.19877732 </v>
    <v>       0.52552584       0.86646289       0.19877732 </v>
    <v>       0.27203521       0.19750812       0.18504874 </v>
    <v>       0.77203521       0.19750812       0.18504874 </v>
    <v>       0.27203521       0.53084146       0.18504874 </v>
    <v>       0.77203521       0.53084146       0.18504874 </v>
    <v>       0.27203521       0.86417479       0.18504874 </v>
    <v>       0.77203521       0.86417479       0.18504874 </v>
    <v>       0.12500000       0.16666667       0.00000000 </v>
    <v>       0.62500000       0.16666667       0.00000000 </v>
    <v>       0.12500000       0.50000000       0.00000000 </v>
    <v>       0.62500000       0.50000000       0.00000000 </v>
    <v>       0.12500000       0.83333333       0.00000000 </v>
    <v>       0.62500000       0.83333333       0.00000000 </v>
    <v>       0.37500000       0.16666667       0.00000000 </v>
    <v>       0.87500000       0.16666667       0.00000000 </v>
    <v>       0.37500000       0.50000000       0.00000000 </v>
    <v>       0.87500000       0.50000000       0.00000000 </v>
    <v>       0.37500000       0.83333333       0.00000000 </v>
    <v>       0.87500000       0.83333333       0.00000000 </v>
    <v>       0.17614737       0.22809805       0.36858830 </v>
    <v>       0.67614737       0.22809805       0.36858830 </v>
    <v>       0.17614737       0.56143138       0.36858830 </v>
    <v>       0.67614737       0.56143138       0.36858830 </v>
    <v>       0.17614737       0.89476472       0.36858830 </v>
    <v>       0.67614737       0.89476472       0.36858830 </v>
    <v>       0.41542106       0.22793643       0.36761855 </v>
    <v>       0.91542106       0.22793643       0.36761855 </v>
    <v>       0.41542106       0.56126976       0.36761855 </v>
    <v>       0.91542106       0.56126976       0.36761855 </v>
    <v>       0.41542106       0.89460309       0.36761855 </v>
    <v>       0.91542106       0.89460309       0.36761855 </v>
    <v>       0.07385263       0.10523528       0.63141170 </v>
    <v>       0.57385263       0.10523528       0.63141170 </v>
    <v>       0.07385263       0.43856862       0.63141170 </v>
    <v>       0.57385263       0.43856862       0.63141170 </v>
    <v>       0.07385263       0.77190195       0.63141170 </v>
    <v>       0.57385263       0.77190195       0.63141170 </v>
    <v>       0.33457894       0.10539691       0.63238145 </v>
    <v>       0.83457894       0.10539691       0.63238145 </v>
    <v>       0.33457894       0.43873024       0.63238145 </v>
    <v>       0.83457894       0.43873024       0.63238145 </v>
    <v>       0.33457894       0.77206357       0.63238145 </v>
    <v>       0.83457894       0.77206357       0.63238145 </v>
    <v>       0.22527003       0.30093342       0.80560053 </v>
    <v>       0.72527003       0.30093342       0.80560053 </v>
    <v>       0.22527003       0.63426676       0.80560053 </v>
    <v>       0.72527003       0.63426676       0.80560053 </v>
    <v>       0.22527003       0.96760009       0.80560053 </v>
    <v>       0.72527003       0.96760009       0.80560053 </v>
    <v>       0.47618324       0.30143353       0.80860116 </v>
    <v>       0.97618324       0.30143353       0.80860116 </v>
    <v>       0.47618324       0.63476686       0.80860116 </v>
    <v>       0.97618324       0.63476686       0.80860116 </v>
    <v>       0.47618324       0.96810019       0.80860116 </v>
    <v>       0.97618324       0.96810019       0.80860116 </v>
    <v>       0.02472997       0.03239991       0.19439947 </v>
    <v>       0.52472997       0.03239991       0.19439947 </v>
    <v>       0.02472997       0.36573324       0.19439947 </v>
    <v>       0.52472997       0.36573324       0.19439947 </v>
    <v>       0.02472997       0.69906658       0.19439947 </v>
    <v>       0.52472997       0.69906658       0.19439947 </v>
    <v>       0.27381676       0.03189981       0.19139884 </v>
    <v>       0.77381676       0.03189981       0.19139884 </v>
    <v>       0.27381676       0.36523314       0.19139884 </v>
    <v>       0.77381676       0.36523314       0.19139884 </v>
    <v>       0.27381676       0.69856647       0.19139884 </v>
    <v>       0.77381676       0.69856647       0.19139884 </v>
   </varray>
  </structure>
  <varray name="forces" >
   <v>      -0.00001900      -0.00007772       0.00004161 </v>
   <v>       0.00028119      -0.00003665      -0.00020032 </v>
   <v>       0.00141397       0.00059491       0.00331549 </v>
   <v>       0.00033997      -0.00011377      -0.00022627 </v>
   <v>      -0.00000719      -0.00008081       0.00005596 </v>
   <v>       0.00030746      -0.00019693      -0.00017138 </v>
   <v>      -0.00000527      -0.00072006      -0.00439487 </v>
   <v>       0.00010632       0.00012115       0.00015862 </v>
   <v>      -0.00035272       0.00003558      -0.00002615 </v>
   <v>       0.00004583       0.00018155       0.00012293 </v>
   <v>      -0.00036142       0.00007795      -0.00005251 </v>
   <v>       0.00005018       0.00004000       0.00013959 </v>
   <v>       0.00358562       0.00115954       0.00333721 </v>
   <v>      -0.00013521       0.00040812      -0.00002921 </v>
   <v>      -0.00075251       0.00042751       0.00033977 </v>
   <v>      -0.00020975       0.00059693       0.00001571 </v>
   <v>      -0.00076041       0.00047864       0.00035060 </v>
   <v>      -0.00019606       0.00023836       0.00006866 </v>
   <v>       0.00040317      -0.00034591       0.00008400 </v>
   <v>       0.00043800      -0.00047675      -0.00032839 </v>
   <v>       0.00040985      -0.00041701       0.00008425 </v>
   <v>       0.00044688      -0.00045097      -0.00029637 </v>
   <v>       0.00040771      -0.00042633      -0.00004769 </v>
   <v>       0.00041181      -0.00042363      -0.00015838 </v>
   <v>       0.00108293       0.00006242      -0.00063295 </v>
   <v>       0.00096923       0.00015096      -0.00017744 </v>
   <v>      -0.00022887      -0.00003720      -0.00018954 </v>
   <v>      -0.00026566       0.00024234      -0.00021353 </v>
   <v>      -0.00022996       0.00024042      -0.00023864 </v>
   <v>      -0.00024361      -0.00004217      -0.00015963 </v>
   <v>      -0.06390305       0.00044525       0.01522179 </v>
   <v>      -0.00111821      -0.00025180      -0.00008803 </v>
   <v>      -0.00159111      -0.00022242       0.00008658 </v>
   <v>      -0.00119680      -0.00024778      -0.00007599 </v>
   <v>      -0.00160337      -0.00025882       0.00009473 </v>
   <v>      -0.00120192      -0.00024927      -0.00008196 </v>
   <v>       0.00018006       0.00003970       0.00002170 </v>
   <v>       0.00029671      -0.00021043       0.00036241 </v>
   <v>       0.00025478      -0.00017921      -0.00003596 </v>
   <v>       0.00040208      -0.00004953       0.00040015 </v>
   <v>       0.00019389      -0.00027869       0.00004882 </v>
   <v>       0.00027096       0.00005318       0.00031565 </v>
   <v>       0.00132503       0.00013925      -0.00002756 </v>
   <v>       0.00142146       0.00026319       0.00006325 </v>
   <v>       0.00118735       0.00034001      -0.00003575 </v>
   <v>       0.00144242       0.00024633       0.00005734 </v>
   <v>       0.00135282       0.00022855       0.00000545 </v>
   <v>       0.00140868       0.00025617       0.00005773 </v>
   <v>       0.00429754      -0.00115422      -0.00970703 </v>
   <v>       0.00049754       0.00048167      -0.00008746 </v>
   <v>      -0.00080518       0.00032599      -0.00039186 </v>
   <v>       0.00038782       0.00017018      -0.00016043 </v>
   <v>      -0.00079952       0.00043030      -0.00041361 </v>
   <v>       0.00037780       0.00073711      -0.00025512 </v>
   <v>      -0.00002057      -0.00041895      -0.00008099 </v>
   <v>       0.00023417      -0.00043784       0.00030026 </v>
   <v>      -0.00003143      -0.00057009      -0.00015299 </v>
   <v>       0.00025155      -0.00041757       0.00030950 </v>
   <v>      -0.00004042      -0.00047210       0.00019279 </v>
   <v>       0.00022722      -0.00040185       0.00029423 </v>
   <v>       0.00349127       0.00966326      -0.00303899 </v>
   <v>       0.00061912      -0.00030029       0.00019397 </v>
   <v>       0.00420780      -0.01030539       0.00065336 </v>
   <v>       0.00060147      -0.00007674       0.00016169 </v>
   <v>      -0.00011550      -0.00021690       0.00023505 </v>
   <v>       0.00022573      -0.00021453       0.00015315 </v>
   <v>       0.00358339      -0.00814459       0.00167378 </v>
   <v>       0.00019483       0.00012258      -0.00030757 </v>
   <v>       0.00299579       0.00851395      -0.00138863 </v>
   <v>       0.00019961      -0.00012210      -0.00025697 </v>
   <v>      -0.00036833       0.00000424      -0.00007653 </v>
   <v>      -0.00011781       0.00000241      -0.00020981 </v>
   <v>       0.00022801       0.00017165      -0.00045116 </v>
   <v>      -0.00031173       0.00000051      -0.00025125 </v>
   <v>       0.00013664       0.00012056      -0.00047591 </v>
   <v>      -0.00048884       0.00044471      -0.00018538 </v>
   <v>      -0.00006629       0.00023694      -0.00024187 </v>
   <v>      -0.00015884       0.00014331      -0.00015000 </v>
   <v>      -0.00047245       0.00016781       0.00007558 </v>
   <v>       0.00073843       0.00005233       0.00031746 </v>
   <v>      -0.00018964      -0.00018812       0.00014058 </v>
   <v>       0.00071461       0.00003719       0.00032024 </v>
   <v>       0.00012186      -0.00004937       0.00009202 </v>
   <v>       0.00044960      -0.00000636       0.00017182 </v>
   <v>      -0.00042885      -0.00042640       0.00100058 </v>
   <v>      -0.00077135       0.00038041      -0.00069481 </v>
   <v>      -0.00048171       0.00073442       0.00084101 </v>
   <v>      -0.00071606      -0.00066819      -0.00052939 </v>
   <v>       0.00003214       0.00002591       0.00014268 </v>
   <v>      -0.00005024      -0.00000881      -0.00007684 </v>
   <v>       0.00237854      -0.00004327      -0.00021881 </v>
   <v>      -0.00043166       0.00000199       0.00005073 </v>
   <v>       0.00234761       0.00008755      -0.00033233 </v>
   <v>      -0.00040354       0.00000104       0.00005855 </v>
   <v>       0.00025693       0.00001830      -0.00001983 </v>
   <v>      -0.00022495      -0.00001727       0.00002373 </v>
   <v>       0.00029749      -0.00045502      -0.00006662 </v>
   <v>      -0.00017691      -0.00037757       0.00017726 </v>
   <v>       0.00034074      -0.00042066       0.00037687 </v>
   <v>      -0.00012707      -0.00047497       0.00018636 </v>
   <v>       0.00031914      -0.00025991       0.00026033 </v>
   <v>      -0.00010653      -0.00031226       0.00023849 </v>
   <v>       0.00044849      -0.00017409       0.00066210 </v>
   <v>      -0.00019020      -0.00035180      -0.00015647 </v>
   <v>       0.00033480      -0.00028336      -0.00009405 </v>
   <v>      -0.00016062      -0.00028713      -0.00016618 </v>
   <v>       0.00031081      -0.00032868      -0.00008401 </v>
   <v>      -0.00013978      -0.00040707      -0.00014578 </v>
   <v>      -0.00089376      -0.00046330      -0.00040282 </v>
   <v>      -0.00059034       0.00140604       0.00036477 </v>
   <v>      -0.00094745       0.00102795      -0.00066207 </v>
   <v>      -0.00052169      -0.00041001       0.00068787 </v>
   <v>      -0.00007923       0.00038087      -0.00022357 </v>
   <v>       0.00001183       0.00040733      -0.00008670 </v>
   <v>       0.00278114      -0.00026604      -0.00049080 </v>
   <v>      -0.00050555       0.00030670       0.00006185 </v>
   <v>       0.00274812       0.00083723      -0.00069052 </v>
   <v>      -0.00050989       0.00030662       0.00005280 </v>
   <v>       0.00012420       0.00031462      -0.00003679 </v>
   <v>      -0.00032994       0.00031087       0.00003128 </v>
   <v>       0.01755062      -0.00036973      -0.00567442 </v>
   <v>      -0.00056139       0.00009454       0.00013537 </v>
   <v>       0.00012139       0.00103702      -0.00028029 </v>
   <v>      -0.00032091      -0.00012594       0.00009445 </v>
   <v>       0.00020644      -0.00086933       0.00007278 </v>
   <v>      -0.00032789       0.00031214       0.00002410 </v>
   <v>       0.01220909       0.00045198       0.00070208 </v>
   <v>      -0.00090631      -0.00012619      -0.00015580 </v>
   <v>      -0.00017375      -0.00082532       0.00006485 </v>
   <v>      -0.00065397       0.00006635      -0.00016621 </v>
   <v>      -0.00023624       0.00064981      -0.00020100 </v>
   <v>      -0.00064797      -0.00031323      -0.00014155 </v>
   <v>      -0.00009213      -0.00028494       0.00021727 </v>
   <v>       0.00022000      -0.00003228       0.00003144 </v>
   <v>      -0.00012904      -0.00002779       0.00011806 </v>
   <v>       0.00011583      -0.00025388      -0.00025769 </v>
   <v>      -0.00006365       0.00011689       0.00012943 </v>
   <v>       0.00028357      -0.00002114      -0.00007034 </v>
   <v>       0.00075190       0.00025290       0.00024096 </v>
   <v>       0.00015797       0.00024516       0.00003574 </v>
   <v>       0.00076924       0.00016111       0.00066011 </v>
   <v>       0.00013477       0.00008763       0.00006890 </v>
   <v>       0.00066359       0.00011485       0.00024297 </v>
   <v>       0.00013473      -0.00005643       0.00010647 </v>
  </varray>
  <varray name="stress" >
   <v>      -0.12035551       0.01772509       0.02644184 </v>
   <v>       0.00775390      -0.14320955      -0.07270103 </v>
   <v>      -0.01216089      -0.04382632      -0.09130956 </v>
  </varray>
  <energy>
   <i name="e_fr_energy">   -746.63087115 </i>
   <i name="e_wo_entrp">   -746.63087115 </i>
   <i name="e_0_energy">     -0.00000000 </i>
  </energy>
  <time name="totalsc"> 8694.73 8796.73</time>
  <eigenvalues>
   <array>
    <dimension dim="1">band</dimension>
    <dimension dim="2">kpoint</dimension>
    <dimension dim="3">spin</dimension>
    <field>eigene</field>
    <field>occ</field>
    <set>
     <set comment="spin 1">
      <set comment="kpoint 1">
       <r>  -51.6051    1.0000 </r>
       <r>  -51.6030    1.0000 </r>
       <r>  -51.6028    1.0000 </r>
       <r>  -51.6028    1.0000 </r>
       <r>  -51.6028    1.0000 </r>
       <r>  -51.6028    1.0000 </r>
       <r>  -51.6027    1.0000 </r>
       <r>  -51.6025    1.0000 </r>
       <r>  -51.6024    1.0000 </r>
       <r>  -51.6023    1.0000 </r>
       <r>  -51.6023    1.0000 </r>
       <r>  -51.6019    1.0000 </r>
       <r>  -51.4203    1.0000 </r>
       <r>  -51.4201    1.0000 </r>
       <r>  -51.4180    1.0000 </r>
       <r>  -51.4180    1.0000 </r>
       <r>  -51.4179    1.0000 </r>
       <r>  -51.4178    1.0000 </r>
       <r>  -51.4178    1.0000 </r>
       <r>  -51.4176    1.0000 </r>
       <r>  -51.4175    1.0000 </r>
       <r>  -51.4174    1.0000 </r>
       <r>  -51.4174    1.0000 </r>
       <r>  -51.4171    1.0000 </r>
       <r>  -51.2982    1.0000 </r>
       <r>  -51.2981    1.0000 </r>
       <r>  -51.2981    1.0000 </r>
       <r>  -51.2980    1.0000 </r>
       <r>  -51.2977    1.0000 </r>
       <r>  -51.2976    1.0000 </r>
       <r>  -51.2974    1.0000 </r>
       <r>  -51.2973    1.0000 </r>
       <r>  -51.2972    1.0000 </r>
       <r>  -51.2968    1.0000 </r>
       <r>  -51.2949    1.0000 </r>
       <r>  -51.2943    1.0000 </r>
       <r>  -50.1601    1.0000 </r>
       <r>  -50.1577    1.0000 </r>
       <r>  -50.1576    1.0000 </r>
       <r>  -50.1576    1.0000 </r>
       <r>  -50.1576    1.0000 </r>
       <r>  -50.1575    1.0000 </r>
       <r>  -50.1572    1.0000 </r>
       <r>  -50.1571    1.0000 </r>
       <r>  -50.1571    1.0000 </r>
       <r>  -50.1569    1.0000 </r>
       <r>  -50.1568    1.0000 </r>
       <r>  -50.1563    1.0000 </r>
       <r>  -50.0678    1.0000 </r>
       <r>  -50.0662    1.0000 </r>
       <r>  -50.0660    1.0000 </r>
       <r>  -50.0660    1.0000 </r>
       <r>  -50.0658    1.0000 </r>
       <r>  -50.0658    1.0000 </r>
       <r>  -50.0658    1.0000 </r>
       <r>  -50.0657    1.0000 </r>
       <r>  -50.0656    1.0000 </r>
       <r>  -50.0653    1.0000 </r>
       <r>  -50.0652    1.0000 </r>
       <r>  -50.0652    1.0000 </r>
       <r>  -49.9639    1.0000 </r>
       <r>  -49.9637    1.0000 </r>
       <r>  -49.9619    1.0000 </r>
       <r>  -49.9618    1.0000 </r>
       <r>  -49.9617    1.0000 </r>
       <r>  -49.9617    1.0000 </r>
       <r>  -49.9616    1.0000 </r>
       <r>  -49.9615    1.0000 </r>
       <r>  -49.9614    1.0000 </r>
       <r>  -49.9614    1.0000 </r>
       <r>  -49.9612    1.0000 </r>
       <r>  -49.9611    1.0000 </r>
       <r>  -49.9546    1.0000 </r>
       <r>  -49.9545    1.0000 </r>
       <r>  -49.9527    1.0000 </r>
       <r>  -49.9527    1.0000 </r>
       <r>  -49.9526    1.0000 </r>
       <r>  -49.9525    1.0000 </r>
       <r>  -49.9525    1.0000 </r>
       <r>  -49.9524    1.0000 </r>
       <r>  -49.9523    1.0000 </r>
       <r>  -49.9523    1.0000 </r>
       <r>  -49.9521    1.0000 </r>
       <r>  -49.9520    1.0000 </r>
       <r>  -49.8891    1.0000 </r>
       <r>  -49.8891    1.0000 </r>
       <r>  -49.8890    1.0000 </r>
       <r>  -49.8889    1.0000 </r>
       <r>  -49.8888    1.0000 </r>
[...]
       <r>   -32.5894     0.0000   156.0000 </r>
       <r>   -32.3498     0.0000   156.0000 </r>
       <r>   -32.1102     0.0000   156.0000 </r>
       <r>   -31.8706     0.0000   156.0000 </r>
       <r>   -31.6310     0.0000   156.0000 </r>
       <r>   -31.3914     0.0000   156.0000 </r>
       <r>   -31.1518     0.0000   156.0000 </r>
       <r>   -30.9122     0.0000   156.0000 </r>
       <r>   -30.6726     0.0000   156.0000 </r>
       <r>   -30.4330     0.0000   156.0000 </r>
       <r>   -30.1934     0.0000   156.0000 </r>
       <r>   -29.9538     0.0000   156.0000 </r>
       <r>   -29.7142     0.0000   156.0000 </r>
       <r>   -29.4746     0.0000   156.0000 </r>
       <r>   -29.2350     0.0000   156.0000 </r>
       <r>   -28.9954     0.0000   156.0000 </r>
       <r>   -28.7558     0.0000   156.0000 </r>
       <r>   -28.5162     0.0000   156.0000 </r>
       <r>   -28.2766     0.0000   156.0000 </r>
       <r>   -28.0370     0.0000   156.0000 </r>
       <r>   -27.7974     0.0000   156.0000 </r>
       <r>   -27.5578     0.0000   156.0000 </r>
       <r>   -27.3182     0.0000   156.0000 </r>
       <r>   -27.0786     0.0000   156.0000 </r>
       <r>   -26.8390     0.0000   156.0000 </r>
       <r>   -26.5994     0.0000   156.0000 </r>
       <r>   -26.3598     0.0000   156.0000 </r>
       <r>   -26.1201     0.0000   156.0000 </r>
       <r>   -25.8805     0.0000   156.0000 </r>
       <r>   -25.6409     0.0000   156.0000 </r>
       <r>   -25.4013     0.0000   156.0000 </r>
       <r>   -25.1617     0.0000   156.0000 </r>
       <r>   -24.9221     0.0000   156.0000 </r>
       <r>   -24.6825     0.0000   156.0000 </r>
       <r>   -24.4429     0.0000   156.0000 </r>
       <r>   -24.2033     0.0000   156.0000 </r>
       <r>   -23.9637     0.0000   156.0000 </r>
       <r>   -23.7241     0.0000   156.0000 </r>
       <r>   -23.4845     0.0000   156.0000 </r>
       <r>   -23.2449     0.0000   156.0000 </r>
       <r>   -23.0053     0.0000   156.0000 </r>
       <r>   -22.7657     0.0000   156.0000 </r>
       <r>   -22.5261     0.0000   156.0000 </r>
       <r>   -22.2865     0.0000   156.0000 </r>
       <r>   -22.0469     0.0000   156.0000 </r>
       <r>   -21.8073     0.0000   156.0000 </r>
       <r>   -21.5677     0.0000   156.0000 </r>
       <r>   -21.3281     0.0000   156.0000 </r>
       <r>   -21.0885     0.0000   156.0000 </r>
       <r>   -20.8489     0.0000   156.0000 </r>
       <r>   -20.6093     0.0000   156.0000 </r>
       <r>   -20.3697     0.0000   156.0000 </r>
       <r>   -20.1301     0.0000   156.0000 </r>
       <r>   -19.8905     0.0000   156.0000 </r>
       <r>   -19.6509     0.0000   156.0000 </r>
       <r>   -19.4113     0.0000   156.0000 </r>
       <r>   -19.1717     0.0000   156.0000 </r>
       <r>   -18.9321     0.0000   156.0000 </r>
       <r>   -18.6925     0.0000   156.0000 </r>
       <r>   -18.4529     0.0000   156.0000 </r>
       <r>   -18.2133     0.0000   156.0000 </r>
       <r>   -17.9737     0.0000   156.0000 </r>
       <r>   -17.7341     0.0000   156.0000 </r>
       <r>   -17.4945     0.0000   156.0000 </r>
       <r>   -17.2549     0.0000   156.0000 </r>
       <r>   -17.0153     0.0000   156.0000 </r>
       <r>   -16.7757     0.0000   156.0000 </r>
       <r>   -16.5361     0.0000   156.0000 </r>
       <r>   -16.2965     0.0000   156.0000 </r>
       <r>   -16.0569     0.0000   156.0000 </r>
       <r>   -15.8173     0.0000   156.0000 </r>
       <r>   -15.5777     0.0000   156.0000 </r>
       <r>   -15.3381     0.0000   156.0000 </r>
       <r>   -15.0985     0.0000   156.0000 </r>
       <r>   -14.8589     0.0000   156.0000 </r>
       <r>   -14.6193     0.0000   156.0000 </r>
       <r>   -14.3796     0.0000   156.0000 </r>
       <r>   -14.1400     0.0000   156.0000 </r>
       <r>   -13.9004     0.0000   156.0000 </r>
       <r>   -13.6608     0.0000   156.0000 </r>
       <r>   -13.4212     1.7873   156.4282 </r>
       <r>   -13.1816    44.4390   167.0759 </r>
       <r>   -12.9420     4.4976   168.1536 </r>
       <r>   -12.7024    41.7750   178.1629 </r>
       <r>   -12.4628     7.6672   180.0000 </r>
       <r>   -12.2232     0.0000   180.0000 </r>
       <r>   -11.9836     0.0000   180.0000 </r>
       <r>   -11.7440     0.0000   180.0000 </r>
       <r>   -11.5044     0.0000   180.0000 </r>
       <r>   -11.2648     0.0000   180.0000 </r>
       <r>   -11.0252     0.0000   180.0000 </r>
       <r>   -10.7856     0.0000   180.0000 </r>
       <r>   -10.5460     0.0000   180.0000 </r>
       <r>   -10.3064     0.0000   180.0000 </r>
       <r>   -10.0668     0.0000   180.0000 </r>
       <r>    -9.8272     0.0000   180.0000 </r>
       <r>    -9.5876     0.0000   180.0000 </r>
       <r>    -9.3480     0.0000   180.0000 </r>
       <r>    -9.1084     0.0000   180.0000 </r>
       <r>    -8.8688     0.0000   180.0000 </r>
       <r>    -8.6292     0.0000   180.0000 </r>
       <r>    -8.3896     0.0000   180.0000 </r>
       <r>    -8.1500     0.0000   180.0000 </r>
       <r>    -7.9104     0.0000   180.0000 </r>
       <r>    -7.6708     0.0159   180.0038 </r>
       <r>    -7.4312    11.9198   182.8598 </r>
       <r>    -7.1916    28.4545   189.6776 </r>
       <r>    -6.9520    59.8089   204.0079 </r>
       <r>    -6.7124    46.6605   215.1879 </r>
       <r>    -6.4728     3.3895   216.0000 </r>
       <r>    -6.2332     0.0000   216.0000 </r>
       <r>    -5.9936     0.0000   216.0000 </r>
       <r>    -5.7540     0.0000   216.0000 </r>
       <r>    -5.5144     0.0000   216.0000 </r>
       <r>    -5.2748     0.0000   216.0000 </r>
       <r>    -5.0352     0.0000   216.0000 </r>
       <r>    -4.7956     0.0000   216.0000 </r>
       <r>    -4.5560     0.0000   216.0000 </r>
       <r>    -4.3164     0.0000   216.0000 </r>
       <r>    -4.0768     0.0000   216.0000 </r>
       <r>    -3.8372     0.0000   216.0000 </r>
       <r>    -3.5976     0.0000   216.0000 </r>
       <r>    -3.3580     0.0000   216.0000 </r>
       <r>    -3.1184     0.0000   216.0000 </r>
       <r>    -2.8788     0.0000   216.0000 </r>
       <r>    -2.6391     0.0000   216.0000 </r>
       <r>    -2.3995     0.0000   216.0000 </r>
       <r>    -2.1599     0.0000   216.0000 </r>
       <r>    -1.9203     0.0000   216.0000 </r>
       <r>    -1.6807     0.0000   216.0000 </r>
       <r>    -1.4411     0.0000   216.0000 </r>
       <r>    -1.2015     0.0858   216.0205 </r>
       <r>    -0.9619     4.4113   217.0775 </r>
       <r>    -0.7223    14.0376   220.4409 </r>
       <r>    -0.4827    15.2803   224.1021 </r>
       <r>    -0.2431    19.5456   228.7853 </r>
       <r>    -0.0035    41.2982   238.6804 </r>
       <r>     0.2361    33.9264   246.8093 </r>
       <r>     0.4757    42.1297   256.9036 </r>
       <r>     0.7153    33.6555   264.9675 </r>
       <r>     0.9549    52.7826   277.6144 </r>
       <r>     1.1945    60.5803   292.1295 </r>
       <r>     1.4341    44.4272   302.7744 </r>
       <r>     1.6737    40.1171   312.3865 </r>
       <r>     1.9133    38.4387   321.5965 </r>
       <r>     2.1529    37.4068   330.5593 </r>
       <r>     2.3925    38.2671   339.7281 </r>
       <r>     2.6321    49.3148   351.5441 </r>
       <r>     2.8717    62.9321   366.6227 </r>
       <r>     3.1113    58.7518   380.6998 </r>
       <r>     3.3509    48.0822   392.2204 </r>
       <r>     3.5905    29.8770   399.3790 </r>
       <r>     3.8301    61.1596   414.0329 </r>
       <r>     4.0697    73.5899   431.6652 </r>
       <r>     4.3093     1.3973   432.0000 </r>
       <r>     4.5489     0.0000   432.0000 </r>
       <r>     4.7885     0.0000   432.0000 </r>
       <r>     5.0281     0.0000   432.0000 </r>
       <r>     5.2677     0.0000   432.0000 </r>
       <r>     5.5073     0.0000   432.0000 </r>
       <r>     5.7469     0.0000   432.0000 </r>
       <r>     5.9865     0.0000   432.0000 </r>
       <r>     6.2261     0.1429   432.0342 </r>
       <r>     6.4657     8.1186   433.9795 </r>
       <r>     6.7053    30.2039   441.2164 </r>
       <r>     6.9449    43.3374   451.6001 </r>
       <r>     7.1845    73.1022   469.1156 </r>
       <r>     7.4241    80.8490   488.4871 </r>
       <r>     7.6637    65.4050   504.1583 </r>
       <r>     7.9033    87.8927   525.2176 </r>
       <r>     8.1429    71.3442   542.3118 </r>
       <r>     8.3825    54.4620   555.3610 </r>
       <r>     8.6221    37.1986   564.2739 </r>
       <r>     8.8617    39.2232   573.6718 </r>
       <r>     9.1014    19.4119   578.3229 </r>
       <r>     9.3410    13.8616   581.6442 </r>
       <r>     9.5806    20.5834   586.5760 </r>
       <r>     9.8202    29.9763   593.7584 </r>
       <r>    10.0598    26.5528   600.1205 </r>
       <r>    10.2994    34.6744   608.4286 </r>
       <r>    10.5390    35.5025   616.9350 </r>
       <r>    10.7786    27.9278   623.6266 </r>
       <r>    11.0182    22.4812   629.0132 </r>
       <r>    11.2578    21.5544   634.1776 </r>
       <r>    11.4974    32.2783   641.9116 </r>
       <r>    11.7370    38.7608   651.1987 </r>
       <r>    11.9766    42.5649   661.3974 </r>
       <r>    12.2162    51.9428   673.8430 </r>
       <r>    12.4558    46.8380   685.0655 </r>
       <r>    12.6954    35.9718   693.6844 </r>
       <r>    12.9350    41.2571   703.5697 </r>
       <r>    13.1746    39.7923   713.1040 </r>
       <r>    13.4142    34.2422   721.3085 </r>
       <r>    13.6538    24.1571   727.0966 </r>
       <r>    13.8934     3.7705   728.0000 </r>
       <r>    14.1330     0.0000   728.0000 </r>
       <r>    14.3726     0.0000   728.0000 </r>
       <r>    14.6122     0.0000   728.0000 </r>
       <r>    14.8518     0.0000   728.0000 </r>
       <r>    15.0914     0.0000   728.0000 </r>
       <r>    15.3310     0.0000   728.0000 </r>
       <r>    15.5706     0.0000   728.0000 </r>
       <r>    15.8102     0.0000   728.0000 </r>
       <r>    16.0498     0.0000   728.0000 </r>
       <r>    16.2894     0.0000   728.0000 </r>
       <r>    16.5290     0.0000   728.0000 </r>
       <r>    16.7686     0.0000   728.0000 </r>
       <r>    17.0082     0.0000   728.0000 </r>
      </set>
     </set>
    </array>
   </total>
  </dos>
 </calculation>
 <structure name="finalpos" >
  <crystal>
   <varray name="basis" >
    <v>      15.21162830       0.00516956      -2.78361592 </v>
    <v>      -0.40798665      11.93565774      -2.20735884 </v>
    <v>      -0.06175567      -0.11168197      10.54442638 </v>
   </varray>
   <i name="volume">   1908.54869108 </i>
   <varray name="rec_basis" >
    <v>       0.06581343       0.00232549       0.00041008 </v>
    <v>       0.00013433       0.08395174       0.00088997 </v>
    <v>       0.01740216       0.01818827       0.09513139 </v>
   </varray>
  </crystal>
  <varray name="positions" >
   <v>       0.47527516       0.00074367       0.00446200 </v>
   <v>       0.97527516       0.00074367       0.00446200 </v>
   <v>       0.47527516       0.33407700       0.00446200 </v>
   <v>       0.97527516       0.33407700       0.00446200 </v>
   <v>       0.47527516       0.66741034       0.00446200 </v>
   <v>       0.97527516       0.66741034       0.00446200 </v>
   <v>       0.27472484       0.33258966       0.99553800 </v>
   <v>       0.77472484       0.33258966       0.99553800 </v>
   <v>       0.27472484       0.66592300       0.99553800 </v>
   <v>       0.77472484       0.66592300       0.99553800 </v>
   <v>       0.27472484       0.99925633       0.99553800 </v>
   <v>       0.77472484       0.99925633       0.99553800 </v>
   <v>       0.17788805       0.26797179       0.60783074 </v>
   <v>       0.67788805       0.26797179       0.60783074 </v>
   <v>       0.17788805       0.60130513       0.60783074 </v>
   <v>       0.67788805       0.60130513       0.60783074 </v>
   <v>       0.17788805       0.93463846       0.60783074 </v>
   <v>       0.67788805       0.93463846       0.60783074 </v>
   <v>       0.07211195       0.06536154       0.39216926 </v>
   <v>       0.57211195       0.06536154       0.39216926 </v>
   <v>       0.07211195       0.39869487       0.39216926 </v>
   <v>       0.57211195       0.39869487       0.39216926 </v>
   <v>       0.07211195       0.73202821       0.39216926 </v>
   <v>       0.57211195       0.73202821       0.39216926 </v>
   <v>       0.10733875       0.30765571       0.84593428 </v>
   <v>       0.60733875       0.30765571       0.84593428 </v>
   <v>       0.10733875       0.64098905       0.84593428 </v>
   <v>       0.60733875       0.64098905       0.84593428 </v>
   <v>       0.10733875       0.97432238       0.84593428 </v>
   <v>       0.60733875       0.97432238       0.84593428 </v>
   <v>       0.34529081       0.29539312       0.77235872 </v>
   <v>       0.84464416       0.29539312       0.77235872 </v>
   <v>       0.34464416       0.62872645       0.77235872 </v>
   <v>       0.84464416       0.62872645       0.77235872 </v>
   <v>       0.34464416       0.96205979       0.77235872 </v>
   <v>       0.84464416       0.96205979       0.77235872 </v>
   <v>       0.14266125       0.02567762       0.15406572 </v>
   <v>       0.64266125       0.02567762       0.15406572 </v>
   <v>       0.14266125       0.35901095       0.15406572 </v>
   <v>       0.64266125       0.35901095       0.15406572 </v>
   <v>       0.14266125       0.69234429       0.15406572 </v>
   <v>       0.64266125       0.69234429       0.15406572 </v>
   <v>       0.40535584       0.03794021       0.22764128 </v>
   <v>       0.90535584       0.03794021       0.22764128 </v>
   <v>       0.40535584       0.37127355       0.22764128 </v>
   <v>       0.90535584       0.37127355       0.22764128 </v>
   <v>       0.40535584       0.70460688       0.22764128 </v>
   <v>       0.90535584       0.70460688       0.22764128 </v>
   <v>       0.46517249       0.26691416       0.60148498 </v>
   <v>       0.96517249       0.26691416       0.60148498 </v>
   <v>       0.46517249       0.60024750       0.60148498 </v>
   <v>       0.96517249       0.60024750       0.60148498 </v>
   <v>       0.46517249       0.93358083       0.60148498 </v>
   <v>       0.96517249       0.93358083       0.60148498 </v>
   <v>       0.28482751       0.06641917       0.39851502 </v>
   <v>       0.78482751       0.06641917       0.39851502 </v>
   <v>       0.28482751       0.39975250       0.39851502 </v>
   <v>       0.78482751       0.39975250       0.39851502 </v>
   <v>       0.28482751       0.73308584       0.39851502 </v>
   <v>       0.78482751       0.73308584       0.39851502 </v>
   <v>       0.22447416       0.13353711       0.80122268 </v>
   <v>       0.72447416       0.13353711       0.80122268 </v>
   <v>       0.22447416       0.46687045       0.80122268 </v>
   <v>       0.72447416       0.46687045       0.80122268 </v>
   <v>       0.22447416       0.80020378       0.80122268 </v>
   <v>       0.72447416       0.80020378       0.80122268 </v>
   <v>       0.47796479       0.13582521       0.81495126 </v>
   <v>       0.97796479       0.13582521       0.81495126 </v>
   <v>       0.47796479       0.46915854       0.81495126 </v>
   <v>       0.97796479       0.46915854       0.81495126 </v>
   <v>       0.47796479       0.80249188       0.81495126 </v>
   <v>       0.97796479       0.80249188       0.81495126 </v>
   <v>       0.02552584       0.19979622       0.19877732 </v>
   <v>       0.52552584       0.19979622       0.19877732 </v>
   <v>       0.02552584       0.53312955       0.19877732 </v>
   <v>       0.52552584       0.53312955       0.19877732 </v>
   <v>       0.02552584       0.86646289       0.19877732 </v>
   <v>       0.52552584       0.86646289       0.19877732 </v>
   <v>       0.27203521       0.19750812       0.18504874 </v>
   <v>       0.77203521       0.19750812       0.18504874 </v>
   <v>       0.27203521       0.53084146       0.18504874 </v>
   <v>       0.77203521       0.53084146       0.18504874 </v>
   <v>       0.27203521       0.86417479       0.18504874 </v>
   <v>       0.77203521       0.86417479       0.18504874 </v>
   <v>       0.12500000       0.16666667       0.00000000 </v>
   <v>       0.62500000       0.16666667       0.00000000 </v>
   <v>       0.12500000       0.50000000       0.00000000 </v>
   <v>       0.62500000       0.50000000       0.00000000 </v>
   <v>       0.12500000       0.83333333       0.00000000 </v>
   <v>       0.62500000       0.83333333       0.00000000 </v>
   <v>       0.37500000       0.16666667       0.00000000 </v>
   <v>       0.87500000       0.16666667       0.00000000 </v>
   <v>       0.37500000       0.50000000       0.00000000 </v>
   <v>       0.87500000       0.50000000       0.00000000 </v>
   <v>       0.37500000       0.83333333       0.00000000 </v>
   <v>       0.87500000       0.83333333       0.00000000 </v>
   <v>       0.17614737       0.22809805       0.36858830 </v>
   <v>       0.67614737       0.22809805       0.36858830 </v>
   <v>       0.17614737       0.56143138       0.36858830 </v>
   <v>       0.67614737       0.56143138       0.36858830 </v>
   <v>       0.17614737       0.89476472       0.36858830 </v>
   <v>       0.67614737       0.89476472       0.36858830 </v>
   <v>       0.41542106       0.22793643       0.36761855 </v>
   <v>       0.91542106       0.22793643       0.36761855 </v>
   <v>       0.41542106       0.56126976       0.36761855 </v>
   <v>       0.91542106       0.56126976       0.36761855 </v>
   <v>       0.41542106       0.89460309       0.36761855 </v>
   <v>       0.91542106       0.89460309       0.36761855 </v>
   <v>       0.07385263       0.10523528       0.63141170 </v>
   <v>       0.57385263       0.10523528       0.63141170 </v>
   <v>       0.07385263       0.43856862       0.63141170 </v>
   <v>       0.57385263       0.43856862       0.63141170 </v>
   <v>       0.07385263       0.77190195       0.63141170 </v>
   <v>       0.57385263       0.77190195       0.63141170 </v>
   <v>       0.33457894       0.10539691       0.63238145 </v>
   <v>       0.83457894       0.10539691       0.63238145 </v>
   <v>       0.33457894       0.43873024       0.63238145 </v>
   <v>       0.83457894       0.43873024       0.63238145 </v>
   <v>       0.33457894       0.77206357       0.63238145 </v>
   <v>       0.83457894       0.77206357       0.63238145 </v>
   <v>       0.22527003       0.30093342       0.80560053 </v>
   <v>       0.72527003       0.30093342       0.80560053 </v>
   <v>       0.22527003       0.63426676       0.80560053 </v>
   <v>       0.72527003       0.63426676       0.80560053 </v>
   <v>       0.22527003       0.96760009       0.80560053 </v>
   <v>       0.72527003       0.96760009       0.80560053 </v>
   <v>       0.47618324       0.30143353       0.80860116 </v>
   <v>       0.97618324       0.30143353       0.80860116 </v>
   <v>       0.47618324       0.63476686       0.80860116 </v>
   <v>       0.97618324       0.63476686       0.80860116 </v>
   <v>       0.47618324       0.96810019       0.80860116 </v>
   <v>       0.97618324       0.96810019       0.80860116 </v>
   <v>       0.02472997       0.03239991       0.19439947 </v>
   <v>       0.52472997       0.03239991       0.19439947 </v>
   <v>       0.02472997       0.36573324       0.19439947 </v>
   <v>       0.52472997       0.36573324       0.19439947 </v>
   <v>       0.02472997       0.69906658       0.19439947 </v>
   <v>       0.52472997       0.69906658       0.19439947 </v>
   <v>       0.27381676       0.03189981       0.19139884 </v>
   <v>       0.77381676       0.03189981       0.19139884 </v>
   <v>       0.27381676       0.36523314       0.19139884 </v>
   <v>       0.77381676       0.36523314       0.19139884 </v>
   <v>       0.27381676       0.69856647       0.19139884 </v>
   <v>       0.77381676       0.69856647       0.19139884 </v>
  </varray>
 </structure>
</modeling>
