 224 224   0   0
  0.1357572E+02  0.1537960E-08  0.1537962E-08  0.1395899E-08  0.5000000E-15
  1.000000000000000E-004
  CAR 
 unknown system                          
     17.69806931    -54.42160732  301      5.25742509      1.00000000
    -54.422  0.0000E+00  0.0000E+00  0.0000E+00  0.0000E+00
    -54.181  0.0000E+00  0.0000E+00  0.0000E+00  0.0000E+00
    -53.941  0.0000E+00  0.0000E+00  0.0000E+00  0.0000E+00
    -53.700  0.0000E+00  0.0000E+00  0.0000E+00  0.0000E+00
    -53.460  0.0000E+00  0.0000E+00  0.0000E+00  0.0000E+00
    -53.220  0.0000E+00  0.0000E+00  0.0000E+00  0.0000E+00
    -52.979  0.0000E+00  0.0000E+00  0.0000E+00  0.0000E+00
    -52.739  0.0000E+00  0.0000E+00  0.0000E+00  0.0000E+00
    -52.498  0.0000E+00  0.0000E+00  0.0000E+00  0.0000E+00
    -52.258  0.0000E+00  0.0000E+00  0.0000E+00  0.0000E+00
    -52.018  0.0000E+00  0.0000E+00  0.0000E+00  0.0000E+00
    -51.777  0.0000E+00  0.0000E+00  0.0000E+00  0.0000E+00
    -51.537  0.0000E+00  0.0000E+00  0.0000E+00  0.0000E+00
    -51.296  0.1357E-02  0.0000E+00  0.3263E-03  0.0000E+00
    -51.056  0.2639E+03  0.0000E+00  0.6345E+02  0.0000E+00
    -50.816  0.2278E+01  0.0000E+00  0.6400E+02  0.0000E+00
    -50.575  0.0000E+00  0.0000E+00  0.6400E+02  0.0000E+00
    -50.335  0.0000E+00  0.0000E+00  0.6400E+02  0.0000E+00
    -50.094  0.0000E+00  0.0000E+00  0.6400E+02  0.0000E+00
    -49.854  0.1028E-05  0.0000E+00  0.6400E+02  0.0000E+00
    -49.614  0.4351E+03  0.0000E+00  0.1686E+03  0.0000E+00
    -49.373  0.9733E+02  0.0000E+00  0.1920E+03  0.0000E+00
    -49.133  0.0000E+00  0.0000E+00  0.1920E+03  0.0000E+00
    -48.892  0.0000E+00  0.0000E+00  0.1920E+03  0.0000E+00
    -48.652  0.0000E+00  0.0000E+00  0.1920E+03  0.0000E+00
    -48.412  0.0000E+00  0.0000E+00  0.1920E+03  0.0000E+00
    -48.171  0.0000E+00  0.0000E+00  0.1920E+03  0.0000E+00
    -47.931  0.0000E+00  0.0000E+00  0.1920E+03  0.0000E+00
    -47.690  0.0000E+00  0.0000E+00  0.1920E+03  0.0000E+00
    -47.450  0.0000E+00  0.0000E+00  0.1920E+03  0.0000E+00
    -47.210  0.0000E+00  0.0000E+00  0.1920E+03  0.0000E+00
    -46.969  0.0000E+00  0.0000E+00  0.1920E+03  0.0000E+00
    -46.729  0.0000E+00  0.0000E+00  0.1920E+03  0.0000E+00
    -46.488  0.0000E+00  0.6712E+00  0.1920E+03  0.1614E+00
    -46.248  0.0000E+00  0.2655E+03  0.1920E+03  0.6400E+02
    -46.008  0.0000E+00  0.6134E+01  0.1920E+03  0.6547E+02
    -45.767  0.0000E+00  0.5263E+03  0.1920E+03  0.1920E+03
    -45.527  0.0000E+00  0.7658E-03  0.1920E+03  0.1920E+03
    -45.286  0.0000E+00  0.0000E+00  0.1920E+03  0.1920E+03
    -45.046  0.0000E+00  0.0000E+00  0.1920E+03  0.1920E+03
    -44.806  0.0000E+00  0.0000E+00  0.1920E+03  0.1920E+03
    -44.565  0.0000E+00  0.0000E+00  0.1920E+03  0.1920E+03
    -44.325  0.0000E+00  0.0000E+00  0.1920E+03  0.1920E+03
    -44.084  0.0000E+00  0.0000E+00  0.1920E+03  0.1920E+03
    -43.844  0.0000E+00  0.0000E+00  0.1920E+03  0.1920E+03
    -43.604  0.0000E+00  0.0000E+00  0.1920E+03  0.1920E+03
    -43.363  0.0000E+00  0.0000E+00  0.1920E+03  0.1920E+03
    -43.123  0.0000E+00  0.0000E+00  0.1920E+03  0.1920E+03
    -42.882  0.0000E+00  0.0000E+00  0.1920E+03  0.1920E+03
    -42.642  0.0000E+00  0.0000E+00  0.1920E+03  0.1920E+03
    -42.402  0.0000E+00  0.0000E+00  0.1920E+03  0.1920E+03
    -42.161  0.0000E+00  0.0000E+00  0.1920E+03  0.1920E+03
    -41.921  0.0000E+00  0.0000E+00  0.1920E+03  0.1920E+03
    -41.680  0.0000E+00  0.0000E+00  0.1920E+03  0.1920E+03
    -41.440  0.0000E+00  0.0000E+00  0.1920E+03  0.1920E+03
    -41.200  0.0000E+00  0.0000E+00  0.1920E+03  0.1920E+03
    -40.959  0.0000E+00  0.0000E+00  0.1920E+03  0.1920E+03
    -40.719  0.0000E+00  0.0000E+00  0.1920E+03  0.1920E+03
    -40.478  0.0000E+00  0.0000E+00  0.1920E+03  0.1920E+03
    -40.238  0.0000E+00  0.0000E+00  0.1920E+03  0.1920E+03
    -39.998  0.0000E+00  0.0000E+00  0.1920E+03  0.1920E+03
    -39.757  0.1987E-01  0.1811E-01  0.1920E+03  0.1920E+03
    -39.517  0.2652E+03  0.2651E+03  0.2557E+03  0.2557E+03
    -39.276  0.1047E+01  0.1110E+01  0.2560E+03  0.2560E+03
    -39.036  0.0000E+00  0.0000E+00  0.2560E+03  0.2560E+03
    -38.796  0.0000E+00  0.0000E+00  0.2560E+03  0.2560E+03
    -38.555  0.0000E+00  0.0000E+00  0.2560E+03  0.2560E+03
    -38.315  0.0000E+00  0.0000E+00  0.2560E+03  0.2560E+03
    -38.074  0.0000E+00  0.0000E+00  0.2560E+03  0.2560E+03
    -37.834  0.0000E+00  0.0000E+00  0.2560E+03  0.2560E+03
    -37.594  0.0000E+00  0.0000E+00  0.2560E+03  0.2560E+03
    -37.353  0.0000E+00  0.0000E+00  0.2560E+03  0.2560E+03
    -37.113  0.0000E+00  0.0000E+00  0.2560E+03  0.2560E+03
    -36.872  0.0000E+00  0.0000E+00  0.2560E+03  0.2560E+03
    -36.632  0.0000E+00  0.0000E+00  0.2560E+03  0.2560E+03
    -36.392  0.0000E+00  0.0000E+00  0.2560E+03  0.2560E+03
    -36.151  0.0000E+00  0.0000E+00  0.2560E+03  0.2560E+03
    -35.911  0.0000E+00  0.0000E+00  0.2560E+03  0.2560E+03
    -35.670  0.0000E+00  0.0000E+00  0.2560E+03  0.2560E+03
    -35.430  0.0000E+00  0.0000E+00  0.2560E+03  0.2560E+03
    -35.190  0.0000E+00  0.0000E+00  0.2560E+03  0.2560E+03
    -34.949  0.0000E+00  0.0000E+00  0.2560E+03  0.2560E+03
    -34.709  0.0000E+00  0.0000E+00  0.2560E+03  0.2560E+03
    -34.468  0.0000E+00  0.0000E+00  0.2560E+03  0.2560E+03
    -34.228  0.0000E+00  0.0000E+00  0.2560E+03  0.2560E+03
    -33.988  0.0000E+00  0.0000E+00  0.2560E+03  0.2560E+03
    -33.747  0.0000E+00  0.0000E+00  0.2560E+03  0.2560E+03
    -33.507  0.0000E+00  0.0000E+00  0.2560E+03  0.2560E+03
    -33.267  0.0000E+00  0.0000E+00  0.2560E+03  0.2560E+03
    -33.026  0.0000E+00  0.0000E+00  0.2560E+03  0.2560E+03
    -32.786  0.0000E+00  0.0000E+00  0.2560E+03  0.2560E+03
    -32.545  0.0000E+00  0.0000E+00  0.2560E+03  0.2560E+03
    -32.305  0.0000E+00  0.0000E+00  0.2560E+03  0.2560E+03
    -32.065  0.0000E+00  0.0000E+00  0.2560E+03  0.2560E+03
    -31.824  0.0000E+00  0.0000E+00  0.2560E+03  0.2560E+03
    -31.584  0.0000E+00  0.0000E+00  0.2560E+03  0.2560E+03
    -31.343  0.0000E+00  0.0000E+00  0.2560E+03  0.2560E+03
    -31.103  0.0000E+00  0.0000E+00  0.2560E+03  0.2560E+03
    -30.863  0.0000E+00  0.0000E+00  0.2560E+03  0.2560E+03
    -30.622  0.0000E+00  0.0000E+00  0.2560E+03  0.2560E+03
    -30.382  0.0000E+00  0.0000E+00  0.2560E+03  0.2560E+03
    -30.141  0.0000E+00  0.0000E+00  0.2560E+03  0.2560E+03
    -29.901  0.0000E+00  0.0000E+00  0.2560E+03  0.2560E+03
    -29.661  0.0000E+00  0.0000E+00  0.2560E+03  0.2560E+03
    -29.420  0.0000E+00  0.0000E+00  0.2560E+03  0.2560E+03
    -29.180  0.0000E+00  0.0000E+00  0.2560E+03  0.2560E+03
    -28.939  0.0000E+00  0.0000E+00  0.2560E+03  0.2560E+03
    -28.699  0.0000E+00  0.0000E+00  0.2560E+03  0.2560E+03
    -28.459  0.0000E+00  0.0000E+00  0.2560E+03  0.2560E+03
    -28.218  0.0000E+00  0.0000E+00  0.2560E+03  0.2560E+03
    -27.978  0.0000E+00  0.0000E+00  0.2560E+03  0.2560E+03
    -27.737  0.0000E+00  0.0000E+00  0.2560E+03  0.2560E+03
    -27.497  0.0000E+00  0.0000E+00  0.2560E+03  0.2560E+03
    -27.257  0.0000E+00  0.0000E+00  0.2560E+03  0.2560E+03
    -27.016  0.0000E+00  0.0000E+00  0.2560E+03  0.2560E+03
    -26.776  0.0000E+00  0.0000E+00  0.2560E+03  0.2560E+03
    -26.535  0.0000E+00  0.0000E+00  0.2560E+03  0.2560E+03
    -26.295  0.0000E+00  0.0000E+00  0.2560E+03  0.2560E+03
    -26.055  0.0000E+00  0.0000E+00  0.2560E+03  0.2560E+03
    -25.814  0.0000E+00  0.0000E+00  0.2560E+03  0.2560E+03
    -25.574  0.0000E+00  0.0000E+00  0.2560E+03  0.2560E+03
    -25.333  0.0000E+00  0.0000E+00  0.2560E+03  0.2560E+03
    -25.093  0.0000E+00  0.0000E+00  0.2560E+03  0.2560E+03
    -24.853  0.0000E+00  0.0000E+00  0.2560E+03  0.2560E+03
    -24.612  0.0000E+00  0.0000E+00  0.2560E+03  0.2560E+03
    -24.372  0.0000E+00  0.0000E+00  0.2560E+03  0.2560E+03
    -24.131  0.0000E+00  0.0000E+00  0.2560E+03  0.2560E+03
    -23.891  0.0000E+00  0.0000E+00  0.2560E+03  0.2560E+03
    -23.651  0.0000E+00  0.0000E+00  0.2560E+03  0.2560E+03
    -23.410  0.0000E+00  0.0000E+00  0.2560E+03  0.2560E+03
    -23.170  0.0000E+00  0.0000E+00  0.2560E+03  0.2560E+03
    -22.929  0.0000E+00  0.0000E+00  0.2560E+03  0.2560E+03
    -22.689  0.0000E+00  0.0000E+00  0.2560E+03  0.2560E+03
    -22.449  0.0000E+00  0.0000E+00  0.2560E+03  0.2560E+03
    -22.208  0.0000E+00  0.0000E+00  0.2560E+03  0.2560E+03
    -21.968  0.0000E+00  0.0000E+00  0.2560E+03  0.2560E+03
    -21.727  0.0000E+00  0.0000E+00  0.2560E+03  0.2560E+03
    -21.487  0.0000E+00  0.0000E+00  0.2560E+03  0.2560E+03
    -21.247  0.0000E+00  0.0000E+00  0.2560E+03  0.2560E+03
    -21.006  0.0000E+00  0.0000E+00  0.2560E+03  0.2560E+03
    -20.766  0.0000E+00  0.0000E+00  0.2560E+03  0.2560E+03
    -20.525  0.0000E+00  0.0000E+00  0.2560E+03  0.2560E+03
    -20.285  0.0000E+00  0.0000E+00  0.2560E+03  0.2560E+03
    -20.045  0.0000E+00  0.0000E+00  0.2560E+03  0.2560E+03
    -19.804  0.0000E+00  0.0000E+00  0.2560E+03  0.2560E+03
    -19.564  0.0000E+00  0.0000E+00  0.2560E+03  0.2560E+03
    -19.323  0.0000E+00  0.0000E+00  0.2560E+03  0.2560E+03
    -19.083  0.0000E+00  0.0000E+00  0.2560E+03  0.2560E+03
    -18.843  0.0000E+00  0.0000E+00  0.2560E+03  0.2560E+03
    -18.602  0.0000E+00  0.0000E+00  0.2560E+03  0.2560E+03
    -18.362  0.0000E+00  0.0000E+00  0.2560E+03  0.2560E+03
    -18.121  0.0000E+00  0.0000E+00  0.2560E+03  0.2560E+03
    -17.881  0.0000E+00  0.0000E+00  0.2560E+03  0.2560E+03
    -17.641  0.0000E+00  0.0000E+00  0.2560E+03  0.2560E+03
    -17.400  0.0000E+00  0.0000E+00  0.2560E+03  0.2560E+03
    -17.160  0.0000E+00  0.0000E+00  0.2560E+03  0.2560E+03
    -16.919  0.0000E+00  0.0000E+00  0.2560E+03  0.2560E+03
    -16.679  0.0000E+00  0.0000E+00  0.2560E+03  0.2560E+03
    -16.439  0.0000E+00  0.0000E+00  0.2560E+03  0.2560E+03
    -16.198  0.0000E+00  0.0000E+00  0.2560E+03  0.2560E+03
    -15.958  0.0000E+00  0.0000E+00  0.2560E+03  0.2560E+03
    -15.717  0.0000E+00  0.0000E+00  0.2560E+03  0.2560E+03
    -15.477  0.0000E+00  0.0000E+00  0.2560E+03  0.2560E+03
    -15.237  0.0000E+00  0.0000E+00  0.2560E+03  0.2560E+03
    -14.996  0.0000E+00  0.0000E+00  0.2560E+03  0.2560E+03
    -14.756  0.0000E+00  0.0000E+00  0.2560E+03  0.2560E+03
    -14.515  0.0000E+00  0.0000E+00  0.2560E+03  0.2560E+03
    -14.275  0.0000E+00  0.0000E+00  0.2560E+03  0.2560E+03
    -14.035  0.0000E+00  0.0000E+00  0.2560E+03  0.2560E+03
    -13.794  0.0000E+00  0.0000E+00  0.2560E+03  0.2560E+03
    -13.554  0.0000E+00  0.0000E+00  0.2560E+03  0.2560E+03
    -13.313  0.0000E+00  0.0000E+00  0.2560E+03  0.2560E+03
    -13.073  0.0000E+00  0.0000E+00  0.2560E+03  0.2560E+03
    -12.833  0.8201E-01  0.0000E+00  0.2560E+03  0.2560E+03
    -12.592  0.1320E+03  0.1632E-02  0.2878E+03  0.2560E+03
    -12.352  0.1016E+01  0.1238E+03  0.2880E+03  0.2858E+03
    -12.111  0.0000E+00  0.9298E+01  0.2880E+03  0.2880E+03
    -11.871  0.0000E+00  0.0000E+00  0.2880E+03  0.2880E+03
    -11.631  0.0000E+00  0.0000E+00  0.2880E+03  0.2880E+03
    -11.390  0.0000E+00  0.0000E+00  0.2880E+03  0.2880E+03
    -11.150  0.0000E+00  0.0000E+00  0.2880E+03  0.2880E+03
    -10.909  0.0000E+00  0.0000E+00  0.2880E+03  0.2880E+03
    -10.669  0.0000E+00  0.0000E+00  0.2880E+03  0.2880E+03
    -10.429  0.0000E+00  0.0000E+00  0.2880E+03  0.2880E+03
    -10.188  0.0000E+00  0.0000E+00  0.2880E+03  0.2880E+03
     -9.948  0.0000E+00  0.0000E+00  0.2880E+03  0.2880E+03
     -9.707  0.0000E+00  0.0000E+00  0.2880E+03  0.2880E+03
     -9.467  0.0000E+00  0.0000E+00  0.2880E+03  0.2880E+03
     -9.227  0.0000E+00  0.0000E+00  0.2880E+03  0.2880E+03
     -8.986  0.0000E+00  0.0000E+00  0.2880E+03  0.2880E+03
     -8.746  0.0000E+00  0.0000E+00  0.2880E+03  0.2880E+03
     -8.505  0.0000E+00  0.0000E+00  0.2880E+03  0.2880E+03
     -8.265  0.0000E+00  0.0000E+00  0.2880E+03  0.2880E+03
     -8.025  0.5584E-10  0.0000E+00  0.2880E+03  0.2880E+03
     -7.784  0.9467E+00  0.4403E-07  0.2882E+03  0.2880E+03
     -7.544  0.1881E+02  0.2890E+01  0.2927E+03  0.2887E+03
     -7.303  0.2821E+02  0.2239E+02  0.2995E+03  0.2941E+03
     -7.063  0.5390E+02  0.3107E+02  0.3125E+03  0.3015E+03
     -6.823  0.1469E+03  0.4890E+02  0.3478E+03  0.3133E+03
     -6.582  0.1745E+02  0.1390E+03  0.3520E+03  0.3467E+03
     -6.342  0.0000E+00  0.2201E+02  0.3520E+03  0.3520E+03
     -6.101  0.0000E+00  0.1072E-04  0.3520E+03  0.3520E+03
     -5.861  0.0000E+00  0.0000E+00  0.3520E+03  0.3520E+03
     -5.621  0.0000E+00  0.0000E+00  0.3520E+03  0.3520E+03
     -5.380  0.0000E+00  0.0000E+00  0.3520E+03  0.3520E+03
     -5.140  0.0000E+00  0.0000E+00  0.3520E+03  0.3520E+03
     -4.899  0.0000E+00  0.0000E+00  0.3520E+03  0.3520E+03
     -4.659  0.0000E+00  0.0000E+00  0.3520E+03  0.3520E+03
     -4.419  0.0000E+00  0.0000E+00  0.3520E+03  0.3520E+03
     -4.178  0.0000E+00  0.0000E+00  0.3520E+03  0.3520E+03
     -3.938  0.0000E+00  0.0000E+00  0.3520E+03  0.3520E+03
     -3.697  0.0000E+00  0.0000E+00  0.3520E+03  0.3520E+03
     -3.457  0.0000E+00  0.0000E+00  0.3520E+03  0.3520E+03
     -3.217  0.0000E+00  0.0000E+00  0.3520E+03  0.3520E+03
     -2.976  0.0000E+00  0.0000E+00  0.3520E+03  0.3520E+03
     -2.736  0.0000E+00  0.0000E+00  0.3520E+03  0.3520E+03
     -2.495  0.0000E+00  0.0000E+00  0.3520E+03  0.3520E+03
     -2.255  0.0000E+00  0.0000E+00  0.3520E+03  0.3520E+03
     -2.015  0.0000E+00  0.0000E+00  0.3520E+03  0.3520E+03
     -1.774  0.5619E-12  0.0000E+00  0.3520E+03  0.3520E+03
     -1.534  0.1280E+01  0.0000E+00  0.3523E+03  0.3520E+03
     -1.293  0.1002E+03  0.0000E+00  0.3764E+03  0.3520E+03
     -1.053  0.3160E+02  0.0000E+00  0.3840E+03  0.3520E+03
     -0.813  0.1254E+02  0.0000E+00  0.3870E+03  0.3520E+03
     -0.572  0.8967E+02  0.8486E-05  0.4086E+03  0.3520E+03
     -0.332  0.2241E+03  0.4110E+01  0.4625E+03  0.3530E+03
     -0.091  0.2016E+03  0.2465E+02  0.5109E+03  0.3589E+03
      0.149  0.1766E+03  0.4112E+02  0.5534E+03  0.3688E+03
      0.389  0.1517E+03  0.4243E+02  0.5898E+03  0.3790E+03
      0.630  0.1196E+03  0.7201E+02  0.6186E+03  0.3963E+03
      0.870  0.5431E+02  0.6036E+02  0.6316E+03  0.4108E+03
      1.111  0.6984E+02  0.6544E+02  0.6484E+03  0.4265E+03
      1.351  0.7333E+02  0.6775E+02  0.6661E+03  0.4428E+03
      1.591  0.6803E+02  0.7759E+02  0.6824E+03  0.4615E+03
      1.832  0.1108E+03  0.1111E+03  0.7090E+03  0.4882E+03
      2.072  0.2135E+03  0.6189E+02  0.7604E+03  0.5031E+03
      2.313  0.1398E+03  0.3792E+02  0.7940E+03  0.5122E+03
      2.553  0.8446E+02  0.7755E+02  0.8143E+03  0.5308E+03
      2.793  0.6863E+02  0.1040E+03  0.8308E+03  0.5558E+03
      3.034  0.3525E+02  0.7076E+02  0.8392E+03  0.5728E+03
      3.274  0.4049E+02  0.1314E+03  0.8490E+03  0.6044E+03
      3.515  0.5190E+02  0.1170E+03  0.8615E+03  0.6326E+03
      3.755  0.6738E+02  0.2512E+02  0.8777E+03  0.6386E+03
      3.995  0.7989E+02  0.4406E+02  0.8969E+03  0.6492E+03
      4.236  0.8004E+02  0.1786E+03  0.9161E+03  0.6921E+03
      4.476  0.7571E+02  0.4765E+02  0.9343E+03  0.7036E+03
      4.717  0.2868E+02  0.1650E+01  0.9412E+03  0.7040E+03
      4.957  0.6457E+02  0.0000E+00  0.9567E+03  0.7040E+03
      5.197  0.1364E+02  0.0000E+00  0.9600E+03  0.7040E+03
      5.438  0.0000E+00  0.0000E+00  0.9600E+03  0.7040E+03
      5.678  0.0000E+00  0.0000E+00  0.9600E+03  0.7040E+03
      5.919  0.0000E+00  0.0000E+00  0.9600E+03  0.7040E+03
      6.159  0.0000E+00  0.9451E-07  0.9600E+03  0.7040E+03
      6.399  0.0000E+00  0.1035E+01  0.9600E+03  0.7042E+03
      6.640  0.0000E+00  0.1015E+02  0.9600E+03  0.7067E+03
      6.880  0.0000E+00  0.2661E+02  0.9600E+03  0.7131E+03
      7.121  0.2886E-16  0.6594E+02  0.9600E+03  0.7289E+03
      7.361  0.6003E-01  0.1114E+03  0.9600E+03  0.7557E+03
      7.601  0.1500E+01  0.1393E+03  0.9604E+03  0.7892E+03
      7.842  0.5161E+01  0.1182E+03  0.9616E+03  0.8176E+03
      8.082  0.7085E+01  0.1787E+03  0.9633E+03  0.8606E+03
      8.323  0.9296E+01  0.1456E+03  0.9656E+03  0.8956E+03
      8.563  0.1253E+02  0.6208E+02  0.9686E+03  0.9105E+03
      8.803  0.1452E+02  0.8253E+02  0.9721E+03  0.9303E+03
      9.044  0.2713E+02  0.7291E+02  0.9786E+03  0.9479E+03
      9.284  0.3347E+02  0.5733E+02  0.9866E+03  0.9617E+03
      9.525  0.3543E+02  0.2311E+02  0.9951E+03  0.9672E+03
      9.765  0.5316E+02  0.3405E+02  0.1008E+04  0.9754E+03
     10.005  0.5115E+02  0.2268E+02  0.1020E+04  0.9808E+03
     10.246  0.3383E+02  0.3881E+02  0.1028E+04  0.9902E+03
     10.486  0.2158E+02  0.4335E+02  0.1034E+04  0.1001E+04
     10.727  0.4557E+02  0.6115E+02  0.1044E+04  0.1015E+04
     10.967  0.3308E+02  0.4344E+02  0.1052E+04  0.1026E+04
     11.207  0.4363E+02  0.4018E+02  0.1063E+04  0.1035E+04
     11.448  0.7798E+02  0.3452E+02  0.1082E+04  0.1044E+04
     11.688  0.4280E+02  0.4376E+02  0.1092E+04  0.1054E+04
     11.928  0.6450E+02  0.5196E+02  0.1107E+04  0.1067E+04
     12.169  0.6672E+02  0.5744E+02  0.1124E+04  0.1081E+04
     12.409  0.6927E+02  0.5324E+02  0.1140E+04  0.1093E+04
     12.650  0.6094E+02  0.6697E+02  0.1155E+04  0.1109E+04
     12.890  0.5274E+02  0.7974E+02  0.1167E+04  0.1129E+04
     13.130  0.5854E+02  0.6457E+02  0.1182E+04  0.1144E+04
     13.371  0.4846E+02  0.6630E+02  0.1193E+04  0.1160E+04
     13.611  0.4014E+02  0.6460E+02  0.1203E+04  0.1176E+04
     13.852  0.1882E+02  0.5729E+02  0.1207E+04  0.1189E+04
     14.092  0.2516E+01  0.5304E+02  0.1208E+04  0.1202E+04
     14.332  0.0000E+00  0.2143E+02  0.1208E+04  0.1207E+04
     14.573  0.0000E+00  0.3090E+01  0.1208E+04  0.1208E+04
     14.813  0.0000E+00  0.3930E-05  0.1208E+04  0.1208E+04
     15.054  0.0000E+00  0.0000E+00  0.1208E+04  0.1208E+04
     15.294  0.0000E+00  0.0000E+00  0.1208E+04  0.1208E+04
     15.534  0.0000E+00  0.0000E+00  0.1208E+04  0.1208E+04
     15.775  0.0000E+00  0.0000E+00  0.1208E+04  0.1208E+04
     16.015  0.0000E+00  0.0000E+00  0.1208E+04  0.1208E+04
     16.256  0.0000E+00  0.0000E+00  0.1208E+04  0.1208E+04
     16.496  0.0000E+00  0.0000E+00  0.1208E+04  0.1208E+04
     16.736  0.0000E+00  0.0000E+00  0.1208E+04  0.1208E+04
     16.977  0.0000E+00  0.0000E+00  0.1208E+04  0.1208E+04
     17.217  0.0000E+00  0.0000E+00  0.1208E+04  0.1208E+04
     17.458  0.0000E+00  0.0000E+00  0.1208E+04  0.1208E+04
     17.698  0.0000E+00  0.0000E+00  0.1208E+04  0.1208E+04
