  224  224    1    2
  0.1357572E+02  0.1537960E-08  0.1537962E-08  0.1395899E-08  0.5000000E-15
  1.000000000000000E-004
  CAR 
 unknown system                          
   1664      8   1208
 
  0.0000000E+00  0.0000000E+00  0.0000000E+00  0.1250000E+00
    1      -51.143440    -46.392667   1.000000   1.000000
    2      -51.143005    -46.391934   1.000000   1.000000
    3      -51.141647    -46.391097   1.000000   1.000000
    4      -51.141376    -46.390685   1.000000   1.000000
    5      -51.141362    -46.390659   1.000000   1.000000
    6      -51.141244    -46.390542   1.000000   1.000000
    7      -51.141195    -46.390464   1.000000   1.000000
    8      -51.141187    -46.390334   1.000000   1.000000
    9      -51.141107    -46.390316   1.000000   1.000000
   10      -51.141102    -46.390258   1.000000   1.000000
   11      -51.141039    -46.390160   1.000000   1.000000
   12      -51.140980    -46.390149   1.000000   1.000000
   13      -51.140936    -46.390056   1.000000   1.000000
   14      -51.140911    -46.390022   1.000000   1.000000
   15      -51.140896    -46.390007   1.000000   1.000000
   16      -51.140854    -46.389978   1.000000   1.000000
   17      -51.140833    -46.389907   1.000000   1.000000
   18      -51.140795    -46.389842   1.000000   1.000000
   19      -51.140727    -46.389757   1.000000   1.000000
   20      -51.140700    -46.389716   1.000000   1.000000
   21      -51.140678    -46.389705   1.000000   1.000000
   22      -51.140643    -46.389668   1.000000   1.000000
   23      -51.140604    -46.389646   1.000000   1.000000
   24      -51.140559    -46.389588   1.000000   1.000000
   25      -51.140533    -46.389545   1.000000   1.000000
   26      -51.140520    -46.389526   1.000000   1.000000
   27      -51.140503    -46.389514   1.000000   1.000000
   28      -51.140480    -46.389496   1.000000   1.000000
   29      -51.140469    -46.389459   1.000000   1.000000
   30      -51.140439    -46.389425   1.000000   1.000000
   31      -51.140397    -46.389398   1.000000   1.000000
   32      -51.140347    -46.389364   1.000000   1.000000
   33      -51.140307    -46.389140   1.000000   1.000000
   34      -51.140258    -46.389077   1.000000   1.000000
   35      -51.140245    -46.389042   1.000000   1.000000
   36      -51.140228    -46.388962   1.000000   1.000000
   37      -51.140181    -46.388935   1.000000   1.000000
   38      -51.140118    -46.388873   1.000000   1.000000
   39      -51.140111    -46.388846   1.000000   1.000000
   40      -51.140079    -46.388805   1.000000   1.000000
   41      -51.140053    -46.388790   1.000000   1.000000
   42      -51.140042    -46.388779   1.000000   1.000000
   43      -51.140017    -46.388773   1.000000   1.000000
   44      -51.139997    -46.388761   1.000000   1.000000
   45      -51.139955    -46.388708   1.000000   1.000000
   46      -51.139948    -46.388668   1.000000   1.000000
   47      -51.139933    -46.388656   1.000000   1.000000
   48      -51.139906    -46.388619   1.000000   1.000000
   49      -51.139840    -46.388558   1.000000   1.000000
   50      -51.139814    -46.388500   1.000000   1.000000
   51      -51.139771    -46.388495   1.000000   1.000000
   52      -51.139749    -46.388445   1.000000   1.000000
   53      -51.139717    -46.388392   1.000000   1.000000
   54      -51.139679    -46.388375   1.000000   1.000000
   55      -51.139635    -46.388295   1.000000   1.000000
   56      -51.139606    -46.388245   1.000000   1.000000
   57      -51.139566    -46.388176   1.000000   1.000000
   58      -51.139521    -46.388083   1.000000   1.000000
   59      -51.139465    -46.387997   1.000000   1.000000
   60      -51.139416    -46.387943   1.000000   1.000000
   61      -51.139347    -46.387894   1.000000   1.000000
   62      -51.139141    -46.387555   1.000000   1.000000
   63      -51.137742    -46.386641   1.000000   1.000000
   64      -51.137312    -46.385910   1.000000   1.000000
   65      -49.648870    -45.930411   1.000000   1.000000
   66      -49.648830    -45.930357   1.000000   1.000000
   67      -49.647973    -45.929846   1.000000   1.000000
   68      -49.647943    -45.929792   1.000000   1.000000
   69      -49.647605    -45.929092   1.000000   1.000000
   70      -49.647579    -45.929028   1.000000   1.000000
   71      -49.647514    -45.929013   1.000000   1.000000
   72      -49.647494    -45.928951   1.000000   1.000000
   73      -49.647374    -45.928741   1.000000   1.000000
   74      -49.647356    -45.928717   1.000000   1.000000
   75      -49.647291    -45.928684   1.000000   1.000000
   76      -49.647270    -45.928667   1.000000   1.000000
   77      -49.647258    -45.928652   1.000000   1.000000
   78      -49.647254    -45.928629   1.000000   1.000000
   79      -49.647243    -45.928611   1.000000   1.000000
   80      -49.647220    -45.928572   1.000000   1.000000
   81      -49.647190    -45.928515   1.000000   1.000000
   82      -49.647168    -45.928499   1.000000   1.000000
   83      -49.647165    -45.928475   1.000000   1.000000
   84      -49.647151    -45.928440   1.000000   1.000000
   85      -49.647131    -45.928435   1.000000   1.000000
   86      -49.647114    -45.928410   1.000000   1.000000
   87      -49.647097    -45.928395   1.000000   1.000000
   88      -49.647065    -45.928364   1.000000   1.000000
   89      -49.647043    -45.928351   1.000000   1.000000
   90      -49.646981    -45.928319   1.000000   1.000000
   91      -49.646970    -45.928305   1.000000   1.000000
   92      -49.646929    -45.928281   1.000000   1.000000
   93      -49.646870    -45.928273   1.000000   1.000000
   94      -49.646843    -45.928255   1.000000   1.000000
   95      -49.646787    -45.928231   1.000000   1.000000
   96      -49.646770    -45.928200   1.000000   1.000000
   97      -49.646706    -45.928170   1.000000   1.000000
   98      -49.646672    -45.928110   1.000000   1.000000
   99      -49.646651    -45.928049   1.000000   1.000000
  100      -49.646622    -45.928018   1.000000   1.000000
  101      -49.646586    -45.928016   1.000000   1.000000
  102      -49.646569    -45.927986   1.000000   1.000000
  103      -49.646556    -45.927928   1.000000   1.000000
  104      -49.646529    -45.927898   1.000000   1.000000
  105      -49.646416    -45.927881   1.000000   1.000000
  106      -49.646398    -45.927860   1.000000   1.000000
  107      -49.646344    -45.927814   1.000000   1.000000
  108      -49.646326    -45.927808   1.000000   1.000000
  109      -49.646310    -45.927660   1.000000   1.000000
  110      -49.646292    -45.927624   1.000000   1.000000
  111      -49.646189    -45.927616   1.000000   1.000000
  112      -49.646181    -45.927585   1.000000   1.000000
  113      -49.646094    -45.927499   1.000000   1.000000
  114      -49.646068    -45.927474   1.000000   1.000000
  115      -49.646053    -45.927442   1.000000   1.000000
  116      -49.646000    -45.927423   1.000000   1.000000
  117      -49.645901    -45.927398   1.000000   1.000000
  118      -49.645886    -45.927373   1.000000   1.000000
  119      -49.645861    -45.927344   1.000000   1.000000
  120      -49.645834    -45.927317   1.000000   1.000000
  121      -49.645799    -45.927308   1.000000   1.000000
  122      -49.645775    -45.927291   1.000000   1.000000
  123      -49.645698    -45.927264   1.000000   1.000000
  124      -49.645675    -45.927251   1.000000   1.000000
  125      -49.645593    -45.927194   1.000000   1.000000
  126      -49.645572    -45.927158   1.000000   1.000000
  127      -49.645525    -45.927142   1.000000   1.000000
  128      -49.645486    -45.927110   1.000000   1.000000
  129      -49.645484    -45.927103   1.000000   1.000000
  130      -49.645477    -45.927088   1.000000   1.000000
  131      -49.645451    -45.927028   1.000000   1.000000
  132      -49.645429    -45.927019   1.000000   1.000000
  133      -49.645427    -45.927007   1.000000   1.000000
  134      -49.645408    -45.926997   1.000000   1.000000
  135      -49.645396    -45.926982   1.000000   1.000000
  136      -49.645360    -45.926965   1.000000   1.000000
  137      -49.645317    -45.926954   1.000000   1.000000
  138      -49.645288    -45.926936   1.000000   1.000000
  139      -49.645265    -45.926914   1.000000   1.000000
  140      -49.645255    -45.926877   1.000000   1.000000
  141      -49.645237    -45.926873   1.000000   1.000000
  142      -49.645227    -45.926849   1.000000   1.000000
  143      -49.645196    -45.926810   1.000000   1.000000
  144      -49.645187    -45.926752   1.000000   1.000000
  145      -49.645162    -45.926721   1.000000   1.000000
  146      -49.645150    -45.926707   1.000000   1.000000
  147      -49.645129    -45.926687   1.000000   1.000000
  148      -49.645110    -45.926652   1.000000   1.000000
  149      -49.645056    -45.926639   1.000000   1.000000
  150      -49.645031    -45.926619   1.000000   1.000000
  151      -49.644995    -45.926607   1.000000   1.000000
  152      -49.644954    -45.926586   1.000000   1.000000
  153      -49.644882    -45.926571   1.000000   1.000000
  154      -49.644862    -45.926543   1.000000   1.000000
  155      -49.644850    -45.926517   1.000000   1.000000
  156      -49.644816    -45.926499   1.000000   1.000000
  157      -49.644795    -45.926459   1.000000   1.000000
  158      -49.644769    -45.926450   1.000000   1.000000
  159      -49.644657    -45.926438   1.000000   1.000000
  160      -49.644631    -45.926426   1.000000   1.000000
  161      -49.644603    -45.926409   1.000000   1.000000
  162      -49.644564    -45.926391   1.000000   1.000000
  163      -49.644554    -45.926379   1.000000   1.000000
  164      -49.644529    -45.926356   1.000000   1.000000
  165      -49.644482    -45.926325   1.000000   1.000000
  166      -49.644463    -45.926289   1.000000   1.000000
  167      -49.644438    -45.926250   1.000000   1.000000
  168      -49.644407    -45.926241   1.000000   1.000000
  169      -49.644373    -45.926184   1.000000   1.000000
  170      -49.644305    -45.926165   1.000000   1.000000
  171      -49.644241    -45.926135   1.000000   1.000000
  172      -49.644237    -45.926117   1.000000   1.000000
  173      -49.644162    -45.926110   1.000000   1.000000
  174      -49.644141    -45.926088   1.000000   1.000000
  175      -49.644108    -45.926069   1.000000   1.000000
  176      -49.644105    -45.926048   1.000000   1.000000
  177      -49.644084    -45.926003   1.000000   1.000000
  178      -49.644063    -45.925946   1.000000   1.000000
  179      -49.644013    -45.925868   1.000000   1.000000
  180      -49.644002    -45.925817   1.000000   1.000000
  181      -49.643959    -45.925751   1.000000   1.000000
  182      -49.643945    -45.925746   1.000000   1.000000
  183      -49.643868    -45.925707   1.000000   1.000000
  184      -49.643840    -45.925699   1.000000   1.000000
  185      -49.643742    -45.925636   1.000000   1.000000
  186      -49.643697    -45.925605   1.000000   1.000000
  187      -49.643565    -45.925517   1.000000   1.000000
  188      -49.643525    -45.925420   1.000000   1.000000
  189      -49.643425    -45.924620   1.000000   1.000000
  190      -49.643393    -45.924570   1.000000   1.000000
  191      -49.642068    -45.924376   1.000000   1.000000
  192      -49.642031    -45.924318   1.000000   1.000000
  193      -39.641197    -39.640280   1.000000   1.000000
  194      -39.641047    -39.640130   1.000000   1.000000
  195      -39.634367    -39.633494   1.000000   1.000000
  196      -39.633520    -39.632648   1.000000   1.000000
  197      -39.633436    -39.632563   1.000000   1.000000
  198      -39.633434    -39.632562   1.000000   1.000000
  199      -39.633414    -39.632541   1.000000   1.000000
  200      -39.633363    -39.632490   1.000000   1.000000
  201      -39.633361    -39.632489   1.000000   1.000000
  202      -39.632666    -39.631795   1.000000   1.000000
  203      -39.628234    -39.627395   1.000000   1.000000
  204      -39.628104    -39.627265   1.000000   1.000000
  205      -39.627804    -39.626967   1.000000   1.000000
  206      -39.627772    -39.626934   1.000000   1.000000
  207      -39.627765    -39.626927   1.000000   1.000000
  208      -39.627701    -39.626863   1.000000   1.000000
  209      -39.627425    -39.626588   1.000000   1.000000
  210      -39.627269    -39.626432   1.000000   1.000000
  211      -39.617464    -39.616691   1.000000   1.000000
  212      -39.616227    -39.615454   1.000000   1.000000
  213      -39.616075    -39.615298   1.000000   1.000000
  214      -39.615956    -39.615180   1.000000   1.000000
  215      -39.615777    -39.615001   1.000000   1.000000
  216      -39.615659    -39.614888   1.000000   1.000000
  217      -39.615621    -39.614841   1.000000   1.000000
  218      -39.615610    -39.614830   1.000000   1.000000
  219      -39.615515    -39.614736   1.000000   1.000000
  220      -39.615316    -39.614543   1.000000   1.000000
  221      -39.615256    -39.614489   1.000000   1.000000
  222      -39.615245    -39.614478   1.000000   1.000000
  223      -39.615155    -39.614388   1.000000   1.000000
  224      -39.615139    -39.614372   1.000000   1.000000
  225      -39.615134    -39.614367   1.000000   1.000000
  226      -39.615077    -39.614309   1.000000   1.000000
  227      -39.615014    -39.614246   1.000000   1.000000
  228      -39.615014    -39.614245   1.000000   1.000000
  229      -39.614999    -39.614230   1.000000   1.000000
  230      -39.614901    -39.614133   1.000000   1.000000
  231      -39.614899    -39.614131   1.000000   1.000000
  232      -39.614857    -39.614089   1.000000   1.000000
  233      -39.614661    -39.613897   1.000000   1.000000
  234      -39.614644    -39.613882   1.000000   1.000000
  235      -39.614398    -39.613641   1.000000   1.000000
  236      -39.614283    -39.613526   1.000000   1.000000
  237      -39.613869    -39.613105   1.000000   1.000000
  238      -39.613077    -39.612314   1.000000   1.000000
  239      -39.604234    -39.603515   1.000000   1.000000
  240      -39.604129    -39.603409   1.000000   1.000000
  241      -39.603878    -39.603160   1.000000   1.000000
  242      -39.603807    -39.603088   1.000000   1.000000
  243      -39.603800    -39.603081   1.000000   1.000000
  244      -39.603778    -39.603058   1.000000   1.000000
  245      -39.603519    -39.602800   1.000000   1.000000
  246      -39.603361    -39.602642   1.000000   1.000000
  247      -39.600183    -39.599476   1.000000   1.000000
  248      -39.599599    -39.598893   1.000000   1.000000
  249      -39.599597    -39.598891   1.000000   1.000000
  250      -39.599539    -39.598833   1.000000   1.000000
  251      -39.599527    -39.598822   1.000000   1.000000
  252      -39.599522    -39.598817   1.000000   1.000000
  253      -39.599400    -39.598694   1.000000   1.000000
  254      -39.598664    -39.597959   1.000000   1.000000
  255      -39.593300    -39.592618   1.000000   1.000000
  256      -39.593119    -39.592436   1.000000   1.000000
  257      -12.747491    -12.468047   1.000000   1.000000
  258      -12.747198    -12.467728   1.000000   1.000000
  259      -12.722410    -12.442832   1.000000   1.000000
  260      -12.719375    -12.439620   1.000000   1.000000
  261      -12.719363    -12.439608   1.000000   1.000000
  262      -12.719341    -12.439589   1.000000   1.000000
  263      -12.719325    -12.439573   1.000000   1.000000
  264      -12.719291    -12.439542   1.000000   1.000000
  265      -12.719290    -12.439540   1.000000   1.000000
  266      -12.717489    -12.437678   1.000000   1.000000
  267      -12.698765    -12.418930   1.000000   1.000000
  268      -12.696863    -12.416724   1.000000   1.000000
  269      -12.695991    -12.416200   1.000000   1.000000
  270      -12.694766    -12.415158   1.000000   1.000000
  271      -12.694752    -12.415145   1.000000   1.000000
  272      -12.694012    -12.414418   1.000000   1.000000
  273      -12.692956    -12.413733   1.000000   1.000000
  274      -12.692096    -12.412800   1.000000   1.000000
  275      -12.691688    -12.411834   1.000000   1.000000
  276      -12.691256    -12.411222   1.000000   1.000000
  277      -12.691255    -12.411220   1.000000   1.000000
  278      -12.688848    -12.408878   1.000000   1.000000
  279      -12.673730    -12.393795   1.000000   1.000000
  280      -12.672696    -12.392679   1.000000   1.000000
  281      -12.672662    -12.392648   1.000000   1.000000
  282      -12.671502    -12.391561   1.000000   1.000000
  283      -12.668405    -12.389485   1.000000   1.000000
  284      -12.667627    -12.388736   1.000000   1.000000
  285      -12.667593    -12.388704   1.000000   1.000000
  286      -12.665675    -12.386539   1.000000   1.000000
  287      -12.654330    -12.374363   1.000000   1.000000
  288      -12.643610    -12.365862   1.000000   1.000000
  289       -7.800024     -7.599024   1.000000   1.000000
  290       -7.748231     -7.551509   1.000000   1.000000
  291       -7.505513     -7.319257   1.000000   1.000000
  292       -7.505387     -7.319132   1.000000   1.000000
  293       -7.505324     -7.319071   1.000000   1.000000
  294       -7.505198     -7.318947   1.000000   1.000000
  295       -7.501085     -7.308940   1.000000   1.000000
  296       -7.500971     -7.308828   1.000000   1.000000
  297       -7.500899     -7.308758   1.000000   1.000000
  298       -7.500786     -7.308647   1.000000   1.000000
  299       -7.315194     -7.117737   1.000000   1.000000
  300       -7.315103     -7.117655   1.000000   1.000000
  301       -7.296872     -7.093584   1.000000   1.000000
  302       -7.296832     -7.093545   1.000000   1.000000
  303       -7.296792     -7.093512   1.000000   1.000000
  304       -7.296754     -7.093474   1.000000   1.000000
  305       -7.269278     -7.061974   1.000000   1.000000
  306       -7.269184     -7.061892   1.000000   1.000000
  307       -7.088624     -6.893904   1.000000   1.000000
  308       -7.084717     -6.893845   1.000000   1.000000
  309       -7.084656     -6.893829   1.000000   1.000000
  310       -7.084628     -6.893775   1.000000   1.000000
  311       -7.084570     -6.796722   1.000000   1.000000
  312       -7.046564     -6.783789   1.000000   1.000000
  313       -6.999994     -6.767966   1.000000   1.000000
  314       -6.999825     -6.767906   1.000000   1.000000
  315       -6.999816     -6.767889   1.000000   1.000000
  316       -6.999768     -6.767835   1.000000   1.000000
  317       -6.999757     -6.766311   1.000000   1.000000
  318       -6.999712     -6.766133   1.000000   1.000000
  319       -6.999705     -6.766129   1.000000   1.000000
  320       -6.999534     -6.766083   1.000000   1.000000
  321       -6.994319     -6.766075   1.000000   1.000000
  322       -6.994203     -6.766033   1.000000   1.000000
  323       -6.994133     -6.766030   1.000000   1.000000
  324       -6.994017     -6.765850   1.000000   1.000000
  325       -6.955828     -6.745021   1.000000   1.000000
  326       -6.955767     -6.744907   1.000000   1.000000
  327       -6.955738     -6.744839   1.000000   1.000000
  328       -6.955680     -6.744725   1.000000   1.000000
  329       -6.948361     -6.697487   1.000000   1.000000
  330       -6.948278     -6.697416   1.000000   1.000000
  331       -6.928760     -6.689212   1.000000   1.000000
  332       -6.928641     -6.689097   1.000000   1.000000
  333       -6.928576     -6.689034   1.000000   1.000000
  334       -6.928456     -6.688918   1.000000   1.000000
  335       -6.911317     -6.639262   1.000000   1.000000
  336       -6.911302     -6.639078   1.000000   1.000000
  337       -6.885682     -6.639071   1.000000   1.000000
  338       -6.885668     -6.639053   1.000000   1.000000
  339       -6.885614     -6.639019   1.000000   1.000000
  340       -6.885597     -6.638973   1.000000   1.000000
  341       -6.877034     -6.638972   1.000000   1.000000
  342       -6.876870     -6.638817   1.000000   1.000000
  343       -6.876863     -6.638419   1.000000   1.000000
  344       -6.876814     -6.638366   1.000000   1.000000
  345       -6.876797     -6.638346   1.000000   1.000000
  346       -6.876756     -6.638317   1.000000   1.000000
  347       -6.876750     -6.628081   1.000000   1.000000
  348       -6.876579     -6.628063   1.000000   1.000000
  349       -6.832640     -6.586672   1.000000   1.000000
  350       -6.832557     -6.586601   1.000000   1.000000
  351       -6.794273     -6.499093   1.000000   1.000000
  352       -6.794257     -6.499075   1.000000   1.000000
  353       -1.525537     -0.415104   1.000000   1.000000
  354       -1.468409     -0.414581   1.000000   1.000000
  355       -1.467708     -0.414454   1.000000   1.000000
  356       -1.467640     -0.413939   1.000000   1.000000
  357       -1.467082      0.025410   1.000000   1.000000
  358       -1.460820      0.026316   1.000000   1.000000
  359       -1.460333      0.026446   1.000000   1.000000
  360       -1.460197      0.027012   1.000000   1.000000
  361       -1.459616      0.036885   1.000000   1.000000
  362       -1.421748      0.037907   1.000000   1.000000
  363       -1.420993      0.037958   1.000000   1.000000
  364       -1.383447      0.038044   1.000000   1.000000
  365       -1.382823      0.038057   1.000000   1.000000
  366       -1.382754      0.038126   1.000000   1.000000
  367       -1.382110      0.038180   1.000000   1.000000
  368       -1.333696      0.039438   1.000000   1.000000
  369       -1.332596      0.102445   1.000000   1.000000
  370       -1.332562      0.103352   1.000000   1.000000
  371       -1.332512      0.206743   1.000000   1.000000
  372       -1.332463      0.207499   1.000000   1.000000
  373       -1.332454      0.207577   1.000000   1.000000
  374       -1.332438      0.208383   1.000000   1.000000
  375       -1.331320      0.304162   1.000000   1.000000
  376       -1.293059      0.391742   1.000000   1.000000
  377       -1.292520      0.392551   1.000000   1.000000
  378       -1.292450      0.392669   1.000000   1.000000
  379       -1.291853      0.393407   1.000000   1.000000
  380       -1.256810      0.490399   1.000000   1.000000
  381       -1.256770      0.491368   1.000000   1.000000
  382       -1.232518      0.497506   1.000000   1.000000
  383       -1.231817      0.497664   1.000000   1.000000
  384       -1.220366      0.497703   1.000000   1.000000
  385       -0.822879      0.497900   1.000000   1.000000
  386       -0.822754      0.510652   1.000000   1.000000
  387       -0.822651      0.510728   1.000000   1.000000
  388       -0.822516      0.531125   1.000000   1.000000
  389       -0.722840      0.531204   1.000000   1.000000
  390       -0.722467      0.531294   1.000000   1.000000
  391       -0.699220      0.531377   1.000000   1.000000
  392       -0.699146      0.574193   1.000000   1.000000
  393       -0.699120      0.574248   1.000000   1.000000
  394       -0.698728      0.574311   1.000000   1.000000
  395       -0.688516      0.574349   1.000000   1.000000
  396       -0.688447      0.574406   1.000000   1.000000
  397       -0.688186      0.574435   1.000000   1.000000
  398       -0.688104      0.574524   1.000000   1.000000
  399       -0.666889      0.574598   1.000000   1.000000
  400       -0.666487      0.638607   1.000000   1.000000
  401       -0.666411      0.666212   1.000000   1.000000
  402       -0.666397      0.666431   1.000000   1.000000
  403       -0.652167      0.733085   1.000000   1.000000
  404       -0.651805      0.733105   1.000000   1.000000
  405       -0.651779      0.931392   1.000000   1.000000
  406       -0.651675      0.932454   1.000000   1.000000
  407       -0.589605      0.935299   1.000000   1.000000
  408       -0.589228      0.935931   1.000000   1.000000
  409       -0.576864      0.948663   1.000000   1.000000
  410       -0.576624      0.948833   1.000000   1.000000
  411       -0.576471      0.948936   1.000000   1.000000
  412       -0.576218      0.949338   1.000000   1.000000
  413       -0.553383      0.985748   1.000000   1.000000
  414       -0.553380      0.986122   1.000000   1.000000
  415       -0.553228      0.986291   1.000000   1.000000
  416       -0.552860      0.986750   1.000000   1.000000
  417       -0.497623      0.992794   1.000000   1.000000
  418       -0.496887      0.992961   1.000000   1.000000
  419       -0.472914      1.008657   1.000000   1.000000
  420       -0.472687      1.008922   1.000000   1.000000
  421       -0.461579      1.008965   1.000000   1.000000
  422       -0.461567      1.009234   1.000000   1.000000
  423       -0.461289      1.018463   1.000000   1.000000
  424       -0.461079      1.048926   1.000000   1.000000
  425       -0.459791      1.049276   1.000000   1.000000
  426       -0.459775      1.051304   1.000000   1.000000
  427       -0.459487      1.051701   1.000000   1.000000
  428       -0.459268      1.051776   1.000000   1.000000
  429       -0.410295      1.052252   1.000000   1.000000
  430       -0.409751      1.078216   1.000000   1.000000
  431       -0.408045      1.078812   1.000000   1.000000
  432       -0.407548      1.078849   1.000000   1.000000
  433       -0.407501      1.079167   1.000000   1.000000
  434       -0.407430      1.079528   1.000000   1.000000
  435       -0.407331      1.079756   1.000000   1.000000
  436       -0.406915      1.079961   1.000000   1.000000
  437       -0.383339      1.080347   1.000000   1.000000
  438       -0.383247      1.192438   1.000000   1.000000
  439       -0.378173      1.193324   1.000000   1.000000
  440       -0.368853      1.376454   1.000000   1.000000
  441       -0.368837      1.390356   1.000000   1.000000
  442       -0.368731      1.391116   1.000000   1.000000
  443       -0.368709      1.391178   1.000000   1.000000
  444       -0.368678      1.391355   1.000000   1.000000
  445       -0.368642      1.391408   1.000000   1.000000
  446       -0.368590      1.437297   1.000000   1.000000
  447       -0.368555      1.450200   1.000000   1.000000
  448       -0.353571      1.525650   1.000000   1.000000
  449       -0.353539      1.526434   1.000000   1.000000
  450       -0.349066      1.526515   1.000000   1.000000
  451       -0.341780      1.526776   1.000000   1.000000
  452       -0.335837      1.528552   1.000000   1.000000
  453       -0.335801      1.528885   1.000000   1.000000
  454       -0.335382      1.528968   1.000000   1.000000
  455       -0.335328      1.529640   1.000000   1.000000
  456       -0.334292      1.558250   1.000000   1.000000
  457       -0.334265      1.558329   1.000000   1.000000
  458       -0.333992      1.558351   1.000000   1.000000
  459       -0.333918      1.558470   1.000000   1.000000
  460       -0.324495      1.566215   1.000000   1.000000
  461       -0.324043      1.566762   1.000000   1.000000
  462       -0.323864      1.566943   1.000000   1.000000
  463       -0.323854      1.567154   1.000000   1.000000
  464       -0.321868      1.567956   1.000000   1.000000
  465       -0.321392      1.568307   1.000000   1.000000
  466       -0.321194      1.568505   1.000000   1.000000
  467       -0.321190      1.568882   1.000000   1.000000
  468       -0.303820      1.586588   1.000000   1.000000
  469       -0.295912      1.586665   1.000000   1.000000
  470       -0.288110      1.695599   1.000000   1.000000
  471       -0.287905      1.695851   1.000000   1.000000
  472       -0.287784      1.740895   1.000000   1.000000
  473       -0.287624      1.741125   1.000000   1.000000
  474       -0.280409      1.741149   1.000000   1.000000
  475       -0.280386      1.741222   1.000000   1.000000
  476       -0.275151      1.746853   1.000000   1.000000
  477       -0.275066      1.746894   1.000000   1.000000
  478       -0.274824      1.746919   1.000000   1.000000
  479       -0.274737      1.746935   1.000000   1.000000
  480       -0.241710      1.779033   1.000000   1.000000
  481       -0.241613      1.780471   1.000000   1.000000
  482       -0.241599      1.780751   1.000000   1.000000
  483       -0.241573      1.836708   1.000000   1.000000
  484       -0.241387      1.836917   1.000000   1.000000
  485       -0.241362      1.837193   1.000000   1.000000
  486       -0.241349      1.837518   1.000000   1.000000
  487       -0.241218      1.837689   1.000000   1.000000
  488       -0.207404      1.837752   1.000000   1.000000
  489       -0.207401      1.838431   1.000000   1.000000
  490       -0.199722      1.838822   1.000000   1.000000
  491       -0.199664      1.866216   1.000000   1.000000
  492       -0.199451      1.866414   1.000000   1.000000
  493       -0.199410      1.912830   1.000000   1.000000
  494       -0.194173      1.913312   1.000000   1.000000
  495       -0.193853      1.913479   1.000000   1.000000
  496       -0.163962      1.913580   1.000000   1.000000
  497       -0.163956      1.913587   1.000000   1.000000
  498       -0.163847      1.913617   1.000000   1.000000
  499       -0.163668      1.913679   1.000000   1.000000
  500       -0.156651      1.914505   1.000000   1.000000
  501       -0.156649      1.926734   1.000000   1.000000
  502       -0.156331      1.926921   1.000000   1.000000
  503       -0.156049      1.927076   1.000000   1.000000
  504       -0.139148      1.927321   1.000000   1.000000
  505       -0.139040      2.133058   1.000000   1.000000
  506       -0.138832      2.133453   1.000000   1.000000
  507       -0.138715      2.191238   1.000000   1.000000
  508       -0.091147      2.193214   1.000000   1.000000
  509       -0.090776      2.300683   1.000000   1.000000
  510       -0.082792      2.300705   1.000000   1.000000
  511       -0.082558      2.300985   1.000000   1.000000
  512       -0.082394      2.301293   1.000000   1.000000