 vasp.5.4.4.18Apr17-6-g9f103f2a35 (build Oct 25 2017 14:42:18) complex          
  
 executed on             LinuxIFC date 2021.06.02  14:08:30
 running on   24 total cores
 distrk:  each k-point on   12 cores,    2 groups
 distr:  one band on NCORES_PER_BAND=   6 cores,    2 groups


--------------------------------------------------------------------------------------------------------


 INCAR:
 POTCAR:    PAW_PBE Li_sv 10Sep2004               
 POTCAR:    PAW_PBE O 08Apr2002                   
 POTCAR:    PAW_PBE S 06Sep2000                   
 POTCAR:    PAW_PBE Fe_pv 02Aug2007               

 ----------------------------------------------------------------------------- 
|                                                                             |
|           W    W    AA    RRRRR   N    N  II  N    N   GGGG   !!!           |
|           W    W   A  A   R    R  NN   N  II  NN   N  G    G  !!!           |
|           W    W  A    A  R    R  N N  N  II  N N  N  G       !!!           |
|           W WW W  AAAAAA  RRRRR   N  N N  II  N  N N  G  GGG   !            |
|           WW  WW  A    A  R   R   N   NN  II  N   NN  G    G                |
|           W    W  A    A  R    R  N    N  II  N    N   GGGG   !!!           |
|                                                                             |
|      You have enabled k-point parallelism (KPAR>1).                         |
|      This developmental code was originally  written by Paul Kent at ORNL,  |
|      and carefully double checked in Vienna.                                |
|      GW as well as linear response parallelism added by Martijn Marsman     |
|      and Georg Kresse.                                                      |
|      Carefully verify results versus KPAR=1.                                |
|      Report problems to Paul Kent and Vienna.                               |
|                                                                             |
 ----------------------------------------------------------------------------- 

 POTCAR:    PAW_PBE Li_sv 10Sep2004               
  local pseudopotential read in
  atomic valenz-charges read in
  non local Contribution for L=           0  read in
    real space projection operators read in
  non local Contribution for L=           0  read in
    real space projection operators read in
  non local Contribution for L=           1  read in
    real space projection operators read in
    PAW grid and wavefunctions read in
 
   number of l-projection  operators is LMAX  =           3
   number of lm-projection operators is LMMAX =           5
 
 POTCAR:    PAW_PBE O 08Apr2002                   
  local pseudopotential read in
  partial core-charges read in
  partial kinetic energy density read in
  kinetic energy density of atom read in
  atomic valenz-charges read in
  non local Contribution for L=           0  read in
    real space projection operators read in
  non local Contribution for L=           0  read in
    real space projection operators read in
  non local Contribution for L=           1  read in
    real space projection operators read in
  non local Contribution for L=           1  read in
    real space projection operators read in
    PAW grid and wavefunctions read in
 
   number of l-projection  operators is LMAX  =           4
   number of lm-projection operators is LMMAX =           8
 
 POTCAR:    PAW_PBE S 06Sep2000                   
  local pseudopotential read in
  partial core-charges read in
  partial kinetic energy density read in
  atomic valenz-charges read in
  non local Contribution for L=           0  read in
    real space projection operators read in
  non local Contribution for L=           0  read in
    real space projection operators read in
  non local Contribution for L=           1  read in
    real space projection operators read in
  non local Contribution for L=           1  read in
    real space projection operators read in
    PAW grid and wavefunctions read in
 
   number of l-projection  operators is LMAX  =           4
   number of lm-projection operators is LMMAX =           8
 
 POTCAR:    PAW_PBE Fe_pv 02Aug2007               
  local pseudopotential read in
  partial core-charges read in
  partial kinetic energy density read in
  atomic valenz-charges read in
  non local Contribution for L=           1  read in
    real space projection operators read in
  non local Contribution for L=           1  read in
    real space projection operators read in
  non local Contribution for L=           2  read in
    real space projection operators read in
  non local Contribution for L=           2  read in
    real space projection operators read in
  non local Contribution for L=           0  read in
    real space projection operators read in
  non local Contribution for L=           0  read in
    real space projection operators read in
    PAW grid and wavefunctions read in
 
   number of l-projection  operators is LMAX  =           6
   number of lm-projection operators is LMMAX =          18
 

 ----------------------------------------------------------------------------- 
|                                                                             |
|  ADVICE TO THIS USER RUNNING 'VASP/VAMP'   (HEAR YOUR MASTER'S VOICE ...):  |
|                                                                             |
|      You have a (more or less) 'large supercell' and for larger cells       |
|      it might be more efficient to use real space projection opertators     |
|      So try LREAL= Auto  in the INCAR   file.                               |
|      Mind:          For very  accurate calculation you might also keep the  |
|      reciprocal projection scheme          (i.e. LREAL=.FALSE.)             |
|                                                                             |
 ----------------------------------------------------------------------------- 

  PAW_PBE Li_sv 10Sep2004               :
 energy of atom  1       EATOM= -202.7858
 kinetic energy error for atom=    0.0072 (will be added to EATOM!!)
  PAW_PBE O 08Apr2002                   :
 energy of atom  2       EATOM= -432.3788
 kinetic energy error for atom=    0.0129 (will be added to EATOM!!)
  PAW_PBE S 06Sep2000                   :
 energy of atom  3       EATOM= -276.8230
 kinetic energy error for atom=    0.0008 (will be added to EATOM!!)
  PAW_PBE Fe_pv 02Aug2007               :
 energy of atom  4       EATOM=-2457.4239
 kinetic energy error for atom=    0.0041 (will be added to EATOM!!)
 
 
 POSCAR: # Compound: Li16O16S24Fe32. Old comment:
  positions in direct lattice
  No initial velocities read in
 exchange correlation table for  LEXCH =        8
   RHO(1)=    0.500       N(1)  =     2000
   RHO(2)=  100.500       N(2)  =     4000
 


--------------------------------------------------------------------------------------------------------


 ion  position               nearest neighbor table
   1  0.289  0.469  0.156-  27 2.00  29 2.00  55 2.53  49 2.53
   2  0.789  0.469  0.156-  28 2.00  30 2.00  56 2.53  50 2.53
   3  0.289  0.969  0.156-  25 2.00  31 2.00  53 2.53  51 2.53
   4  0.789  0.969  0.156-  26 2.00  32 2.00  54 2.53  52 2.53
   5  0.046  0.218  0.186-  25 1.98  30 1.99
   6  0.546  0.219  0.186-  29 1.98  26 1.98
   7  0.046  0.719  0.186-  32 1.98  27 1.98
   8  0.546  0.719  0.186-  31 1.98  28 1.98
   9  0.454  0.469  0.814-  20 1.98  21 1.98
  10  0.954  0.469  0.814-  19 1.98  22 1.98
  11  0.454  0.969  0.814-  18 1.98  23 1.98
  12  0.954  0.969  0.814-  17 1.98  24 1.98
  13  0.211  0.219  0.844-  21 2.00  17 2.00  49 2.53  53 2.53
  14  0.711  0.219  0.844-  22 2.00  18 2.00  50 2.53  54 2.53
  15  0.211  0.719  0.844-  23 2.00  19 2.00  51 2.53  55 2.53
  16  0.711  0.719  0.844-  24 2.00  20 2.00  52 2.53  56 2.53
  17  0.077  0.095  0.803-  12 1.98  13 2.00  57 2.01  83 2.01  86 2.01
  18  0.577  0.095  0.803-  11 1.98  14 2.00  58 2.01  84 2.01  85 2.01
  19  0.077  0.595  0.803-  10 1.98  15 2.00  59 2.01  81 2.01  88 2.01
  20  0.577  0.595  0.803-   9 1.98  16 2.00  60 2.01  82 2.01  87 2.01
  21  0.325  0.343  0.803-   9 1.98  13 2.00  61 2.01  81 2.01  85 2.01
  22  0.825  0.343  0.803-  10 1.98  14 2.00  62 2.01  82 2.01  86 2.01
  23  0.325  0.843  0.803-  11 1.98  15 2.00  63 2.01  83 2.01  87 2.01
  24  0.825  0.843  0.803-  12 1.98  16 2.00  64 2.01  84 2.01  88 2.01
  25  0.175  0.093  0.197-   5 1.98   3 2.00  65 2.01  77 2.01  75 2.01
  26  0.675  0.093  0.197-   6 1.98   4 2.00  66 2.01  78 2.01  76 2.01
  27  0.175  0.593  0.197-   7 1.98   1 2.00  67 2.01  79 2.01  73 2.01
  28  0.675  0.593  0.197-   8 1.98   2 2.00  68 2.01  80 2.01  74 2.01
  29  0.423  0.345  0.197-   6 1.98   1 2.00  69 2.01  77 2.01  74 2.01
  30  0.923  0.345  0.197-   5 1.99   2 2.00  70 2.01  78 2.01  73 2.01
  31  0.423  0.845  0.197-   8 1.98   3 2.00  71 2.01  79 2.01  76 2.01
  32  0.923  0.845  0.197-   7 1.98   4 2.00  72 2.01  80 2.01  75 2.01
  33  0.219  0.345  0.371-  61 2.41  67 2.65  69 2.65
  34  0.719  0.345  0.371-  62 2.41  68 2.65  70 2.65
  35  0.219  0.845  0.371-  63 2.41  65 2.65  71 2.65
  36  0.719  0.845  0.371-  64 2.41  66 2.65  72 2.65
  37  0.467  0.093  0.371-  58 2.41  71 2.65  65 2.65
  38  0.967  0.093  0.371-  57 2.41  72 2.65  66 2.65
  39  0.467  0.593  0.371-  60 2.41  69 2.65  67 2.65
  40  0.967  0.593  0.371-  59 2.41  70 2.65  68 2.65
  41  0.033  0.343  0.629-  70 2.41  57 2.65  61 2.65
  42  0.533  0.343  0.629-  69 2.41  58 2.65  62 2.65
  43  0.033  0.843  0.629-  72 2.41  59 2.65  63 2.65
  44  0.533  0.843  0.629-  71 2.41  60 2.65  64 2.65
  45  0.281  0.095  0.629-  65 2.41  61 2.65  57 2.65
  46  0.781  0.095  0.629-  66 2.41  62 2.65  58 2.65
  47  0.281  0.595  0.629-  67 2.41  63 2.65  59 2.65
  48  0.781  0.595  0.629-  68 2.41  64 2.65  60 2.65
  49  0.124  0.344  0.000-  73 2.51  86 2.51  81 2.52  77 2.52  13 2.53   1 2.53
  50  0.624  0.344  0.000-  74 2.51  85 2.51  82 2.52  78 2.52  14 2.53   2 2.53
  51  0.124  0.844  0.000-  75 2.51  88 2.51  83 2.52  79 2.52  15 2.53   3 2.53
  52  0.624  0.844  0.000-  76 2.51  87 2.51  84 2.52  80 2.52  16 2.53   4 2.53
  53  0.376  0.094  1.000-  85 2.51  76 2.51  77 2.52  83 2.52   3 2.53  13 2.53
  54  0.876  0.094  1.000-  86 2.51  75 2.51  78 2.52  84 2.52   4 2.53  14 2.53
  55  0.376  0.594  1.000-  87 2.51  74 2.51  79 2.52  81 2.52   1 2.53  15 2.53
  56  0.876  0.594  1.000-  88 2.51  73 2.51  80 2.52  82 2.52   2 2.53  16 2.53
  57  0.038  0.106  0.606-  17 2.01  38 2.41  41 2.65  45 2.65
  58  0.538  0.106  0.606-  18 2.01  37 2.41  42 2.65  46 2.65
  59  0.038  0.606  0.606-  19 2.01  40 2.41  43 2.65  47 2.65
  60  0.538  0.606  0.606-  20 2.01  39 2.41  44 2.65  48 2.65
  61  0.265  0.332  0.606-  21 2.01  33 2.41  45 2.65  41 2.65
  62  0.765  0.332  0.606-  22 2.01  34 2.41  46 2.65  42 2.65
  63  0.265  0.832  0.606-  23 2.01  35 2.41  47 2.65  43 2.65
  64  0.765  0.832  0.606-  24 2.01  36 2.41  48 2.65  44 2.65
  65  0.235  0.082  0.394-  25 2.01  45 2.41  35 2.65  37 2.65
  66  0.735  0.082  0.394-  26 2.01  46 2.41  36 2.65  38 2.65
  67  0.235  0.582  0.394-  27 2.01  47 2.41  33 2.65  39 2.65
  68  0.735  0.582  0.394-  28 2.01  48 2.41  34 2.65  40 2.65
  69  0.462  0.356  0.394-  29 2.01  42 2.41  39 2.65  33 2.65
  70  0.962  0.356  0.394-  30 2.01  41 2.41  40 2.65  34 2.65
  71  0.462  0.856  0.394-  31 2.01  44 2.41  37 2.65  35 2.65
  72  0.962  0.856  0.394-  32 2.01  43 2.41  38 2.65  36 2.65
  73  0.038  0.469  0.154-  30 2.01  27 2.01  49 2.51  56 2.51
  74  0.538  0.469  0.154-  29 2.01  28 2.01  50 2.51  55 2.51
  75  0.038  0.969  0.154-  32 2.01  25 2.01  51 2.51  54 2.51
  76  0.538  0.969  0.154-  31 2.01  26 2.01  52 2.51  53 2.51
  77  0.289  0.219  0.154-  25 2.01  29 2.01  53 2.52  49 2.52
  78  0.789  0.219  0.154-  26 2.01  30 2.01  54 2.52  50 2.52
  79  0.289  0.719  0.154-  27 2.01  31 2.01  55 2.52  51 2.52
  80  0.789  0.719  0.154-  28 2.01  32 2.01  56 2.52  52 2.52
  81  0.211  0.469  0.846-  21 2.01  19 2.01  49 2.52  55 2.52
  82  0.711  0.469  0.846-  22 2.01  20 2.01  50 2.52  56 2.52
  83  0.211  0.969  0.846-  23 2.01  17 2.01  51 2.52  53 2.52
  84  0.711  0.969  0.846-  24 2.01  18 2.01  52 2.52  54 2.52
  85  0.462  0.219  0.846-  18 2.01  21 2.01  53 2.51  50 2.51
  86  0.962  0.219  0.846-  17 2.01  22 2.01  54 2.51  49 2.51
  87  0.462  0.719  0.846-  20 2.01  23 2.01  55 2.51  52 2.51
  88  0.962  0.719  0.846-  19 2.01  24 2.01  56 2.51  51 2.51
 

IMPORTANT INFORMATION: All symmetrisations will be switched off!
NOSYMM: (Re-)initialisation of all symmetry stuff for point group C_1.

 
 
 KPOINTS: # No comment                            

Automatic generation of k-mesh.
Space group operators:
 irot       det(A)        alpha          n_x          n_y          n_z        tau_x        tau_y        tau_z
    1     1.000000     0.000000     1.000000     0.000000     0.000000     0.000000     0.000000     0.000000
 
 Subroutine IBZKPT returns following result:
 ===========================================
 
 Found     14 irreducible k-points:
 
 Following reciprocal coordinates:
            Coordinates               Weight
  0.000000  0.000000  0.000000      1.000000
  0.333333  0.000000  0.000000      2.000000
  0.000000  0.333333  0.000000      2.000000
  0.333333  0.333333  0.000000      2.000000
 -0.333333  0.333333 -0.000000      2.000000
  0.000000  0.000000  0.333333      2.000000
  0.333333  0.000000  0.333333      2.000000
 -0.333333  0.000000  0.333333      2.000000
  0.000000  0.333333  0.333333      2.000000
  0.333333  0.333333  0.333333      2.000000
 -0.333333  0.333333  0.333333      2.000000
  0.000000 -0.333333  0.333333      2.000000
  0.333333 -0.333333  0.333333      2.000000
 -0.333333 -0.333333  0.333333      2.000000
 
 Following cartesian coordinates:
            Coordinates               Weight
  0.000000  0.000000  0.000000      1.000000
  0.029997  0.000000  0.008162      2.000000
  0.000000  0.029983  0.000000      2.000000
  0.029997  0.029983  0.008162      2.000000
 -0.029997  0.029983 -0.008162      2.000000
  0.000001  0.000000  0.032684      2.000000
  0.029998  0.000000  0.040846      2.000000
 -0.029996  0.000000  0.024522      2.000000
  0.000001  0.029983  0.032684      2.000000
  0.029998  0.029983  0.040846      2.000000
 -0.029996  0.029983  0.024522      2.000000
  0.000001 -0.029983  0.032684      2.000000
  0.029998 -0.029983  0.040846      2.000000
 -0.029996 -0.029983  0.024522      2.000000
 


--------------------------------------------------------------------------------------------------------




 Dimension of arrays:
   k-points           NKPTS =     14   k-points in BZ     NKDIM =     14   number of bands    NBANDS=    538
   number of dos      NEDOS =    301   number of ions     NIONS =     88
   non local maximal  LDIM  =      6   non local SUM 2l+1 LMDIM =     18
   total plane-waves  NPLWV = 829440
   max r-space proj   IRMAX =      1   max aug-charges    IRDMAX= 166102
   dimension x,y,z NGX =    96 NGY =   96 NGZ =   90
   dimension x,y,z NGXF=   192 NGYF=  192 NGZF=  180
   support grid    NGXF=   384 NGYF=  384 NGZF=  360
   ions per type =              16  16  24  32
   NGX,Y,Z   is equivalent  to a cutoff of  14.36, 14.36, 14.16 a.u.
   NGXF,Y,Z  is equivalent  to a cutoff of  28.72, 28.71, 28.31 a.u.

 SYSTEM =  unknown system                          
 POSCAR =  # Compound: Li16O16S24Fe32. Old comment:

 Startparameter for this run:
   NWRITE =      1    write-flag & timer
   PREC   = accura    normal or accurate (medium, high low for compatibility)
   ISTART =      0    job   : 0-new  1-cont  2-samecut
   ICHARG =      1    charge: 1-file 2-atom 10-const
   ISPIN  =      2    spin polarized calculation?
   LNONCOLLINEAR =      F non collinear calculations
   LSORBIT =      F    spin-orbit coupling
   INIWAV =      1    electr: 0-lowe 1-rand  2-diag
   LASPH  =      T    aspherical Exc in radial PAW
   METAGGA=      F    non-selfconsistent MetaGGA calc.

 Electronic Relaxation 1
   ENCUT  =  650.0 eV  47.77 Ry    6.91 a.u.  23.10 23.11 21.97*2*pi/ulx,y,z
   ENINI  =  650.0     initial cutoff
   ENAUG  =  628.9 eV  augmentation charge cutoff
   NELM   =    200;   NELMIN=  8; NELMDL=  0     # of ELM steps 
   EDIFF  = 0.1E-05   stopping-criterion for ELM
   LREAL  =      F    real-space projection
   NLSPLINE    = F    spline interpolate recip. space projectors
   LCOMPAT=      F    compatible to vasp.4.4
   GGA_COMPAT  = T    GGA compatible to vasp.4.4-vasp.4.6
   LMAXPAW     = -100 max onsite density
   LMAXMIX     =    4 max onsite mixed and CHGCAR
   VOSKOWN=      0    Vosko Wilk Nusair interpolation
   ROPT   =    0.00000   0.00000   0.00000   0.00000
 Ionic relaxation
   EDIFFG = 0.1E-04   stopping-criterion for IOM
   NSW    =      0    number of steps for IOM
   NBLOCK =      1;   KBLOCK =      1    inner block; outer block 
   IBRION =     -1    ionic relax: 0-MD 1-quasi-New 2-CG
   NFREE  =      0    steps in history (QN), initial steepest desc. (CG)
   ISIF   =      2    stress and relaxation
   IWAVPR =     10    prediction:  0-non 1-charg 2-wave 3-comb
   ISYM   =      0    0-nonsym 1-usesym 2-fastsym
   LCORR  =      T    Harris-Foulkes like correction to forces

   POTIM  = 0.5000    time-step for ionic-motion
   TEIN   =    0.0    initial temperature
   TEBEG  =    0.0;   TEEND  =   0.0 temperature during run
   SMASS  =  -3.00    Nose mass-parameter (am)
   estimated Nose-frequenzy (Omega)   =  0.10E-29 period in steps =****** mass=  -0.282E-26a.u.
   SCALEE = 1.0000    scale energy and forces
   NPACO  =    256;   APACO  = 16.0  distance and # of slots for P.C.
   PSTRESS=    0.0 pullay stress

  Mass of Ions in am
   POMASS =   7.01 16.00 32.07 55.85
  Ionic Valenz
   ZVAL   =   3.00  6.00  6.00 14.00
  Atomic Wigner-Seitz radii
   RWIGS  =  -1.00 -1.00 -1.00 -1.00
  virtual crystal weights 
   VCA    =   1.00  1.00  1.00  1.00
   NELECT =     736.0000    total number of electrons
   NUPDOWN=      -1.0000    fix difference up-down

 DOS related values:
   EMIN   =  10.00;   EMAX   =-10.00  energy-range for DOS
   EFERMI =   0.00
   ISMEAR =     0;   SIGMA  =   0.05  broadening in eV -4-tet -1-fermi 0-gaus

 Electronic relaxation 2 (details)
   IALGO  =     38    algorithm
   LDIAG  =      T    sub-space diagonalisation (order eigenvalues)
   LSUBROT=      F    optimize rotation matrix (better conditioning)
   TURBO    =      0    0=normal 1=particle mesh
   IRESTART =      0    0=no restart 2=restart with 2 vectors
   NREBOOT  =      0    no. of reboots
   NMIN     =      0    reboot dimension
   EREF     =   0.00    reference energy to select bands
   IMIX   =      4    mixing-type and parameters
     AMIX     =   0.40;   BMIX     =  1.00
     AMIX_MAG =   1.60;   BMIX_MAG =  1.00
     AMIN     =   0.10
     WC   =   100.;   INIMIX=   1;  MIXPRE=   1;  MAXMIX= -45

 Intra band minimization:
   WEIMIN = 0.0000     energy-eigenvalue tresh-hold
   EBREAK =  0.46E-09  absolut break condition
   DEPER  =   0.30     relativ break condition  

   TIME   =   0.40     timestep for ELM

  volume/ion in A,a.u.               =      14.32        96.62
  Fermi-wavevector in a.u.,A,eV,Ry     =   1.368520  2.586127 25.481613  1.872846
  Thomas-Fermi vector in A             =   2.494476
 
 Write flags
   LWAVE        =      F    write WAVECAR
   LDOWNSAMPLE  =      F    k-point downsampling of WAVECAR
   LCHARG       =      T    write CHGCAR
   LVTOT        =      F    write LOCPOT, total local potential
   LVHAR        =      F    write LOCPOT, Hartree potential only
   LELF         =      F    write electronic localiz. function (ELF)
   LORBIT       =      0    0 simple, 1 ext, 2 COOP (PROOUT), +10 PAW based schemes


 Dipole corrections
   LMONO  =      F    monopole corrections only (constant potential shift)
   LDIPOL =      F    correct potential (dipole corrections)
   IDIPOL =      0    1-x, 2-y, 3-z, 4-all directions 
   EPSILON=  1.0000000 bulk dielectric constant

 LDA+U is selected, type is set to LDAUTYPE =  2
   angular momentum for each species LDAUL =    -1   -1   -1    2
   U (eV)           for each species LDAUU =   0.0  0.0  0.0  4.0
   J (eV)           for each species LDAUJ =   0.0  0.0  0.0  0.0
 Exchange correlation treatment:
   GGA     =    PE    GGA type
   LEXCH   =     8    internal setting for exchange type
   VOSKOWN=      0    Vosko Wilk Nusair interpolation
   LHFCALC =     F    Hartree Fock is set to
   LHFONE  =     F    Hartree Fock one center treatment
   AEXX    =    0.0000 exact exchange contribution

 Linear response parameters
   LEPSILON=     F    determine dielectric tensor
   LRPA    =     F    only Hartree local field effects (RPA)
   LNABLA  =     F    use nabla operator in PAW spheres
   LVEL    =     F    velocity operator in full k-point grid
   LINTERFAST=   F  fast interpolation
   KINTER  =     0    interpolate to denser k-point grid
   CSHIFT  =0.1000    complex shift for real part using Kramers Kronig
   OMEGAMAX=  -1.0    maximum frequency
   DEG_THRESHOLD= 0.2000000E-02 threshold for treating states as degnerate
   RTIME   =   -0.100 relaxation time in fs
  (WPLASMAI=    0.000 imaginary part of plasma frequency in eV, 0.658/RTIME)
   DFIELD  = 0.0000000 0.0000000 0.0000000 field for delta impulse in time
 
 Orbital magnetization related:
   ORBITALMAG=     F  switch on orbital magnetization
   LCHIMAG   =     F  perturbation theory with respect to B field
   DQ        =  0.001000  dq finite difference perturbation B field
   LLRAUG    =     F  two centre corrections for induced B field



--------------------------------------------------------------------------------------------------------


 Static calculation
 charge density and potential will be updated during run
 spin polarized calculation
 Variant of blocked Davidson
 Davidson routine will perform the subspace rotation
 perform sub-space diagonalisation
    after iterative eigenvector-optimisation
 modified Broyden-mixing scheme, WC =      100.0
 initial mixing is a Kerker type mixing with AMIX =  0.4000 and BMIX =      1.0000
 Hartree-type preconditioning will be used
 using additional bands          170
 reciprocal scheme for non local part
 use partial core corrections
 calculate Harris-corrections to forces 
   (improved forces if not selfconsistent)
 use gradient corrections 
 use of overlap-Matrix (Vanderbilt PP)
 Gauss-broadening in eV      SIGMA  =   0.05


--------------------------------------------------------------------------------------------------------


  energy-cutoff  :      650.00
  volume of cell :     1259.94
      direct lattice vectors                 reciprocal lattice vectors
    11.112233740  0.000000000 -0.000290340     0.089991547  0.000000000  0.024487024
     0.000000000 11.117451940  0.000000000     0.000000000  0.089948669  0.000000000
    -2.775108980  0.000000000 10.198722210     0.000002562  0.000000000  0.098052196

  length of vectors
    11.112233744 11.117451940 10.569539468     0.093263567  0.089948669  0.098052196


 
 k-points in units of 2pi/SCALE and weight: # No comment                            
   0.00000000  0.00000000  0.00000000       0.037
   0.02999718  0.00000000  0.00816234       0.074
   0.00000000  0.02998289  0.00000000       0.074
   0.02999718  0.02998289  0.00816234       0.074
  -0.02999718  0.02998289 -0.00816234       0.074
   0.00000085  0.00000000  0.03268407       0.074
   0.02999804  0.00000000  0.04084641       0.074
  -0.02999633  0.00000000  0.02452172       0.074
   0.00000085  0.02998289  0.03268407       0.074
   0.02999804  0.02998289  0.04084641       0.074
  -0.02999633  0.02998289  0.02452172       0.074
   0.00000085 -0.02998289  0.03268407       0.074
   0.02999804 -0.02998289  0.04084641       0.074
  -0.02999633 -0.02998289  0.02452172       0.074
 
 k-points in reciprocal lattice and weights: # No comment                            
   0.00000000  0.00000000  0.00000000       0.037
   0.33333333  0.00000000  0.00000000       0.074
   0.00000000  0.33333333  0.00000000       0.074
   0.33333333  0.33333333  0.00000000       0.074
  -0.33333333  0.33333333 -0.00000000       0.074
   0.00000000  0.00000000  0.33333333       0.074
   0.33333333  0.00000000  0.33333333       0.074
  -0.33333333  0.00000000  0.33333333       0.074
   0.00000000  0.33333333  0.33333333       0.074
   0.33333333  0.33333333  0.33333333       0.074
  -0.33333333  0.33333333  0.33333333       0.074
   0.00000000 -0.33333333  0.33333333       0.074
   0.33333333 -0.33333333  0.33333333       0.074
  -0.33333333 -0.33333333  0.33333333       0.074
 
 position of ions in fractional coordinates (direct lattice) 
   0.28894969  0.46933910  0.15583616
   0.78894969  0.46933910  0.15583616
   0.28894969  0.96933910  0.15583616
   0.78894969  0.96933910  0.15583616
   0.04646972  0.21845027  0.18586770
   0.54646972  0.21934976  0.18586770
   0.04646972  0.71934976  0.18586770
   0.54646972  0.71934976  0.18586770
   0.45353028  0.46934976  0.81413230
   0.95353028  0.46934976  0.81413230
   0.45353028  0.96934976  0.81413230
   0.95353028  0.96934976  0.81413230
   0.21105031  0.21933910  0.84416384
   0.71105031  0.21933910  0.84416384
   0.21105031  0.71933910  0.84416384
   0.71105031  0.71933910  0.84416384
   0.07654971  0.09530995  0.80250593
   0.57654971  0.09530995  0.80250593
   0.07654971  0.59530995  0.80250593
   0.57654971  0.59530995  0.80250593
   0.32470466  0.34338175  0.80250383
   0.82470466  0.34338175  0.80250383
   0.32470466  0.84338175  0.80250383
   0.82470466  0.84338175  0.80250383
   0.17529534  0.09338175  0.19749617
   0.67529534  0.09338175  0.19749617
   0.17529534  0.59338175  0.19749617
   0.67529534  0.59338175  0.19749617
   0.42345029  0.34530995  0.19749407
   0.92345029  0.34530995  0.19749407
   0.42345029  0.84530995  0.19749407
   0.92345029  0.84530995  0.19749407
   0.21868463  0.34523395  0.37102476
   0.71868463  0.34523395  0.37102476
   0.21868463  0.84523395  0.37102476
   0.71868463  0.84523395  0.37102476
   0.46681660  0.09344897  0.37102399
   0.96681660  0.09344897  0.37102399
   0.46681660  0.59344897  0.37102399
   0.96681660  0.59344897  0.37102399
   0.03318340  0.34344897  0.62897601
   0.53318340  0.34344897  0.62897601
   0.03318340  0.84344897  0.62897601
   0.53318340  0.84344897  0.62897601
   0.28131537  0.09523395  0.62897524
   0.78131537  0.09523395  0.62897524
   0.28131537  0.59523395  0.62897524
   0.78131537  0.59523395  0.62897524
   0.12439279  0.34434306  0.00000412
   0.62439279  0.34434306  0.00000412
   0.12439279  0.84434306  0.00000412
   0.62439279  0.84434306  0.00000412
   0.37560721  0.09434306  0.99999588
   0.87560721  0.09434306  0.99999588
   0.37560721  0.59434306  0.99999588
   0.87560721  0.59434306  0.99999588
   0.03824426  0.10634799  0.60632306
   0.53824426  0.10634799  0.60632306
   0.03824426  0.60634799  0.60632306
   0.53824426  0.60634799  0.60632306
   0.26492712  0.33232651  0.60632763
   0.76492712  0.33232651  0.60632763
   0.26492712  0.83232651  0.60632763
   0.76492712  0.83232651  0.60632763
   0.23507288  0.08232651  0.39367237
   0.73507288  0.08232651  0.39367237
   0.23507288  0.58232651  0.39367237
   0.73507288  0.58232651  0.39367237
   0.46175574  0.35634799  0.39367694
   0.96175574  0.35634799  0.39367694
   0.46175574  0.85634799  0.39367694
   0.96175574  0.85634799  0.39367694
   0.03848398  0.46936404  0.15397331
   0.53848398  0.46936404  0.15397331
   0.03848398  0.96936404  0.15397331
   0.53848398  0.96936404  0.15397331
   0.28861657  0.21935690  0.15447525
   0.78861657  0.21935690  0.15447525
   0.28861657  0.71935690  0.15447525
   0.78861657  0.71935690  0.15447525
   0.21138343  0.46935690  0.84552475
   0.71138343  0.46935690  0.84552475
   0.21138343  0.96935690  0.84552475
   0.71138343  0.96935690  0.84552475
   0.46151602  0.21936404  0.84602669
   0.96151602  0.21936404  0.84602669
   0.46151602  0.71936404  0.84602669
   0.96151602  0.71936404  0.84602669
 
 position of ions in cartesian coordinates  (Angst):
   2.77841422  5.21785483  1.58924581
   8.33453109  5.21785483  1.58910064
   2.77841422 10.77658080  1.58924581
   8.33453109 10.77658080  1.58910064
   0.00057921  2.42861041  1.89559955
   5.55669608  2.43861041  1.89545438
   0.00057921  7.99733638  1.89559955
   5.55669608  7.99733638  1.89545438
   2.78042868  5.21797340  8.30297749
   8.33654555  5.21797340  8.30283232
   2.78042868 10.77669937  8.30297749
   8.33654555 10.77669937  8.30283232
   0.00259367  2.43849185  8.60933123
   5.55871054  2.43849185  8.60918606
   0.00259367  7.99721782  8.60933123
   5.55871054  7.99721782  8.60918606
  -1.37640314  1.05960384  8.18451283
   4.17971373  1.05960384  8.18436766
  -1.37640314  6.61832981  8.18451283
   4.17971373  6.61832981  8.18436766
   1.38115855  3.81753010  8.18441936
   6.93727542  3.81753010  8.18427419
   1.38115855  9.37625607  8.18441936
   6.93727542  9.37625607  8.18427419
   1.39984934  1.03816712  2.01415768
   6.95596621  1.03816712  2.01401251
   1.39984934  6.59689309  2.01415768
   6.95596621  6.59689309  2.01401251
   4.15741103  3.83896683  2.01406421
   9.71352790  3.83896683  2.01391904
   4.15741103  9.39769280  2.01406421
   9.71352790  9.39769280  2.01391904
   1.40044058  3.83812185  3.78391497
   6.95655745  3.83812185  3.78376980
   1.40044058  9.39684782  3.78391497
   6.95655745  9.39684782  3.78376980
   4.15774317  1.03891443  3.78383507
   9.71386004  1.03891443  3.78368990
   4.15774317  6.59764040  3.78383507
   9.71386004  6.59764040  3.78368990
  -1.37673528  3.81827742  6.41474197
   4.17938159  3.81827742  6.41459680
  -1.37673528  9.37700339  6.41474197
   4.17938159  9.37700339  6.41459680
   1.38056731  1.05875886  6.41466207
   6.93668418  1.05875886  6.41451690
   1.38056731  6.61748483  6.41466207
   6.93668418  6.61748483  6.41451690
   1.38227032  3.82821742  0.00000590
   6.93838719  3.82821742 -0.00013927
   1.38227032  9.38694339  0.00000590
   6.93838719  9.38694339 -0.00013927
   1.39873757  1.04885444 10.19857114
   6.95485444  1.04885444 10.19842597
   1.39873757  6.60758041 10.19857114
   6.95485444  6.60758041 10.19842597
  -1.25763347  1.18231867  6.18370935
   4.29848340  1.18231867  6.18356418
  -1.25763347  6.74104464  6.18370935
   4.29848340  6.74104464  6.18356418
   1.26130689  3.69462400  6.18369015
   6.81742376  3.69462400  6.18354498
   1.26130689  9.25334997  6.18369015
   6.81742376  9.25334997  6.18354498
   1.51970100  0.91526102  4.01488689
   7.07581787  0.91526102  4.01474172
   1.51970100  6.47398699  4.01488689
   7.07581787  6.47398699  4.01474172
   4.03864136  3.96168165  4.01486769
   9.59475823  3.96168165  4.01472252
   4.03864136  9.52040762  4.01486769
   9.59475823  9.52040762  4.01472252
   0.00035027  5.21813216  1.57031984
   5.55646714  5.21813216  1.57017467
   0.00035027 10.77685813  1.57031984
   5.55646714 10.77685813  1.57017467
   2.77848919  2.43868979  1.57536637
   8.33460606  2.43868979  1.57522120
   2.77848919  7.99741576  1.57536637
   8.33460606  7.99741576  1.57522120
   0.00251870  5.21805278  8.62321067
   5.55863557  5.21805278  8.62306550
   0.00251870 10.77677875  8.62321067
   5.55863557 10.77677875  8.62306550
   2.78065762  2.43876917  8.62825720
   8.33677449  2.43876917  8.62811203
   2.78065762  7.99749514  8.62825720
   8.33677449  7.99749514  8.62811203
 


--------------------------------------------------------------------------------------------------------


 k-point  1 :   0.0000 0.0000 0.0000  plane waves:   47369
 k-point  2 :   0.3333 0.0000 0.0000  plane waves:   47373
 k-point  3 :   0.0000 0.3333 0.0000  plane waves:   47370
 k-point  4 :   0.3333 0.3333 0.0000  plane waves:   47404
 k-point  5 :  -0.3333 0.3333-0.0000  plane waves:   47404
 k-point  6 :   0.0000 0.0000 0.3333  plane waves:   47419
 k-point  7 :   0.3333 0.0000 0.3333  plane waves:   47399
 k-point  8 :  -0.3333 0.0000 0.3333  plane waves:   47417
 k-point  9 :   0.0000 0.3333 0.3333  plane waves:   47409
 k-point 10 :   0.3333 0.3333 0.3333  plane waves:   47422
 k-point 11 :  -0.3333 0.3333 0.3333  plane waves:   47440
 k-point 12 :   0.0000-0.3333 0.3333  plane waves:   47409
 k-point 13 :   0.3333-0.3333 0.3333  plane waves:   47422
 k-point 14 :  -0.3333-0.3333 0.3333  plane waves:   47440

 maximum and minimum number of plane-waves per node :      7942     7858

 maximum number of plane-waves:     47440
 maximum index in each direction: 
   IXMAX=   23   IYMAX=   23   IZMAX=   21
   IXMIN=  -23   IYMIN=  -23   IZMIN=  -22


 parallel 3D FFT for wavefunctions:
    minimum data exchange during FFTs selected (reduces bandwidth)
 parallel 3D FFT for charge:
    minimum data exchange during FFTs selected (reduces bandwidth)


 total amount of memory used by VASP MPI-rank0  1233264. kBytes
=======================================================================

   base      :      30000. kBytes
   nonl-proj :      75226. kBytes
   fftplans  :      85054. kBytes
   grid      :      64684. kBytes
   one-center:        466. kBytes
   wavefun   :     977834. kBytes
 
     INWAV:  cpu time    0.0000: real time    0.0000
 Broyden mixing: mesh for mixing (old mesh)
   NGX = 47   NGY = 47   NGZ = 43
  (NGX  =192   NGY  =192   NGZ  =180)
  gives a total of  94987 points

 initial charge density was supplied:
 number of electron     736.0000016 magnetization     127.9999885
 keeping initial charge density in first step


--------------------------------------------------------------------------------------------------------


 Maximum index for augmentation-charges        13229 (set IRDMAX)


--------------------------------------------------------------------------------------------------------


 First call to EWALD:  gamma=   0.164
 Maximum number of real-space cells 3x 3x 3
 Maximum number of reciprocal cells 3x 3x 3

    FEWALD:  cpu time    0.0039: real time    0.0050


--------------------------------------- Iteration      1(   1)  ---------------------------------------


    POTLOK:  cpu time    1.0394: real time    1.0620
    SETDIJ:  cpu time    2.2806: real time    2.3710
     EDDAV:  cpu time  313.6597: real time  316.5489
       DOS:  cpu time    0.0076: real time    0.0076
    --------------------------------------------
      LOOP:  cpu time  316.9873: real time  319.9895

 eigenvalue-minimisations  : 30944
 total energy-change (2. order) : 0.1040966E+05  (-0.4118845E+05)
 number of electron     736.0000016 magnetization     127.9999885
 augmentation part      736.0000016 magnetization     127.9999885

 Free energy of the ion-electron system (eV)
  ---------------------------------------------------
  alpha Z        PSCENC =      2314.49656628
  Ewald energy   TEWEN  =    -57723.03679796
  -Hartree energ DENC   =    -30348.88277494
  -exchange      EXHF   =         0.00000000
  -V(xc)+E(xc)   XCENC  =      3229.29963822
  PAW double counting   =     92679.89207989   -95535.38516353
  entropy T*S    EENTRO =        -0.01860212
  eigenvalues    EBANDS =       349.81774717
  atomic energy  EATOM  =     95443.47970955
  Solvation  Ediel_sol  =         0.00000000
  ---------------------------------------------------
  free energy    TOTEN  =     10409.66240255 eV

  energy without entropy =    10409.68100467  energy(sigma->0) =    10409.67170361


--------------------------------------------------------------------------------------------------------




--------------------------------------- Iteration      1(   2)  ---------------------------------------


     EDDAV:  cpu time  308.2914: real time  314.9464
       DOS:  cpu time    0.0085: real time    0.0086
    --------------------------------------------
      LOOP:  cpu time  308.2999: real time  314.9550

 eigenvalue-minimisations  : 30128
 total energy-change (2. order) :-0.9232180E+04  (-0.8658370E+04)
 number of electron     736.0000016 magnetization     127.9999885
 augmentation part      736.0000016 magnetization     127.9999885

 Free energy of the ion-electron system (eV)
  ---------------------------------------------------
  alpha Z        PSCENC =      2314.49656628
  Ewald energy   TEWEN  =    -57723.03679796
  -Hartree energ DENC   =    -30348.88277494
  -exchange      EXHF   =         0.00000000
  -V(xc)+E(xc)   XCENC  =      3229.29963822
  PAW double counting   =     92679.89207989   -95535.38516353
  entropy T*S    EENTRO =        -0.06591991
  eigenvalues    EBANDS =     -8882.31453303
  atomic energy  EATOM  =     95443.47970955
  Solvation  Ediel_sol  =         0.00000000
  ---------------------------------------------------
  free energy    TOTEN  =      1177.48280457 eV

  energy without entropy =     1177.54872448  energy(sigma->0) =     1177.51576452


--------------------------------------------------------------------------------------------------------




--------------------------------------- Iteration      1(   3)  ---------------------------------------


     EDDAV:  cpu time  324.7400: real time  327.6443
       DOS:  cpu time    0.0027: real time    0.0027
    --------------------------------------------
      LOOP:  cpu time  324.7426: real time  327.6470

 eigenvalue-minimisations  : 32376
 total energy-change (2. order) :-0.1485779E+04  (-0.1278921E+04)
 number of electron     736.0000016 magnetization     127.9999885
 augmentation part      736.0000016 magnetization     127.9999885

 Free energy of the ion-electron system (eV)
  ---------------------------------------------------
  alpha Z        PSCENC =      2314.49656628
  Ewald energy   TEWEN  =    -57723.03679796
  -Hartree energ DENC   =    -30348.88277494
  -exchange      EXHF   =         0.00000000
  -V(xc)+E(xc)   XCENC  =      3229.29963822
  PAW double counting   =     92679.89207989   -95535.38516353
  entropy T*S    EENTRO =        -0.00000000
  eigenvalues    EBANDS =    -10368.15973190
  atomic energy  EATOM  =     95443.47970955
  Solvation  Ediel_sol  =         0.00000000
  ---------------------------------------------------
  free energy    TOTEN  =      -308.29647439 eV

  energy without entropy =     -308.29647439  energy(sigma->0) =     -308.29647439


--------------------------------------------------------------------------------------------------------




--------------------------------------- Iteration      1(   4)  ---------------------------------------


     EDDAV:  cpu time  346.3538: real time  350.1760
       DOS:  cpu time    0.0025: real time    0.0025
    --------------------------------------------
      LOOP:  cpu time  346.3562: real time  350.1785

 eigenvalue-minimisations  : 35016
 total energy-change (2. order) :-0.1680149E+03  (-0.1652666E+03)
 number of electron     736.0000016 magnetization     127.9999885
 augmentation part      736.0000016 magnetization     127.9999885

 Free energy of the ion-electron system (eV)
  ---------------------------------------------------
  alpha Z        PSCENC =      2314.49656628
  Ewald energy   TEWEN  =    -57723.03679796
  -Hartree energ DENC   =    -30348.88277494
  -exchange      EXHF   =         0.00000000
  -V(xc)+E(xc)   XCENC  =      3229.29963822
  PAW double counting   =     92679.89207989   -95535.38516353
  entropy T*S    EENTRO =        -0.00000000
  eigenvalues    EBANDS =    -10536.17464402
  atomic energy  EATOM  =     95443.47970955
  Solvation  Ediel_sol  =         0.00000000
  ---------------------------------------------------
  free energy    TOTEN  =      -476.31138651 eV

  energy without entropy =     -476.31138651  energy(sigma->0) =     -476.31138651


--------------------------------------------------------------------------------------------------------




--------------------------------------- Iteration      1(   5)  ---------------------------------------


     EDDAV:  cpu time  461.5700: real time  465.8847
       DOS:  cpu time    0.0027: real time    0.0027
    CHARGE:  cpu time    9.4202: real time    9.4543
    MIXING:  cpu time    0.0268: real time    0.0268
    --------------------------------------------
      LOOP:  cpu time  471.0197: real time  475.3685

 eigenvalue-minimisations  : 49736
 total energy-change (2. order) :-0.1242308E+02  (-0.1229996E+02)
 number of electron     736.0000016 magnetization     127.9999932
 augmentation part      278.4629390 magnetization      84.1339357

 Broyden mixing:
  rms(total) = 0.20900E+00    rms(broyden)= 0.20884E+00
  rms(prec ) = 0.21239E+00
  weight for this iteration     100.00

 Free energy of the ion-electron system (eV)
  ---------------------------------------------------
  alpha Z        PSCENC =      2314.49656628
  Ewald energy   TEWEN  =    -57723.03679796
  -Hartree energ DENC   =    -30348.88277494
  -exchange      EXHF   =         0.00000000
  -V(xc)+E(xc)   XCENC  =      3229.29963822
  PAW double counting   =     92679.89207989   -95535.38516353
  entropy T*S    EENTRO =        -0.00000000
  eigenvalues    EBANDS =    -10548.59772854
  atomic energy  EATOM  =     95443.47970955
  Solvation  Ediel_sol  =         0.00000000
  ---------------------------------------------------
  free energy    TOTEN  =      -488.73447103 eV

  energy without entropy =     -488.73447103  energy(sigma->0) =     -488.73447103


--------------------------------------------------------------------------------------------------------




--------------------------------------- Iteration      1(   6)  ---------------------------------------


    POTLOK:  cpu time    1.0505: real time    1.0525
    SETDIJ:  cpu time    2.3033: real time    2.3063
     EDDAV:  cpu time  401.5062: real time  405.1791
       DOS:  cpu time    0.0028: real time    0.0028
    CHARGE:  cpu time    9.4264: real time    9.4567
    MIXING:  cpu time    0.0308: real time    0.0308
    --------------------------------------------
      LOOP:  cpu time  414.3200: real time  418.0283

 eigenvalue-minimisations  : 42168
 total energy-change (2. order) :-0.4661187E+00  (-0.4802210E+00)
 number of electron     736.0000016 magnetization     127.9999951
 augmentation part      277.9608465 magnetization      84.1623014

 Broyden mixing:
  rms(total) = 0.10357E+00    rms(broyden)= 0.10341E+00
  rms(prec ) = 0.10424E+00
  weight for this iteration     100.00

 eigenvalues of (default mixing * dielectric matrix)
  average eigenvalue GAMMA=   0.6599
  0.6599

 Free energy of the ion-electron system (eV)
  ---------------------------------------------------
  alpha Z        PSCENC =      2314.49656628
  Ewald energy   TEWEN  =    -57723.03679796
  -Hartree energ DENC   =    -30347.06263145
  -exchange      EXHF   =         0.00000000
  -V(xc)+E(xc)   XCENC  =      3228.99967246
  PAW double counting   =     92520.86881537   -95374.70773489
  entropy T*S    EENTRO =        -0.00000000
  eigenvalues    EBANDS =    -10552.23818912
  atomic energy  EATOM  =     95443.47970955
  Solvation  Ediel_sol  =         0.00000000
  ---------------------------------------------------
  free energy    TOTEN  =      -489.20058975 eV

  energy without entropy =     -489.20058975  energy(sigma->0) =     -489.20058975


--------------------------------------------------------------------------------------------------------




--------------------------------------- Iteration      1(   7)  ---------------------------------------


    POTLOK:  cpu time    1.0488: real time    1.0519
    SETDIJ:  cpu time    2.3101: real time    2.3137
     EDDAV:  cpu time  437.0721: real time  441.6424
       DOS:  cpu time    0.0026: real time    0.0026
    CHARGE:  cpu time    9.2706: real time    9.3721
    MIXING:  cpu time    0.0363: real time    0.0369
    --------------------------------------------
      LOOP:  cpu time  449.7406: real time  454.4195

 eigenvalue-minimisations  : 46368
 total energy-change (2. order) :-0.1670486E-01  (-0.1755435E-01)
 number of electron     736.0000016 magnetization     127.9999959
 augmentation part      277.8793323 magnetization      84.1546365

 Broyden mixing:
  rms(total) = 0.59037E-01    rms(broyden)= 0.58995E-01
  rms(prec ) = 0.60452E-01
  weight for this iteration     100.00

 eigenvalues of (default mixing * dielectric matrix)
  average eigenvalue GAMMA=   0.5816
  0.5816  0.5816

 Free energy of the ion-electron system (eV)
  ---------------------------------------------------
  alpha Z        PSCENC =      2314.49656628
  Ewald energy   TEWEN  =    -57723.03679796
  -Hartree energ DENC   =    -30347.99025299
  -exchange      EXHF   =         0.00000000
  -V(xc)+E(xc)   XCENC  =      3229.08441145
  PAW double counting   =     92579.59853745   -95434.01143840
  entropy T*S    EENTRO =        -0.00000000
  eigenvalues    EBANDS =    -10550.83802999
  atomic energy  EATOM  =     95443.47970955
  Solvation  Ediel_sol  =         0.00000000
  ---------------------------------------------------
  free energy    TOTEN  =      -489.21729461 eV

  energy without entropy =     -489.21729461  energy(sigma->0) =     -489.21729461


--------------------------------------------------------------------------------------------------------




--------------------------------------- Iteration      1(   8)  ---------------------------------------


    POTLOK:  cpu time    1.0401: real time    1.0691
    SETDIJ:  cpu time    2.2911: real time    2.3087
     EDDAV:  cpu time  406.5147: real time  409.7321
       DOS:  cpu time    0.0027: real time    0.0027
    CHARGE:  cpu time    9.4307: real time    9.4672
    MIXING:  cpu time    0.0300: real time    0.0301
    --------------------------------------------
      LOOP:  cpu time  419.3094: real time  422.6100

 eigenvalue-minimisations  : 42720
 total energy-change (2. order) : 0.5116379E-03  (-0.3429556E-03)
 number of electron     736.0000016 magnetization     127.9999962
 augmentation part      277.8714214 magnetization      84.1567349

 Broyden mixing:
  rms(total) = 0.52858E-01    rms(broyden)= 0.52854E-01
  rms(prec ) = 0.54087E-01
  weight for this iteration     100.00

 eigenvalues of (default mixing * dielectric matrix)
  average eigenvalue GAMMA=   0.5432
  0.6003  0.6003  0.4289

 Free energy of the ion-electron system (eV)
  ---------------------------------------------------
  alpha Z        PSCENC =      2314.49656628
  Ewald energy   TEWEN  =    -57723.03679796
  -Hartree energ DENC   =    -30347.95211342
  -exchange      EXHF   =         0.00000000
  -V(xc)+E(xc)   XCENC  =      3229.11409747
  PAW double counting   =     92593.36728084   -95447.91700081
  entropy T*S    EENTRO =        -0.00000000
  eigenvalues    EBANDS =    -10550.76852491
  atomic energy  EATOM  =     95443.47970955
  Solvation  Ediel_sol  =         0.00000000
  ---------------------------------------------------
  free energy    TOTEN  =      -489.21678297 eV

  energy without entropy =     -489.21678297  energy(sigma->0) =     -489.21678297


--------------------------------------------------------------------------------------------------------




--------------------------------------- Iteration      1(   9)  ---------------------------------------


    POTLOK:  cpu time    1.0455: real time    1.0484
    SETDIJ:  cpu time    2.3064: real time    2.3165
     EDDAV:  cpu time  440.9433: real time  444.9953
       DOS:  cpu time    0.0028: real time    0.0028
    CHARGE:  cpu time    9.4285: real time    9.4390
    MIXING:  cpu time    0.0307: real time    0.0307
    --------------------------------------------
      LOOP:  cpu time  453.7572: real time  457.8328

 eigenvalue-minimisations  : 46880
 total energy-change (2. order) : 0.3504697E-03  (-0.2106320E-04)
 number of electron     736.0000016 magnetization     127.9999969
 augmentation part      277.8735132 magnetization      84.1566888

 Broyden mixing:
  rms(total) = 0.47656E-01    rms(broyden)= 0.47656E-01
  rms(prec ) = 0.48740E-01
  weight for this iteration     100.00

 eigenvalues of (default mixing * dielectric matrix)
  average eigenvalue GAMMA=   0.5778
  0.6779  0.6779  0.4776  0.4776

 Free energy of the ion-electron system (eV)
  ---------------------------------------------------
  alpha Z        PSCENC =      2314.49656628
  Ewald energy   TEWEN  =    -57723.03679796
  -Hartree energ DENC   =    -30348.01576353
  -exchange      EXHF   =         0.00000000
  -V(xc)+E(xc)   XCENC  =      3229.13292500
  PAW double counting   =     92599.83911432   -95454.47560860
  entropy T*S    EENTRO =        -0.00000000
  eigenvalues    EBANDS =    -10550.63657757
  atomic energy  EATOM  =     95443.47970955
  Solvation  Ediel_sol  =         0.00000000
  ---------------------------------------------------
  free energy    TOTEN  =      -489.21643250 eV

  energy without entropy =     -489.21643250  energy(sigma->0) =     -489.21643250


--------------------------------------------------------------------------------------------------------




--------------------------------------- Iteration      1(  10)  ---------------------------------------


    POTLOK:  cpu time    1.0445: real time    1.0476
    SETDIJ:  cpu time    2.3028: real time    2.3062
     EDDAV:  cpu time  408.5797: real time  412.7922
       DOS:  cpu time    0.0032: real time    0.0081
    CHARGE:  cpu time    9.3695: real time    9.4282
    MIXING:  cpu time    0.0370: real time    0.0436
    --------------------------------------------
      LOOP:  cpu time  421.3368: real time  425.6259

 eigenvalue-minimisations  : 43040
 total energy-change (2. order) : 0.4398617E-03  (-0.1164353E-04)
 number of electron     736.0000016 magnetization     127.9999985
 augmentation part      277.8778283 magnetization      84.1572039

 Broyden mixing:
  rms(total) = 0.39813E-01    rms(broyden)= 0.39813E-01
  rms(prec ) = 0.40645E-01
  weight for this iteration     100.00

 eigenvalues of (default mixing * dielectric matrix)
  average eigenvalue GAMMA=   0.8269
  1.2354  1.2354  0.5891  0.5891  0.4858

 Free energy of the ion-electron system (eV)
  ---------------------------------------------------
  alpha Z        PSCENC =      2314.49656628
  Ewald energy   TEWEN  =    -57723.03679796
  -Hartree energ DENC   =    -30348.16892103
  -exchange      EXHF   =         0.00000000
  -V(xc)+E(xc)   XCENC  =      3229.16493999
  PAW double counting   =     92611.45674530   -95466.24675634
  entropy T*S    EENTRO =        -0.00000000
  eigenvalues    EBANDS =    -10550.36147843
  atomic energy  EATOM  =     95443.47970955
  Solvation  Ediel_sol  =         0.00000000
  ---------------------------------------------------
  free energy    TOTEN  =      -489.21599264 eV

  energy without entropy =     -489.21599264  energy(sigma->0) =     -489.21599264


--------------------------------------------------------------------------------------------------------




--------------------------------------- Iteration      1(  11)  ---------------------------------------


    POTLOK:  cpu time    1.0444: real time    1.0753
    SETDIJ:  cpu time    2.3162: real time    2.3280
     EDDAV:  cpu time  410.8457: real time  414.7541
       DOS:  cpu time    0.0026: real time    0.0026
    CHARGE:  cpu time    9.3423: real time    9.4700
    MIXING:  cpu time    0.0292: real time    0.0293
    --------------------------------------------
      LOOP:  cpu time  423.5804: real time  427.6594

 eigenvalue-minimisations  : 43232
 total energy-change (2. order) : 0.6356690E-03  (-0.3603225E-04)
 number of electron     736.0000016 magnetization     127.9999990
 augmentation part      277.8845665 magnetization      84.1580403

 Broyden mixing:
  rms(total) = 0.21428E-01    rms(broyden)= 0.21427E-01
  rms(prec ) = 0.21740E-01
  weight for this iteration     100.00

 eigenvalues of (default mixing * dielectric matrix)
  average eigenvalue GAMMA=   0.8482
  1.3838  1.3838  0.6514  0.6514  0.5093  0.5093

 Free energy of the ion-electron system (eV)
  ---------------------------------------------------
  alpha Z        PSCENC =      2314.49656628
  Ewald energy   TEWEN  =    -57723.03679796
  -Hartree energ DENC   =    -30348.52139986
  -exchange      EXHF   =         0.00000000
  -V(xc)+E(xc)   XCENC  =      3229.23745341
  PAW double counting   =     92640.70944456   -95495.85684543
  entropy T*S    EENTRO =        -0.00000000
  eigenvalues    EBANDS =    -10549.72348752
  atomic energy  EATOM  =     95443.47970955
  Solvation  Ediel_sol  =         0.00000000
  ---------------------------------------------------
  free energy    TOTEN  =      -489.21535697 eV

  energy without entropy =     -489.21535697  energy(sigma->0) =     -489.21535697


--------------------------------------------------------------------------------------------------------




--------------------------------------- Iteration      1(  12)  ---------------------------------------


    POTLOK:  cpu time    1.0507: real time    1.0521
    SETDIJ:  cpu time    2.3039: real time    2.3050
     EDDAV:  cpu time  366.8502: real time  370.6321
       DOS:  cpu time    0.0027: real time    0.0027
    CHARGE:  cpu time    9.1836: real time    9.3671
    MIXING:  cpu time    0.0350: real time    0.0350
    --------------------------------------------
      LOOP:  cpu time  379.4261: real time  383.3939

 eigenvalue-minimisations  : 37816
 total energy-change (2. order) : 0.6787205E-04  (-0.2064474E-04)
 number of electron     736.0000016 magnetization     127.9999991
 augmentation part      277.8876670 magnetization      84.1579497

 Broyden mixing:
  rms(total) = 0.15498E-01    rms(broyden)= 0.15497E-01
  rms(prec ) = 0.15677E-01
  weight for this iteration     100.00

 eigenvalues of (default mixing * dielectric matrix)
  average eigenvalue GAMMA=   0.8177
  1.4415  1.4415  0.6965  0.6965  0.5126  0.5126  0.4228

 Free energy of the ion-electron system (eV)
  ---------------------------------------------------
  alpha Z        PSCENC =      2314.49656628
  Ewald energy   TEWEN  =    -57723.03679796
  -Hartree energ DENC   =    -30348.62017836
  -exchange      EXHF   =         0.00000000
  -V(xc)+E(xc)   XCENC  =      3229.25739759
  PAW double counting   =     92650.46613116   -95505.71414413
  entropy T*S    EENTRO =        -0.00000000
  eigenvalues    EBANDS =    -10549.54397324
  atomic energy  EATOM  =     95443.47970955
  Solvation  Ediel_sol  =         0.00000000
  ---------------------------------------------------
  free energy    TOTEN  =      -489.21528910 eV

  energy without entropy =     -489.21528910  energy(sigma->0) =     -489.21528910


--------------------------------------------------------------------------------------------------------




--------------------------------------- Iteration      1(  13)  ---------------------------------------


    POTLOK:  cpu time    1.0360: real time    1.0437
    SETDIJ:  cpu time    2.2903: real time    2.3091
     EDDAV:  cpu time  380.2985: real time  384.7813
       DOS:  cpu time    0.0033: real time    0.0033
    CHARGE:  cpu time    9.4337: real time    9.4830
    MIXING:  cpu time    0.0311: real time    0.0311
    --------------------------------------------
      LOOP:  cpu time  393.0930: real time  397.6516

 eigenvalue-minimisations  : 39424
 total energy-change (2. order) :-0.6658942E-05  (-0.3501841E-05)
 number of electron     736.0000016 magnetization     127.9999992
 augmentation part      277.8894433 magnetization      84.1579573

 Broyden mixing:
  rms(total) = 0.14950E-01    rms(broyden)= 0.14949E-01
  rms(prec ) = 0.15117E-01
  weight for this iteration     100.00

 eigenvalues of (default mixing * dielectric matrix)
  average eigenvalue GAMMA=   0.8622
  1.6132  1.6132  0.8371  0.8371  0.5442  0.5442  0.4543  0.4543

 Free energy of the ion-electron system (eV)
  ---------------------------------------------------
  alpha Z        PSCENC =      2314.49656628
  Ewald energy   TEWEN  =    -57723.03679796
  -Hartree energ DENC   =    -30348.62824784
  -exchange      EXHF   =         0.00000000
  -V(xc)+E(xc)   XCENC  =      3229.25806972
  PAW double counting   =     92651.44205269   -95506.69339432
  entropy T*S    EENTRO =        -0.00000000
  eigenvalues    EBANDS =    -10549.53325387
  atomic energy  EATOM  =     95443.47970955
  Solvation  Ediel_sol  =         0.00000000
  ---------------------------------------------------
  free energy    TOTEN  =      -489.21529575 eV

  energy without entropy =     -489.21529575  energy(sigma->0) =     -489.21529575


--------------------------------------------------------------------------------------------------------




--------------------------------------- Iteration      1(  14)  ---------------------------------------


    POTLOK:  cpu time    1.0462: real time    1.0491
    SETDIJ:  cpu time    2.2954: real time    2.3012
     EDDAV:  cpu time  248.9384: real time  251.2451
       DOS:  cpu time    0.0025: real time    0.0025
    --------------------------------------------
      LOOP:  cpu time  252.2824: real time  254.5978

 eigenvalue-minimisations  : 22456
 total energy-change (2. order) : 0.7722701E-07  (-0.5554490E-07)
 number of electron     736.0000016 magnetization     127.9999992
 augmentation part      277.8894433 magnetization      84.1579573

 Free energy of the ion-electron system (eV)
  ---------------------------------------------------
  alpha Z        PSCENC =      2314.49656628
  Ewald energy   TEWEN  =    -57723.03679796
  -Hartree energ DENC   =    -30348.64101110
  -exchange      EXHF   =         0.00000000
  -V(xc)+E(xc)   XCENC  =      3229.25963602
  PAW double counting   =     92654.05911279   -95509.32405775
  entropy T*S    EENTRO =        -0.00000000
  eigenvalues    EBANDS =    -10549.50845351
  atomic energy  EATOM  =     95443.47970955
  Solvation  Ediel_sol  =         0.00000000
  ---------------------------------------------------
  free energy    TOTEN  =      -489.21529568 eV

  energy without entropy =     -489.21529568  energy(sigma->0) =     -489.21529568


--------------------------------------------------------------------------------------------------------




 average (electrostatic) potential at core
  the test charge radii are     0.7079  0.7215  0.9698  0.9500
  (the norm of the test charge is              1.0000)
       1 -58.9591       2 -58.9586       3 -58.9616       4 -58.9609       5 -58.9591
       6 -58.9590       7 -58.9590       8 -58.9590       9 -58.9586      10 -58.9584
      11 -58.9592      12 -58.9599      13 -58.9595      14 -58.9606      15 -58.9601
      16 -58.9600      17 -69.8167      18 -69.8169      19 -69.8160      20 -69.8162
      21 -69.8157      22 -69.8161      23 -69.8165      24 -69.8168      25 -69.8213
      26 -69.8169      27 -69.8155      28 -69.8162      29 -69.8160      30 -69.8113
      31 -69.8166      32 -69.8172      33 -85.5770      34 -85.5787      35 -85.5798
      36 -85.5795      37 -85.5797      38 -85.5814      39 -85.5790      40 -85.5786
      41 -85.5788      42 -85.5789      43 -85.5795      44 -85.5794      45 -85.5795
      46 -85.5798      47 -85.5789      48 -85.5790      49 -85.6358      50 -85.6379
      51 -85.6389      52 -85.6385      53 -85.6387      54 -85.6408      55 -85.6380
      56 -85.6376      57 -78.5751      58 -78.5746      59 -78.5740      60 -78.5741
      61 -78.5731      62 -78.5738      63 -78.5743      64 -78.5744      65 -78.5759
      66 -78.5750      67 -78.5736      68 -78.5739      69 -78.5734      70 -78.5724
      71 -78.5745      72 -78.5747      73 -78.5788      74 -78.5818      75 -78.5853
      76 -78.5823      77 -78.5922      78 -78.5911      79 -78.5916      80 -78.5916
      81 -78.5905      82 -78.5913      83 -78.5919      84 -78.5927      85 -78.5820
      86 -78.5820      87 -78.5820      88 -78.5821
 
 
 
 E-fermi :   5.2124     XC(G=0): -10.4850     alpha+bet :-11.8156


 spin component 1

 k-point     1 :       0.0000    0.0000    0.0000
  band No.  band energies     occupation 
      1     -51.0558      1.00000
      2     -51.0551      1.00000
      3     -51.0549      1.00000
      4     -51.0547      1.00000
      5     -51.0543      1.00000
      6     -51.0538      1.00000
      7     -51.0537      1.00000
      8     -51.0535      1.00000
      9     -51.0529      1.00000
     10     -51.0527      1.00000
     11     -51.0526      1.00000
     12     -51.0523      1.00000
     13     -51.0519      1.00000
     14     -51.0512      1.00000
     15     -51.0510      1.00000
     16     -51.0501      1.00000
     17     -51.0450      1.00000
     18     -51.0449      1.00000
     19     -51.0445      1.00000
     20     -51.0442      1.00000
     21     -51.0440      1.00000
     22     -51.0438      1.00000
     23     -51.0432      1.00000
     24     -51.0431      1.00000
     25     -51.0424      1.00000
     26     -51.0397      1.00000
     27     -51.0395      1.00000
     28     -51.0395      1.00000
     29     -51.0394      1.00000
     30     -51.0394      1.00000
     31     -51.0392      1.00000
     32     -51.0364      1.00000
     33     -49.7027      1.00000
     34     -49.7022      1.00000
     35     -49.7019      1.00000
     36     -49.7017      1.00000
     37     -49.7016      1.00000
     38     -49.7013      1.00000
     39     -49.7011      1.00000
     40     -49.7006      1.00000
     41     -49.6971      1.00000
     42     -49.6943      1.00000
     43     -49.6941      1.00000
     44     -49.6941      1.00000
     45     -49.6940      1.00000
     46     -49.6940      1.00000
     47     -49.6938      1.00000
     48     -49.6911      1.00000
     49     -49.5990      1.00000
     50     -49.5983      1.00000
     51     -49.5978      1.00000
     52     -49.5977      1.00000
     53     -49.5975      1.00000
     54     -49.5972      1.00000
     55     -49.5969      1.00000
     56     -49.5968      1.00000
     57     -49.5966      1.00000
     58     -49.5965      1.00000
     59     -49.5962      1.00000
     60     -49.5961      1.00000
     61     -49.5959      1.00000
     62     -49.5958      1.00000
     63     -49.5954      1.00000
     64     -49.5947      1.00000
     65     -49.5677      1.00000
     66     -49.5670      1.00000
     67     -49.5665      1.00000
     68     -49.5663      1.00000
     69     -49.5662      1.00000
     70     -49.5661      1.00000
     71     -49.5655      1.00000
     72     -49.5652      1.00000
     73     -49.5649      1.00000
     74     -49.5648      1.00000
     75     -49.5643      1.00000
     76     -49.5643      1.00000
     77     -49.5642      1.00000
     78     -49.5638      1.00000
     79     -49.5636      1.00000
     80     -49.5631      1.00000
     81     -49.5554      1.00000
     82     -49.5546      1.00000
     83     -49.5545      1.00000
     84     -49.5542      1.00000
     85     -49.5542      1.00000
     86     -49.5539      1.00000
     87     -49.5538      1.00000
     88     -49.5530      1.00000
     89     -49.5427      1.00000
     90     -49.5398      1.00000
     91     -49.5395      1.00000
     92     -49.5395      1.00000
     93     -49.5394      1.00000
     94     -49.5394      1.00000
     95     -49.5392      1.00000
     96     -49.5363      1.00000
     97     -39.8799      1.00000
     98     -39.8792      1.00000
     99     -39.8791      1.00000
    100     -39.8788      1.00000
    101     -39.8785      1.00000
    102     -39.8781      1.00000
    103     -39.8780      1.00000
    104     -39.8779      1.00000
    105     -39.8779      1.00000
    106     -39.8778      1.00000
    107     -39.8778      1.00000
    108     -39.8777      1.00000
    109     -39.8772      1.00000
    110     -39.8771      1.00000
    111     -39.8771      1.00000
    112     -39.8767      1.00000
    113     -13.2251      1.00000
    114     -13.2248      1.00000
    115     -13.2104      1.00000
    116     -13.1836      1.00000
    117     -13.1017      1.00000
    118     -13.0997      1.00000
    119     -13.0983      1.00000
    120     -13.0927      1.00000
    121     -13.0866      1.00000
    122     -13.0808      1.00000
    123     -13.0794      1.00000
    124     -13.0772      1.00000
    125     -12.9882      1.00000
    126     -12.9775      1.00000
    127     -12.9419      1.00000
    128     -12.9418      1.00000
    129      -7.6452      1.00000
    130      -7.4067      1.00000
    131      -7.3265      1.00000
    132      -7.3255      1.00000
    133      -7.3101      1.00000
    134      -7.3091      1.00000
    135      -7.3080      1.00000
    136      -7.3066      1.00000
    137      -7.1696      1.00000
    138      -7.1569      1.00000
    139      -7.1241      1.00000
    140      -7.1232      1.00000
    141      -7.0364      1.00000
    142      -7.0217      1.00000
    143      -7.0022      1.00000
    144      -7.0016      1.00000
    145      -6.9410      1.00000
    146      -6.9404      1.00000
    147      -6.8874      1.00000
    148      -6.8867      1.00000
    149      -6.8656      1.00000
    150      -6.8613      1.00000
    151      -6.8343      1.00000
    152      -6.8036      1.00000
    153      -1.9356      1.00000
    154      -1.9355      1.00000
    155      -1.9105      1.00000
    156      -1.8936      1.00000
    157      -1.6667      1.00000
    158      -1.6663      1.00000
    159      -1.6589      1.00000
    160      -1.6570      1.00000
    161      -1.5999      1.00000
    162      -1.5979      1.00000
    163      -1.5864      1.00000
    164      -1.5860      1.00000
    165      -1.2983      1.00000
    166      -1.1751      1.00000
    167      -1.1742      1.00000
    168      -1.1136      1.00000
    169      -1.1130      1.00000
    170      -1.1073      1.00000
    171      -1.0495      1.00000
    172      -0.9809      1.00000
    173      -0.9647      1.00000
    174      -0.9597      1.00000
    175      -0.9578      1.00000
    176      -0.9575      1.00000
    177      -0.9469      1.00000
    178      -0.9453      1.00000
    179      -0.9229      1.00000
    180      -0.8713      1.00000
    181      -0.8712      1.00000
    182      -0.8035      1.00000
    183      -0.8027      1.00000
    184      -0.8026      1.00000
    185      -0.7752      1.00000
    186      -0.7742      1.00000
    187      -0.7739      1.00000
    188      -0.7611      1.00000
    189      -0.7170      1.00000
    190      -0.7164      1.00000
    191      -0.7066      1.00000
    192      -0.7051      1.00000
    193      -0.6992      1.00000
    194      -0.6990      1.00000
    195      -0.6089      1.00000
    196      -0.6085      1.00000
    197      -0.5616      1.00000
    198      -0.5614      1.00000
    199      -0.5495      1.00000
    200      -0.5481      1.00000
    201      -0.4081      1.00000
    202      -0.4081      1.00000
    203      -0.3575      1.00000
    204      -0.3479      1.00000
    205      -0.3296      1.00000
    206      -0.3291      1.00000
    207      -0.2985      1.00000
    208      -0.2984      1.00000
    209      -0.2814      1.00000
    210      -0.2693      1.00000
    211      -0.2628      1.00000
    212      -0.2558      1.00000
    213      -0.2551      1.00000
    214      -0.2091      1.00000
    215      -0.2089      1.00000
    216      -0.1887      1.00000
    217      -0.1867      1.00000
    218      -0.1866      1.00000
    219      -0.1758      1.00000
    220      -0.1580      1.00000
    221      -0.1255      1.00000
    222      -0.1255      1.00000
    223      -0.1094      1.00000
    224      -0.0708      1.00000
    225      -0.0702      1.00000
    226      -0.0605      1.00000
    227      -0.0434      1.00000
    228      -0.0177      1.00000
    229      -0.0173      1.00000
    230      -0.0116      1.00000
    231       0.0015      1.00000
    232       0.0018      1.00000
    233       0.0462      1.00000
    234       0.0494      1.00000
    235       0.0495      1.00000
    236       0.0914      1.00000
    237       0.0933      1.00000
    238       0.1184      1.00000
    239       0.1186      1.00000
    240       0.1577      1.00000
    241       0.1627      1.00000
    242       0.1768      1.00000
    243       0.1792      1.00000
    244       0.1820      1.00000
    245       0.1821      1.00000
    246       0.1855      1.00000
    247       0.1892      1.00000
    248       0.1933      1.00000
    249       0.1941      1.00000
    250       0.2008      1.00000
    251       0.2012      1.00000
    252       0.2388      1.00000
    253       0.2512      1.00000
    254       0.2569      1.00000
    255       0.2570      1.00000
    256       0.2766      1.00000
    257       0.3373      1.00000
    258       0.3474      1.00000
    259       0.3589      1.00000
    260       0.3590      1.00000
    261       0.3604      1.00000
    262       0.3604      1.00000
    263       0.3882      1.00000
    264       0.4017      1.00000
    265       0.4526      1.00000
    266       0.4526      1.00000
    267       0.5789      1.00000
    268       0.5789      1.00000
    269       0.5843      1.00000
    270       0.6020      1.00000
    271       0.6020      1.00000
    272       0.6065      1.00000
    273       0.6079      1.00000
    274       0.6401      1.00000
    275       0.6511      1.00000
    276       0.6513      1.00000
    277       0.6621      1.00000
    278       0.6623      1.00000
    279       0.6655      1.00000
    280       0.6731      1.00000
    281       0.6748      1.00000
    282       0.6749      1.00000
    283       0.6965      1.00000
    284       0.7229      1.00000
    285       0.7833      1.00000
    286       0.8196      1.00000
    287       0.8296      1.00000
    288       0.8321      1.00000
    289       0.8322      1.00000
    290       0.8611      1.00000
    291       0.8613      1.00000
    292       0.9093      1.00000
    293       0.9405      1.00000
    294       0.9481      1.00000
    295       0.9482      1.00000
    296       0.9832      1.00000
    297       1.0259      1.00000
    298       1.0704      1.00000
    299       1.2693      1.00000
    300       1.2981      1.00000
    301       1.2983      1.00000
    302       1.3116      1.00000
    303       1.3330      1.00000
    304       1.3333      1.00000
    305       1.3379      1.00000
    306       1.3846      1.00000
    307       1.4050      1.00000
    308       1.4282      1.00000
    309       1.4669      1.00000
    310       1.4679      1.00000
    311       1.4681      1.00000
    312       1.4815      1.00000
    313       1.5109      1.00000
    314       1.5110      1.00000
    315       1.5408      1.00000
    316       1.5612      1.00000
    317       1.5770      1.00000
    318       1.6463      1.00000
    319       1.6555      1.00000
    320       1.7560      1.00000
    321       1.7564      1.00000
    322       1.7629      1.00000
    323       1.7785      1.00000
    324       1.8029      1.00000
    325       1.8029      1.00000
    326       1.8108      1.00000
    327       1.8233      1.00000
    328       1.8366      1.00000
    329       1.8366      1.00000
    330       1.8460      1.00000
    331       1.8469      1.00000
    332       1.8784      1.00000
    333       1.8899      1.00000
    334       1.9468      1.00000
    335       1.9933      1.00000
    336       1.9936      1.00000
    337       2.0064      1.00000
    338       2.0064      1.00000
    339       2.0100      1.00000
    340       2.0186      1.00000
    341       2.0201      1.00000
    342       2.0202      1.00000
    343       2.0396      1.00000
    344       2.0467      1.00000
    345       2.0468      1.00000
    346       2.0572      1.00000
    347       2.0687      1.00000
    348       2.0690      1.00000
    349       2.0916      1.00000
    350       2.1129      1.00000
    351       2.1907      1.00000
    352       2.1907      1.00000
    353       2.2467      1.00000
    354       2.2472      1.00000
    355       2.2707      1.00000
    356       2.2731      1.00000
    357       2.2846      1.00000
    358       2.4278      1.00000
    359       2.4664      1.00000
    360       2.4664      1.00000
    361       2.4776      1.00000
    362       2.5036      1.00000
    363       2.5275      1.00000
    364       2.5540      1.00000
    365       2.5923      1.00000
    366       2.6266      1.00000
    367       2.6269      1.00000
    368       2.6561      1.00000
    369       2.7384      1.00000
    370       2.7394      1.00000
    371       2.7601      1.00000
    372       2.7611      1.00000
    373       2.8340      1.00000
    374       2.8725      1.00000
    375       2.9264      1.00000
    376       2.9344      1.00000
    377       2.9345      1.00000
    378       2.9693      1.00000
    379       3.0271      1.00000
    380       3.0280      1.00000
    381       3.0616      1.00000
    382       3.0970      1.00000
    383       3.3078      1.00000
    384       3.3103      1.00000
    385       3.3480      1.00000
    386       3.3758      1.00000
    387       3.4214      1.00000
    388       3.4220      1.00000
    389       3.4405      1.00000
    390       3.4582      1.00000
    391       3.4590      1.00000
    392       3.5316      1.00000
    393       3.7481      1.00000
    394       3.8082      1.00000
    395       3.8094      1.00000
    396       3.8152      1.00000
    397       3.8154      1.00000
    398       3.8825      1.00000
    399       3.8827      1.00000
    400       3.9324      1.00000
    401       3.9354      1.00000
    402       3.9406      1.00000
    403       3.9409      1.00000
    404       4.0392      1.00000
    405       4.0394      1.00000
    406       4.0703      1.00000
    407       4.1386      1.00000
    408       4.1492      1.00000
    409       4.1513      1.00000
    410       4.3149      1.00000
    411       4.3182      1.00000
    412       4.3380      1.00000
    413       4.3585      1.00000
    414       4.3586      1.00000
    415       4.4289      1.00000
    416       4.4445      1.00000
    417       4.4462      1.00000
    418       4.4538      1.00000
    419       4.4565      1.00000
    420       4.4566      1.00000
    421       4.6364      1.00000
    422       4.6365      1.00000
    423       4.7322      1.00000
    424       4.7326      1.00000
    425       4.7640      1.00000
    426       4.7643      1.00000
    427       4.7694      1.00000
    428       4.7697      1.00000
    429       4.8105      1.00000
    430       4.8533      1.00000
    431       4.8535      1.00000
    432       4.8573      1.00000
    433       7.3436      0.00000
    434       8.1284      0.00000
    435       8.4450      0.00000
    436       8.6425      0.00000
    437       8.6426      0.00000
    438       8.8581      0.00000
    439       9.0841      0.00000
    440       9.0851      0.00000
    441       9.2612      0.00000
    442       9.2734      0.00000
    443       9.2891      0.00000
    444       9.2892      0.00000
    445       9.7265      0.00000
    446       9.7719      0.00000
    447       9.7720      0.00000
    448       9.7899      0.00000
    449       9.8546      0.00000
    450       9.8547      0.00000
    451       9.8591      0.00000
    452       9.8789      0.00000
    453       9.8893      0.00000
    454      10.0608      0.00000
    455      10.0830      0.00000
    456      10.1360      0.00000
    457      10.1366      0.00000
    458      10.3059      0.00000
    459      10.3064      0.00000
    460      10.4166      0.00000
    461      10.5267      0.00000
    462      10.5708      0.00000
    463      10.5717      0.00000
    464      10.5722      0.00000
    465      10.5784      0.00000
    466      10.5785      0.00000
    467      10.6757      0.00000
    468      10.9760      0.00000
    469      11.0190      0.00000
    470      11.0196      0.00000
    471      11.0403      0.00000
    472      11.0410      0.00000
    473      11.0776      0.00000
    474      11.1284      0.00000
    475      11.1782      0.00000
    476      11.1887      0.00000
    477      11.2285      0.00000
    478      11.2490      0.00000
    479      11.2497      0.00000
    480      11.2904      0.00000
    481      11.3064      0.00000
    482      11.4174      0.00000
    483      11.4177      0.00000
    484      11.4588      0.00000
    485      11.5210      0.00000
    486      11.5214      0.00000
    487      11.5303      0.00000
    488      11.5770      0.00000
    489      11.6798      0.00000
    490      11.6805      0.00000
    491      11.7971      0.00000
    492      11.7977      0.00000
    493      11.8155      0.00000
    494      11.8156      0.00000
    495      11.8822      0.00000
    496      11.9416      0.00000
    497      11.9760      0.00000
    498      11.9764      0.00000
    499      11.9818      0.00000
    500      12.0281      0.00000
    501      12.0282      0.00000
    502      12.0581      0.00000
    503      12.1616      0.00000
    504      12.2423      0.00000
    505      12.2567      0.00000
    506      12.2578      0.00000
    507      12.3157      0.00000
    508      12.3158      0.00000
    509      12.3215      0.00000
    510      12.3480      0.00000
    511      12.4613      0.00000
    512      12.4803      0.00000
    513      12.5164      0.00000
    514      12.5173      0.00000
    515      12.6139      0.00000
    516      12.6147      0.00000
    517      12.6601      0.00000
    518      12.6629      0.00000
    519      12.6635      0.00000
    520      12.6895      0.00000
    521      12.7471      0.00000
    522      12.8313      0.00000
    523      12.8718      0.00000
    524      12.8726      0.00000
    525      12.8735      0.00000
    526      13.1200      0.00000
    527      13.1203      0.00000
    528      13.2008      0.00000
    529      13.3820      0.00000
    530      13.4099      0.00000
    531      13.4119      0.00000
    532      13.4340      0.00000
    533      13.4383      0.00000
    534      13.4557      0.00000
    535      13.4962      0.00000
    536      13.5125      0.00000
    537      13.5451      0.00000
    538      13.5550      0.00000

 k-point     2 :       0.3333    0.0000    0.0000
  band No.  band energies     occupation 
      1     -51.0557      1.00000
      2     -51.0550      1.00000
      3     -51.0548      1.00000
      4     -51.0546      1.00000
      5     -51.0545      1.00000
      6     -51.0541      1.00000
      7     -51.0539      1.00000
      8     -51.0537      1.00000
      9     -51.0529      1.00000
     10     -51.0526      1.00000
     11     -51.0523      1.00000
     12     -51.0520      1.00000
     13     -51.0517      1.00000
     14     -51.0513      1.00000
     15     -51.0511      1.00000
     16     -51.0503      1.00000
     17     -51.0450      1.00000
     18     -51.0449      1.00000
     19     -51.0445      1.00000
     20     -51.0442      1.00000
     21     -51.0440      1.00000
     22     -51.0438      1.00000
     23     -51.0433      1.00000
     24     -51.0432      1.00000
     25     -51.0423      1.00000
     26     -51.0397      1.00000
     27     -51.0395      1.00000
     28     -51.0395      1.00000
     29     -51.0394      1.00000
     30     -51.0394      1.00000
     31     -51.0392      1.00000
     32     -51.0364      1.00000
     33     -49.7027      1.00000
     34     -49.7022      1.00000
     35     -49.7019      1.00000
     36     -49.7017      1.00000
     37     -49.7016      1.00000
     38     -49.7013      1.00000
     39     -49.7011      1.00000
     40     -49.7006      1.00000
     41     -49.6971      1.00000
     42     -49.6943      1.00000
     43     -49.6941      1.00000
     44     -49.6941      1.00000
     45     -49.6940      1.00000
     46     -49.6940      1.00000
     47     -49.6938      1.00000
     48     -49.6911      1.00000
[...]
   -.875E-03 0.592E-02 -.259E+02   0.168E-02 -.597E-02 0.257E+02   -.369E-03 -.278E-03 0.250E+00   -.131E-03 0.789E-04 0.497E-03
   -.174E-02 0.169E-02 -.259E+02   0.168E-02 -.153E-02 0.257E+02   -.331E-04 -.366E-03 0.250E+00   0.907E-04 0.759E-04 0.631E-03
   0.283E-03 0.590E-02 -.259E+02   0.422E-03 -.589E-02 0.257E+02   -.332E-03 -.272E-03 0.251E+00   -.943E-04 0.127E-04 0.561E-03
   0.493E-02 0.112E-02 -.421E+02   -.557E-02 0.248E-02 0.420E+02   0.112E-03 -.242E-02 0.104E-01   0.202E-03 -.317E-03 -.296E-03
   0.471E-02 0.219E-02 -.421E+02   -.551E-02 0.138E-02 0.420E+02   0.157E-03 -.238E-02 0.117E-01   0.271E-03 -.329E-03 -.185E-03
   0.616E-02 0.219E-01 -.421E+02   -.553E-02 -.218E-01 0.420E+02   -.517E-03 -.737E-03 0.112E-01   -.163E-04 0.318E-03 -.144E-03
   0.605E-02 0.210E-01 -.421E+02   -.555E-02 -.209E-01 0.420E+02   -.494E-03 -.746E-03 0.108E-01   0.390E-04 0.390E-03 -.183E-03
   0.159E+02 0.149E+02 -.126E+03   -.163E+02 -.153E+02 0.131E+03   0.386E+00 0.378E+00 -.463E+01   -.362E-03 -.793E-04 0.689E-03
   0.159E+02 0.149E+02 -.126E+03   -.163E+02 -.153E+02 0.131E+03   0.389E+00 0.379E+00 -.463E+01   -.237E-03 0.136E-03 0.670E-03
   0.159E+02 0.149E+02 -.126E+03   -.163E+02 -.153E+02 0.131E+03   0.386E+00 0.383E+00 -.463E+01   -.307E-03 0.821E-03 0.428E-03
   0.159E+02 0.149E+02 -.126E+03   -.163E+02 -.153E+02 0.131E+03   0.387E+00 0.381E+00 -.463E+01   -.444E-03 0.539E-03 0.530E-03
   -.159E+02 -.149E+02 -.126E+03   0.163E+02 0.153E+02 0.131E+03   -.387E+00 -.380E+00 -.463E+01   0.711E-04 -.668E-03 0.570E-03
   -.159E+02 -.149E+02 -.126E+03   0.163E+02 0.153E+02 0.131E+03   -.390E+00 -.381E+00 -.463E+01   -.350E-03 -.656E-03 0.483E-03
   -.159E+02 -.149E+02 -.126E+03   0.163E+02 0.153E+02 0.131E+03   -.390E+00 -.378E+00 -.463E+01   -.314E-03 -.325E-03 0.677E-03
   -.159E+02 -.149E+02 -.126E+03   0.163E+02 0.152E+02 0.131E+03   -.390E+00 -.377E+00 -.463E+01   -.256E-03 -.287E-04 0.687E-03
   0.155E+02 -.147E+02 0.126E+03   -.158E+02 0.151E+02 -.131E+03   0.339E+00 -.364E+00 0.462E+01   0.460E-02 -.309E-02 -.754E-03
   0.159E+02 -.149E+02 0.126E+03   -.163E+02 0.153E+02 -.131E+03   0.391E+00 -.381E+00 0.463E+01   0.243E-03 -.823E-03 -.943E-03
   0.159E+02 -.148E+02 0.126E+03   -.163E+02 0.152E+02 -.131E+03   0.391E+00 -.374E+00 0.463E+01   0.469E-05 -.922E-04 -.459E-03
   0.159E+02 -.149E+02 0.126E+03   -.163E+02 0.152E+02 -.131E+03   0.389E+00 -.378E+00 0.463E+01   0.313E-03 -.170E-03 -.576E-03
   -.159E+02 0.149E+02 0.126E+03   0.162E+02 -.153E+02 -.131E+03   -.385E+00 0.379E+00 0.463E+01   0.421E-03 0.223E-03 -.285E-03
   -.163E+02 0.151E+02 0.126E+03   0.168E+02 -.155E+02 -.131E+03   -.437E+00 0.396E+00 0.463E+01   0.432E-02 -.204E-02 -.647E-03
   -.159E+02 0.149E+02 0.126E+03   0.163E+02 -.153E+02 -.131E+03   -.387E+00 0.381E+00 0.463E+01   0.272E-03 0.709E-03 -.678E-03
   -.159E+02 0.150E+02 0.126E+03   0.162E+02 -.154E+02 -.131E+03   -.385E+00 0.385E+00 0.463E+01   0.565E-04 0.793E-03 -.760E-03
   0.281E+02 0.282E+02 0.335E+02   -.285E+02 -.285E+02 -.340E+02   0.355E+00 0.351E+00 0.523E+00   -.607E-03 -.267E-03 -.750E-03
   0.280E+02 0.282E+02 0.333E+02   -.283E+02 -.285E+02 -.339E+02   0.349E+00 0.352E+00 0.520E+00   -.157E-03 -.574E-04 -.115E-03
   0.280E+02 0.282E+02 0.333E+02   -.283E+02 -.286E+02 -.338E+02   0.350E+00 0.355E+00 0.518E+00   0.203E-03 0.335E-03 -.309E-03
   0.280E+02 0.282E+02 0.333E+02   -.284E+02 -.286E+02 -.339E+02   0.351E+00 0.354E+00 0.519E+00   0.838E-04 0.494E-03 -.349E-03
   -.279E+02 -.282E+02 0.333E+02   0.283E+02 0.286E+02 -.338E+02   -.350E+00 -.355E+00 0.518E+00   -.126E-03 -.555E-03 -.955E-04
   -.278E+02 -.282E+02 0.332E+02   0.282E+02 0.286E+02 -.337E+02   -.345E+00 -.356E+00 0.515E+00   -.756E-03 -.580E-03 0.695E-03
   -.279E+02 -.282E+02 0.333E+02   0.283E+02 0.286E+02 -.338E+02   -.349E+00 -.353E+00 0.519E+00   -.828E-05 0.782E-04 -.853E-04
   -.279E+02 -.282E+02 0.333E+02   0.283E+02 0.285E+02 -.339E+02   -.350E+00 -.351E+00 0.520E+00   0.920E-04 0.296E-04 -.297E-03
   0.279E+02 -.282E+02 -.333E+02   -.283E+02 0.286E+02 0.338E+02   0.349E+00 -.355E+00 -.520E+00   0.251E-04 -.287E-03 -.566E-05
   0.279E+02 -.282E+02 -.333E+02   -.283E+02 0.286E+02 0.338E+02   0.350E+00 -.354E+00 -.518E+00   0.279E-03 -.236E-03 0.104E-03
   0.279E+02 -.282E+02 -.333E+02   -.283E+02 0.286E+02 0.338E+02   0.349E+00 -.353E+00 -.519E+00   0.177E-03 -.136E-04 0.408E-03
   0.279E+02 -.282E+02 -.333E+02   -.283E+02 0.286E+02 0.338E+02   0.349E+00 -.353E+00 -.519E+00   0.143E-03 -.467E-04 0.107E-03
   -.280E+02 0.282E+02 -.334E+02   0.284E+02 -.285E+02 0.339E+02   -.350E+00 0.352E+00 -.519E+00   0.215E-03 -.317E-05 0.400E-03
   -.280E+02 0.282E+02 -.333E+02   0.283E+02 -.285E+02 0.339E+02   -.350E+00 0.352E+00 -.519E+00   -.221E-04 -.211E-04 0.346E-03
   -.280E+02 0.282E+02 -.333E+02   0.284E+02 -.286E+02 0.339E+02   -.350E+00 0.355E+00 -.519E+00   0.109E-03 0.565E-03 0.271E-03
   -.280E+02 0.282E+02 -.333E+02   0.284E+02 -.286E+02 0.339E+02   -.351E+00 0.354E+00 -.519E+00   -.850E-04 0.248E-03 0.236E-03
   0.100E+02 0.294E-01 -.140E+00   -.101E+02 -.268E-01 0.143E+00   0.118E+00 -.306E-02 -.434E-02   -.136E-02 -.445E-03 0.107E-02
   0.989E+01 0.325E-01 -.164E-01   -.100E+02 -.330E-01 0.164E-01   0.114E+00 0.880E-04 -.371E-03   -.547E-03 0.710E-05 0.111E-03
   0.989E+01 0.921E-01 0.957E-02   -.100E+02 -.937E-01 -.102E-01   0.114E+00 0.227E-02 0.101E-02   -.562E-03 0.181E-03 0.112E-03
   0.991E+01 0.606E-01 -.443E-02   -.100E+02 -.621E-01 0.457E-02   0.115E+00 0.144E-02 -.169E-03   -.551E-03 0.411E-03 0.941E-04
   -.991E+01 0.330E-01 0.156E-01   0.100E+02 -.326E-01 -.159E-01   -.115E+00 -.266E-03 0.627E-03   0.476E-03 -.493E-03 0.631E-05
   -.980E+01 0.285E-01 0.141E+00   0.992E+01 -.259E-01 -.143E+00   -.110E+00 -.326E-02 0.439E-02   0.116E-03 -.408E-03 -.106E-02
   -.989E+01 0.616E-01 0.504E-02   0.100E+02 -.624E-01 -.498E-02   -.114E+00 0.109E-02 0.177E-03   0.538E-03 0.866E-04 -.273E-03
   -.991E+01 0.918E-01 -.968E-02   0.100E+02 -.934E-01 0.104E-01   -.115E+00 0.224E-02 -.106E-02   0.523E-03 0.182E-03 -.159E-03
   0.190E+02 0.189E+02 0.185E+03   -.180E+02 -.178E+02 -.183E+03   -.107E+01 -.109E+01 -.242E+01   0.934E-03 -.619E-03 -.462E-03
   0.190E+02 0.189E+02 0.185E+03   -.180E+02 -.178E+02 -.183E+03   -.106E+01 -.109E+01 -.241E+01   0.126E-02 -.383E-03 -.326E-03
   0.190E+02 0.190E+02 0.185E+03   -.180E+02 -.179E+02 -.183E+03   -.106E+01 -.108E+01 -.241E+01   0.118E-02 0.126E-02 -.113E-03
   0.190E+02 0.190E+02 0.185E+03   -.180E+02 -.179E+02 -.183E+03   -.106E+01 -.108E+01 -.241E+01   0.142E-02 0.926E-03 -.203E-03
   -.189E+02 -.189E+02 0.185E+03   0.178E+02 0.178E+02 -.183E+03   0.106E+01 0.108E+01 -.240E+01   0.861E-03 -.350E-02 -.260E-02
   -.189E+02 -.189E+02 0.185E+03   0.178E+02 0.178E+02 -.183E+03   0.106E+01 0.109E+01 -.241E+01   0.329E-03 -.321E-02 -.189E-02
   -.189E+02 -.188E+02 0.185E+03   0.178E+02 0.178E+02 -.183E+03   0.106E+01 0.109E+01 -.241E+01   0.566E-03 -.216E-02 -.210E-02
   -.189E+02 -.188E+02 0.185E+03   0.178E+02 0.178E+02 -.183E+03   0.106E+01 0.109E+01 -.241E+01   0.426E-03 -.210E-02 -.200E-02
   0.187E+02 -.189E+02 -.185E+03   -.177E+02 0.178E+02 0.183E+03   -.107E+01 0.109E+01 0.239E+01   0.496E-03 -.379E-02 0.208E-02
   0.189E+02 -.189E+02 -.185E+03   -.179E+02 0.178E+02 0.183E+03   -.106E+01 0.109E+01 0.241E+01   -.723E-03 -.330E-02 0.267E-02
   0.189E+02 -.188E+02 -.185E+03   -.179E+02 0.177E+02 0.183E+03   -.106E+01 0.109E+01 0.241E+01   -.738E-03 -.189E-02 0.208E-02
   0.189E+02 -.188E+02 -.185E+03   -.178E+02 0.178E+02 0.183E+03   -.106E+01 0.109E+01 0.241E+01   -.955E-03 -.218E-02 0.233E-02
   -.190E+02 0.189E+02 -.185E+03   0.179E+02 -.178E+02 0.183E+03   0.107E+01 -.108E+01 0.241E+01   -.116E-02 0.158E-03 0.815E-03
   -.192E+02 0.189E+02 -.185E+03   0.181E+02 -.178E+02 0.182E+03   0.106E+01 -.108E+01 0.242E+01   -.226E-04 -.497E-03 0.101E-03
   -.190E+02 0.190E+02 -.185E+03   0.180E+02 -.179E+02 0.183E+03   0.106E+01 -.108E+01 0.241E+01   -.161E-02 0.116E-02 0.387E-03
   -.190E+02 0.190E+02 -.185E+03   0.179E+02 -.179E+02 0.183E+03   0.106E+01 -.108E+01 0.241E+01   -.142E-02 0.858E-03 0.288E-03
   0.121E-01 0.464E+00 0.209E+03   -.197E-01 -.499E+00 -.211E+03   0.665E-02 0.262E-01 0.206E+01   0.428E-03 -.444E-02 0.441E-03
   0.189E-01 -.659E-01 0.209E+03   -.200E-01 0.634E-01 -.211E+03   0.997E-03 0.276E-02 0.206E+01   -.148E-04 -.302E-03 -.683E-03
   0.119E-01 0.469E+00 0.209E+03   -.200E-01 -.504E+00 -.211E+03   0.652E-02 0.263E-01 0.207E+01   0.108E-02 -.417E-02 -.128E-02
   0.189E-01 -.660E-01 0.209E+03   -.198E-01 0.636E-01 -.211E+03   0.933E-03 0.263E-02 0.206E+01   -.106E-03 -.323E-03 -.635E-03
   0.339E-01 -.294E+00 0.199E+03   -.242E-01 0.316E+00 -.201E+03   -.433E-02 -.141E-01 0.207E+01   -.365E-02 -.237E-02 0.323E-03
   0.304E-01 -.295E+00 0.199E+03   -.212E-01 0.316E+00 -.201E+03   -.467E-02 -.144E-01 0.206E+01   -.271E-02 -.134E-02 -.686E-03
   0.232E-01 0.240E-01 0.199E+03   -.226E-01 -.315E-01 -.201E+03   0.166E-02 0.545E-02 0.206E+01   -.243E-02 0.116E-02 -.460E-03
   0.232E-01 0.241E-01 0.199E+03   -.229E-01 -.313E-01 -.201E+03   0.167E-02 0.554E-02 0.206E+01   -.221E-02 0.753E-03 -.803E-04
   -.192E-03 -.500E-01 -.199E+03   -.565E-02 0.406E-01 0.201E+03   0.274E-02 0.808E-02 -.207E+01   0.252E-02 0.220E-03 0.472E-03
   -.518E-01 -.429E-01 -.199E+03   0.511E-01 0.411E-01 0.201E+03   -.158E-02 0.217E-02 -.206E+01   0.247E-02 -.518E-03 -.187E-03
   -.510E-01 -.425E-01 -.199E+03   0.511E-01 0.409E-01 0.201E+03   -.177E-02 0.214E-02 -.206E+01   0.178E-02 -.609E-03 0.266E-03
   -.400E-03 -.503E-01 -.199E+03   -.571E-02 0.414E-01 0.201E+03   0.315E-02 0.817E-02 -.206E+01   0.230E-02 -.351E-03 0.469E-03
   -.202E-01 -.965E-01 -.209E+03   0.199E-01 0.100E+00 0.211E+03   -.186E-03 -.168E-02 -.206E+01   0.284E-03 -.962E-03 -.429E-05
   -.121E-01 -.198E+00 -.209E+03   0.199E-01 0.206E+00 0.211E+03   -.605E-02 -.554E-02 -.206E+01   -.807E-03 -.141E-02 0.653E-03
   -.200E-01 -.458E-01 -.209E+03   0.199E-01 0.407E-01 0.211E+03   -.324E-03 0.395E-02 -.206E+01   0.431E-03 0.772E-03 0.605E-03
   -.213E-01 -.110E-01 -.209E+03   0.199E-01 0.352E-02 0.211E+03   0.179E-03 0.558E-02 -.206E+01   0.112E-02 0.115E-02 0.578E-03
 -----------------------------------------------------------------------------------------------
   0.121E+00 -.133E+00 -.894E-03   0.229E-12 0.295E-13 0.568E-13   -.129E+00 0.169E+00 0.375E-03   0.762E-02 -.376E-01 0.576E-03
 
 
 POSITION                                       TOTAL-FORCE (eV/Angst)
 -----------------------------------------------------------------------------------
      2.77841      5.21785      1.58925        -0.000604     -0.000358     -0.000072
      8.33453      5.21785      1.58910         0.000881     -0.000591      0.000123
      2.77841     10.77658      1.58925         0.000896     -0.000610     -0.000081
      8.33453     10.77658      1.58910        -0.000615     -0.000336      0.000108
      0.00058      2.42861      1.89560        -0.017985      0.040625     -0.000021
      5.55670      2.43861      1.89545         0.000018      0.000327      0.000022
      0.00058      7.99734      1.89560        -0.000017     -0.000489      0.000019
      5.55670      7.99734      1.89545        -0.000105     -0.000212      0.000012
      2.78043      5.21797      8.30298        -0.000024     -0.000097     -0.000033
      8.33655      5.21797      8.30283         0.000308     -0.000222      0.000371
      2.78043     10.77670      8.30298        -0.000006     -0.000095     -0.000050
      8.33655     10.77670      8.30283         0.000283     -0.000221     -0.000383
      0.00259      2.43849      8.60933        -0.000318      0.000885      0.000295
      5.55871      2.43849      8.60919        -0.000367      0.000885     -0.000311
      0.00259      7.99722      8.60933         0.000098     -0.000249     -0.000112
      5.55871      7.99722      8.60919         0.000045     -0.000252      0.000098
     -1.37640      1.05960      8.18451         0.000004     -0.000612     -0.000120
      4.17971      1.05960      8.18437         0.001007     -0.000506      0.000358
     -1.37640      6.61833      8.18451        -0.000047      0.000758     -0.000254
      4.17971      6.61833      8.18437         0.000135      0.000158     -0.000089
      1.38116      3.81753      8.18442         0.000581     -0.000374     -0.000284
      6.93728      3.81753      8.18427        -0.000279     -0.000483     -0.000103
      1.38116      9.37626      8.18442        -0.000283      0.000347      0.000041
      6.93728      9.37626      8.18427        -0.000368      0.000873      0.000163
      1.39985      1.03817      2.01416         0.004033     -0.010028     -0.000848
      6.95597      1.03817      2.01401         0.000423     -0.000329      0.000272
      1.39985      6.59689      2.01416         0.001014      0.001789      0.000361
      6.95597      6.59689      2.01401         0.000077      0.000413      0.000059
      4.15741      3.83897      2.01406         0.000062     -0.000517     -0.000160
      9.71353      3.83897      2.01392         0.003277     -0.009767      0.000946
      4.15741      9.39769      2.01406        -0.000256      0.000260      0.000033
      9.71353      9.39769      2.01392         0.000658      0.001638     -0.000314
      1.40044      3.83812      3.78391         0.000778     -0.001661      0.001446
      6.95656      3.83812      3.78377        -0.000675     -0.000494      0.000590
      1.40044      9.39685      3.78391        -0.000240      0.000855     -0.000350
      6.95656      9.39685      3.78377         0.000118      0.000296      0.000121
      4.15774      1.03891      3.78384        -0.000458     -0.000148     -0.000177
      9.71386      1.03891      3.78369         0.000831     -0.001404     -0.001111
      4.15774      6.59764      3.78384         0.000271      0.000601      0.000291
      9.71386      6.59764      3.78369        -0.000111      0.001184      0.000697
     -1.37674      3.81828      6.41474        -0.000393     -0.000371     -0.000281
      4.17938      3.81828      6.41460         0.000402     -0.000069      0.000199
     -1.37674      9.37700      6.41474        -0.000121      0.000749     -0.000359
      4.17938      9.37700      6.41460        -0.000062      0.000440     -0.000209
      1.38057      1.05876      6.41466        -0.000126     -0.000660     -0.000473
      6.93668      1.05876      6.41452         0.000430     -0.000396     -0.000202
      1.38057      6.61748      6.41466         0.000101      0.000446     -0.000066
      6.93668      6.61748      6.41452        -0.000001      0.000104     -0.000138
      1.38227      3.82822      0.00001         0.001201     -0.000946     -0.000966
      6.93839      3.82822     -0.00014        -0.000218     -0.000368     -0.000290
      1.38227      9.38694      0.00001        -0.000186      0.000874      0.000517
      6.93839      9.38694     -0.00014         0.000269      0.000371      0.000071
      1.39874      1.04885     10.19857        -0.000330     -0.000343      0.000304
      6.95485      1.04885     10.19843         0.001069     -0.000989      0.000920
      1.39874      6.60758     10.19857         0.000152      0.000382     -0.000037
      6.95485      6.60758     10.19843        -0.000284      0.000879     -0.000535
     -1.25763      1.18232      6.18371         0.000167      0.000538      0.001399
      4.29848      1.18232      6.18356        -0.000440      0.000305      0.000005
     -1.25763      6.74104      6.18371        -0.000213     -0.000227     -0.000173
      4.29848      6.74104      6.18356        -0.000323     -0.000165     -0.000007
      1.26131      3.69462      6.18369         0.000615      0.000383     -0.001153
      6.81742      3.69462      6.18354         0.000208      0.000237     -0.000081
      1.26131      9.25335      6.18369         0.000289     -0.000285      0.000358
      6.81742      9.25335      6.18354         0.000295     -0.000358     -0.000022
      1.51970      0.91526      4.01489         0.002086     -0.000594      0.004890
      7.07582      0.91526      4.01474        -0.001252      0.000068     -0.000382
      1.51970      6.47399      4.01489        -0.000414     -0.001102     -0.000400
      7.07582      6.47399      4.01474        -0.000116     -0.000312     -0.000080
      4.03864      3.96168      4.01487        -0.000715      0.000213      0.000164
      9.59476      3.96168      4.01472         0.002637     -0.000494     -0.004842
      4.03864      9.52041      4.01487         0.000426     -0.000177     -0.000034
      9.59476      9.52041      4.01472         0.000161     -0.000977      0.000372
      0.00035      5.21813      1.57032        -0.000540     -0.012976      0.001136
      5.55647      5.21813      1.57017        -0.000067     -0.000104      0.000155
      0.00035     10.77686      1.57032        -0.000513     -0.013227     -0.000882
      5.55647     10.77686      1.57017        -0.000071     -0.000100      0.000092
      2.77849      2.43869      1.57537         0.001719      0.004873     -0.000954
      8.33461      2.43869      1.57522         0.001812      0.004883      0.000882
      2.77849      7.99742      1.57537        -0.000161     -0.000829      0.000113
      8.33461      7.99742      1.57522        -0.000159     -0.000833     -0.000213
      0.00252      5.21805      8.62321        -0.000571     -0.001087      0.000823
      5.55864      5.21805      8.62307         0.000103     -0.000061      0.000210
      0.00252     10.77678      8.62321         0.000188     -0.000071     -0.000178
      5.55864     10.77678      8.62307        -0.000663     -0.001082     -0.000684
      2.78066      2.43877      8.62826        -0.000232      0.000931     -0.000137
      8.33677      2.43877      8.62811         0.000950      0.001786     -0.000120
      2.78066      7.99750      8.62826        -0.000000     -0.000351     -0.000168
      8.33677      7.99750      8.62811        -0.000146     -0.000748     -0.000095
 -----------------------------------------------------------------------------------
    total drift:                               -0.000371     -0.002338      0.000057


--------------------------------------------------------------------------------------------------------



  FREE ENERGIE OF THE ION-ELECTRON SYSTEM (eV)
  ---------------------------------------------------
  free  energy   TOTEN  =      -489.21529568 eV

  energy  without entropy=     -489.21529568  energy(sigma->0) =     -489.21529568
 


--------------------------------------------------------------------------------------------------------


    POTLOK:  cpu time    3.3141: real time    3.3570


--------------------------------------------------------------------------------------------------------


     LOOP+:  cpu time 5908.7526: real time 5970.2258
    4ORBIT:  cpu time    0.0000: real time    0.0000

 total amount of memory used by VASP MPI-rank0  1233264. kBytes
=======================================================================

   base      :      30000. kBytes
   nonl-proj :      75226. kBytes
   fftplans  :      85054. kBytes
   grid      :      64684. kBytes
   one-center:        466. kBytes
   wavefun   :     977834. kBytes
 
  
  
 General timing and accounting informations for this job:
 ========================================================
  
                  Total CPU time used (sec):     6006.712
                            User time (sec):     5944.732
                          System time (sec):       61.981
                         Elapsed time (sec):     6071.444
  
                   Maximum memory used (kb):     1432572.
                   Average memory used (kb):           0.
  
                          Minor page faults:       913284
                          Major page faults:           17
                 Voluntary context switches:        59570
