 144 144   0   0
  0.1325381E+02  0.1546422E-08  0.1214491E-08  0.1054520E-08  0.5000000E-15
  1.000000000000000E-004
  CAR 
 unknown system                          
     17.01119844    -54.87126950  301      5.09068918      1.00000000
    -54.871  0.0000E+00  0.0000E+00  0.0000E+00  0.0000E+00
    -54.632  0.0000E+00  0.0000E+00  0.0000E+00  0.0000E+00
    -54.392  0.0000E+00  0.0000E+00  0.0000E+00  0.0000E+00
    -54.152  0.0000E+00  0.0000E+00  0.0000E+00  0.0000E+00
    -53.913  0.0000E+00  0.0000E+00  0.0000E+00  0.0000E+00
    -53.673  0.0000E+00  0.0000E+00  0.0000E+00  0.0000E+00
    -53.434  0.0000E+00  0.0000E+00  0.0000E+00  0.0000E+00
    -53.194  0.0000E+00  0.0000E+00  0.0000E+00  0.0000E+00
    -52.954  0.0000E+00  0.0000E+00  0.0000E+00  0.0000E+00
    -52.715  0.0000E+00  0.0000E+00  0.0000E+00  0.0000E+00
    -52.475  0.0000E+00  0.0000E+00  0.0000E+00  0.0000E+00
    -52.236  0.0000E+00  0.0000E+00  0.0000E+00  0.0000E+00
    -51.996  0.0000E+00  0.0000E+00  0.0000E+00  0.0000E+00
    -51.756  0.3445E-03  0.0000E+00  0.8253E-04  0.0000E+00
    -51.517  0.4983E+02  0.0000E+00  0.1194E+02  0.0000E+00
    -51.277  0.8631E+02  0.0000E+00  0.3262E+02  0.0000E+00
    -51.038  0.1411E+02  0.0000E+00  0.3600E+02  0.0000E+00
    -50.798  0.0000E+00  0.0000E+00  0.3600E+02  0.0000E+00
    -50.558  0.0000E+00  0.0000E+00  0.3600E+02  0.0000E+00
    -50.319  0.1250E-03  0.0000E+00  0.3600E+02  0.0000E+00
    -50.079  0.6710E+02  0.0000E+00  0.5208E+02  0.0000E+00
    -49.839  0.2084E+03  0.0000E+00  0.1020E+03  0.0000E+00
    -49.600  0.2501E+02  0.0000E+00  0.1080E+03  0.0000E+00
    -49.360  0.0000E+00  0.0000E+00  0.1080E+03  0.0000E+00
    -49.121  0.0000E+00  0.0000E+00  0.1080E+03  0.0000E+00
    -48.881  0.0000E+00  0.0000E+00  0.1080E+03  0.0000E+00
    -48.641  0.0000E+00  0.0000E+00  0.1080E+03  0.0000E+00
    -48.402  0.0000E+00  0.0000E+00  0.1080E+03  0.0000E+00
    -48.162  0.0000E+00  0.0000E+00  0.1080E+03  0.0000E+00
    -47.923  0.0000E+00  0.0000E+00  0.1080E+03  0.0000E+00
    -47.683  0.0000E+00  0.0000E+00  0.1080E+03  0.0000E+00
    -47.443  0.0000E+00  0.0000E+00  0.1080E+03  0.0000E+00
    -47.204  0.0000E+00  0.0000E+00  0.1080E+03  0.0000E+00
    -46.964  0.0000E+00  0.6523E-01  0.1080E+03  0.1563E-01
    -46.725  0.0000E+00  0.5094E+02  0.1080E+03  0.1222E+02
    -46.485  0.0000E+00  0.9546E+02  0.1080E+03  0.3509E+02
    -46.245  0.0000E+00  0.1460E+03  0.1080E+03  0.7009E+02
    -46.006  0.0000E+00  0.1582E+03  0.1080E+03  0.1080E+03
    -45.766  0.0000E+00  0.4662E-02  0.1080E+03  0.1080E+03
    -45.527  0.0000E+00  0.0000E+00  0.1080E+03  0.1080E+03
    -45.287  0.0000E+00  0.0000E+00  0.1080E+03  0.1080E+03
    -45.047  0.0000E+00  0.0000E+00  0.1080E+03  0.1080E+03
    -44.808  0.0000E+00  0.0000E+00  0.1080E+03  0.1080E+03
    -44.568  0.0000E+00  0.0000E+00  0.1080E+03  0.1080E+03
    -44.329  0.0000E+00  0.0000E+00  0.1080E+03  0.1080E+03
    -44.089  0.0000E+00  0.0000E+00  0.1080E+03  0.1080E+03
    -43.849  0.0000E+00  0.0000E+00  0.1080E+03  0.1080E+03
    -43.610  0.0000E+00  0.0000E+00  0.1080E+03  0.1080E+03
    -43.370  0.0000E+00  0.0000E+00  0.1080E+03  0.1080E+03
    -43.130  0.0000E+00  0.0000E+00  0.1080E+03  0.1080E+03
    -42.891  0.0000E+00  0.0000E+00  0.1080E+03  0.1080E+03
    -42.651  0.0000E+00  0.0000E+00  0.1080E+03  0.1080E+03
    -42.412  0.0000E+00  0.0000E+00  0.1080E+03  0.1080E+03
    -42.172  0.0000E+00  0.0000E+00  0.1080E+03  0.1080E+03
    -41.932  0.0000E+00  0.0000E+00  0.1080E+03  0.1080E+03
    -41.693  0.0000E+00  0.0000E+00  0.1080E+03  0.1080E+03
    -41.453  0.0000E+00  0.0000E+00  0.1080E+03  0.1080E+03
    -41.214  0.0000E+00  0.0000E+00  0.1080E+03  0.1080E+03
    -40.974  0.0000E+00  0.0000E+00  0.1080E+03  0.1080E+03
    -40.734  0.1535E-08  0.5004E-09  0.1080E+03  0.1080E+03
    -40.495  0.2962E+02  0.2635E+02  0.1151E+03  0.1143E+03
    -40.255  0.4636E+02  0.5000E+02  0.1262E+03  0.1263E+03
    -40.016  0.1001E+03  0.1001E+03  0.1502E+03  0.1503E+03
    -39.776  0.2422E+02  0.2389E+02  0.1560E+03  0.1560E+03
    -39.536  0.0000E+00  0.0000E+00  0.1560E+03  0.1560E+03
    -39.297  0.0000E+00  0.0000E+00  0.1560E+03  0.1560E+03
    -39.057  0.0000E+00  0.0000E+00  0.1560E+03  0.1560E+03
    -38.818  0.0000E+00  0.0000E+00  0.1560E+03  0.1560E+03
    -38.578  0.0000E+00  0.0000E+00  0.1560E+03  0.1560E+03
    -38.338  0.0000E+00  0.0000E+00  0.1560E+03  0.1560E+03
    -38.099  0.0000E+00  0.0000E+00  0.1560E+03  0.1560E+03
    -37.859  0.0000E+00  0.0000E+00  0.1560E+03  0.1560E+03
    -37.619  0.0000E+00  0.0000E+00  0.1560E+03  0.1560E+03
    -37.380  0.0000E+00  0.0000E+00  0.1560E+03  0.1560E+03
    -37.140  0.0000E+00  0.0000E+00  0.1560E+03  0.1560E+03
    -36.901  0.0000E+00  0.0000E+00  0.1560E+03  0.1560E+03
    -36.661  0.0000E+00  0.0000E+00  0.1560E+03  0.1560E+03
    -36.421  0.0000E+00  0.0000E+00  0.1560E+03  0.1560E+03
    -36.182  0.0000E+00  0.0000E+00  0.1560E+03  0.1560E+03
    -35.942  0.0000E+00  0.0000E+00  0.1560E+03  0.1560E+03
    -35.703  0.0000E+00  0.0000E+00  0.1560E+03  0.1560E+03
    -35.463  0.0000E+00  0.0000E+00  0.1560E+03  0.1560E+03
    -35.223  0.0000E+00  0.0000E+00  0.1560E+03  0.1560E+03
    -34.984  0.0000E+00  0.0000E+00  0.1560E+03  0.1560E+03
    -34.744  0.0000E+00  0.0000E+00  0.1560E+03  0.1560E+03
    -34.505  0.0000E+00  0.0000E+00  0.1560E+03  0.1560E+03
    -34.265  0.0000E+00  0.0000E+00  0.1560E+03  0.1560E+03
    -34.025  0.0000E+00  0.0000E+00  0.1560E+03  0.1560E+03
    -33.786  0.0000E+00  0.0000E+00  0.1560E+03  0.1560E+03
    -33.546  0.0000E+00  0.0000E+00  0.1560E+03  0.1560E+03
    -33.307  0.0000E+00  0.0000E+00  0.1560E+03  0.1560E+03
    -33.067  0.0000E+00  0.0000E+00  0.1560E+03  0.1560E+03
    -32.827  0.0000E+00  0.0000E+00  0.1560E+03  0.1560E+03
    -32.588  0.0000E+00  0.0000E+00  0.1560E+03  0.1560E+03
    -32.348  0.0000E+00  0.0000E+00  0.1560E+03  0.1560E+03
    -32.108  0.0000E+00  0.0000E+00  0.1560E+03  0.1560E+03
    -31.869  0.0000E+00  0.0000E+00  0.1560E+03  0.1560E+03
    -31.629  0.0000E+00  0.0000E+00  0.1560E+03  0.1560E+03
    -31.390  0.0000E+00  0.0000E+00  0.1560E+03  0.1560E+03
    -31.150  0.0000E+00  0.0000E+00  0.1560E+03  0.1560E+03
    -30.910  0.0000E+00  0.0000E+00  0.1560E+03  0.1560E+03
    -30.671  0.0000E+00  0.0000E+00  0.1560E+03  0.1560E+03
    -30.431  0.0000E+00  0.0000E+00  0.1560E+03  0.1560E+03
    -30.192  0.0000E+00  0.0000E+00  0.1560E+03  0.1560E+03
    -29.952  0.0000E+00  0.0000E+00  0.1560E+03  0.1560E+03
    -29.712  0.0000E+00  0.0000E+00  0.1560E+03  0.1560E+03
    -29.473  0.0000E+00  0.0000E+00  0.1560E+03  0.1560E+03
    -29.233  0.0000E+00  0.0000E+00  0.1560E+03  0.1560E+03
    -28.994  0.0000E+00  0.0000E+00  0.1560E+03  0.1560E+03
    -28.754  0.0000E+00  0.0000E+00  0.1560E+03  0.1560E+03
    -28.514  0.0000E+00  0.0000E+00  0.1560E+03  0.1560E+03
    -28.275  0.0000E+00  0.0000E+00  0.1560E+03  0.1560E+03
    -28.035  0.0000E+00  0.0000E+00  0.1560E+03  0.1560E+03
    -27.796  0.0000E+00  0.0000E+00  0.1560E+03  0.1560E+03
    -27.556  0.0000E+00  0.0000E+00  0.1560E+03  0.1560E+03
    -27.316  0.0000E+00  0.0000E+00  0.1560E+03  0.1560E+03
    -27.077  0.0000E+00  0.0000E+00  0.1560E+03  0.1560E+03
    -26.837  0.0000E+00  0.0000E+00  0.1560E+03  0.1560E+03
    -26.597  0.0000E+00  0.0000E+00  0.1560E+03  0.1560E+03
    -26.358  0.0000E+00  0.0000E+00  0.1560E+03  0.1560E+03
    -26.118  0.0000E+00  0.0000E+00  0.1560E+03  0.1560E+03
    -25.879  0.0000E+00  0.0000E+00  0.1560E+03  0.1560E+03
    -25.639  0.0000E+00  0.0000E+00  0.1560E+03  0.1560E+03
    -25.399  0.0000E+00  0.0000E+00  0.1560E+03  0.1560E+03
    -25.160  0.0000E+00  0.0000E+00  0.1560E+03  0.1560E+03
    -24.920  0.0000E+00  0.0000E+00  0.1560E+03  0.1560E+03
    -24.681  0.0000E+00  0.0000E+00  0.1560E+03  0.1560E+03
    -24.441  0.0000E+00  0.0000E+00  0.1560E+03  0.1560E+03
    -24.201  0.0000E+00  0.0000E+00  0.1560E+03  0.1560E+03
    -23.962  0.0000E+00  0.0000E+00  0.1560E+03  0.1560E+03
    -23.722  0.0000E+00  0.0000E+00  0.1560E+03  0.1560E+03
    -23.483  0.0000E+00  0.0000E+00  0.1560E+03  0.1560E+03
    -23.243  0.0000E+00  0.0000E+00  0.1560E+03  0.1560E+03
    -23.003  0.0000E+00  0.0000E+00  0.1560E+03  0.1560E+03
    -22.764  0.0000E+00  0.0000E+00  0.1560E+03  0.1560E+03
    -22.524  0.0000E+00  0.0000E+00  0.1560E+03  0.1560E+03
    -22.285  0.0000E+00  0.0000E+00  0.1560E+03  0.1560E+03
    -22.045  0.0000E+00  0.0000E+00  0.1560E+03  0.1560E+03
    -21.805  0.0000E+00  0.0000E+00  0.1560E+03  0.1560E+03
    -21.566  0.0000E+00  0.0000E+00  0.1560E+03  0.1560E+03
    -21.326  0.0000E+00  0.0000E+00  0.1560E+03  0.1560E+03
    -21.087  0.0000E+00  0.0000E+00  0.1560E+03  0.1560E+03
    -20.847  0.0000E+00  0.0000E+00  0.1560E+03  0.1560E+03
    -20.607  0.0000E+00  0.0000E+00  0.1560E+03  0.1560E+03
    -20.368  0.0000E+00  0.0000E+00  0.1560E+03  0.1560E+03
    -20.128  0.0000E+00  0.0000E+00  0.1560E+03  0.1560E+03
    -19.888  0.0000E+00  0.0000E+00  0.1560E+03  0.1560E+03
    -19.649  0.0000E+00  0.0000E+00  0.1560E+03  0.1560E+03
    -19.409  0.0000E+00  0.0000E+00  0.1560E+03  0.1560E+03
    -19.170  0.0000E+00  0.0000E+00  0.1560E+03  0.1560E+03
    -18.930  0.0000E+00  0.0000E+00  0.1560E+03  0.1560E+03
    -18.690  0.0000E+00  0.0000E+00  0.1560E+03  0.1560E+03
    -18.451  0.0000E+00  0.0000E+00  0.1560E+03  0.1560E+03
    -18.211  0.0000E+00  0.0000E+00  0.1560E+03  0.1560E+03
    -17.972  0.0000E+00  0.0000E+00  0.1560E+03  0.1560E+03
    -17.732  0.0000E+00  0.0000E+00  0.1560E+03  0.1560E+03
    -17.492  0.0000E+00  0.0000E+00  0.1560E+03  0.1560E+03
    -17.253  0.0000E+00  0.0000E+00  0.1560E+03  0.1560E+03
    -17.013  0.0000E+00  0.0000E+00  0.1560E+03  0.1560E+03
    -16.774  0.0000E+00  0.0000E+00  0.1560E+03  0.1560E+03
    -16.534  0.0000E+00  0.0000E+00  0.1560E+03  0.1560E+03
    -16.294  0.0000E+00  0.0000E+00  0.1560E+03  0.1560E+03
    -16.055  0.0000E+00  0.0000E+00  0.1560E+03  0.1560E+03
    -15.815  0.0000E+00  0.0000E+00  0.1560E+03  0.1560E+03
    -15.576  0.0000E+00  0.0000E+00  0.1560E+03  0.1560E+03
    -15.336  0.0000E+00  0.0000E+00  0.1560E+03  0.1560E+03
    -15.096  0.0000E+00  0.0000E+00  0.1560E+03  0.1560E+03
    -14.857  0.0000E+00  0.0000E+00  0.1560E+03  0.1560E+03
    -14.617  0.0000E+00  0.0000E+00  0.1560E+03  0.1560E+03
    -14.377  0.0000E+00  0.0000E+00  0.1560E+03  0.1560E+03
    -14.138  0.0000E+00  0.0000E+00  0.1560E+03  0.1560E+03
    -13.898  0.1413E-02  0.0000E+00  0.1560E+03  0.1560E+03
    -13.659  0.2234E+02  0.7578E-13  0.1614E+03  0.1560E+03
    -13.419  0.2757E+02  0.1894E+01  0.1680E+03  0.1565E+03
    -13.179  0.9152E+01  0.4452E+02  0.1702E+03  0.1671E+03
    -12.940  0.3145E+02  0.4438E+01  0.1777E+03  0.1682E+03
    -12.700  0.9650E+01  0.4227E+02  0.1800E+03  0.1783E+03
    -12.461  0.0000E+00  0.7037E+01  0.1800E+03  0.1800E+03
    -12.221  0.0000E+00  0.0000E+00  0.1800E+03  0.1800E+03
    -11.981  0.0000E+00  0.0000E+00  0.1800E+03  0.1800E+03
    -11.742  0.0000E+00  0.0000E+00  0.1800E+03  0.1800E+03
    -11.502  0.0000E+00  0.0000E+00  0.1800E+03  0.1800E+03
    -11.263  0.0000E+00  0.0000E+00  0.1800E+03  0.1800E+03
    -11.023  0.0000E+00  0.0000E+00  0.1800E+03  0.1800E+03
    -10.783  0.0000E+00  0.0000E+00  0.1800E+03  0.1800E+03
    -10.544  0.0000E+00  0.0000E+00  0.1800E+03  0.1800E+03
    -10.304  0.0000E+00  0.0000E+00  0.1800E+03  0.1800E+03
    -10.065  0.0000E+00  0.0000E+00  0.1800E+03  0.1800E+03
     -9.825  0.0000E+00  0.0000E+00  0.1800E+03  0.1800E+03
     -9.585  0.0000E+00  0.0000E+00  0.1800E+03  0.1800E+03
     -9.346  0.0000E+00  0.0000E+00  0.1800E+03  0.1800E+03
     -9.106  0.0000E+00  0.0000E+00  0.1800E+03  0.1800E+03
     -8.866  0.0000E+00  0.0000E+00  0.1800E+03  0.1800E+03
     -8.627  0.0000E+00  0.0000E+00  0.1800E+03  0.1800E+03
     -8.387  0.0000E+00  0.0000E+00  0.1800E+03  0.1800E+03
     -8.148  0.0000E+00  0.0000E+00  0.1800E+03  0.1800E+03
     -7.908  0.2569E-02  0.0000E+00  0.1800E+03  0.1800E+03
     -7.668  0.9517E+01  0.1885E-01  0.1823E+03  0.1800E+03
     -7.429  0.2321E+02  0.1209E+02  0.1878E+03  0.1829E+03
     -7.189  0.5603E+02  0.2877E+02  0.2013E+03  0.1898E+03
     -6.950  0.5764E+02  0.6007E+02  0.2151E+03  0.2042E+03
     -6.710  0.3851E+01  0.4608E+02  0.2160E+03  0.2152E+03
     -6.470  0.0000E+00  0.3214E+01  0.2160E+03  0.2160E+03
     -6.231  0.0000E+00  0.0000E+00  0.2160E+03  0.2160E+03
     -5.991  0.0000E+00  0.0000E+00  0.2160E+03  0.2160E+03
     -5.752  0.0000E+00  0.0000E+00  0.2160E+03  0.2160E+03
     -5.512  0.0000E+00  0.0000E+00  0.2160E+03  0.2160E+03
     -5.272  0.0000E+00  0.0000E+00  0.2160E+03  0.2160E+03
     -5.033  0.0000E+00  0.0000E+00  0.2160E+03  0.2160E+03
     -4.793  0.0000E+00  0.0000E+00  0.2160E+03  0.2160E+03
     -4.554  0.0000E+00  0.0000E+00  0.2160E+03  0.2160E+03
     -4.314  0.0000E+00  0.0000E+00  0.2160E+03  0.2160E+03
     -4.074  0.0000E+00  0.0000E+00  0.2160E+03  0.2160E+03
     -3.835  0.0000E+00  0.0000E+00  0.2160E+03  0.2160E+03
     -3.595  0.0000E+00  0.0000E+00  0.2160E+03  0.2160E+03
     -3.356  0.0000E+00  0.0000E+00  0.2160E+03  0.2160E+03
     -3.116  0.0000E+00  0.0000E+00  0.2160E+03  0.2160E+03
     -2.876  0.2381E-13  0.0000E+00  0.2160E+03  0.2160E+03
     -2.637  0.9138E+00  0.0000E+00  0.2162E+03  0.2160E+03
     -2.397  0.1022E+02  0.0000E+00  0.2187E+03  0.2160E+03
     -2.157  0.2060E+02  0.0000E+00  0.2236E+03  0.2160E+03
     -1.918  0.1752E+01  0.0000E+00  0.2240E+03  0.2160E+03
     -1.678  0.3474E+02  0.0000E+00  0.2323E+03  0.2160E+03
     -1.439  0.1969E+02  0.6435E-15  0.2371E+03  0.2160E+03
     -1.199  0.4412E+02  0.9487E-01  0.2476E+03  0.2160E+03
     -0.959  0.4982E+02  0.4427E+01  0.2596E+03  0.2171E+03
     -0.720  0.7515E+02  0.1416E+02  0.2776E+03  0.2205E+03
     -0.480  0.1035E+03  0.1536E+02  0.3024E+03  0.2242E+03
     -0.241  0.8548E+02  0.1972E+02  0.3229E+03  0.2289E+03
     -0.001  0.1105E+03  0.4122E+02  0.3493E+03  0.2388E+03
      0.239  0.6940E+02  0.3394E+02  0.3660E+03  0.2469E+03
      0.478  0.3809E+02  0.4224E+02  0.3751E+03  0.2570E+03
      0.718  0.4572E+02  0.3363E+02  0.3860E+03  0.2651E+03
      0.957  0.4868E+02  0.5320E+02  0.3977E+03  0.2778E+03
      1.197  0.5565E+02  0.6027E+02  0.4110E+03  0.2923E+03
      1.437  0.6452E+02  0.4443E+02  0.4265E+03  0.3029E+03
      1.676  0.1008E+03  0.3995E+02  0.4507E+03  0.3125E+03
      1.916  0.5203E+02  0.3851E+02  0.4631E+03  0.3217E+03
      2.155  0.3896E+02  0.3734E+02  0.4725E+03  0.3307E+03
      2.395  0.4650E+02  0.3833E+02  0.4836E+03  0.3398E+03
      2.635  0.4784E+02  0.4963E+02  0.4951E+03  0.3517E+03
      2.874  0.4346E+02  0.6278E+02  0.5055E+03  0.3668E+03
      3.114  0.4011E+02  0.5876E+02  0.5151E+03  0.3808E+03
      3.354  0.4767E+02  0.4777E+02  0.5265E+03  0.3923E+03
      3.593  0.5244E+02  0.3019E+02  0.5391E+03  0.3995E+03
      3.833  0.4528E+02  0.6160E+02  0.5499E+03  0.4143E+03
      4.072  0.3202E+02  0.7261E+02  0.5576E+03  0.4317E+03
      4.312  0.4234E+02  0.1313E+01  0.5677E+03  0.4320E+03
      4.552  0.2350E+02  0.0000E+00  0.5734E+03  0.4320E+03
      4.791  0.1013E+02  0.0000E+00  0.5758E+03  0.4320E+03
      5.031  0.8493E+00  0.0000E+00  0.5760E+03  0.4320E+03
      5.270  0.0000E+00  0.0000E+00  0.5760E+03  0.4320E+03
      5.510  0.0000E+00  0.0000E+00  0.5760E+03  0.4320E+03
      5.750  0.0000E+00  0.0000E+00  0.5760E+03  0.4320E+03
      5.989  0.0000E+00  0.7385E-11  0.5760E+03  0.4320E+03
      6.229  0.0000E+00  0.1514E+00  0.5760E+03  0.4320E+03
      6.468  0.0000E+00  0.8246E+01  0.5760E+03  0.4340E+03
      6.708  0.0000E+00  0.3041E+02  0.5760E+03  0.4413E+03
      6.948  0.1098E-11  0.4364E+02  0.5760E+03  0.4518E+03
      7.187  0.1125E+00  0.7346E+02  0.5760E+03  0.4694E+03
      7.427  0.1267E+00  0.8070E+02  0.5761E+03  0.4887E+03
      7.666  0.9138E+00  0.6541E+02  0.5763E+03  0.5044E+03
      7.906  0.3520E+01  0.8788E+02  0.5771E+03  0.5254E+03
      8.146  0.4264E+01  0.7115E+02  0.5781E+03  0.5425E+03
      8.385  0.7083E+01  0.5427E+02  0.5798E+03  0.5555E+03
      8.625  0.1647E+02  0.3724E+02  0.5838E+03  0.5644E+03
      8.865  0.2522E+02  0.3899E+02  0.5898E+03  0.5737E+03
      9.104  0.1923E+02  0.1925E+02  0.5944E+03  0.5783E+03
      9.344  0.2549E+02  0.1401E+02  0.6005E+03  0.5817E+03
      9.583  0.3132E+02  0.2059E+02  0.6080E+03  0.5866E+03
      9.823  0.2653E+02  0.3005E+02  0.6144E+03  0.5938E+03
     10.063  0.2960E+02  0.2656E+02  0.6215E+03  0.6002E+03
     10.302  0.2276E+02  0.3489E+02  0.6270E+03  0.6086E+03
     10.542  0.2039E+02  0.3527E+02  0.6318E+03  0.6170E+03
     10.781  0.2869E+02  0.2799E+02  0.6387E+03  0.6237E+03
     11.021  0.3892E+02  0.2233E+02  0.6480E+03  0.6291E+03
     11.261  0.3943E+02  0.2170E+02  0.6575E+03  0.6343E+03
     11.500  0.3722E+02  0.3233E+02  0.6664E+03  0.6420E+03
     11.740  0.4494E+02  0.3872E+02  0.6772E+03  0.6513E+03
     11.979  0.3845E+02  0.4268E+02  0.6864E+03  0.6615E+03
     12.219  0.3858E+02  0.5203E+02  0.6956E+03  0.6740E+03
     12.459  0.3993E+02  0.4669E+02  0.7052E+03  0.6852E+03
     12.698  0.3643E+02  0.3595E+02  0.7139E+03  0.6938E+03
     12.938  0.3429E+02  0.4130E+02  0.7221E+03  0.7037E+03
     13.177  0.2259E+02  0.3961E+02  0.7276E+03  0.7132E+03
     13.417  0.1858E+01  0.3422E+02  0.7280E+03  0.7214E+03
     13.657  0.0000E+00  0.2369E+02  0.7280E+03  0.7271E+03
     13.896  0.0000E+00  0.3943E+01  0.7280E+03  0.7280E+03
     14.136  0.0000E+00  0.3739E-05  0.7280E+03  0.7280E+03
     14.376  0.0000E+00  0.0000E+00  0.7280E+03  0.7280E+03
     14.615  0.0000E+00  0.0000E+00  0.7280E+03  0.7280E+03
     14.855  0.0000E+00  0.0000E+00  0.7280E+03  0.7280E+03
     15.094  0.0000E+00  0.0000E+00  0.7280E+03  0.7280E+03
     15.334  0.0000E+00  0.0000E+00  0.7280E+03  0.7280E+03
     15.574  0.0000E+00  0.0000E+00  0.7280E+03  0.7280E+03
     15.813  0.0000E+00  0.0000E+00  0.7280E+03  0.7280E+03
     16.053  0.0000E+00  0.0000E+00  0.7280E+03  0.7280E+03
     16.292  0.0000E+00  0.0000E+00  0.7280E+03  0.7280E+03
     16.532  0.0000E+00  0.0000E+00  0.7280E+03  0.7280E+03
     16.772  0.0000E+00  0.0000E+00  0.7280E+03  0.7280E+03
     17.011  0.0000E+00  0.0000E+00  0.7280E+03  0.7280E+03
