  99  99   0   0
  0.1430410E+02  0.1177748E-08  0.1177748E-08  0.1058004E-08  0.5000000E-15
  1.000000000000000E-004
  CAR 
 unknown system                          
     18.01544863    -54.34002367  301      5.29294475      1.00000000
    -54.340  0.0000E+00  0.0000E+00  0.0000E+00  0.0000E+00
    -54.099  0.0000E+00  0.0000E+00  0.0000E+00  0.0000E+00
    -53.858  0.0000E+00  0.0000E+00  0.0000E+00  0.0000E+00
    -53.616  0.0000E+00  0.0000E+00  0.0000E+00  0.0000E+00
    -53.375  0.0000E+00  0.0000E+00  0.0000E+00  0.0000E+00
    -53.134  0.0000E+00  0.0000E+00  0.0000E+00  0.0000E+00
    -52.893  0.0000E+00  0.0000E+00  0.0000E+00  0.0000E+00
    -52.652  0.0000E+00  0.0000E+00  0.0000E+00  0.0000E+00
    -52.411  0.0000E+00  0.0000E+00  0.0000E+00  0.0000E+00
    -52.169  0.0000E+00  0.0000E+00  0.0000E+00  0.0000E+00
    -51.928  0.0000E+00  0.0000E+00  0.0000E+00  0.0000E+00
    -51.687  0.0000E+00  0.0000E+00  0.0000E+00  0.0000E+00
    -51.446  0.0000E+00  0.0000E+00  0.0000E+00  0.0000E+00
    -51.205  0.4914E-03  0.0000E+00  0.1185E-03  0.0000E+00
    -50.963  0.1472E+03  0.0000E+00  0.3550E+02  0.0000E+00
    -50.722  0.2059E+01  0.0000E+00  0.3600E+02  0.0000E+00
    -50.481  0.0000E+00  0.0000E+00  0.3600E+02  0.0000E+00
    -50.240  0.0000E+00  0.0000E+00  0.3600E+02  0.0000E+00
    -49.999  0.0000E+00  0.0000E+00  0.3600E+02  0.0000E+00
    -49.758  0.1948E+01  0.0000E+00  0.3647E+02  0.0000E+00
    -49.516  0.2728E+03  0.0000E+00  0.1023E+03  0.0000E+00
    -49.275  0.2379E+02  0.0000E+00  0.1080E+03  0.0000E+00
    -49.034  0.0000E+00  0.0000E+00  0.1080E+03  0.0000E+00
    -48.793  0.0000E+00  0.0000E+00  0.1080E+03  0.0000E+00
    -48.552  0.0000E+00  0.0000E+00  0.1080E+03  0.0000E+00
    -48.310  0.0000E+00  0.0000E+00  0.1080E+03  0.0000E+00
    -48.069  0.0000E+00  0.0000E+00  0.1080E+03  0.0000E+00
    -47.828  0.0000E+00  0.0000E+00  0.1080E+03  0.0000E+00
    -47.587  0.0000E+00  0.0000E+00  0.1080E+03  0.0000E+00
    -47.346  0.0000E+00  0.0000E+00  0.1080E+03  0.0000E+00
    -47.104  0.0000E+00  0.0000E+00  0.1080E+03  0.0000E+00
    -46.863  0.0000E+00  0.0000E+00  0.1080E+03  0.0000E+00
    -46.622  0.0000E+00  0.0000E+00  0.1080E+03  0.0000E+00
    -46.381  0.0000E+00  0.5793E+00  0.1080E+03  0.1397E+00
    -46.140  0.0000E+00  0.1487E+03  0.1080E+03  0.3600E+02
    -45.899  0.0000E+00  0.7772E+02  0.1080E+03  0.5474E+02
    -45.657  0.0000E+00  0.2208E+03  0.1080E+03  0.1080E+03
    -45.416  0.0000E+00  0.0000E+00  0.1080E+03  0.1080E+03
    -45.175  0.0000E+00  0.0000E+00  0.1080E+03  0.1080E+03
    -44.934  0.0000E+00  0.0000E+00  0.1080E+03  0.1080E+03
    -44.693  0.0000E+00  0.0000E+00  0.1080E+03  0.1080E+03
    -44.451  0.0000E+00  0.0000E+00  0.1080E+03  0.1080E+03
    -44.210  0.0000E+00  0.0000E+00  0.1080E+03  0.1080E+03
    -43.969  0.0000E+00  0.0000E+00  0.1080E+03  0.1080E+03
    -43.728  0.0000E+00  0.0000E+00  0.1080E+03  0.1080E+03
    -43.487  0.0000E+00  0.0000E+00  0.1080E+03  0.1080E+03
    -43.246  0.0000E+00  0.0000E+00  0.1080E+03  0.1080E+03
    -43.004  0.0000E+00  0.0000E+00  0.1080E+03  0.1080E+03
    -42.763  0.0000E+00  0.0000E+00  0.1080E+03  0.1080E+03
    -42.522  0.0000E+00  0.0000E+00  0.1080E+03  0.1080E+03
    -42.281  0.0000E+00  0.0000E+00  0.1080E+03  0.1080E+03
    -42.040  0.0000E+00  0.0000E+00  0.1080E+03  0.1080E+03
    -41.798  0.0000E+00  0.0000E+00  0.1080E+03  0.1080E+03
    -41.557  0.0000E+00  0.0000E+00  0.1080E+03  0.1080E+03
    -41.316  0.0000E+00  0.0000E+00  0.1080E+03  0.1080E+03
    -41.075  0.0000E+00  0.0000E+00  0.1080E+03  0.1080E+03
    -40.834  0.0000E+00  0.0000E+00  0.1080E+03  0.1080E+03
    -40.592  0.0000E+00  0.0000E+00  0.1080E+03  0.1080E+03
    -40.351  0.0000E+00  0.0000E+00  0.1080E+03  0.1080E+03
    -40.110  0.1634E-08  0.1016E-08  0.1080E+03  0.1080E+03
    -39.869  0.4411E+02  0.4206E+02  0.1186E+03  0.1181E+03
    -39.628  0.3052E+02  0.3257E+02  0.1260E+03  0.1260E+03
    -39.387  0.0000E+00  0.0000E+00  0.1260E+03  0.1260E+03
    -39.145  0.0000E+00  0.0000E+00  0.1260E+03  0.1260E+03
    -38.904  0.0000E+00  0.0000E+00  0.1260E+03  0.1260E+03
    -38.663  0.0000E+00  0.0000E+00  0.1260E+03  0.1260E+03
    -38.422  0.0000E+00  0.0000E+00  0.1260E+03  0.1260E+03
    -38.181  0.0000E+00  0.0000E+00  0.1260E+03  0.1260E+03
    -37.939  0.0000E+00  0.0000E+00  0.1260E+03  0.1260E+03
    -37.698  0.0000E+00  0.0000E+00  0.1260E+03  0.1260E+03
    -37.457  0.0000E+00  0.0000E+00  0.1260E+03  0.1260E+03
    -37.216  0.0000E+00  0.0000E+00  0.1260E+03  0.1260E+03
    -36.975  0.0000E+00  0.0000E+00  0.1260E+03  0.1260E+03
    -36.734  0.0000E+00  0.0000E+00  0.1260E+03  0.1260E+03
    -36.492  0.0000E+00  0.0000E+00  0.1260E+03  0.1260E+03
    -36.251  0.0000E+00  0.0000E+00  0.1260E+03  0.1260E+03
    -36.010  0.0000E+00  0.0000E+00  0.1260E+03  0.1260E+03
    -35.769  0.0000E+00  0.0000E+00  0.1260E+03  0.1260E+03
    -35.528  0.0000E+00  0.0000E+00  0.1260E+03  0.1260E+03
    -35.286  0.0000E+00  0.0000E+00  0.1260E+03  0.1260E+03
    -35.045  0.0000E+00  0.0000E+00  0.1260E+03  0.1260E+03
    -34.804  0.0000E+00  0.0000E+00  0.1260E+03  0.1260E+03
    -34.563  0.0000E+00  0.0000E+00  0.1260E+03  0.1260E+03
    -34.322  0.0000E+00  0.0000E+00  0.1260E+03  0.1260E+03
    -34.080  0.0000E+00  0.0000E+00  0.1260E+03  0.1260E+03
    -33.839  0.0000E+00  0.0000E+00  0.1260E+03  0.1260E+03
    -33.598  0.0000E+00  0.0000E+00  0.1260E+03  0.1260E+03
    -33.357  0.0000E+00  0.0000E+00  0.1260E+03  0.1260E+03
    -33.116  0.0000E+00  0.0000E+00  0.1260E+03  0.1260E+03
    -32.875  0.0000E+00  0.0000E+00  0.1260E+03  0.1260E+03
    -32.633  0.0000E+00  0.0000E+00  0.1260E+03  0.1260E+03
    -32.392  0.0000E+00  0.0000E+00  0.1260E+03  0.1260E+03
    -32.151  0.0000E+00  0.0000E+00  0.1260E+03  0.1260E+03
    -31.910  0.0000E+00  0.0000E+00  0.1260E+03  0.1260E+03
    -31.669  0.0000E+00  0.0000E+00  0.1260E+03  0.1260E+03
    -31.427  0.0000E+00  0.0000E+00  0.1260E+03  0.1260E+03
    -31.186  0.0000E+00  0.0000E+00  0.1260E+03  0.1260E+03
    -30.945  0.0000E+00  0.0000E+00  0.1260E+03  0.1260E+03
    -30.704  0.0000E+00  0.0000E+00  0.1260E+03  0.1260E+03
    -30.463  0.0000E+00  0.0000E+00  0.1260E+03  0.1260E+03
    -30.222  0.0000E+00  0.0000E+00  0.1260E+03  0.1260E+03
    -29.980  0.0000E+00  0.0000E+00  0.1260E+03  0.1260E+03
    -29.739  0.0000E+00  0.0000E+00  0.1260E+03  0.1260E+03
    -29.498  0.0000E+00  0.0000E+00  0.1260E+03  0.1260E+03
    -29.257  0.0000E+00  0.0000E+00  0.1260E+03  0.1260E+03
    -29.016  0.0000E+00  0.0000E+00  0.1260E+03  0.1260E+03
    -28.774  0.0000E+00  0.0000E+00  0.1260E+03  0.1260E+03
    -28.533  0.0000E+00  0.0000E+00  0.1260E+03  0.1260E+03
    -28.292  0.0000E+00  0.0000E+00  0.1260E+03  0.1260E+03
    -28.051  0.0000E+00  0.0000E+00  0.1260E+03  0.1260E+03
    -27.810  0.0000E+00  0.0000E+00  0.1260E+03  0.1260E+03
    -27.568  0.0000E+00  0.0000E+00  0.1260E+03  0.1260E+03
    -27.327  0.0000E+00  0.0000E+00  0.1260E+03  0.1260E+03
    -27.086  0.0000E+00  0.0000E+00  0.1260E+03  0.1260E+03
    -26.845  0.0000E+00  0.0000E+00  0.1260E+03  0.1260E+03
    -26.604  0.0000E+00  0.0000E+00  0.1260E+03  0.1260E+03
    -26.363  0.0000E+00  0.0000E+00  0.1260E+03  0.1260E+03
    -26.121  0.0000E+00  0.0000E+00  0.1260E+03  0.1260E+03
    -25.880  0.0000E+00  0.0000E+00  0.1260E+03  0.1260E+03
    -25.639  0.0000E+00  0.0000E+00  0.1260E+03  0.1260E+03
    -25.398  0.0000E+00  0.0000E+00  0.1260E+03  0.1260E+03
    -25.157  0.0000E+00  0.0000E+00  0.1260E+03  0.1260E+03
    -24.915  0.0000E+00  0.0000E+00  0.1260E+03  0.1260E+03
    -24.674  0.0000E+00  0.0000E+00  0.1260E+03  0.1260E+03
    -24.433  0.0000E+00  0.0000E+00  0.1260E+03  0.1260E+03
    -24.192  0.0000E+00  0.0000E+00  0.1260E+03  0.1260E+03
    -23.951  0.0000E+00  0.0000E+00  0.1260E+03  0.1260E+03
    -23.710  0.0000E+00  0.0000E+00  0.1260E+03  0.1260E+03
    -23.468  0.0000E+00  0.0000E+00  0.1260E+03  0.1260E+03
    -23.227  0.0000E+00  0.0000E+00  0.1260E+03  0.1260E+03
    -22.986  0.0000E+00  0.0000E+00  0.1260E+03  0.1260E+03
    -22.745  0.0000E+00  0.0000E+00  0.1260E+03  0.1260E+03
    -22.504  0.0000E+00  0.0000E+00  0.1260E+03  0.1260E+03
    -22.262  0.0000E+00  0.0000E+00  0.1260E+03  0.1260E+03
    -22.021  0.0000E+00  0.0000E+00  0.1260E+03  0.1260E+03
    -21.780  0.0000E+00  0.0000E+00  0.1260E+03  0.1260E+03
    -21.539  0.0000E+00  0.0000E+00  0.1260E+03  0.1260E+03
    -21.298  0.0000E+00  0.0000E+00  0.1260E+03  0.1260E+03
    -21.057  0.0000E+00  0.0000E+00  0.1260E+03  0.1260E+03
    -20.815  0.0000E+00  0.0000E+00  0.1260E+03  0.1260E+03
    -20.574  0.0000E+00  0.0000E+00  0.1260E+03  0.1260E+03
    -20.333  0.0000E+00  0.0000E+00  0.1260E+03  0.1260E+03
    -20.092  0.0000E+00  0.0000E+00  0.1260E+03  0.1260E+03
    -19.851  0.0000E+00  0.0000E+00  0.1260E+03  0.1260E+03
    -19.609  0.0000E+00  0.0000E+00  0.1260E+03  0.1260E+03
    -19.368  0.0000E+00  0.0000E+00  0.1260E+03  0.1260E+03
    -19.127  0.0000E+00  0.0000E+00  0.1260E+03  0.1260E+03
    -18.886  0.0000E+00  0.0000E+00  0.1260E+03  0.1260E+03
    -18.645  0.0000E+00  0.0000E+00  0.1260E+03  0.1260E+03
    -18.403  0.0000E+00  0.0000E+00  0.1260E+03  0.1260E+03
    -18.162  0.0000E+00  0.0000E+00  0.1260E+03  0.1260E+03
    -17.921  0.0000E+00  0.0000E+00  0.1260E+03  0.1260E+03
    -17.680  0.0000E+00  0.0000E+00  0.1260E+03  0.1260E+03
    -17.439  0.0000E+00  0.0000E+00  0.1260E+03  0.1260E+03
    -17.198  0.0000E+00  0.0000E+00  0.1260E+03  0.1260E+03
    -16.956  0.0000E+00  0.0000E+00  0.1260E+03  0.1260E+03
    -16.715  0.0000E+00  0.0000E+00  0.1260E+03  0.1260E+03
    -16.474  0.0000E+00  0.0000E+00  0.1260E+03  0.1260E+03
    -16.233  0.0000E+00  0.0000E+00  0.1260E+03  0.1260E+03
    -15.992  0.0000E+00  0.0000E+00  0.1260E+03  0.1260E+03
    -15.750  0.0000E+00  0.0000E+00  0.1260E+03  0.1260E+03
    -15.509  0.0000E+00  0.0000E+00  0.1260E+03  0.1260E+03
    -15.268  0.0000E+00  0.0000E+00  0.1260E+03  0.1260E+03
    -15.027  0.0000E+00  0.0000E+00  0.1260E+03  0.1260E+03
    -14.786  0.0000E+00  0.0000E+00  0.1260E+03  0.1260E+03
    -14.545  0.0000E+00  0.0000E+00  0.1260E+03  0.1260E+03
    -14.303  0.0000E+00  0.0000E+00  0.1260E+03  0.1260E+03
    -14.062  0.0000E+00  0.0000E+00  0.1260E+03  0.1260E+03
    -13.821  0.0000E+00  0.0000E+00  0.1260E+03  0.1260E+03
    -13.580  0.0000E+00  0.0000E+00  0.1260E+03  0.1260E+03
    -13.339  0.1201E-01  0.0000E+00  0.1260E+03  0.1260E+03
    -13.097  0.3853E+02  0.7699E-13  0.1353E+03  0.1260E+03
    -12.856  0.3608E+02  0.2345E+01  0.1440E+03  0.1266E+03
    -12.615  0.9026E-02  0.6659E+02  0.1440E+03  0.1426E+03
    -12.374  0.0000E+00  0.5696E+01  0.1440E+03  0.1440E+03
    -12.133  0.0000E+00  0.0000E+00  0.1440E+03  0.1440E+03
    -11.891  0.0000E+00  0.0000E+00  0.1440E+03  0.1440E+03
    -11.650  0.0000E+00  0.0000E+00  0.1440E+03  0.1440E+03
    -11.409  0.0000E+00  0.0000E+00  0.1440E+03  0.1440E+03
    -11.168  0.0000E+00  0.0000E+00  0.1440E+03  0.1440E+03
    -10.927  0.0000E+00  0.0000E+00  0.1440E+03  0.1440E+03
    -10.686  0.0000E+00  0.0000E+00  0.1440E+03  0.1440E+03
    -10.444  0.0000E+00  0.0000E+00  0.1440E+03  0.1440E+03
    -10.203  0.0000E+00  0.0000E+00  0.1440E+03  0.1440E+03
     -9.962  0.0000E+00  0.0000E+00  0.1440E+03  0.1440E+03
     -9.721  0.0000E+00  0.0000E+00  0.1440E+03  0.1440E+03
     -9.480  0.0000E+00  0.0000E+00  0.1440E+03  0.1440E+03
     -9.238  0.0000E+00  0.0000E+00  0.1440E+03  0.1440E+03
     -8.997  0.0000E+00  0.0000E+00  0.1440E+03  0.1440E+03
     -8.756  0.0000E+00  0.0000E+00  0.1440E+03  0.1440E+03
     -8.515  0.0000E+00  0.0000E+00  0.1440E+03  0.1440E+03
     -8.274  0.0000E+00  0.0000E+00  0.1440E+03  0.1440E+03
     -8.033  0.0000E+00  0.0000E+00  0.1440E+03  0.1440E+03
     -7.791  0.4773E-07  0.0000E+00  0.1440E+03  0.1440E+03
     -7.550  0.1793E+01  0.9412E-08  0.1444E+03  0.1440E+03
     -7.309  0.2303E+02  0.1695E+01  0.1500E+03  0.1444E+03
     -7.068  0.2958E+02  0.2504E+02  0.1571E+03  0.1504E+03
     -6.827  0.4251E+02  0.2766E+02  0.1674E+03  0.1571E+03
     -6.585  0.1503E+02  0.3257E+02  0.1710E+03  0.1650E+03
     -6.344  0.0000E+00  0.2498E+02  0.1710E+03  0.1710E+03
     -6.103  0.0000E+00  0.3447E-02  0.1710E+03  0.1710E+03
     -5.862  0.0000E+00  0.0000E+00  0.1710E+03  0.1710E+03
     -5.621  0.0000E+00  0.0000E+00  0.1710E+03  0.1710E+03
     -5.379  0.0000E+00  0.0000E+00  0.1710E+03  0.1710E+03
     -5.138  0.0000E+00  0.0000E+00  0.1710E+03  0.1710E+03
     -4.897  0.0000E+00  0.0000E+00  0.1710E+03  0.1710E+03
     -4.656  0.0000E+00  0.0000E+00  0.1710E+03  0.1710E+03
     -4.415  0.0000E+00  0.0000E+00  0.1710E+03  0.1710E+03
     -4.174  0.0000E+00  0.0000E+00  0.1710E+03  0.1710E+03
     -3.932  0.0000E+00  0.0000E+00  0.1710E+03  0.1710E+03
     -3.691  0.0000E+00  0.0000E+00  0.1710E+03  0.1710E+03
     -3.450  0.0000E+00  0.0000E+00  0.1710E+03  0.1710E+03
     -3.209  0.0000E+00  0.0000E+00  0.1710E+03  0.1710E+03
     -2.968  0.0000E+00  0.0000E+00  0.1710E+03  0.1710E+03
     -2.726  0.0000E+00  0.0000E+00  0.1710E+03  0.1710E+03
     -2.485  0.0000E+00  0.0000E+00  0.1710E+03  0.1710E+03
     -2.244  0.1705E-16  0.0000E+00  0.1710E+03  0.1710E+03
     -2.003  0.3701E+00  0.0000E+00  0.1711E+03  0.1710E+03
     -1.762  0.2984E+02  0.0000E+00  0.1783E+03  0.1710E+03
     -1.521  0.1780E+02  0.0000E+00  0.1826E+03  0.1710E+03
     -1.279  0.1570E+02  0.0000E+00  0.1864E+03  0.1710E+03
     -1.038  0.2616E+02  0.0000E+00  0.1927E+03  0.1710E+03
     -0.797  0.5819E+02  0.0000E+00  0.2067E+03  0.1710E+03
     -0.556  0.6232E+02  0.1657E-01  0.2217E+03  0.1710E+03
     -0.315  0.4582E+02  0.1510E+02  0.2328E+03  0.1746E+03
     -0.073  0.8038E+02  0.1769E+02  0.2522E+03  0.1789E+03
      0.168  0.9329E+02  0.1501E+02  0.2747E+03  0.1825E+03
      0.409  0.7982E+02  0.2424E+02  0.2939E+03  0.1884E+03
      0.650  0.7459E+02  0.3667E+02  0.3119E+03  0.1972E+03
      0.891  0.5303E+02  0.4624E+02  0.3247E+03  0.2084E+03
      1.133  0.3592E+02  0.3969E+02  0.3334E+03  0.2179E+03
      1.374  0.4112E+02  0.3100E+02  0.3433E+03  0.2254E+03
      1.615  0.4744E+02  0.2691E+02  0.3547E+03  0.2319E+03
      1.856  0.6273E+02  0.3296E+02  0.3699E+03  0.2399E+03
      2.097  0.7847E+02  0.4048E+02  0.3888E+03  0.2496E+03
      2.338  0.4875E+02  0.2481E+02  0.4005E+03  0.2556E+03
      2.580  0.3553E+02  0.3052E+02  0.4091E+03  0.2630E+03
      2.821  0.5062E+02  0.4389E+02  0.4213E+03  0.2736E+03
      3.062  0.1625E+02  0.4883E+02  0.4252E+03  0.2853E+03
      3.303  0.1388E+02  0.4421E+02  0.4286E+03  0.2960E+03
      3.544  0.3864E+02  0.3455E+02  0.4379E+03  0.3043E+03
      3.786  0.2626E+02  0.6994E+01  0.4442E+03  0.3060E+03
      4.027  0.4057E+02  0.3350E+02  0.4540E+03  0.3141E+03
      4.268  0.3798E+02  0.7661E+02  0.4632E+03  0.3326E+03
      4.509  0.3917E+02  0.3301E+02  0.4726E+03  0.3405E+03
      4.750  0.3302E+02  0.6075E+01  0.4806E+03  0.3420E+03
      4.991  0.2129E+02  0.0000E+00  0.4857E+03  0.3420E+03
      5.233  0.1115E+01  0.0000E+00  0.4860E+03  0.3420E+03
      5.474  0.0000E+00  0.0000E+00  0.4860E+03  0.3420E+03
      5.715  0.0000E+00  0.0000E+00  0.4860E+03  0.3420E+03
      5.956  0.0000E+00  0.0000E+00  0.4860E+03  0.3420E+03
      6.197  0.0000E+00  0.2963E-05  0.4860E+03  0.3420E+03
      6.439  0.0000E+00  0.2002E+01  0.4860E+03  0.3425E+03
      6.680  0.0000E+00  0.5228E+01  0.4860E+03  0.3437E+03
      6.921  0.0000E+00  0.1370E+02  0.4860E+03  0.3470E+03
      7.162  0.7977E-09  0.2664E+02  0.4860E+03  0.3535E+03
      7.403  0.1326E+00  0.6059E+02  0.4860E+03  0.3681E+03
      7.644  0.2100E-01  0.6556E+02  0.4860E+03  0.3839E+03
      7.886  0.6315E+00  0.6388E+02  0.4862E+03  0.3993E+03
      8.127  0.1175E+01  0.7570E+02  0.4865E+03  0.4176E+03
      8.368  0.2760E+01  0.8303E+02  0.4871E+03  0.4376E+03
      8.609  0.4950E+01  0.6631E+02  0.4883E+03  0.4536E+03
      8.850  0.1098E+02  0.6197E+02  0.4910E+03  0.4685E+03
      9.092  0.1438E+02  0.4218E+02  0.4945E+03  0.4787E+03
      9.333  0.1968E+02  0.2685E+02  0.4992E+03  0.4852E+03
      9.574  0.1695E+02  0.6512E+01  0.5033E+03  0.4867E+03
      9.815  0.1769E+02  0.7023E+01  0.5076E+03  0.4884E+03
     10.056  0.2479E+02  0.1182E+02  0.5135E+03  0.4913E+03
     10.298  0.1774E+02  0.2071E+02  0.5178E+03  0.4963E+03
     10.539  0.2059E+02  0.2148E+02  0.5228E+03  0.5015E+03
     10.780  0.1165E+02  0.2286E+02  0.5256E+03  0.5070E+03
     11.021  0.1764E+02  0.2659E+02  0.5298E+03  0.5134E+03
     11.262  0.2497E+02  0.2650E+02  0.5359E+03  0.5198E+03
     11.503  0.3226E+02  0.2062E+02  0.5436E+03  0.5248E+03
     11.745  0.2736E+02  0.1588E+02  0.5502E+03  0.5286E+03
     11.986  0.3401E+02  0.1153E+02  0.5584E+03  0.5314E+03
     12.227  0.3357E+02  0.3026E+02  0.5665E+03  0.5387E+03
     12.468  0.2252E+02  0.4633E+02  0.5720E+03  0.5498E+03
     12.709  0.1983E+02  0.3533E+02  0.5768E+03  0.5584E+03
     12.951  0.2428E+02  0.2694E+02  0.5826E+03  0.5649E+03
     13.192  0.2774E+02  0.2084E+02  0.5893E+03  0.5699E+03
     13.433  0.2829E+02  0.2766E+02  0.5961E+03  0.5766E+03
     13.674  0.2313E+02  0.3156E+02  0.6017E+03  0.5842E+03
     13.915  0.1579E+02  0.2629E+02  0.6055E+03  0.5905E+03
     14.156  0.2041E+01  0.2480E+02  0.6060E+03  0.5965E+03
     14.398  0.0000E+00  0.2270E+02  0.6060E+03  0.6020E+03
     14.639  0.0000E+00  0.1572E+02  0.6060E+03  0.6058E+03
     14.880  0.0000E+00  0.9973E+00  0.6060E+03  0.6060E+03
     15.121  0.0000E+00  0.2177E-05  0.6060E+03  0.6060E+03
     15.362  0.0000E+00  0.0000E+00  0.6060E+03  0.6060E+03
     15.604  0.0000E+00  0.0000E+00  0.6060E+03  0.6060E+03
     15.845  0.0000E+00  0.0000E+00  0.6060E+03  0.6060E+03
     16.086  0.0000E+00  0.0000E+00  0.6060E+03  0.6060E+03
     16.327  0.0000E+00  0.0000E+00  0.6060E+03  0.6060E+03
     16.568  0.0000E+00  0.0000E+00  0.6060E+03  0.6060E+03
     16.810  0.0000E+00  0.0000E+00  0.6060E+03  0.6060E+03
     17.051  0.0000E+00  0.0000E+00  0.6060E+03  0.6060E+03
     17.292  0.0000E+00  0.0000E+00  0.6060E+03  0.6060E+03
     17.533  0.0000E+00  0.0000E+00  0.6060E+03  0.6060E+03
     17.774  0.0000E+00  0.0000E+00  0.6060E+03  0.6060E+03
     18.015  0.0000E+00  0.0000E+00  0.6060E+03  0.6060E+03
