 vasp.5.4.4.18Apr17-6-g9f103f2a35 (build Oct 25 2017 14:42:18) complex          
  
 executed on             LinuxIFC date 2021.05.28  05:08:12
 running on   24 total cores
 distrk:  each k-point on   12 cores,    2 groups
 distr:  one band on NCORES_PER_BAND=   6 cores,    2 groups


--------------------------------------------------------------------------------------------------------


 INCAR:
 POTCAR:    PAW_PBE Li_sv 10Sep2004               
 POTCAR:    PAW_PBE O 08Apr2002                   
 POTCAR:    PAW_PBE S 06Sep2000                   
 POTCAR:    PAW_PBE Fe_pv 02Aug2007               

 ----------------------------------------------------------------------------- 
|                                                                             |
|           W    W    AA    RRRRR   N    N  II  N    N   GGGG   !!!           |
|           W    W   A  A   R    R  NN   N  II  NN   N  G    G  !!!           |
|           W    W  A    A  R    R  N N  N  II  N N  N  G       !!!           |
|           W WW W  AAAAAA  RRRRR   N  N N  II  N  N N  G  GGG   !            |
|           WW  WW  A    A  R   R   N   NN  II  N   NN  G    G                |
|           W    W  A    A  R    R  N    N  II  N    N   GGGG   !!!           |
|                                                                             |
|      You have enabled k-point parallelism (KPAR>1).                         |
|      This developmental code was originally  written by Paul Kent at ORNL,  |
|      and carefully double checked in Vienna.                                |
|      GW as well as linear response parallelism added by Martijn Marsman     |
|      and Georg Kresse.                                                      |
|      Carefully verify results versus KPAR=1.                                |
|      Report problems to Paul Kent and Vienna.                               |
|                                                                             |
 ----------------------------------------------------------------------------- 

 POTCAR:    PAW_PBE Li_sv 10Sep2004               
  local pseudopotential read in
  atomic valenz-charges read in
  non local Contribution for L=           0  read in
    real space projection operators read in
  non local Contribution for L=           0  read in
    real space projection operators read in
  non local Contribution for L=           1  read in
    real space projection operators read in
    PAW grid and wavefunctions read in
 
   number of l-projection  operators is LMAX  =           3
   number of lm-projection operators is LMMAX =           5
 
 POTCAR:    PAW_PBE O 08Apr2002                   
  local pseudopotential read in
  partial core-charges read in
  partial kinetic energy density read in
  kinetic energy density of atom read in
  atomic valenz-charges read in
  non local Contribution for L=           0  read in
    real space projection operators read in
  non local Contribution for L=           0  read in
    real space projection operators read in
  non local Contribution for L=           1  read in
    real space projection operators read in
  non local Contribution for L=           1  read in
    real space projection operators read in
    PAW grid and wavefunctions read in
 
   number of l-projection  operators is LMAX  =           4
   number of lm-projection operators is LMMAX =           8
 
 POTCAR:    PAW_PBE S 06Sep2000                   
  local pseudopotential read in
  partial core-charges read in
  partial kinetic energy density read in
  atomic valenz-charges read in
  non local Contribution for L=           0  read in
    real space projection operators read in
  non local Contribution for L=           0  read in
    real space projection operators read in
  non local Contribution for L=           1  read in
    real space projection operators read in
  non local Contribution for L=           1  read in
    real space projection operators read in
    PAW grid and wavefunctions read in
 
   number of l-projection  operators is LMAX  =           4
   number of lm-projection operators is LMMAX =           8
 
 POTCAR:    PAW_PBE Fe_pv 02Aug2007               
  local pseudopotential read in
  partial core-charges read in
  partial kinetic energy density read in
  atomic valenz-charges read in
  non local Contribution for L=           1  read in
    real space projection operators read in
  non local Contribution for L=           1  read in
    real space projection operators read in
  non local Contribution for L=           2  read in
    real space projection operators read in
  non local Contribution for L=           2  read in
    real space projection operators read in
  non local Contribution for L=           0  read in
    real space projection operators read in
  non local Contribution for L=           0  read in
    real space projection operators read in
    PAW grid and wavefunctions read in
 
   number of l-projection  operators is LMAX  =           6
   number of lm-projection operators is LMMAX =          18
 

 ----------------------------------------------------------------------------- 
|                                                                             |
|  ADVICE TO THIS USER RUNNING 'VASP/VAMP'   (HEAR YOUR MASTER'S VOICE ...):  |
|                                                                             |
|      You have a (more or less) 'large supercell' and for larger cells       |
|      it might be more efficient to use real space projection opertators     |
|      So try LREAL= Auto  in the INCAR   file.                               |
|      Mind:          For very  accurate calculation you might also keep the  |
|      reciprocal projection scheme          (i.e. LREAL=.FALSE.)             |
|                                                                             |
 ----------------------------------------------------------------------------- 

  PAW_PBE Li_sv 10Sep2004               :
 energy of atom  1       EATOM= -202.7858
 kinetic energy error for atom=    0.0072 (will be added to EATOM!!)
  PAW_PBE O 08Apr2002                   :
 energy of atom  2       EATOM= -432.3788
 kinetic energy error for atom=    0.0129 (will be added to EATOM!!)
  PAW_PBE S 06Sep2000                   :
 energy of atom  3       EATOM= -276.8230
 kinetic energy error for atom=    0.0008 (will be added to EATOM!!)
  PAW_PBE Fe_pv 02Aug2007               :
 energy of atom  4       EATOM=-2457.4239
 kinetic energy error for atom=    0.0041 (will be added to EATOM!!)
 
 
 POSCAR: # Compound: Li18O18S27Fe36. Old comment:
  positions in direct lattice
  No initial velocities read in
 exchange correlation table for  LEXCH =        8
   RHO(1)=    0.500       N(1)  =     2000
   RHO(2)=  100.500       N(2)  =     4000
 


--------------------------------------------------------------------------------------------------------


 ion  position               nearest neighbor table
   1  0.202  0.242  0.831-  31 1.98  28 1.99  56 2.61  55 2.62
   2  0.536  0.242  0.832-  32 1.98  29 1.99  57 2.61  56 2.61
   3  0.869  0.242  0.832-  33 1.98  30 1.99  55 2.61  57 2.61
   4  0.202  0.575  0.832-  34 1.98  31 1.99  59 2.61  58 2.61
   5  0.536  0.575  0.832-  35 1.98  32 1.99  60 2.61  59 2.61
   6  0.869  0.575  0.832-  36 1.98  33 1.99  58 2.61  60 2.61
   7  0.202  0.909  0.832-  28 1.98  34 1.99  62 2.61  61 2.61
   8  0.536  0.909  0.832-  29 1.98  35 1.99  63 2.61  62 2.61
   9  0.869  0.909  0.832-  30 1.98  36 1.99  61 2.61  63 2.61
  10  0.091  0.131  0.168-  21 1.98  19 1.99  61 2.61  55 2.61
  11  0.425  0.131  0.168-  19 1.98  20 1.99  62 2.61  56 2.61
  12  0.758  0.131  0.168-  20 1.98  21 1.99  63 2.61  57 2.61
  13  0.091  0.464  0.168-  24 1.98  22 1.99  55 2.61  58 2.61
  14  0.425  0.464  0.168-  22 1.98  23 1.99  56 2.61  59 2.61
  15  0.758  0.464  0.168-  23 1.98  24 1.99  57 2.61  60 2.61
  16  0.091  0.798  0.168-  27 1.98  25 1.99  58 2.61  61 2.61
  17  0.425  0.798  0.168-  25 1.98  26 1.99  59 2.61  62 2.61
  18  0.758  0.798  0.168-  26 1.98  27 1.99  60 2.61  63 2.61
  19  0.263  0.136  0.197-  11 1.98  10 1.99  97 2.01  64 2.01  91 2.01
  20  0.596  0.136  0.197-  12 1.98  11 1.99  98 2.01  65 2.01  92 2.01
  21  0.930  0.136  0.197-  10 1.98  12 1.99  99 2.01  66 2.01  93 2.01
  22  0.263  0.469  0.197-  14 1.98  13 1.99  91 2.01  67 2.01  94 2.01
  23  0.596  0.469  0.197-  15 1.98  14 1.99  92 2.01  68 2.01  95 2.01
  24  0.930  0.469  0.197-  13 1.98  15 1.99  93 2.01  69 2.01  96 2.01
  25  0.263  0.803  0.197-  17 1.98  16 1.99  94 2.01  70 2.01  97 2.01
  26  0.596  0.803  0.197-  18 1.98  17 1.99  95 2.01  71 2.01  98 2.01
  27  0.930  0.803  0.197-  16 1.98  18 1.99  96 2.01  72 2.01  99 2.01
  28  0.197  0.070  0.803-   7 1.98   1 1.99  83 2.01  73 2.01  82 2.01
  29  0.531  0.070  0.803-   8 1.98   2 1.99  84 2.01  74 2.01  83 2.01
  30  0.864  0.070  0.803-   9 1.98   3 1.99  82 2.01  75 2.01  84 2.01
  31  0.197  0.404  0.803-   1 1.98   4 1.99  86 2.01  76 2.01  85 2.01
  32  0.531  0.404  0.803-   2 1.98   5 1.99  87 2.01  77 2.01  86 2.01
  33  0.864  0.404  0.803-   3 1.98   6 1.99  85 2.01  78 2.01  87 2.01
  34  0.197  0.737  0.803-   4 1.98   7 1.99  89 2.01  79 2.01  88 2.01
  35  0.531  0.737  0.803-   5 1.98   8 1.99  90 2.01  80 2.01  89 2.01
  36  0.864  0.737  0.803-   6 1.98   9 1.99  88 2.01  81 2.01  90 2.01
  37  0.003  0.207  0.629-  66 2.41  73 2.70  75 2.76
  38  0.336  0.207  0.629-  64 2.41  74 2.70  73 2.76
  39  0.669  0.207  0.629-  65 2.41  75 2.70  74 2.76
  40  0.003  0.540  0.629-  69 2.41  76 2.70  78 2.76
  41  0.336  0.540  0.629-  67 2.41  77 2.70  76 2.76
  42  0.669  0.540  0.629-  68 2.41  78 2.70  77 2.76
  43  0.003  0.873  0.629-  72 2.41  79 2.70  81 2.76
  44  0.336  0.873  0.629-  70 2.41  80 2.70  79 2.76
  45  0.669  0.873  0.629-  71 2.41  81 2.70  80 2.76
  46  0.127  0.331  0.371-  76 2.41  64 2.70  67 2.76
  47  0.460  0.331  0.371-  77 2.41  65 2.70  68 2.76
  48  0.793  0.331  0.371-  78 2.41  66 2.70  69 2.76
  49  0.127  0.664  0.371-  79 2.41  67 2.70  70 2.76
  50  0.460  0.664  0.371-  80 2.41  68 2.70  71 2.76
  51  0.793  0.664  0.371-  81 2.41  69 2.70  72 2.76
  52  0.127  0.997  0.371-  73 2.41  70 2.70  64 2.76
  53  0.460  0.997  0.371-  74 2.41  71 2.70  65 2.76
  54  0.793  0.997  0.371-  75 2.41  72 2.70  66 2.76
  55  0.064  0.270  0.000-  85 2.52  93 2.52  82 2.52  91 2.52  13 2.61   3 2.61  10 2.61   1 2.62

  56  0.397  0.270  0.000-  86 2.52  91 2.52  83 2.52  92 2.52  14 2.61  11 2.61   2 2.61   1 2.61

  57  0.730  0.270  0.000-  87 2.52  92 2.52  84 2.52  93 2.52  15 2.61   2 2.61  12 2.61   3 2.61

  58  0.064  0.603  0.000-  88 2.52  96 2.52  85 2.52  94 2.52  16 2.61   6 2.61  13 2.61   4 2.61

  59  0.397  0.603  0.000-  89 2.52  94 2.52  86 2.52  95 2.52  17 2.61   4 2.61  14 2.61   5 2.61

  60  0.730  0.603  0.000-  90 2.52  95 2.52  87 2.52  96 2.52  18 2.61   5 2.61  15 2.61   6 2.61

  61  0.064  0.936  0.000-  82 2.52  99 2.52  88 2.52  97 2.52  10 2.61   9 2.61  16 2.61   7 2.61

  62  0.397  0.936  0.000-  83 2.52  97 2.52  89 2.52  98 2.52  11 2.61   7 2.61  17 2.61   8 2.61

  63  0.730  0.936  0.000-  84 2.52  98 2.52  90 2.52  99 2.52  12 2.61   8 2.61  18 2.61   9 2.61

  64  0.290  0.172  0.394-  19 2.01  38 2.41  46 2.70  52 2.76
  65  0.624  0.172  0.394-  20 2.01  39 2.41  47 2.70  53 2.76
  66  0.957  0.172  0.394-  21 2.01  37 2.41  48 2.70  54 2.76
  67  0.290  0.505  0.394-  22 2.01  41 2.41  49 2.70  46 2.76
  68  0.624  0.505  0.394-  23 2.01  42 2.41  50 2.70  47 2.76
  69  0.957  0.505  0.394-  24 2.01  40 2.41  51 2.70  48 2.76
  70  0.290  0.839  0.394-  25 2.01  44 2.41  52 2.70  49 2.76
  71  0.624  0.839  0.394-  26 2.01  45 2.41  53 2.70  50 2.76
  72  0.957  0.839  0.394-  27 2.01  43 2.41  54 2.70  51 2.76
  73  0.161  0.043  0.606-  28 2.01  52 2.41  37 2.70  38 2.76
  74  0.495  0.043  0.606-  29 2.01  53 2.41  38 2.70  39 2.76
  75  0.828  0.043  0.606-  30 2.01  54 2.41  39 2.70  37 2.76
  76  0.161  0.376  0.606-  31 2.01  46 2.41  40 2.70  41 2.76
  77  0.495  0.376  0.606-  32 2.01  47 2.41  41 2.70  42 2.76
  78  0.828  0.376  0.606-  33 2.01  48 2.41  42 2.70  40 2.76
  79  0.161  0.710  0.606-  34 2.01  49 2.41  43 2.70  44 2.76
  80  0.495  0.710  0.606-  35 2.01  50 2.41  44 2.70  45 2.76
  81  0.828  0.710  0.606-  36 2.01  51 2.41  45 2.70  43 2.76
  82  0.038  0.077  0.845-  30 2.01  28 2.01  61 2.52  55 2.52
  83  0.371  0.077  0.845-  28 2.01  29 2.01  62 2.52  56 2.52
  84  0.704  0.077  0.845-  29 2.01  30 2.01  63 2.52  57 2.52
  85  0.038  0.411  0.845-  33 2.01  31 2.01  55 2.52  58 2.52
  86  0.371  0.411  0.845-  31 2.01  32 2.01  56 2.52  59 2.52
  87  0.704  0.411  0.845-  32 2.01  33 2.01  57 2.52  60 2.52
  88  0.038  0.744  0.845-  36 2.01  34 2.01  58 2.52  61 2.52
  89  0.371  0.744  0.845-  34 2.01  35 2.01  59 2.52  62 2.52
  90  0.704  0.744  0.845-  35 2.01  36 2.01  60 2.52  63 2.52
  91  0.256  0.296  0.155-  22 2.01  19 2.01  56 2.52  55 2.52
  92  0.589  0.296  0.155-  23 2.01  20 2.01  57 2.52  56 2.52
  93  0.923  0.296  0.155-  24 2.01  21 2.01  55 2.52  57 2.52
  94  0.256  0.629  0.155-  25 2.01  22 2.01  59 2.52  58 2.52
  95  0.589  0.629  0.155-  26 2.01  23 2.01  60 2.52  59 2.52
  96  0.923  0.629  0.155-  27 2.01  24 2.01  58 2.52  60 2.52
  97  0.256  0.962  0.155-  19 2.01  25 2.01  62 2.52  61 2.52
  98  0.589  0.962  0.155-  20 2.01  26 2.01  63 2.52  62 2.52
  99  0.923  0.962  0.155-  21 2.01  27 2.01  61 2.52  63 2.52
 

IMPORTANT INFORMATION: All symmetrisations will be switched off!
NOSYMM: (Re-)initialisation of all symmetry stuff for point group C_1.

 
 
 KPOINTS: # No comment                            

Automatic generation of k-mesh.
Space group operators:
 irot       det(A)        alpha          n_x          n_y          n_z        tau_x        tau_y        tau_z
    1     1.000000     0.000001     1.000000     0.000000     0.000000     0.000000     0.000000     0.000000
 
 Subroutine IBZKPT returns following result:
 ===========================================
 
 Found     14 irreducible k-points:
 
 Following reciprocal coordinates:
            Coordinates               Weight
  0.000000  0.000000  0.000000      1.000000
  0.333333 -0.000000 -0.000000      2.000000
  0.000000  0.333333  0.000000      2.000000
  0.333333  0.333333  0.000000      2.000000
 -0.333333  0.333333  0.000000      2.000000
 -0.000000 -0.000000  0.333333      2.000000
  0.333333 -0.000000  0.333333      2.000000
 -0.333333 -0.000000  0.333333      2.000000
 -0.000000  0.333333  0.333333      2.000000
  0.333333  0.333333  0.333333      2.000000
 -0.333333  0.333333  0.333333      2.000000
 -0.000000 -0.333333  0.333333      2.000000
  0.333333 -0.333333  0.333333      2.000000
 -0.333333 -0.333333  0.333333      2.000000
 
 Following cartesian coordinates:
            Coordinates               Weight
  0.000000  0.000000  0.000000      1.000000
  0.028270  0.000040  0.005614      2.000000
 -0.000053  0.028270  0.005614      2.000000
  0.028217  0.028310  0.011229      2.000000
 -0.028323  0.028230 -0.000000      2.000000
 -0.000192 -0.000192  0.032649      2.000000
  0.028078 -0.000153  0.038263      2.000000
 -0.028462 -0.000232  0.027035      2.000000
 -0.000245  0.028078  0.038263      2.000000
  0.028025  0.028117  0.043878      2.000000
 -0.028515  0.028038  0.032649      2.000000
 -0.000138 -0.028462  0.027035      2.000000
  0.028132 -0.028423  0.032649      2.000000
 -0.028408 -0.028502  0.021421      2.000000
 


--------------------------------------------------------------------------------------------------------




 Dimension of arrays:
   k-points           NKPTS =     14   k-points in BZ     NKDIM =     14   number of bands    NBANDS=    606
   number of dos      NEDOS =    301   number of ions     NIONS =     99
   non local maximal  LDIM  =      6   non local SUM 2l+1 LMDIM =     18
   total plane-waves  NPLWV = 864360
   max r-space proj   IRMAX =      1   max aug-charges    IRDMAX= 154021
   dimension x,y,z NGX =    98 NGY =   98 NGZ =   90
   dimension x,y,z NGXF=   196 NGYF=  196 NGZF=  180
   support grid    NGXF=   392 NGYF=  392 NGZF=  360
   ions per type =              18  18  27  36
   NGX,Y,Z   is equivalent  to a cutoff of  13.83, 13.83, 14.14 a.u.
   NGXF,Y,Z  is equivalent  to a cutoff of  27.67, 27.67, 28.28 a.u.

 SYSTEM =  unknown system                          
 POSCAR =  # Compound: Li18O18S27Fe36. Old comment:

 Startparameter for this run:
   NWRITE =      1    write-flag & timer
   PREC   = accura    normal or accurate (medium, high low for compatibility)
   ISTART =      0    job   : 0-new  1-cont  2-samecut
   ICHARG =      1    charge: 1-file 2-atom 10-const
   ISPIN  =      2    spin polarized calculation?
   LNONCOLLINEAR =      F non collinear calculations
   LSORBIT =      F    spin-orbit coupling
   INIWAV =      1    electr: 0-lowe 1-rand  2-diag
   LASPH  =      T    aspherical Exc in radial PAW
   METAGGA=      F    non-selfconsistent MetaGGA calc.

 Electronic Relaxation 1
   ENCUT  =  650.0 eV  47.77 Ry    6.91 a.u.  24.48 24.48 21.99*2*pi/ulx,y,z
   ENINI  =  650.0     initial cutoff
   ENAUG  =  628.9 eV  augmentation charge cutoff
   NELM   =    200;   NELMIN=  8; NELMDL=  0     # of ELM steps 
   EDIFF  = 0.1E-05   stopping-criterion for ELM
   LREAL  =      F    real-space projection
   NLSPLINE    = F    spline interpolate recip. space projectors
   LCOMPAT=      F    compatible to vasp.4.4
   GGA_COMPAT  = T    GGA compatible to vasp.4.4-vasp.4.6
   LMAXPAW     = -100 max onsite density
   LMAXMIX     =    4 max onsite mixed and CHGCAR
   VOSKOWN=      0    Vosko Wilk Nusair interpolation
   ROPT   =    0.00000   0.00000   0.00000   0.00000
 Ionic relaxation
   EDIFFG = 0.1E-04   stopping-criterion for IOM
   NSW    =      0    number of steps for IOM
   NBLOCK =      1;   KBLOCK =      1    inner block; outer block 
   IBRION =     -1    ionic relax: 0-MD 1-quasi-New 2-CG
   NFREE  =      0    steps in history (QN), initial steepest desc. (CG)
   ISIF   =      2    stress and relaxation
   IWAVPR =     10    prediction:  0-non 1-charg 2-wave 3-comb
   ISYM   =      0    0-nonsym 1-usesym 2-fastsym
   LCORR  =      T    Harris-Foulkes like correction to forces

   POTIM  = 0.5000    time-step for ionic-motion
   TEIN   =    0.0    initial temperature
   TEBEG  =    0.0;   TEEND  =   0.0 temperature during run
   SMASS  =  -3.00    Nose mass-parameter (am)
   estimated Nose-frequenzy (Omega)   =  0.10E-29 period in steps =****** mass=  -0.317E-26a.u.
   SCALEE = 1.0000    scale energy and forces
   NPACO  =    256;   APACO  = 16.0  distance and # of slots for P.C.
   PSTRESS=    0.0 pullay stress

  Mass of Ions in am
   POMASS =   7.01 16.00 32.07 55.85
  Ionic Valenz
   ZVAL   =   3.00  6.00  6.00 14.00
  Atomic Wigner-Seitz radii
   RWIGS  =  -1.00 -1.00 -1.00 -1.00
  virtual crystal weights 
   VCA    =   1.00  1.00  1.00  1.00
   NELECT =     828.0000    total number of electrons
   NUPDOWN=      -1.0000    fix difference up-down

 DOS related values:
   EMIN   =  10.00;   EMAX   =-10.00  energy-range for DOS
   EFERMI =   0.00
   ISMEAR =     0;   SIGMA  =   0.05  broadening in eV -4-tet -1-fermi 0-gaus

 Electronic relaxation 2 (details)
   IALGO  =     38    algorithm
   LDIAG  =      T    sub-space diagonalisation (order eigenvalues)
   LSUBROT=      F    optimize rotation matrix (better conditioning)
   TURBO    =      0    0=normal 1=particle mesh
   IRESTART =      0    0=no restart 2=restart with 2 vectors
   NREBOOT  =      0    no. of reboots
   NMIN     =      0    reboot dimension
   EREF     =   0.00    reference energy to select bands
   IMIX   =      4    mixing-type and parameters
     AMIX     =   0.40;   BMIX     =  1.00
     AMIX_MAG =   1.60;   BMIX_MAG =  1.00
     AMIN     =   0.10
     WC   =   100.;   INIMIX=   1;  MIXPRE=   1;  MAXMIX= -45

 Intra band minimization:
   WEIMIN = 0.0000     energy-eigenvalue tresh-hold
   EBREAK =  0.41E-09  absolut break condition
   DEPER  =   0.30     relativ break condition  

   TIME   =   0.40     timestep for ELM

  volume/ion in A,a.u.               =      14.30        96.53
  Fermi-wavevector in a.u.,A,eV,Ry     =   1.368946  2.586933 25.497507  1.874014
  Thomas-Fermi vector in A             =   2.494865
 
 Write flags
   LWAVE        =      F    write WAVECAR
   LDOWNSAMPLE  =      F    k-point downsampling of WAVECAR
   LCHARG       =      T    write CHGCAR
   LVTOT        =      F    write LOCPOT, total local potential
   LVHAR        =      F    write LOCPOT, Hartree potential only
   LELF         =      F    write electronic localiz. function (ELF)
   LORBIT       =      0    0 simple, 1 ext, 2 COOP (PROOUT), +10 PAW based schemes


 Dipole corrections
   LMONO  =      F    monopole corrections only (constant potential shift)
   LDIPOL =      F    correct potential (dipole corrections)
   IDIPOL =      0    1-x, 2-y, 3-z, 4-all directions 
   EPSILON=  1.0000000 bulk dielectric constant

 LDA+U is selected, type is set to LDAUTYPE =  2
   angular momentum for each species LDAUL =    -1   -1   -1    2
   U (eV)           for each species LDAUU =   0.0  0.0  0.0  4.0
   J (eV)           for each species LDAUJ =   0.0  0.0  0.0  0.0
 Exchange correlation treatment:
   GGA     =    PE    GGA type
   LEXCH   =     8    internal setting for exchange type
   VOSKOWN=      0    Vosko Wilk Nusair interpolation
   LHFCALC =     F    Hartree Fock is set to
   LHFONE  =     F    Hartree Fock one center treatment
   AEXX    =    0.0000 exact exchange contribution

 Linear response parameters
   LEPSILON=     F    determine dielectric tensor
   LRPA    =     F    only Hartree local field effects (RPA)
   LNABLA  =     F    use nabla operator in PAW spheres
   LVEL    =     F    velocity operator in full k-point grid
   LINTERFAST=   F  fast interpolation
   KINTER  =     0    interpolate to denser k-point grid
   CSHIFT  =0.1000    complex shift for real part using Kramers Kronig
   OMEGAMAX=  -1.0    maximum frequency
   DEG_THRESHOLD= 0.2000000E-02 threshold for treating states as degnerate
   RTIME   =   -0.100 relaxation time in fs
  (WPLASMAI=    0.000 imaginary part of plasma frequency in eV, 0.658/RTIME)
   DFIELD  = 0.0000000 0.0000000 0.0000000 field for delta impulse in time
 
 Orbital magnetization related:
   ORBITALMAG=     F  switch on orbital magnetization
   LCHIMAG   =     F  perturbation theory with respect to B field
   DQ        =  0.001000  dq finite difference perturbation B field
   LLRAUG    =     F  two centre corrections for induced B field



--------------------------------------------------------------------------------------------------------


 Static calculation
 charge density and potential will be updated during run
 spin polarized calculation
 Variant of blocked Davidson
 Davidson routine will perform the subspace rotation
 perform sub-space diagonalisation
    after iterative eigenvector-optimisation
 modified Broyden-mixing scheme, WC =      100.0
 initial mixing is a Kerker type mixing with AMIX =  0.4000 and BMIX =      1.0000
 Hartree-type preconditioning will be used
 using additional bands          192
 reciprocal scheme for non local part
 use partial core corrections
 calculate Harris-corrections to forces 
   (improved forces if not selfconsistent)
 use gradient corrections 
 use of overlap-Matrix (Vanderbilt PP)
 Gauss-broadening in eV      SIGMA  =   0.05


--------------------------------------------------------------------------------------------------------


  energy-cutoff  :      650.00
  volume of cell :     1416.11
      direct lattice vectors                 reciprocal lattice vectors
    11.777269740  0.008488710  0.069233160     0.084810225  0.000119058  0.016842962
    -0.030282480 11.777233860  0.069233160    -0.000160141  0.084810158  0.016842962
    -2.020002310 -2.026663200 10.185746220    -0.000575372 -0.000577269  0.097947445

  length of vectors
    11.777476292 11.777476285 10.580037765     0.086466605  0.086466605  0.097950836


 
 k-points in units of 2pi/SCALE and weight: # No comment                            
   0.00000000  0.00000000  0.00000000       0.037
   0.02827008  0.00003969  0.00561432       0.074
  -0.00005338  0.02827005  0.00561432       0.074
   0.02821669  0.02830974  0.01122864       0.074
  -0.02832346  0.02823037 -0.00000000       0.074
  -0.00019179 -0.00019242  0.03264915       0.074
   0.02807828 -0.00015274  0.03826347       0.074
  -0.02846187 -0.00023211  0.02703483       0.074
  -0.00024517  0.02807763  0.03826347       0.074
   0.02802490  0.02811732  0.04387779       0.074
  -0.02851525  0.02803794  0.03264915       0.074
  -0.00013841 -0.02846248  0.02703483       0.074
   0.02813166 -0.02842279  0.03264915       0.074
  -0.02840849 -0.02850216  0.02142051       0.074
 
 k-points in reciprocal lattice and weights: # No comment                            
   0.00000000  0.00000000  0.00000000       0.037
   0.33333333 -0.00000000 -0.00000000       0.074
   0.00000000  0.33333333  0.00000000       0.074
   0.33333333  0.33333333  0.00000000       0.074
  -0.33333333  0.33333333  0.00000000       0.074
  -0.00000000 -0.00000000  0.33333333       0.074
   0.33333333 -0.00000000  0.33333333       0.074
  -0.33333333 -0.00000000  0.33333333       0.074
  -0.00000000  0.33333333  0.33333333       0.074
   0.33333333  0.33333333  0.33333333       0.074
  -0.33333333  0.33333333  0.33333333       0.074
  -0.00000000 -0.33333333  0.33333333       0.074
   0.33333333 -0.33333333  0.33333333       0.074
  -0.33333333 -0.33333333  0.33333333       0.074
 
 position of ions in fractional coordinates (direct lattice) 
   0.20224939  0.24206952  0.83088901
   0.53558272  0.24206952  0.83183419
   0.86891606  0.24206952  0.83183419
   0.20224939  0.57540285  0.83183419
   0.53558272  0.57540285  0.83183419
   0.86891606  0.57540285  0.83183419
   0.20224939  0.90873619  0.83183419
   0.53558272  0.90873619  0.83183419
   0.86891606  0.90873619  0.83183419
   0.09126381  0.13108394  0.16816581
   0.42459715  0.13108394  0.16816581
   0.75793048  0.13108394  0.16816581
   0.09126381  0.46441728  0.16816581
   0.42459715  0.46441728  0.16816581
   0.75793048  0.46441728  0.16816581
   0.09126381  0.79775061  0.16816581
   0.42459715  0.79775061  0.16816581
   0.75793048  0.79775061  0.16816581
   0.26311007  0.13598816  0.19686089
   0.59644341  0.13598816  0.19686089
   0.92977674  0.13598816  0.19686089
   0.26311007  0.46932149  0.19686089
   0.59644341  0.46932149  0.19686089
   0.92977674  0.46932149  0.19686089
   0.26311007  0.80265483  0.19686089
   0.59644341  0.80265483  0.19686089
   0.92977674  0.80265483  0.19686089
   0.19734517  0.07022326  0.80313911
   0.53067851  0.07022326  0.80313911
   0.86401184  0.07022326  0.80313911
   0.19734517  0.40355659  0.80313911
   0.53067851  0.40355659  0.80313911
   0.86401184  0.40355659  0.80313911
   0.19734517  0.73688993  0.80313911
   0.53067851  0.73688993  0.80313911
   0.86401184  0.73688993  0.80313911
   0.00253935  0.20657296  0.62920335
   0.33587268  0.20657296  0.62920335
   0.66920601  0.20657296  0.62920335
   0.00253935  0.53990630  0.62920335
   0.33587268  0.53990630  0.62920335
   0.66920601  0.53990630  0.62920335
   0.00253935  0.87323963  0.62920335
   0.33587268  0.87323963  0.62920335
   0.66920601  0.87323963  0.62920335
   0.12676037  0.33079399  0.37079665
   0.46009370  0.33079399  0.37079665
   0.79342704  0.33079399  0.37079665
   0.12676037  0.66412732  0.37079665
   0.46009370  0.66412732  0.37079665
   0.79342704  0.66412732  0.37079665
   0.12676037  0.99746065  0.37079665
   0.46009370  0.99746065  0.37079665
   0.79342704  0.99746065  0.37079665
   0.06350899  0.26982435  0.00000000
   0.39684232  0.26982435  0.00000000
   0.73017565  0.26982435  0.00000000
   0.06350899  0.60315768  0.00000000
   0.39684232  0.60315768  0.00000000
   0.73017565  0.60315768  0.00000000
   0.06350899  0.93649101  0.00000000
   0.39684232  0.93649101  0.00000000
   0.73017565  0.93649101  0.00000000
   0.29027274  0.17214940  0.39352170
   0.62360607  0.17214940  0.39352170
   0.95693941  0.17214940  0.39352170
   0.29027274  0.50548273  0.39352170
   0.62360607  0.50548273  0.39352170
   0.95693941  0.50548273  0.39352170
   0.29027274  0.83881607  0.39352170
   0.62360607  0.83881607  0.39352170
   0.95693941  0.83881607  0.39352170
   0.16118393  0.04306059  0.60647830
   0.49451727  0.04306059  0.60647830
   0.82785060  0.04306059  0.60647830
   0.16118393  0.37639393  0.60647830
   0.49451727  0.37639393  0.60647830
   0.82785060  0.37639393  0.60647830
   0.16118393  0.70972726  0.60647830
   0.49451727  0.70972726  0.60647830
   0.82785060  0.70972726  0.60647830
   0.03761391  0.07731307  0.84542777
   0.37094724  0.07731307  0.84542777
   0.70428057  0.07731307  0.84542777
   0.03761391  0.41064640  0.84542777
   0.37094724  0.41064640  0.84542777
   0.70428057  0.41064640  0.84542777
   0.03761391  0.74397973  0.84542777
   0.37094724  0.74397973  0.84542777
   0.70428057  0.74397973  0.84542777
   0.25602027  0.29571943  0.15457223
   0.58935360  0.29571943  0.15457223
   0.92268693  0.29571943  0.15457223
   0.25602027  0.62905276  0.15457223
   0.58935360  0.62905276  0.15457223
   0.92268693  0.62905276  0.15457223
   0.25602027  0.96238609  0.15457223
   0.58935360  0.96238609  0.15457223
   0.92268693  0.96238609  0.15457223
 
 position of ions in cartesian coordinates  (Angst):
   0.69621743  1.16869400  8.49398623
   4.62006475  1.16960801  8.52669128
   8.54582133  1.17243758  8.54976900
   0.68421401  5.09252306  8.52669128
   4.60997059  5.09535263  8.54976900
   8.53572717  5.09818220  8.57284672
   0.67411985  9.01826768  8.54976900
   4.59987643  9.02109725  8.57284672
   8.52563301  9.02392682  8.59592444
   0.73117368  1.20376551  1.72828810
   4.65693026  1.20659508  1.75136582
   8.58268684  1.20942465  1.77444354
   0.72107952  5.12951013  1.75136582
   4.64683610  5.13233970  1.77444354
   8.57259268  5.13516927  1.79752126
   0.71098536  9.05525475  1.77444354
   4.63674194  9.05808432  1.79752126
   8.56249852  9.06091389  1.82059898
   2.69694079  1.20482711  2.03280590
   6.62269737  1.20765668  2.05588362
  10.54845395  1.21048625  2.07896134
   2.68684663  5.13057173  2.05588362
   6.61260321  5.13340130  2.07896134
  10.53835979  5.13623087  2.10203906
   2.67675247  9.05631635  2.07896134
   6.60250905  9.05914592  2.10203906
  10.52826563  9.06197549  2.12511678
   0.69971795 -0.79898152  8.19909576
   4.62547453 -0.79615195  8.22217348
   8.55123111 -0.79332238  8.24525120
   0.68962379  3.12676310  8.22217348
   4.61538037  3.12959267  8.24525120
   8.54113695  3.13242224  8.26832892
   0.67952963  7.05250772  8.24525120
   4.60528621  7.05533729  8.26832892
   8.53104279  7.05816686  8.29140664
  -1.24734119  1.15769638  6.42338315
   2.67841539  1.16052595  6.44646087
   6.60417197  1.16335552  6.46953859
  -1.25743535  5.08344100  6.44646087
   2.66832123  5.08627057  6.46953859
   6.59407781  5.08910014  6.49261631
  -1.26752951  9.00918562  6.46953859
   2.65822707  9.01201519  6.49261631
   6.58398365  9.01484476  6.51569403
   0.73386372  3.14543425  3.80851851
   4.65962030  3.14826382  3.83159623
   8.58537688  3.15109339  3.85467395
   0.72376956  7.07117887  3.83159623
   4.64952614  7.07400844  3.85467395
   8.57528272  7.07683801  3.87775167
   0.71367540 10.99692349  3.85467395
   4.63943198 10.99975306  3.87775167
   8.56518856 11.00258263  3.90082939
   0.73979152  3.17832354  0.02307772
   4.66554810  3.18115311  0.04615544
   8.59130468  3.18398268  0.06923316
   0.72969736  7.10406816  0.04615544
   4.65545394  7.10689773  0.06923316
   8.58121052  7.10972730  0.09231088
   0.71960320 11.02981278  0.06923316
   4.64535978 11.03264235  0.09231088
   8.57111636 11.03547192  0.11538860
   2.61849250  1.23237184  4.04032711
   6.54424908  1.23520141  4.06340483
  10.47000566  1.23803098  4.08648255
   2.60839834  5.15811646  4.06340483
   6.53415492  5.16094603  4.08648255
  10.45991150  5.16377560  4.10956027
   2.59830418  9.08386108  4.08648255
   6.52406076  9.08669065  4.10956027
  10.44981734  9.08952022  4.13263799
   0.67191511 -0.72062433  6.19157455
   4.59767169 -0.71779476  6.21465227
   8.52342827 -0.71496519  6.23772999
   0.66182095  3.20512029  6.21465227
   4.58757753  3.20794986  6.23772999
   8.51333411  3.21077943  6.26080771
   0.65172679  7.13086491  6.23772999
   4.57748337  7.13369448  6.26080771
   8.50323995  7.13652405  6.28388543
  -1.26711815 -0.80254399  8.61926947
   2.65863843 -0.79971442  8.64234719
   6.58439500 -0.79688485  8.66542491
  -1.27721231  3.12320063  8.64234719
   2.64854427  3.12603020  8.66542491
   6.57430084  3.12885977  8.68850263
  -1.28730647  7.04894525  8.66542491
   2.63845011  7.05177482  8.68850263
   6.56420668  7.05460439  8.71158035
   2.69402836  3.17166428  1.61263219
   6.61978494  3.17449385  1.63570991
  10.54554152  3.17732342  1.65878763
   2.68393420  7.09740890  1.63570991
   6.60969078  7.10023847  1.65878763
  10.53544736  7.10306804  1.68186535
   2.67384004 11.02315352  1.65878763
   6.59959662 11.02598309  1.68186535
  10.52535320 11.02881266  1.70494307
 


--------------------------------------------------------------------------------------------------------


 k-point  1 :   0.0000 0.0000 0.0000  plane waves:   53279
 k-point  2 :   0.3333-0.0000-0.0000  plane waves:   53283
 k-point  3 :   0.0000 0.3333 0.0000  plane waves:   53283
 k-point  4 :   0.3333 0.3333 0.0000  plane waves:   53248
 k-point  5 :  -0.3333 0.3333 0.0000  plane waves:   53268
 k-point  6 :  -0.0000-0.0000 0.3333  plane waves:   53317
 k-point  7 :   0.3333-0.0000 0.3333  plane waves:   53290
 k-point  8 :  -0.3333-0.0000 0.3333  plane waves:   53280
 k-point  9 :  -0.0000 0.3333 0.3333  plane waves:   53290
 k-point 10 :   0.3333 0.3333 0.3333  plane waves:   53292
 k-point 11 :  -0.3333 0.3333 0.3333  plane waves:   53261
 k-point 12 :  -0.0000-0.3333 0.3333  plane waves:   53280
 k-point 13 :   0.3333-0.3333 0.3333  plane waves:   53261
 k-point 14 :  -0.3333-0.3333 0.3333  plane waves:   53313

 maximum and minimum number of plane-waves per node :      8936     8841

 maximum number of plane-waves:     53317
 maximum index in each direction: 
   IXMAX=   24   IYMAX=   24   IZMAX=   21
   IXMIN=  -24   IYMIN=  -24   IZMIN=  -22


 parallel 3D FFT for wavefunctions:
    minimum data exchange during FFTs selected (reduces bandwidth)
 parallel 3D FFT for charge:
    minimum data exchange during FFTs selected (reduces bandwidth)


 total amount of memory used by VASP MPI-rank0  1508757. kBytes
=======================================================================

   base      :      30000. kBytes
   nonl-proj :      85790. kBytes
   fftplans  :      89726. kBytes
   grid      :      70158. kBytes
   one-center:        528. kBytes
   wavefun   :    1232555. kBytes
 
     INWAV:  cpu time    0.0000: real time    0.0001
 Broyden mixing: mesh for mixing (old mesh)
   NGX = 49   NGY = 49   NGZ = 43
  (NGX  =196   NGY  =196   NGZ  =180)
  gives a total of 103243 points

 initial charge density was supplied:
 number of electron     828.0000017 magnetization     144.0000076
 keeping initial charge density in first step


--------------------------------------------------------------------------------------------------------


 Maximum index for augmentation-charges        13331 (set IRDMAX)


--------------------------------------------------------------------------------------------------------


 First call to EWALD:  gamma=   0.158
 Maximum number of real-space cells 3x 3x 3
 Maximum number of reciprocal cells 3x 3x 3

    FEWALD:  cpu time    0.0305: real time    0.0305


--------------------------------------- Iteration      1(   1)  ---------------------------------------


    POTLOK:  cpu time    1.1329: real time    1.9075
    SETDIJ:  cpu time    2.3764: real time    2.3785
     EDDAV:  cpu time  439.0631: real time  442.8537
       DOS:  cpu time    0.0090: real time    0.0090
    --------------------------------------------
      LOOP:  cpu time  442.5814: real time  447.1489

 eigenvalue-minimisations  : 34880
 total energy-change (2. order) : 0.1170599E+05  (-0.4628330E+05)
 number of electron     828.0000017 magnetization     144.0000076
 augmentation part      828.0000017 magnetization     144.0000076

 Free energy of the ion-electron system (eV)
  ---------------------------------------------------
  alpha Z        PSCENC =      2606.24521607
  Ewald energy   TEWEN  =    -65007.38506104
  -Hartree energ DENC   =    -34082.19323011
  -exchange      EXHF   =         0.00000000
  -V(xc)+E(xc)   XCENC  =      3632.83731717
  PAW double counting   =    104149.30743192  -107360.85880398
  entropy T*S    EENTRO =        -0.01698857
  eigenvalues    EBANDS =       394.14415377
  atomic energy  EATOM  =    107373.91467324
  Solvation  Ediel_sol  =         0.00000000
  ---------------------------------------------------
  free energy    TOTEN  =     11705.99470847 eV

  energy without entropy =    11706.01169704  energy(sigma->0) =    11706.00320276


--------------------------------------------------------------------------------------------------------




--------------------------------------- Iteration      1(   2)  ---------------------------------------


     EDDAV:  cpu time  430.8826: real time  434.7376
       DOS:  cpu time    0.0107: real time    0.0110
    --------------------------------------------
      LOOP:  cpu time  430.8933: real time  434.7486

 eigenvalue-minimisations  : 33936
 total energy-change (2. order) :-0.1037730E+05  (-0.9729375E+04)
 number of electron     828.0000017 magnetization     144.0000076
 augmentation part      828.0000017 magnetization     144.0000076

 Free energy of the ion-electron system (eV)
  ---------------------------------------------------
  alpha Z        PSCENC =      2606.24521607
  Ewald energy   TEWEN  =    -65007.38506104
  -Hartree energ DENC   =    -34082.19323011
  -exchange      EXHF   =         0.00000000
  -V(xc)+E(xc)   XCENC  =      3632.83731717
  PAW double counting   =    104149.30743192  -107360.85880398
  entropy T*S    EENTRO =        -0.06769359
  eigenvalues    EBANDS =     -9983.10254784
  atomic energy  EATOM  =    107373.91467324
  Solvation  Ediel_sol  =         0.00000000
  ---------------------------------------------------
  free energy    TOTEN  =      1328.69730185 eV

  energy without entropy =     1328.76499543  energy(sigma->0) =     1328.73114864


--------------------------------------------------------------------------------------------------------




--------------------------------------- Iteration      1(   3)  ---------------------------------------


     EDDAV:  cpu time  454.0029: real time  457.6645
       DOS:  cpu time    0.0031: real time    0.0031
    --------------------------------------------
      LOOP:  cpu time  454.0059: real time  457.6676

 eigenvalue-minimisations  : 36392
 total energy-change (2. order) :-0.1674197E+04  (-0.1441997E+04)
 number of electron     828.0000017 magnetization     144.0000076
 augmentation part      828.0000017 magnetization     144.0000076

 Free energy of the ion-electron system (eV)
  ---------------------------------------------------
  alpha Z        PSCENC =      2606.24521607
  Ewald energy   TEWEN  =    -65007.38506104
  -Hartree energ DENC   =    -34082.19323011
  -exchange      EXHF   =         0.00000000
  -V(xc)+E(xc)   XCENC  =      3632.83731717
  PAW double counting   =    104149.30743192  -107360.85880398
  entropy T*S    EENTRO =        -0.00000000
  eigenvalues    EBANDS =    -11657.36682079
  atomic energy  EATOM  =    107373.91467324
  Solvation  Ediel_sol  =         0.00000000
  ---------------------------------------------------
  free energy    TOTEN  =      -345.49927751 eV

  energy without entropy =     -345.49927751  energy(sigma->0) =     -345.49927751


--------------------------------------------------------------------------------------------------------




--------------------------------------- Iteration      1(   4)  ---------------------------------------


     EDDAV:  cpu time  486.4624: real time  491.0371
       DOS:  cpu time    0.0029: real time    0.0029
    --------------------------------------------
      LOOP:  cpu time  486.4653: real time  491.0401

 eigenvalue-minimisations  : 39784
 total energy-change (2. order) :-0.1903842E+03  (-0.1872437E+03)
 number of electron     828.0000017 magnetization     144.0000076
 augmentation part      828.0000017 magnetization     144.0000076

 Free energy of the ion-electron system (eV)
  ---------------------------------------------------
  alpha Z        PSCENC =      2606.24521607
  Ewald energy   TEWEN  =    -65007.38506104
  -Hartree energ DENC   =    -34082.19323011
  -exchange      EXHF   =         0.00000000
  -V(xc)+E(xc)   XCENC  =      3632.83731717
  PAW double counting   =    104149.30743192  -107360.85880398
  entropy T*S    EENTRO =        -0.00000000
  eigenvalues    EBANDS =    -11847.75106924
  atomic energy  EATOM  =    107373.91467324
  Solvation  Ediel_sol  =         0.00000000
  ---------------------------------------------------
  free energy    TOTEN  =      -535.88352596 eV

  energy without entropy =     -535.88352596  energy(sigma->0) =     -535.88352596


--------------------------------------------------------------------------------------------------------




--------------------------------------- Iteration      1(   5)  ---------------------------------------


     EDDAV:  cpu time  639.0915: real time  644.5177
       DOS:  cpu time    0.0034: real time    0.0034
    CHARGE:  cpu time   12.1325: real time   12.2620
    MIXING:  cpu time    0.0304: real time    0.0304
    --------------------------------------------
      LOOP:  cpu time  651.2578: real time  656.8135

 eigenvalue-minimisations  : 55312
 total energy-change (2. order) :-0.1390957E+02  (-0.1376909E+02)
 number of electron     828.0000017 magnetization     144.0000050
 augmentation part      313.2921815 magnetization      94.6592709

 Broyden mixing:
  rms(total) = 0.20596E+00    rms(broyden)= 0.20583E+00
  rms(prec ) = 0.20944E+00
  weight for this iteration     100.00

 Free energy of the ion-electron system (eV)
  ---------------------------------------------------
  alpha Z        PSCENC =      2606.24521607
  Ewald energy   TEWEN  =    -65007.38506104
  -Hartree energ DENC   =    -34082.19323011
  -exchange      EXHF   =         0.00000000
  -V(xc)+E(xc)   XCENC  =      3632.83731717
  PAW double counting   =    104149.30743192  -107360.85880398
  entropy T*S    EENTRO =        -0.00000000
  eigenvalues    EBANDS =    -11861.66063631
  atomic energy  EATOM  =    107373.91467324
  Solvation  Ediel_sol  =         0.00000000
  ---------------------------------------------------
  free energy    TOTEN  =      -549.79309304 eV

  energy without entropy =     -549.79309304  energy(sigma->0) =     -549.79309304


--------------------------------------------------------------------------------------------------------




--------------------------------------- Iteration      1(   6)  ---------------------------------------


    POTLOK:  cpu time    1.1321: real time    1.1354
    SETDIJ:  cpu time    2.5596: real time    2.5664
     EDDAV:  cpu time  567.7014: real time  573.2462
       DOS:  cpu time    0.0032: real time    0.0032
    CHARGE:  cpu time   12.1049: real time   12.1167
    MIXING:  cpu time    0.0280: real time    0.0288
    --------------------------------------------
      LOOP:  cpu time  583.5292: real time  589.0966

 eigenvalue-minimisations  : 48080
 total energy-change (2. order) :-0.5300314E+00  (-0.5449856E+00)
 number of electron     828.0000017 magnetization     144.0000039
 augmentation part      312.7282825 magnetization      94.7033891

 Broyden mixing:
  rms(total) = 0.10245E+00    rms(broyden)= 0.10233E+00
  rms(prec ) = 0.10316E+00
  weight for this iteration     100.00

 eigenvalues of (default mixing * dielectric matrix)
  average eigenvalue GAMMA=   0.6328
  0.6328

 Free energy of the ion-electron system (eV)
  ---------------------------------------------------
  alpha Z        PSCENC =      2606.24521607
  Ewald energy   TEWEN  =    -65007.38506104
  -Hartree energ DENC   =    -34080.29677366
  -exchange      EXHF   =         0.00000000
  -V(xc)+E(xc)   XCENC  =      3632.51651533
  PAW double counting   =    103986.07317160  -107195.82637850
  entropy T*S    EENTRO =        -0.00000000
  eigenvalues    EBANDS =    -11865.56448751
  atomic energy  EATOM  =    107373.91467324
  Solvation  Ediel_sol  =         0.00000000
  ---------------------------------------------------
  free energy    TOTEN  =      -550.32312446 eV

  energy without entropy =     -550.32312446  energy(sigma->0) =     -550.32312446


--------------------------------------------------------------------------------------------------------




--------------------------------------- Iteration      1(   7)  ---------------------------------------


    POTLOK:  cpu time    1.1290: real time    1.1309
    SETDIJ:  cpu time    2.5553: real time    2.5579
     EDDAV:  cpu time  604.4208: real time  609.8523
       DOS:  cpu time    0.0034: real time    0.0034
    CHARGE:  cpu time   12.1158: real time   12.2397
    MIXING:  cpu time    0.0342: real time    0.0355
    --------------------------------------------
      LOOP:  cpu time  620.2585: real time  625.8197

 eigenvalue-minimisations  : 52032
 total energy-change (2. order) :-0.1826285E-01  (-0.1926968E-01)
 number of electron     828.0000017 magnetization     144.0000034
 augmentation part      312.6391677 magnetization      94.6957347

 Broyden mixing:
  rms(total) = 0.60867E-01    rms(broyden)= 0.60837E-01
  rms(prec ) = 0.62259E-01
  weight for this iteration     100.00

 eigenvalues of (default mixing * dielectric matrix)
  average eigenvalue GAMMA=   0.5827
  0.5827  0.5827

 Free energy of the ion-electron system (eV)
  ---------------------------------------------------
  alpha Z        PSCENC =      2606.24521607
  Ewald energy   TEWEN  =    -65007.38506104
  -Hartree energ DENC   =    -34081.23266329
  -exchange      EXHF   =         0.00000000
  -V(xc)+E(xc)   XCENC  =      3632.60221112
  PAW double counting   =    104044.50028627  -107254.87356165
  entropy T*S    EENTRO =        -0.00000000
  eigenvalues    EBANDS =    -11864.11248804
  atomic energy  EATOM  =    107373.91467324
  Solvation  Ediel_sol  =         0.00000000
  ---------------------------------------------------
  free energy    TOTEN  =      -550.34138732 eV

  energy without entropy =     -550.34138732  energy(sigma->0) =     -550.34138732


--------------------------------------------------------------------------------------------------------




--------------------------------------- Iteration      1(   8)  ---------------------------------------


    POTLOK:  cpu time    1.1142: real time    1.1334
    SETDIJ:  cpu time    2.5373: real time    2.5576
     EDDAV:  cpu time  571.3887: real time  576.0811
       DOS:  cpu time    0.0040: real time    0.0051
    CHARGE:  cpu time   12.1577: real time   12.1701
    MIXING:  cpu time    0.0303: real time    0.0328
    --------------------------------------------
      LOOP:  cpu time  587.2322: real time  591.9801

 eigenvalue-minimisations  : 48472
 total energy-change (2. order) : 0.5021680E-03  (-0.3814082E-03)
 number of electron     828.0000017 magnetization     144.0000032
 augmentation part      312.6312956 magnetization      94.6987239

 Broyden mixing:
  rms(total) = 0.53147E-01    rms(broyden)= 0.53144E-01
  rms(prec ) = 0.54379E-01
  weight for this iteration     100.00

 eigenvalues of (default mixing * dielectric matrix)
  average eigenvalue GAMMA=   0.5426
  0.6098  0.6098  0.4082

 Free energy of the ion-electron system (eV)
  ---------------------------------------------------
  alpha Z        PSCENC =      2606.24521607
  Ewald energy   TEWEN  =    -65007.38506104
  -Hartree energ DENC   =    -34081.19464605
  -exchange      EXHF   =         0.00000000
  -V(xc)+E(xc)   XCENC  =      3632.63465706
  PAW double counting   =    104059.33394405  -107269.85384928
  entropy T*S    EENTRO =        -0.00000000
  eigenvalues    EBANDS =    -11864.03581921
  atomic energy  EATOM  =    107373.91467324
  Solvation  Ediel_sol  =         0.00000000
  ---------------------------------------------------
  free energy    TOTEN  =      -550.34088515 eV

  energy without entropy =     -550.34088515  energy(sigma->0) =     -550.34088515


--------------------------------------------------------------------------------------------------------




--------------------------------------- Iteration      1(   9)  ---------------------------------------


    POTLOK:  cpu time    1.1277: real time    1.1305
    SETDIJ:  cpu time    2.5562: real time    2.5605
     EDDAV:  cpu time  611.4960: real time  616.8139
       DOS:  cpu time    0.0033: real time    0.0033
    CHARGE:  cpu time   12.0208: real time   12.1537
    MIXING:  cpu time    0.0297: real time    0.0304
    --------------------------------------------
      LOOP:  cpu time  627.2337: real time  632.6924

 eigenvalue-minimisations  : 52728
 total energy-change (2. order) : 0.3499326E-03  (-0.2356627E-04)
 number of electron     828.0000017 magnetization     144.0000028
 augmentation part      312.6338421 magnetization      94.6987218

 Broyden mixing:
  rms(total) = 0.48089E-01    rms(broyden)= 0.48089E-01
  rms(prec ) = 0.49179E-01
  weight for this iteration     100.00

 eigenvalues of (default mixing * dielectric matrix)
  average eigenvalue GAMMA=   0.4936
  0.5944  0.5944  0.3928  0.3928

 Free energy of the ion-electron system (eV)
  ---------------------------------------------------
  alpha Z        PSCENC =      2606.24521607
  Ewald energy   TEWEN  =    -65007.38506104
  -Hartree energ DENC   =    -34081.25718291
  -exchange      EXHF   =         0.00000000
  -V(xc)+E(xc)   XCENC  =      3632.65406677
  PAW double counting   =    104065.81865565  -107276.42739749
  entropy T*S    EENTRO =        -0.00000000
  eigenvalues    EBANDS =    -11863.90350551
  atomic energy  EATOM  =    107373.91467324
  Solvation  Ediel_sol  =         0.00000000
  ---------------------------------------------------
  free energy    TOTEN  =      -550.34053522 eV

  energy without entropy =     -550.34053522  energy(sigma->0) =     -550.34053522


--------------------------------------------------------------------------------------------------------




--------------------------------------- Iteration      1(  10)  ---------------------------------------


    POTLOK:  cpu time    1.1194: real time    1.1320
    SETDIJ:  cpu time    2.5492: real time    2.5597
     EDDAV:  cpu time  574.0193: real time  578.6905
       DOS:  cpu time    0.0030: real time    0.0030
    CHARGE:  cpu time   12.1059: real time   12.1187
    MIXING:  cpu time    0.0314: real time    0.0314
    --------------------------------------------
      LOOP:  cpu time  589.8281: real time  594.5354

 eigenvalue-minimisations  : 48648
 total energy-change (2. order) : 0.4551686E-03  (-0.1102433E-04)
 number of electron     828.0000017 magnetization     144.0000018
 augmentation part      312.6382535 magnetization      94.6992946

 Broyden mixing:
  rms(total) = 0.40537E-01    rms(broyden)= 0.40537E-01
  rms(prec ) = 0.41395E-01
  weight for this iteration     100.00

 eigenvalues of (default mixing * dielectric matrix)
  average eigenvalue GAMMA=   0.8287
  1.2490  1.2490  0.5854  0.5854  0.4747

 Free energy of the ion-electron system (eV)
  ---------------------------------------------------
  alpha Z        PSCENC =      2606.24521607
  Ewald energy   TEWEN  =    -65007.38506104
  -Hartree energ DENC   =    -34081.41401657
  -exchange      EXHF   =         0.00000000
  -V(xc)+E(xc)   XCENC  =      3632.68691908
  PAW double counting   =    104077.41738928  -107288.18438310
  entropy T*S    EENTRO =        -0.00000000
  eigenvalues    EBANDS =    -11863.62081702
  atomic energy  EATOM  =    107373.91467324
  Solvation  Ediel_sol  =         0.00000000
  ---------------------------------------------------
  free energy    TOTEN  =      -550.34008005 eV

  energy without entropy =     -550.34008005  energy(sigma->0) =     -550.34008005


--------------------------------------------------------------------------------------------------------




--------------------------------------- Iteration      1(  11)  ---------------------------------------


    POTLOK:  cpu time    1.1293: real time    1.1308
    SETDIJ:  cpu time    2.5494: real time    2.5711
     EDDAV:  cpu time  586.5834: real time  591.1039
       DOS:  cpu time    0.0032: real time    0.0032
    CHARGE:  cpu time   12.3563: real time   12.4399
    MIXING:  cpu time    0.0345: real time    0.0349
    --------------------------------------------
      LOOP:  cpu time  602.6560: real time  607.2837

 eigenvalue-minimisations  : 50088
 total energy-change (2. order) : 0.7230906E-03  (-0.3784706E-04)
 number of electron     828.0000017 magnetization     144.0000015
 augmentation part      312.6454871 magnetization      94.7004454

 Broyden mixing:
  rms(total) = 0.21715E-01    rms(broyden)= 0.21714E-01
  rms(prec ) = 0.22053E-01
  weight for this iteration     100.00

 eigenvalues of (default mixing * dielectric matrix)
  average eigenvalue GAMMA=   0.8433
  1.3810  1.3810  0.6451  0.6451  0.5038  0.5038

 Free energy of the ion-electron system (eV)
  ---------------------------------------------------
  alpha Z        PSCENC =      2606.24521607
  Ewald energy   TEWEN  =    -65007.38506104
  -Hartree energ DENC   =    -34081.80723780
  -exchange      EXHF   =         0.00000000
  -V(xc)+E(xc)   XCENC  =      3632.76717817
  PAW double counting   =    104108.30652975  -107319.46947255
  entropy T*S    EENTRO =        -0.00000000
  eigenvalues    EBANDS =    -11862.91118280
  atomic energy  EATOM  =    107373.91467324
  Solvation  Ediel_sol  =         0.00000000
  ---------------------------------------------------
  free energy    TOTEN  =      -550.33935696 eV

  energy without entropy =     -550.33935696  energy(sigma->0) =     -550.33935696


--------------------------------------------------------------------------------------------------------




--------------------------------------- Iteration      1(  12)  ---------------------------------------


    POTLOK:  cpu time    1.1243: real time    1.1333
    SETDIJ:  cpu time    2.5417: real time    2.5738
     EDDAV:  cpu time  509.2775: real time  513.7717
       DOS:  cpu time    0.0031: real time    0.0031
    CHARGE:  cpu time   12.0266: real time   12.3410
    MIXING:  cpu time    0.0372: real time    0.0403
    --------------------------------------------
      LOOP:  cpu time  525.0104: real time  529.8632

 eigenvalue-minimisations  : 42104
 total energy-change (2. order) : 0.7448414E-04  (-0.2195270E-04)
 number of electron     828.0000017 magnetization     144.0000015
 augmentation part      312.6489746 magnetization      94.7001999

 Broyden mixing:
  rms(total) = 0.16062E-01    rms(broyden)= 0.16061E-01
  rms(prec ) = 0.16275E-01
  weight for this iteration     100.00

 eigenvalues of (default mixing * dielectric matrix)
  average eigenvalue GAMMA=   0.8003
  1.4263  1.4263  0.6742  0.6742  0.4970  0.4970  0.4071

 Free energy of the ion-electron system (eV)
  ---------------------------------------------------
  alpha Z        PSCENC =      2606.24521607
  Ewald energy   TEWEN  =    -65007.38506104
  -Hartree energ DENC   =    -34081.90662469
  -exchange      EXHF   =         0.00000000
  -V(xc)+E(xc)   XCENC  =      3632.78737830
  PAW double counting   =    104117.75752259  -107329.02334236
  entropy T*S    EENTRO =        -0.00000000
  eigenvalues    EBANDS =    -11862.72904459
  atomic energy  EATOM  =    107373.91467324
  Solvation  Ediel_sol  =         0.00000000
  ---------------------------------------------------
  free energy    TOTEN  =      -550.33928247 eV

  energy without entropy =     -550.33928247  energy(sigma->0) =     -550.33928247


--------------------------------------------------------------------------------------------------------




--------------------------------------- Iteration      1(  13)  ---------------------------------------


    POTLOK:  cpu time    1.1089: real time    1.1298
    SETDIJ:  cpu time    2.5614: real time    2.5642
     EDDAV:  cpu time  529.4173: real time  533.5285
       DOS:  cpu time    0.0031: real time    0.0031
    CHARGE:  cpu time   12.1757: real time   12.2839
    MIXING:  cpu time    0.0386: real time    0.0392
    --------------------------------------------
      LOOP:  cpu time  545.3050: real time  549.5487

 eigenvalue-minimisations  : 44232
 total energy-change (2. order) :-0.7737835E-05  (-0.3252003E-05)
 number of electron     828.0000017 magnetization     144.0000014
 augmentation part      312.6507689 magnetization      94.7002474

 Broyden mixing:
  rms(total) = 0.15678E-01    rms(broyden)= 0.15677E-01
  rms(prec ) = 0.15881E-01
  weight for this iteration     100.00

 eigenvalues of (default mixing * dielectric matrix)
  average eigenvalue GAMMA=   0.8387
  1.5605  1.5605  0.8079  0.8079  0.5259  0.5259  0.4604  0.4604

 Free energy of the ion-electron system (eV)
  ---------------------------------------------------
  alpha Z        PSCENC =      2606.24521607
  Ewald energy   TEWEN  =    -65007.38506104
  -Hartree energ DENC   =    -34081.91150685
  -exchange      EXHF   =         0.00000000
  -V(xc)+E(xc)   XCENC  =      3632.78755367
  PAW double counting   =    104118.39807797  -107329.66484799
  entropy T*S    EENTRO =        -0.00000000
  eigenvalues    EBANDS =    -11862.72339528
  atomic energy  EATOM  =    107373.91467324
  Solvation  Ediel_sol  =         0.00000000
  ---------------------------------------------------
  free energy    TOTEN  =      -550.33929021 eV

  energy without entropy =     -550.33929021  energy(sigma->0) =     -550.33929021


--------------------------------------------------------------------------------------------------------




--------------------------------------- Iteration      1(  14)  ---------------------------------------


    POTLOK:  cpu time    1.1233: real time    1.1300
    SETDIJ:  cpu time    2.5693: real time    2.5768
     EDDAV:  cpu time  343.9132: real time  346.9039
       DOS:  cpu time    0.0030: real time    0.0030
    --------------------------------------------
      LOOP:  cpu time  347.6088: real time  350.6138

 eigenvalue-minimisations  : 25048
 total energy-change (2. order) : 0.5913607E-06  (-0.4017205E-07)
 number of electron     828.0000017 magnetization     144.0000014
 augmentation part      312.6507689 magnetization      94.7002474

 Free energy of the ion-electron system (eV)
  ---------------------------------------------------
  alpha Z        PSCENC =      2606.24521607
  Ewald energy   TEWEN  =    -65007.38506104
  -Hartree energ DENC   =    -34081.92523707
  -exchange      EXHF   =         0.00000000
  -V(xc)+E(xc)   XCENC  =      3632.78927304
  PAW double counting   =    104121.00685477  -107332.28816382
  entropy T*S    EENTRO =        -0.00000000
  eigenvalues    EBANDS =    -11862.69684481
  atomic energy  EATOM  =    107373.91467324
  Solvation  Ediel_sol  =         0.00000000
  ---------------------------------------------------
  free energy    TOTEN  =      -550.33928962 eV

  energy without entropy =     -550.33928962  energy(sigma->0) =     -550.33928962


--------------------------------------------------------------------------------------------------------




 average (electrostatic) potential at core
  the test charge radii are     0.7079  0.7215  0.9698  0.9500
  (the norm of the test charge is              1.0000)
       1 -58.9577       2 -58.9582       3 -58.9577       4 -58.9590       5 -58.9586
       6 -58.9586       7 -58.9584       8 -58.9585       9 -58.9588      10 -58.9576
      11 -58.9579      12 -58.9583      13 -58.9575      14 -58.9579      15 -58.9582
      16 -58.9584      17 -58.9586      18 -58.9586      19 -69.8185      20 -69.8189
      21 -69.8188      22 -69.8185      23 -69.8188      24 -69.8187      25 -69.8192
      26 -69.8193      27 -69.8192      28 -69.8187      29 -69.8194      30 -69.8191
      31 -69.8212      32 -69.8194      33 -69.8192      34 -69.8193      35 -69.8193
      36 -69.8193      37 -85.5604      38 -85.5612      39 -85.5585      40 -85.5584
      41 -85.5584      42 -85.5582      43 -85.5583      44 -85.5583      45 -85.5583
      46 -85.5582      47 -85.5582      48 -85.5582      49 -85.5581      50 -85.5581
      51 -85.5582      52 -85.5585      53 -85.5585      54 -85.5585      55 -85.6415
      56 -85.6428      57 -85.6448      58 -85.6454      59 -85.6455      60 -85.6455
      61 -85.6452      62 -85.6454      63 -85.6455      64 -78.5676      65 -78.5669
      66 -78.5674      67 -78.5667      68 -78.5667      69 -78.5667      70 -78.5670
      71 -78.5670      72 -78.5669      73 -78.5679      74 -78.5676      75 -78.5674
      76 -78.5683      77 -78.5674      78 -78.5672      79 -78.5670      80 -78.5670
      81 -78.5670      82 -78.5819      83 -78.5826      84 -78.5828      85 -78.5828
      86 -78.5835      87 -78.5829      88 -78.5828      89 -78.5829      90 -78.5829
      91 -78.5806      92 -78.5819      93 -78.5814      94 -78.5828      95 -78.5829
      96 -78.5828      97 -78.5828      98 -78.5830      99 -78.5829
 
 
 
 E-fermi :   5.2929     XC(G=0): -10.4947     alpha+bet :-11.8267


 spin component 1

 k-point     1 :       0.0000    0.0000    0.0000
  band No.  band energies     occupation 
      1     -51.0509      1.00000
      2     -51.0505      1.00000
      3     -51.0504      1.00000
      4     -51.0503      1.00000
      5     -51.0502      1.00000
      6     -51.0501      1.00000
      7     -51.0500      1.00000
      8     -51.0499      1.00000
      9     -51.0498      1.00000
     10     -51.0497      1.00000
     11     -51.0496      1.00000
     12     -51.0496      1.00000
     13     -51.0490      1.00000
     14     -51.0480      1.00000
     15     -51.0477      1.00000
     16     -51.0476      1.00000
     17     -51.0474      1.00000
     18     -51.0466      1.00000
     19     -51.0374      1.00000
     20     -51.0371      1.00000
     21     -51.0369      1.00000
     22     -51.0368      1.00000
     23     -51.0367      1.00000
     24     -51.0367      1.00000
     25     -51.0364      1.00000
     26     -51.0360      1.00000
     27     -51.0360      1.00000
     28     -51.0360      1.00000
     29     -51.0360      1.00000
     30     -51.0359      1.00000
     31     -51.0359      1.00000
     32     -51.0358      1.00000
     33     -51.0353      1.00000
     34     -51.0353      1.00000
     35     -51.0349      1.00000
     36     -51.0344      1.00000
     37     -49.6899      1.00000
     38     -49.6895      1.00000
     39     -49.6895      1.00000
     40     -49.6894      1.00000
     41     -49.6894      1.00000
     42     -49.6894      1.00000
     43     -49.6894      1.00000
     44     -49.6893      1.00000
     45     -49.6892      1.00000
     46     -49.6890      1.00000
     47     -49.6887      1.00000
     48     -49.6887      1.00000
     49     -49.6886      1.00000
     50     -49.6886      1.00000
     51     -49.6882      1.00000
     52     -49.6881      1.00000
     53     -49.6877      1.00000
     54     -49.6867      1.00000
     55     -49.5922      1.00000
     56     -49.5918      1.00000
     57     -49.5917      1.00000
     58     -49.5915      1.00000
     59     -49.5915      1.00000
     60     -49.5912      1.00000
     61     -49.5908      1.00000
     62     -49.5906      1.00000
     63     -49.5905      1.00000
     64     -49.5895      1.00000
     65     -49.5893      1.00000
     66     -49.5889      1.00000
     67     -49.5889      1.00000
     68     -49.5886      1.00000
     69     -49.5886      1.00000
     70     -49.5886      1.00000
     71     -49.5885      1.00000
     72     -49.5883      1.00000
     73     -49.5621      1.00000
     74     -49.5619      1.00000
     75     -49.5617      1.00000
     76     -49.5616      1.00000
     77     -49.5615      1.00000
     78     -49.5612      1.00000
     79     -49.5606      1.00000
     80     -49.5602      1.00000
     81     -49.5602      1.00000
     82     -49.5598      1.00000
     83     -49.5595      1.00000
     84     -49.5595      1.00000
     85     -49.5594      1.00000
     86     -49.5594      1.00000
     87     -49.5593      1.00000
     88     -49.5584      1.00000
     89     -49.5583      1.00000
     90     -49.5577      1.00000
     91     -49.5486      1.00000
     92     -49.5484      1.00000
     93     -49.5482      1.00000
     94     -49.5481      1.00000
     95     -49.5480      1.00000
     96     -49.5479      1.00000
     97     -49.5471      1.00000
     98     -49.5471      1.00000
     99     -49.5470      1.00000
    100     -49.5470      1.00000
    101     -49.5468      1.00000
    102     -49.5468      1.00000
    103     -49.5467      1.00000
    104     -49.5466      1.00000
    105     -49.5462      1.00000
    106     -49.5461      1.00000
    107     -49.5458      1.00000
    108     -49.5450      1.00000
    109     -39.8782      1.00000
    110     -39.8779      1.00000
    111     -39.8778      1.00000
    112     -39.8777      1.00000
    113     -39.8774      1.00000
    114     -39.8774      1.00000
    115     -39.8772      1.00000
    116     -39.8772      1.00000
    117     -39.8772      1.00000
    118     -39.8771      1.00000
    119     -39.8770      1.00000
    120     -39.8768      1.00000
    121     -39.8767      1.00000
    122     -39.8766      1.00000
    123     -39.8764      1.00000
    124     -39.8763      1.00000
    125     -39.8763      1.00000
    126     -39.8761      1.00000
    127     -13.2357      1.00000
    128     -13.2348      1.00000
    129     -13.2347      1.00000
    130     -13.2345      1.00000
    131     -13.2259      1.00000
    132     -13.1987      1.00000
    133     -13.0557      1.00000
    134     -13.0553      1.00000
    135     -13.0545      1.00000
    136     -13.0541      1.00000
    137     -13.0425      1.00000
    138     -13.0420      1.00000
    139     -13.0413      1.00000
    140     -13.0410      1.00000
    141     -13.0192      1.00000
    142     -13.0187      1.00000
    143     -13.0185      1.00000
    144     -13.0182      1.00000
    145      -7.6149      1.00000
    146      -7.4106      1.00000
    147      -7.3748      1.00000
    148      -7.3747      1.00000
    149      -7.3741      1.00000
    150      -7.3732      1.00000
    151      -7.1806      1.00000
    152      -7.1801      1.00000
    153      -7.1709      1.00000
    154      -7.1700      1.00000
    155      -7.1517      1.00000
    156      -7.1512      1.00000
    157      -7.1510      1.00000
    158      -7.1508      1.00000
    159      -6.9850      1.00000
    160      -6.9655      1.00000
    161      -6.9652      1.00000
    162      -6.9305      1.00000
    163      -6.9303      1.00000
    164      -6.8722      1.00000
    165      -6.8718      1.00000
    166      -6.8714      1.00000
    167      -6.8713      1.00000
    168      -6.8078      1.00000
    169      -6.8074      1.00000
    170      -6.7808      1.00000
    171      -6.7806      1.00000
    172      -1.8370      1.00000
    173      -1.8367      1.00000
    174      -1.8365      1.00000
    175      -1.8362      1.00000
    176      -1.8161      1.00000
    177      -1.8160      1.00000
    178      -1.8035      1.00000
    179      -1.8033      1.00000
    180      -1.7663      1.00000
    181      -1.7660      1.00000
    182      -1.7535      1.00000
    183      -1.7533      1.00000
    184      -1.2809      1.00000
    185      -1.1976      1.00000
    186      -1.1974      1.00000
    187      -1.1973      1.00000
    188      -1.1972      1.00000
    189      -1.0051      1.00000
    190      -1.0050      1.00000
    191      -0.9743      1.00000
    192      -0.9742      1.00000
    193      -0.9587      1.00000
    194      -0.9586      1.00000
    195      -0.9469      1.00000
    196      -0.9385      1.00000
    197      -0.9312      1.00000
    198      -0.9283      1.00000
    199      -0.9280      1.00000
    200      -0.8849      1.00000
    201      -0.8844      1.00000
    202      -0.8843      1.00000
    203      -0.8842      1.00000
    204      -0.8715      1.00000
    205      -0.8713      1.00000
    206      -0.8675      1.00000
    207      -0.8673      1.00000
    208      -0.8672      1.00000
    209      -0.8672      1.00000
    210      -0.8594      1.00000
    211      -0.8593      1.00000
    212      -0.7008      1.00000
    213      -0.7003      1.00000
    214      -0.7001      1.00000
    215      -0.6995      1.00000
    216      -0.6713      1.00000
    217      -0.6712      1.00000
    218      -0.6233      1.00000
    219      -0.6230      1.00000
    220      -0.6228      1.00000
    221      -0.6228      1.00000
    222      -0.6222      1.00000
    223      -0.6221      1.00000
    224      -0.3522      1.00000
    225      -0.3520      1.00000
    226      -0.3519      1.00000
    227      -0.3517      1.00000
    228      -0.3218      1.00000
    229      -0.3216      1.00000
    230      -0.2915      1.00000
    231      -0.2915      1.00000
    232      -0.2643      1.00000
    233      -0.2641      1.00000
    234      -0.2640      1.00000
    235      -0.2640      1.00000
    236      -0.2608      1.00000
    237      -0.2607      1.00000
    238      -0.2580      1.00000
    239      -0.2490      1.00000
    240      -0.2489      1.00000
    241      -0.2430      1.00000
    242      -0.2202      1.00000
    243      -0.1403      1.00000
    244      -0.1402      1.00000
    245      -0.1402      1.00000
    246      -0.1400      1.00000
    247      -0.1396      1.00000
    248      -0.1394      1.00000
    249      -0.1228      1.00000
    250      -0.1226      1.00000
    251      -0.1224      1.00000
    252      -0.1222      1.00000
    253      -0.1202      1.00000
    254      -0.1202      1.00000
    255      -0.0777      1.00000
    256      -0.0776      1.00000
    257      -0.0596      1.00000
    258      -0.0117      1.00000
    259      -0.0116      1.00000
    260       0.0160      1.00000
    261       0.0161      1.00000
    262       0.0262      1.00000
    263       0.0263      1.00000
    264       0.0428      1.00000
    265       0.0430      1.00000
    266       0.0430      1.00000
    267       0.0432      1.00000
    268       0.0606      1.00000
    269       0.0609      1.00000
    270       0.1497      1.00000
    271       0.1498      1.00000
    272       0.1500      1.00000
    273       0.1501      1.00000
    274       0.1587      1.00000
    275       0.1643      1.00000
    276       0.1660      1.00000
    277       0.1828      1.00000
    278       0.1828      1.00000
    279       0.1927      1.00000
    280       0.1964      1.00000
    281       0.1965      1.00000
    282       0.2078      1.00000
    283       0.2079      1.00000
    284       0.2584      1.00000
    285       0.2585      1.00000
    286       0.2586      1.00000
    287       0.2589      1.00000
    288       0.2785      1.00000
    289       0.2787      1.00000
    290       0.3395      1.00000
    291       0.3396      1.00000
    292       0.3599      1.00000
    293       0.3600      1.00000
    294       0.3601      1.00000
    295       0.3604      1.00000
    296       0.3799      1.00000
    297       0.3830      1.00000
    298       0.4898      1.00000
    299       0.4901      1.00000
    300       0.4902      1.00000
    301       0.4902      1.00000
    302       0.5166      1.00000
    303       0.5166      1.00000
    304       0.5168      1.00000
    305       0.5170      1.00000
    306       0.5591      1.00000
    307       0.5591      1.00000
    308       0.6091      1.00000
    309       0.6093      1.00000
    310       0.6143      1.00000
    311       0.6305      1.00000
    312       0.6307      1.00000
    313       0.6308      1.00000
    314       0.6310      1.00000
    315       0.7521      1.00000
    316       0.7522      1.00000
    317       0.7611      1.00000
    318       0.7612      1.00000
    319       0.7621      1.00000
    320       0.7621      1.00000
    321       0.7904      1.00000
    322       0.7905      1.00000
    323       0.7927      1.00000
    324       0.8463      1.00000
    325       0.8464      1.00000
    326       0.8550      1.00000
    327       0.8551      1.00000
    328       0.9683      1.00000
    329       0.9689      1.00000
    330       0.9689      1.00000
    331       0.9692      1.00000
    332       0.9794      1.00000
    333       1.2400      1.00000
    334       1.2402      1.00000
    335       1.2402      1.00000
    336       1.2402      1.00000
    337       1.2637      1.00000
    338       1.2928      1.00000
    339       1.2929      1.00000
    340       1.3306      1.00000
    341       1.3308      1.00000
    342       1.3586      1.00000
    343       1.3590      1.00000
    344       1.3590      1.00000
    345       1.3594      1.00000
    346       1.4364      1.00000
    347       1.4364      1.00000
    348       1.4640      1.00000
    349       1.4753      1.00000
    350       1.4871      1.00000
    351       1.4872      1.00000
    352       1.5475      1.00000
    353       1.6783      1.00000
    354       1.6804      1.00000
    355       1.6807      1.00000
    356       1.7236      1.00000
    357       1.7237      1.00000
    358       1.7239      1.00000
    359       1.7241      1.00000
    360       1.7658      1.00000
    361       1.7659      1.00000
    362       1.8140      1.00000
    363       1.8142      1.00000
    364       1.8149      1.00000
    365       1.8150      1.00000
    366       1.8264      1.00000
    367       1.8264      1.00000
    368       1.8276      1.00000
    369       1.8276      1.00000
    370       1.8394      1.00000
    371       1.8762      1.00000
    372       1.8868      1.00000
    373       1.9032      1.00000
    374       1.9034      1.00000
    375       1.9178      1.00000
    376       1.9179      1.00000
    377       1.9634      1.00000
    378       1.9635      1.00000
    379       1.9899      1.00000
    380       1.9901      1.00000
    381       1.9988      1.00000
    382       1.9991      1.00000
    383       1.9994      1.00000
    384       1.9995      1.00000
    385       2.0713      1.00000
    386       2.0715      1.00000
    387       2.0813      1.00000
    388       2.0818      1.00000
    389       2.0819      1.00000
    390       2.0820      1.00000
    391       2.0941      1.00000
    392       2.0943      1.00000
    393       2.1159      1.00000
    394       2.1160      1.00000
    395       2.1161      1.00000
    396       2.1162      1.00000
    397       2.1954      1.00000
    398       2.1956      1.00000
    399       2.2887      1.00000
    400       2.2889      1.00000
    401       2.4163      1.00000
    402       2.4164      1.00000
    403       2.4399      1.00000
    404       2.4408      1.00000
    405       2.4410      1.00000
    406       2.4413      1.00000
    407       2.4999      1.00000
    408       2.5163      1.00000
    409       2.5164      1.00000
    410       2.5165      1.00000
    411       2.5166      1.00000
    412       2.5594      1.00000
    413       2.5596      1.00000
    414       2.5654      1.00000
    415       2.7186      1.00000
    416       2.7189      1.00000
    417       2.7189      1.00000
    418       2.7191      1.00000
    419       2.7330      1.00000
    420       2.7332      1.00000
    421       2.8002      1.00000
    422       2.8005      1.00000
    423       3.0024      1.00000
    424       3.0026      1.00000
    425       3.0064      1.00000
    426       3.0065      1.00000
    427       3.1699      1.00000
    428       3.2187      1.00000
    429       3.2191      1.00000
    430       3.2219      1.00000
    431       3.2221      1.00000
    432       3.3599      1.00000
    433       3.3600      1.00000
    434       3.3603      1.00000
    435       3.3603      1.00000
    436       3.3927      1.00000
    437       3.4015      1.00000
    438       3.5020      1.00000
    439       3.5022      1.00000
    440       3.5878      1.00000
    441       3.5880      1.00000
    442       3.8160      1.00000
    443       3.8161      1.00000
    444       3.8302      1.00000
    445       3.8304      1.00000
    446       4.0031      1.00000
    447       4.0032      1.00000
    448       4.0033      1.00000
    449       4.0039      1.00000
    450       4.0319      1.00000
    451       4.0320      1.00000
    452       4.0322      1.00000
    453       4.0332      1.00000
    454       4.1067      1.00000
    455       4.1167      1.00000
    456       4.1220      1.00000
    457       4.1601      1.00000
    458       4.1602      1.00000
    459       4.2590      1.00000
    460       4.2590      1.00000
    461       4.2770      1.00000
    462       4.2772      1.00000
    463       4.3302      1.00000
    464       4.3304      1.00000
    465       4.3576      1.00000
    466       4.3587      1.00000
    467       4.3588      1.00000
    468       4.3589      1.00000
    469       4.4116      1.00000
    470       4.4118      1.00000
    471       4.4344      1.00000
    472       4.4351      1.00000
    473       4.5234      1.00000
    474       4.5235      1.00000
    475       4.5235      1.00000
    476       4.5238      1.00000
    477       4.5509      1.00000
    478       4.5510      1.00000
    479       4.8115      1.00000
    480       4.8117      1.00000
    481       4.8119      1.00000
    482       4.8122      1.00000
    483       4.8747      1.00000
    484       4.8748      1.00000
    485       4.8749      1.00000
    486       4.8752      1.00000
    487       7.3645      0.00000
    488       8.4299      0.00000
    489       8.6650      0.00000
    490       8.6652      0.00000
    491       8.8415      0.00000
    492       8.8416      0.00000
    493       8.8418      0.00000
    494       8.8419      0.00000
    495       8.9861      0.00000
    496       8.9864      0.00000
    497       9.3102      0.00000
    498       9.3109      0.00000
    499       9.3111      0.00000
    500       9.3112      0.00000
    501       9.3212      0.00000
    502       9.3214      0.00000
    503       9.4444      0.00000
    504       9.4446      0.00000
    505       9.5148      0.00000
    506       9.5156      0.00000
    507       9.5158      0.00000
    508       9.5159      0.00000
    509       9.8742      0.00000
    510       9.8797      0.00000
    511       9.9192      0.00000
    512       9.9195      0.00000
    513       9.9198      0.00000
    514       9.9208      0.00000
    515       9.9668      0.00000
    516       9.9672      0.00000
    517      10.0693      0.00000
    518      10.0694      0.00000
    519      10.4882      0.00000
    520      10.5027      0.00000
    521      10.5029      0.00000
    522      10.5198      0.00000
    523      10.5204      0.00000
    524      10.8013      0.00000
    525      10.8014      0.00000
    526      10.8015      0.00000
    527      10.8024      0.00000
    528      10.8755      0.00000
[...]
   -.222E+01 0.674E+01 -.125E+03   0.229E+01 -.703E+01 0.129E+03   -.703E-01 0.284E+00 -.458E+01   0.493E-04 -.243E-03 0.301E-02
   -.228E+01 0.673E+01 -.124E+03   0.236E+01 -.702E+01 0.129E+03   -.768E-01 0.286E+00 -.455E+01   -.430E-03 0.876E-04 0.830E-03
   -.228E+01 0.672E+01 -.124E+03   0.236E+01 -.700E+01 0.129E+03   -.778E-01 0.285E+00 -.455E+01   -.575E-03 0.191E-03 0.781E-03
   -.222E+01 0.649E+01 -.125E+03   0.229E+01 -.675E+01 0.129E+03   -.700E-01 0.263E+00 -.457E+01   -.300E-03 0.294E-02 0.319E-02
   -.229E+01 0.671E+01 -.124E+03   0.237E+01 -.700E+01 0.129E+03   -.776E-01 0.285E+00 -.455E+01   -.371E-03 0.277E-03 0.122E-02
   -.227E+01 0.673E+01 -.124E+03   0.235E+01 -.701E+01 0.129E+03   -.770E-01 0.286E+00 -.455E+01   -.465E-03 0.185E-03 0.977E-03
   -.227E+01 0.671E+01 -.124E+03   0.235E+01 -.700E+01 0.129E+03   -.766E-01 0.285E+00 -.454E+01   0.322E-03 -.412E-03 0.120E-02
   -.228E+01 0.672E+01 -.124E+03   0.235E+01 -.700E+01 0.129E+03   -.767E-01 0.285E+00 -.454E+01   -.633E-03 -.304E-03 0.118E-02
   -.227E+01 0.672E+01 -.124E+03   0.235E+01 -.700E+01 0.129E+03   -.768E-01 0.286E+00 -.454E+01   -.428E-03 -.385E-03 0.127E-02
   0.482E+01 -.113E+02 -.318E+02   -.491E+01 0.114E+02 0.323E+02   0.899E-01 -.134E+00 -.498E+00   -.861E-03 -.663E-04 0.951E-04
   0.451E+01 -.113E+02 -.318E+02   -.459E+01 0.114E+02 0.323E+02   0.756E-01 -.134E+00 -.495E+00   0.139E-02 -.194E-03 -.483E-03
   0.467E+01 -.113E+02 -.319E+02   -.475E+01 0.114E+02 0.324E+02   0.831E-01 -.135E+00 -.499E+00   -.301E-03 0.209E-03 0.523E-03
   0.469E+01 -.113E+02 -.319E+02   -.477E+01 0.114E+02 0.324E+02   0.837E-01 -.135E+00 -.499E+00   0.258E-04 0.884E-04 0.687E-03
   0.466E+01 -.113E+02 -.319E+02   -.475E+01 0.115E+02 0.324E+02   0.830E-01 -.135E+00 -.499E+00   0.147E-03 0.281E-03 0.787E-03
   0.468E+01 -.113E+02 -.319E+02   -.476E+01 0.114E+02 0.324E+02   0.833E-01 -.135E+00 -.499E+00   -.357E-03 0.213E-06 0.493E-03
   0.468E+01 -.113E+02 -.319E+02   -.477E+01 0.114E+02 0.324E+02   0.833E-01 -.134E+00 -.499E+00   0.178E-03 -.584E-04 0.474E-03
   0.467E+01 -.113E+02 -.319E+02   -.475E+01 0.114E+02 0.324E+02   0.836E-01 -.134E+00 -.499E+00   0.243E-03 -.124E-03 0.611E-03
   0.468E+01 -.113E+02 -.319E+02   -.476E+01 0.114E+02 0.324E+02   0.833E-01 -.134E+00 -.499E+00   -.417E-03 -.309E-03 0.494E-03
   0.113E+02 -.466E+01 0.319E+02   -.114E+02 0.474E+01 -.324E+02   0.135E+00 -.837E-01 0.502E+00   0.173E-03 0.252E-03 -.778E-03
   0.113E+02 -.464E+01 0.319E+02   -.114E+02 0.473E+01 -.324E+02   0.134E+00 -.836E-01 0.501E+00   -.158E-04 0.431E-03 -.438E-03
   0.113E+02 -.464E+01 0.319E+02   -.114E+02 0.473E+01 -.324E+02   0.135E+00 -.836E-01 0.500E+00   -.209E-03 0.247E-03 -.623E-03
   0.113E+02 -.464E+01 0.319E+02   -.114E+02 0.472E+01 -.324E+02   0.135E+00 -.824E-01 0.499E+00   0.267E-03 0.110E-03 -.807E-03
   0.113E+02 -.464E+01 0.319E+02   -.114E+02 0.472E+01 -.324E+02   0.135E+00 -.825E-01 0.499E+00   0.160E-03 -.431E-04 -.706E-03
   0.113E+02 -.464E+01 0.319E+02   -.114E+02 0.472E+01 -.324E+02   0.135E+00 -.826E-01 0.500E+00   -.320E-03 -.112E-03 -.695E-03
   0.113E+02 -.463E+01 0.319E+02   -.114E+02 0.471E+01 -.324E+02   0.135E+00 -.820E-01 0.500E+00   0.322E-03 0.459E-04 -.643E-03
   0.113E+02 -.464E+01 0.319E+02   -.114E+02 0.472E+01 -.324E+02   0.134E+00 -.821E-01 0.500E+00   -.132E-03 -.186E-03 -.537E-03
   0.113E+02 -.464E+01 0.319E+02   -.114E+02 0.472E+01 -.324E+02   0.135E+00 -.823E-01 0.500E+00   -.379E-03 -.975E-04 -.693E-03
   -.242E+00 0.362E-01 0.952E-01   0.246E+00 -.407E-01 -.925E-01   -.527E-02 0.459E-02 -.357E-02   0.178E-02 0.257E-03 -.674E-03
   0.170E+00 0.379E-01 0.177E-01   -.169E+00 -.423E-01 -.137E-01   -.111E-03 0.460E-02 -.529E-02   -.755E-03 0.137E-03 -.275E-03
   -.202E-01 0.161E-01 -.481E-02   0.243E-01 -.194E-01 0.546E-02   -.370E-02 0.312E-02 -.941E-03   -.469E-03 0.174E-03 0.903E-05
   -.201E-01 0.305E-01 -.929E-02   0.230E-01 -.342E-01 0.943E-02   -.300E-02 0.375E-02 -.383E-03   0.217E-03 0.927E-04 -.221E-04
   -.772E-02 0.232E-01 -.143E-01   0.107E-01 -.262E-01 0.143E-01   -.328E-02 0.322E-02 -.275E-03   0.260E-03 -.120E-03 0.148E-04
   -.163E-01 0.157E-01 -.365E-02   0.201E-01 -.195E-01 0.359E-02   -.337E-02 0.358E-02 0.101E-04   -.404E-03 0.173E-03 -.291E-04
   -.274E-01 -.139E-01 -.212E-03   0.311E-01 0.111E-01 0.762E-04   -.363E-02 0.251E-02 0.188E-03   -.429E-04 -.198E-03 -.294E-04
   -.408E-03 -.602E-02 -.553E-02   0.304E-02 0.328E-02 0.582E-02   -.289E-02 0.265E-02 -.784E-04   0.340E-03 -.200E-03 -.206E-03
   -.162E-01 0.110E-01 -.125E-02   0.197E-01 -.144E-01 0.144E-02   -.322E-02 0.327E-02 0.288E-04   -.296E-03 -.570E-04 -.216E-03
   -.276E+01 0.422E+01 -.185E+03   0.207E+01 -.383E+01 0.183E+03   0.691E+00 -.392E+00 0.231E+01   -.101E-02 0.225E-02 -.580E-03
   -.271E+01 0.422E+01 -.185E+03   0.202E+01 -.384E+01 0.183E+03   0.688E+00 -.391E+00 0.230E+01   0.110E-03 0.244E-02 -.846E-03
   -.267E+01 0.423E+01 -.185E+03   0.199E+01 -.384E+01 0.183E+03   0.686E+00 -.392E+00 0.230E+01   0.257E-02 0.301E-02 -.127E-02
   -.273E+01 0.422E+01 -.185E+03   0.204E+01 -.383E+01 0.183E+03   0.689E+00 -.389E+00 0.230E+01   -.713E-03 -.795E-03 -.110E-02
   -.271E+01 0.423E+01 -.185E+03   0.202E+01 -.384E+01 0.183E+03   0.688E+00 -.389E+00 0.230E+01   0.724E-05 -.834E-03 -.164E-02
   -.271E+01 0.422E+01 -.185E+03   0.202E+01 -.383E+01 0.183E+03   0.687E+00 -.389E+00 0.230E+01   0.235E-02 -.970E-03 -.145E-02
   -.272E+01 0.425E+01 -.185E+03   0.204E+01 -.386E+01 0.183E+03   0.689E+00 -.389E+00 0.230E+01   -.814E-03 0.362E-03 -.991E-03
   -.271E+01 0.423E+01 -.185E+03   0.202E+01 -.384E+01 0.183E+03   0.688E+00 -.389E+00 0.230E+01   -.371E-03 -.467E-04 -.140E-02
   -.271E+01 0.425E+01 -.185E+03   0.202E+01 -.386E+01 0.183E+03   0.687E+00 -.389E+00 0.230E+01   0.244E-02 0.117E-03 -.180E-02
   -.420E+01 0.299E+01 0.185E+03   0.381E+01 -.232E+01 -.183E+03   0.393E+00 -.676E+00 -.230E+01   0.217E-03 -.431E-02 -.104E-02
   -.428E+01 0.273E+01 0.185E+03   0.390E+01 -.205E+01 -.183E+03   0.387E+00 -.681E+00 -.230E+01   0.517E-03 -.218E-02 0.103E-02
   -.421E+01 0.271E+01 0.185E+03   0.382E+01 -.203E+01 -.183E+03   0.396E+00 -.682E+00 -.230E+01   -.310E-02 -.218E-02 0.881E-03
   -.420E+01 0.240E+01 0.186E+03   0.381E+01 -.170E+01 -.183E+03   0.393E+00 -.696E+00 -.229E+01   0.202E-04 0.217E-02 -.177E-03
   -.430E+01 0.267E+01 0.185E+03   0.391E+01 -.198E+01 -.183E+03   0.388E+00 -.691E+00 -.230E+01   0.131E-02 0.970E-05 0.111E-02
   -.420E+01 0.269E+01 0.185E+03   0.381E+01 -.200E+01 -.183E+03   0.395E+00 -.690E+00 -.230E+01   -.330E-02 0.243E-03 0.111E-02
   -.424E+01 0.269E+01 0.185E+03   0.384E+01 -.200E+01 -.183E+03   0.392E+00 -.688E+00 -.230E+01   0.194E-03 0.939E-03 0.142E-02
   -.425E+01 0.270E+01 0.185E+03   0.385E+01 -.201E+01 -.183E+03   0.390E+00 -.688E+00 -.230E+01   0.999E-03 0.921E-03 0.142E-02
   -.423E+01 0.270E+01 0.185E+03   0.384E+01 -.201E+01 -.183E+03   0.393E+00 -.688E+00 -.230E+01   -.297E-02 0.680E-03 0.950E-03
   0.365E+01 0.494E+01 -.202E+03   -.373E+01 -.495E+01 0.204E+03   0.765E-01 0.425E-02 -.199E+01   0.125E-02 0.117E-02 0.155E-02
   0.385E+01 0.509E+01 -.202E+03   -.394E+01 -.510E+01 0.204E+03   0.821E-01 0.948E-02 -.199E+01   0.170E-02 0.161E-03 0.196E-02
   0.377E+01 0.507E+01 -.202E+03   -.384E+01 -.508E+01 0.203E+03   0.808E-01 0.114E-01 -.198E+01   -.276E-02 -.510E-05 0.130E-02
   0.379E+01 0.514E+01 -.202E+03   -.388E+01 -.516E+01 0.204E+03   0.859E-01 0.179E-01 -.199E+01   0.106E-02 0.306E-02 0.213E-02
   0.371E+01 0.499E+01 -.202E+03   -.378E+01 -.500E+01 0.204E+03   0.725E-01 0.123E-01 -.199E+01   0.226E-02 0.456E-02 0.287E-02
   0.377E+01 0.507E+01 -.202E+03   -.384E+01 -.508E+01 0.203E+03   0.809E-01 0.124E-01 -.198E+01   -.299E-02 0.308E-02 0.990E-03
   0.378E+01 0.505E+01 -.202E+03   -.386E+01 -.507E+01 0.203E+03   0.806E-01 0.131E-01 -.198E+01   0.282E-03 -.209E-02 0.152E-02
   0.378E+01 0.505E+01 -.202E+03   -.386E+01 -.507E+01 0.203E+03   0.795E-01 0.133E-01 -.198E+01   0.231E-02 -.237E-02 0.126E-02
   0.378E+01 0.506E+01 -.202E+03   -.386E+01 -.508E+01 0.203E+03   0.814E-01 0.135E-01 -.198E+01   -.288E-02 -.209E-02 0.117E-02
   -.504E+01 -.378E+01 0.202E+03   0.505E+01 0.386E+01 -.204E+03   -.108E-01 -.818E-01 0.199E+01   0.175E-02 0.240E-02 -.215E-02
   -.502E+01 -.379E+01 0.201E+03   0.502E+01 0.387E+01 -.203E+03   -.480E-02 -.822E-01 0.199E+01   -.258E-02 0.345E-02 -.114E-02
   -.510E+01 -.380E+01 0.202E+03   0.512E+01 0.388E+01 -.204E+03   -.228E-01 -.822E-01 0.199E+01   -.770E-03 0.257E-02 -.212E-03
   -.505E+01 -.376E+01 0.202E+03   0.506E+01 0.383E+01 -.203E+03   -.128E-01 -.778E-01 0.198E+01   0.192E-02 -.136E-02 -.155E-02
   -.504E+01 -.379E+01 0.201E+03   0.506E+01 0.387E+01 -.203E+03   -.114E-01 -.785E-01 0.198E+01   -.284E-02 -.177E-02 -.191E-02
   -.507E+01 -.378E+01 0.202E+03   0.508E+01 0.386E+01 -.203E+03   -.121E-01 -.783E-01 0.198E+01   -.607E-03 -.109E-02 -.158E-02
   -.506E+01 -.385E+01 0.202E+03   0.507E+01 0.393E+01 -.204E+03   -.129E-01 -.821E-01 0.198E+01   0.189E-02 -.499E-03 -.777E-03
   -.504E+01 -.381E+01 0.202E+03   0.505E+01 0.389E+01 -.203E+03   -.110E-01 -.814E-01 0.198E+01   -.293E-02 -.723E-03 -.132E-02
   -.507E+01 -.381E+01 0.202E+03   0.508E+01 0.389E+01 -.203E+03   -.123E-01 -.816E-01 0.198E+01   -.746E-03 -.350E-03 -.114E-02
 -----------------------------------------------------------------------------------------------
   -.944E+01 0.945E+01 0.150E-01   0.995E-13 0.150E-12 -.597E-12   0.945E+01 -.946E+01 -.164E-01   -.876E-02 0.142E-01 0.452E-03
 
 
 POSITION                                       TOTAL-FORCE (eV/Angst)
 -----------------------------------------------------------------------------------
      0.69622      1.16869      8.49399        -0.004421     -0.009882      0.009039
      4.62006      1.16961      8.52669         0.000023      0.000454      0.001303
      8.54582      1.17244      8.54977         0.000342      0.000470      0.001390
      0.68421      5.09252      8.52669         0.000003     -0.000273      0.000047
      4.60997      5.09535      8.54977         0.000075     -0.000544      0.000017
      8.53573      5.09818      8.57285        -0.000092     -0.000594      0.000021
      0.67412      9.01827      8.54977         0.000009      0.000675      0.000184
      4.59988      9.02110      8.57285         0.000014      0.000413      0.000157
      8.52563      9.02393      8.59592        -0.000048      0.000452      0.000161
      0.73117      1.20377      1.72829        -0.000325      0.000824     -0.000795
      4.65693      1.20660      1.75137         0.000484      0.000596     -0.000377
      8.58269      1.20942      1.77444        -0.000510      0.000252     -0.000169
      0.72108      5.12951      1.75137        -0.000368     -0.000758     -0.000737
      4.64684      5.13234      1.77444         0.000457     -0.000543     -0.000313
      8.57259      5.13517      1.79752        -0.000441     -0.000156     -0.000150
      0.71099      9.05525      1.77444        -0.000382     -0.000092     -0.000187
      4.63674      9.05808      1.79752         0.000546     -0.000086      0.000025
      8.56250      9.06091      1.82060        -0.000477     -0.000106     -0.000121
      2.69694      1.20483      2.03281        -0.000109     -0.001282      0.001412
      6.62270      1.20766      2.05588         0.000065     -0.000780      0.000570
     10.54845      1.21049      2.07896        -0.000708     -0.001057      0.000985
      2.68685      5.13057      2.05588        -0.000114      0.001019      0.000992
      6.61260      5.13340      2.07896         0.000084      0.000524      0.000641
     10.53836      5.13623      2.10204        -0.000749      0.000836      0.000832
      2.67675      9.05632      2.07896        -0.000188      0.000051      0.000202
      6.60251      9.05915      2.10204        -0.000145      0.000122      0.000161
     10.52827      9.06198      2.12512        -0.000332      0.000086      0.000130
      0.69972     -0.79898      8.19910         0.001256      0.000701     -0.004911
      4.62547     -0.79615      8.22217         0.000063      0.000472     -0.000917
      8.55123     -0.79332      8.24525        -0.000311      0.000227     -0.000998
      0.68962      3.12676      8.22217         0.001290      0.005080     -0.004581
      4.61538      3.12959      8.24525        -0.000315      0.000081     -0.000787
      8.54114      3.13242      8.26833         0.000041      0.000315     -0.000870
      0.67953      7.05251      8.24525         0.000144      0.000175     -0.000169
      4.60529      7.05534      8.26833         0.000093      0.000232     -0.000121
      8.53104      7.05817      8.29141         0.000063      0.000242     -0.000157
     -1.24734      1.15770      6.42338         0.001560      0.000433      0.000531
      2.67842      1.16053      6.44646        -0.001635      0.000455      0.001536
      6.60417      1.16336      6.46954        -0.000113      0.000019     -0.000204
     -1.25744      5.08344      6.44646         0.000183     -0.000237      0.000047
      2.66832      5.08627      6.46954        -0.000141     -0.000297      0.000084
      6.59408      5.08910      6.49262        -0.000021      0.000040     -0.000062
     -1.26753      9.00919      6.46954        -0.000040      0.000212     -0.000259
      2.65823      9.01202      6.49262         0.000081      0.000277     -0.000234
      6.58398      9.01484      6.51569        -0.000033      0.000216     -0.000148
      0.73386      3.14543      3.80852         0.000028     -0.000341      0.001626
      4.65962      3.14826      3.83160        -0.000256     -0.000355      0.001149
      8.58538      3.15109      3.85467         0.000190     -0.000225      0.000831
      0.72377      7.07118      3.83160        -0.000004      0.000173      0.000364
      4.64953      7.07401      3.85467         0.000040      0.000174      0.000309
      8.57528      7.07684      3.87775         0.000006      0.000163      0.000314
      0.71368     10.99692      3.85467         0.000060      0.000332      0.000827
      4.63943     10.99975      3.87775        -0.000335      0.000371      0.000797
      8.56519     11.00258      3.90083         0.000249      0.000263      0.000645
      0.73979      3.17832      0.02308         0.000667      0.000347     -0.001478
      4.66555      3.18115      0.04616        -0.000167      0.000338     -0.001569
      8.59130      3.18398      0.06923        -0.000157     -0.000017     -0.000282
      0.72970      7.10407      0.04616         0.000140      0.000178     -0.000254
      4.65545      7.10690      0.06923        -0.000076      0.000035     -0.000283
      8.58121      7.10973      0.09231        -0.000007      0.000037     -0.000068
      0.71960     11.02981      0.06923        -0.000019     -0.000432      0.000031
      4.64536     11.03264      0.09231         0.000079     -0.000284      0.000014
      8.57112     11.03547      0.11539        -0.000012     -0.000109      0.000005
      2.61849      1.23237      4.04033        -0.000263      0.000260     -0.002578
      6.54425      1.23520      4.06340         0.000144      0.000136     -0.000426
     10.47001      1.23803      4.08648         0.000243      0.000234     -0.001768
      2.60840      5.15812      4.06340         0.000091     -0.000110     -0.000724
      6.53415      5.16095      4.08648         0.000138     -0.000074     -0.000277
     10.45991      5.16378      4.10956         0.000062     -0.000109     -0.000590
      2.59830      9.08386      4.08648         0.000084     -0.000126     -0.000103
      6.52406      9.08669      4.10956         0.000125     -0.000161      0.000048
     10.44982      9.08952      4.13264         0.000033     -0.000127     -0.000065
      0.67192     -0.72062      6.19157        -0.000588     -0.004934     -0.001894
      4.59767     -0.71779      6.21465         0.000894     -0.001463      0.000427
      8.52343     -0.71497      6.23773        -0.000696     -0.001161      0.000455
      0.66182      3.20512      6.21465        -0.000556      0.004560     -0.004030
      4.58758      3.20795      6.23773         0.000798      0.000739     -0.000015
      8.51333      3.21078      6.26081        -0.000581      0.000468      0.000119
      0.65173      7.13086      6.23773        -0.000253     -0.000182     -0.000032
      4.57748      7.13369      6.26081         0.000121     -0.000182      0.000012
      8.50324      7.13652      6.28389        -0.000126     -0.000192      0.000030
     -1.26712     -0.80254      8.61927         0.002717      0.003352      0.003196
      2.65864     -0.79971      8.64235        -0.001119      0.000428      0.002913
      6.58440     -0.79688      8.66542         0.000323      0.000172      0.000374
     -1.27721      3.12320      8.64235        -0.001058     -0.001504      0.003490
      2.64854      3.12603      8.66542         0.002716      0.001506      0.003326
      6.57430      3.12886      8.68850         0.000350     -0.000185      0.000450
     -1.28731      7.04895      8.66542         0.000067     -0.000052      0.000326
      2.63845      7.05177      8.68850         0.000137     -0.000069      0.000216
      6.56421      7.05460      8.71158         0.000193     -0.000126      0.000131
      2.69403      3.17166      1.61263        -0.000296     -0.000131     -0.003926
      6.61978      3.17449      1.63571        -0.000842     -0.000070     -0.001796
     10.54554      3.17732      1.65879         0.001529      0.000037     -0.002183
      2.68393      7.09741      1.63571         0.000059     -0.000633     -0.000060
      6.60969      7.10024      1.65879         0.000032     -0.000440     -0.000101
     10.53545      7.10307      1.68187         0.000084     -0.000524     -0.000099
      2.67384     11.02315      1.65879         0.000075      0.000377     -0.000367
      6.59960     11.02598      1.68187        -0.000062      0.000191     -0.000354
     10.52535     11.02881      1.70494         0.000141      0.000183     -0.000309
 -----------------------------------------------------------------------------------
    total drift:                                0.000540     -0.000273     -0.000900


--------------------------------------------------------------------------------------------------------



  FREE ENERGIE OF THE ION-ELECTRON SYSTEM (eV)
  ---------------------------------------------------
  free  energy   TOTEN  =      -550.33928962 eV

  energy  without entropy=     -550.33928962  energy(sigma->0) =     -550.33928962
 


--------------------------------------------------------------------------------------------------------


    POTLOK:  cpu time    3.6915: real time    3.7173


--------------------------------------------------------------------------------------------------------


     LOOP+:  cpu time 8243.9244: real time 8316.4428
    4ORBIT:  cpu time    0.0000: real time    0.0000

 total amount of memory used by VASP MPI-rank0  1508757. kBytes
=======================================================================

   base      :      30000. kBytes
   nonl-proj :      85790. kBytes
   fftplans  :      89726. kBytes
   grid      :      70158. kBytes
   one-center:        528. kBytes
   wavefun   :    1232555. kBytes
 
  
  
 General timing and accounting informations for this job:
 ========================================================
  
                  Total CPU time used (sec):     8369.105
                            User time (sec):     8280.539
                          System time (sec):       88.566
                         Elapsed time (sec):     8444.839
  
                   Maximum memory used (kb):     1703348.
                   Average memory used (kb):           0.
  
                          Minor page faults:      1135374
                          Major page faults:           10
                 Voluntary context switches:        80235
