 160 160   0   0
  0.1218736E+02  0.1542482E-08  0.1121024E-08  0.1127703E-08  0.5000000E-15
  1.000000000000000E-004
  CAR 
 unknown system                          
     16.86763263    -54.74675905  301      4.96174001      1.00000000
    -54.747  0.0000E+00  0.0000E+00  0.0000E+00  0.0000E+00
    -54.508  0.0000E+00  0.0000E+00  0.0000E+00  0.0000E+00
    -54.269  0.0000E+00  0.0000E+00  0.0000E+00  0.0000E+00
    -54.031  0.0000E+00  0.0000E+00  0.0000E+00  0.0000E+00
    -53.792  0.0000E+00  0.0000E+00  0.0000E+00  0.0000E+00
    -53.553  0.0000E+00  0.0000E+00  0.0000E+00  0.0000E+00
    -53.314  0.0000E+00  0.0000E+00  0.0000E+00  0.0000E+00
    -53.076  0.0000E+00  0.0000E+00  0.0000E+00  0.0000E+00
    -52.837  0.0000E+00  0.0000E+00  0.0000E+00  0.0000E+00
    -52.598  0.0000E+00  0.0000E+00  0.0000E+00  0.0000E+00
    -52.360  0.0000E+00  0.0000E+00  0.0000E+00  0.0000E+00
    -52.121  0.0000E+00  0.0000E+00  0.0000E+00  0.0000E+00
    -51.882  0.0000E+00  0.0000E+00  0.0000E+00  0.0000E+00
    -51.643  0.5799E-03  0.0000E+00  0.1384E-03  0.0000E+00
    -51.405  0.1326E+03  0.0000E+00  0.3165E+02  0.0000E+00
    -51.166  0.1451E+01  0.0000E+00  0.3200E+02  0.0000E+00
    -50.927  0.0000E+00  0.0000E+00  0.3200E+02  0.0000E+00
    -50.689  0.0000E+00  0.0000E+00  0.3200E+02  0.0000E+00
    -50.450  0.0000E+00  0.0000E+00  0.3200E+02  0.0000E+00
    -50.211  0.6768E-01  0.0000E+00  0.3202E+02  0.0000E+00
    -49.972  0.2657E+03  0.0000E+00  0.9543E+02  0.0000E+00
    -49.734  0.2385E+01  0.0000E+00  0.9600E+02  0.0000E+00
    -49.495  0.0000E+00  0.0000E+00  0.9600E+02  0.0000E+00
    -49.256  0.0000E+00  0.0000E+00  0.9600E+02  0.0000E+00
    -49.018  0.0000E+00  0.0000E+00  0.9600E+02  0.0000E+00
    -48.779  0.0000E+00  0.0000E+00  0.9600E+02  0.0000E+00
    -48.540  0.0000E+00  0.0000E+00  0.9600E+02  0.0000E+00
    -48.301  0.0000E+00  0.0000E+00  0.9600E+02  0.0000E+00
    -48.063  0.0000E+00  0.0000E+00  0.9600E+02  0.0000E+00
    -47.824  0.0000E+00  0.0000E+00  0.9600E+02  0.0000E+00
    -47.585  0.0000E+00  0.0000E+00  0.9600E+02  0.0000E+00
    -47.347  0.0000E+00  0.0000E+00  0.9600E+02  0.0000E+00
    -47.108  0.0000E+00  0.0000E+00  0.9600E+02  0.0000E+00
    -46.869  0.0000E+00  0.2185E-01  0.9600E+02  0.5215E-02
    -46.630  0.0000E+00  0.1339E+03  0.9600E+02  0.3197E+02
    -46.392  0.0000E+00  0.5429E+02  0.9600E+02  0.4493E+02
    -46.153  0.0000E+00  0.2139E+03  0.9600E+02  0.9600E+02
    -45.914  0.0000E+00  0.0000E+00  0.9600E+02  0.9600E+02
    -45.676  0.0000E+00  0.0000E+00  0.9600E+02  0.9600E+02
    -45.437  0.0000E+00  0.0000E+00  0.9600E+02  0.9600E+02
    -45.198  0.0000E+00  0.0000E+00  0.9600E+02  0.9600E+02
    -44.959  0.0000E+00  0.0000E+00  0.9600E+02  0.9600E+02
    -44.721  0.0000E+00  0.0000E+00  0.9600E+02  0.9600E+02
    -44.482  0.0000E+00  0.0000E+00  0.9600E+02  0.9600E+02
    -44.243  0.0000E+00  0.0000E+00  0.9600E+02  0.9600E+02
    -44.005  0.0000E+00  0.0000E+00  0.9600E+02  0.9600E+02
    -43.766  0.0000E+00  0.0000E+00  0.9600E+02  0.9600E+02
    -43.527  0.0000E+00  0.0000E+00  0.9600E+02  0.9600E+02
    -43.288  0.0000E+00  0.0000E+00  0.9600E+02  0.9600E+02
    -43.050  0.0000E+00  0.0000E+00  0.9600E+02  0.9600E+02
    -42.811  0.0000E+00  0.0000E+00  0.9600E+02  0.9600E+02
    -42.572  0.0000E+00  0.0000E+00  0.9600E+02  0.9600E+02
    -42.334  0.0000E+00  0.0000E+00  0.9600E+02  0.9600E+02
    -42.095  0.0000E+00  0.0000E+00  0.9600E+02  0.9600E+02
    -41.856  0.0000E+00  0.0000E+00  0.9600E+02  0.9600E+02
    -41.617  0.0000E+00  0.0000E+00  0.9600E+02  0.9600E+02
    -41.379  0.0000E+00  0.0000E+00  0.9600E+02  0.9600E+02
    -41.140  0.0000E+00  0.0000E+00  0.9600E+02  0.9600E+02
    -40.901  0.0000E+00  0.0000E+00  0.9600E+02  0.9600E+02
    -40.663  0.0000E+00  0.0000E+00  0.9600E+02  0.9600E+02
    -40.424  0.7117E+00  0.6321E+00  0.9617E+02  0.9615E+02
    -40.185  0.2441E+03  0.2457E+03  0.1544E+03  0.1548E+03
    -39.946  0.2332E+02  0.2177E+02  0.1600E+03  0.1600E+03
    -39.708  0.0000E+00  0.0000E+00  0.1600E+03  0.1600E+03
    -39.469  0.0000E+00  0.0000E+00  0.1600E+03  0.1600E+03
    -39.230  0.0000E+00  0.0000E+00  0.1600E+03  0.1600E+03
    -38.992  0.0000E+00  0.0000E+00  0.1600E+03  0.1600E+03
    -38.753  0.0000E+00  0.0000E+00  0.1600E+03  0.1600E+03
    -38.514  0.0000E+00  0.0000E+00  0.1600E+03  0.1600E+03
    -38.275  0.0000E+00  0.0000E+00  0.1600E+03  0.1600E+03
    -38.037  0.0000E+00  0.0000E+00  0.1600E+03  0.1600E+03
    -37.798  0.0000E+00  0.0000E+00  0.1600E+03  0.1600E+03
    -37.559  0.0000E+00  0.0000E+00  0.1600E+03  0.1600E+03
    -37.321  0.0000E+00  0.0000E+00  0.1600E+03  0.1600E+03
    -37.082  0.0000E+00  0.0000E+00  0.1600E+03  0.1600E+03
    -36.843  0.0000E+00  0.0000E+00  0.1600E+03  0.1600E+03
    -36.604  0.0000E+00  0.0000E+00  0.1600E+03  0.1600E+03
    -36.366  0.0000E+00  0.0000E+00  0.1600E+03  0.1600E+03
    -36.127  0.0000E+00  0.0000E+00  0.1600E+03  0.1600E+03
    -35.888  0.0000E+00  0.0000E+00  0.1600E+03  0.1600E+03
    -35.650  0.0000E+00  0.0000E+00  0.1600E+03  0.1600E+03
    -35.411  0.0000E+00  0.0000E+00  0.1600E+03  0.1600E+03
    -35.172  0.0000E+00  0.0000E+00  0.1600E+03  0.1600E+03
    -34.933  0.0000E+00  0.0000E+00  0.1600E+03  0.1600E+03
    -34.695  0.0000E+00  0.0000E+00  0.1600E+03  0.1600E+03
    -34.456  0.0000E+00  0.0000E+00  0.1600E+03  0.1600E+03
    -34.217  0.0000E+00  0.0000E+00  0.1600E+03  0.1600E+03
    -33.979  0.0000E+00  0.0000E+00  0.1600E+03  0.1600E+03
    -33.740  0.0000E+00  0.0000E+00  0.1600E+03  0.1600E+03
    -33.501  0.0000E+00  0.0000E+00  0.1600E+03  0.1600E+03
    -33.262  0.0000E+00  0.0000E+00  0.1600E+03  0.1600E+03
    -33.024  0.0000E+00  0.0000E+00  0.1600E+03  0.1600E+03
    -32.785  0.0000E+00  0.0000E+00  0.1600E+03  0.1600E+03
    -32.546  0.0000E+00  0.0000E+00  0.1600E+03  0.1600E+03
    -32.308  0.0000E+00  0.0000E+00  0.1600E+03  0.1600E+03
    -32.069  0.0000E+00  0.0000E+00  0.1600E+03  0.1600E+03
    -31.830  0.0000E+00  0.0000E+00  0.1600E+03  0.1600E+03
    -31.591  0.0000E+00  0.0000E+00  0.1600E+03  0.1600E+03
    -31.353  0.0000E+00  0.0000E+00  0.1600E+03  0.1600E+03
    -31.114  0.0000E+00  0.0000E+00  0.1600E+03  0.1600E+03
    -30.875  0.0000E+00  0.0000E+00  0.1600E+03  0.1600E+03
    -30.637  0.0000E+00  0.0000E+00  0.1600E+03  0.1600E+03
    -30.398  0.0000E+00  0.0000E+00  0.1600E+03  0.1600E+03
    -30.159  0.0000E+00  0.0000E+00  0.1600E+03  0.1600E+03
    -29.920  0.0000E+00  0.0000E+00  0.1600E+03  0.1600E+03
    -29.682  0.0000E+00  0.0000E+00  0.1600E+03  0.1600E+03
    -29.443  0.0000E+00  0.0000E+00  0.1600E+03  0.1600E+03
    -29.204  0.0000E+00  0.0000E+00  0.1600E+03  0.1600E+03
    -28.966  0.0000E+00  0.0000E+00  0.1600E+03  0.1600E+03
    -28.727  0.0000E+00  0.0000E+00  0.1600E+03  0.1600E+03
    -28.488  0.0000E+00  0.0000E+00  0.1600E+03  0.1600E+03
    -28.249  0.0000E+00  0.0000E+00  0.1600E+03  0.1600E+03
    -28.011  0.0000E+00  0.0000E+00  0.1600E+03  0.1600E+03
    -27.772  0.0000E+00  0.0000E+00  0.1600E+03  0.1600E+03
    -27.533  0.0000E+00  0.0000E+00  0.1600E+03  0.1600E+03
    -27.295  0.0000E+00  0.0000E+00  0.1600E+03  0.1600E+03
    -27.056  0.0000E+00  0.0000E+00  0.1600E+03  0.1600E+03
    -26.817  0.0000E+00  0.0000E+00  0.1600E+03  0.1600E+03
    -26.578  0.0000E+00  0.0000E+00  0.1600E+03  0.1600E+03
    -26.340  0.0000E+00  0.0000E+00  0.1600E+03  0.1600E+03
    -26.101  0.0000E+00  0.0000E+00  0.1600E+03  0.1600E+03
    -25.862  0.0000E+00  0.0000E+00  0.1600E+03  0.1600E+03
    -25.624  0.0000E+00  0.0000E+00  0.1600E+03  0.1600E+03
    -25.385  0.0000E+00  0.0000E+00  0.1600E+03  0.1600E+03
    -25.146  0.0000E+00  0.0000E+00  0.1600E+03  0.1600E+03
    -24.907  0.0000E+00  0.0000E+00  0.1600E+03  0.1600E+03
    -24.669  0.0000E+00  0.0000E+00  0.1600E+03  0.1600E+03
    -24.430  0.0000E+00  0.0000E+00  0.1600E+03  0.1600E+03
    -24.191  0.0000E+00  0.0000E+00  0.1600E+03  0.1600E+03
    -23.953  0.0000E+00  0.0000E+00  0.1600E+03  0.1600E+03
    -23.714  0.0000E+00  0.0000E+00  0.1600E+03  0.1600E+03
    -23.475  0.0000E+00  0.0000E+00  0.1600E+03  0.1600E+03
    -23.236  0.0000E+00  0.0000E+00  0.1600E+03  0.1600E+03
    -22.998  0.0000E+00  0.0000E+00  0.1600E+03  0.1600E+03
    -22.759  0.0000E+00  0.0000E+00  0.1600E+03  0.1600E+03
    -22.520  0.0000E+00  0.0000E+00  0.1600E+03  0.1600E+03
    -22.282  0.0000E+00  0.0000E+00  0.1600E+03  0.1600E+03
    -22.043  0.0000E+00  0.0000E+00  0.1600E+03  0.1600E+03
    -21.804  0.0000E+00  0.0000E+00  0.1600E+03  0.1600E+03
    -21.565  0.0000E+00  0.0000E+00  0.1600E+03  0.1600E+03
    -21.327  0.0000E+00  0.0000E+00  0.1600E+03  0.1600E+03
    -21.088  0.0000E+00  0.0000E+00  0.1600E+03  0.1600E+03
    -20.849  0.0000E+00  0.0000E+00  0.1600E+03  0.1600E+03
    -20.611  0.0000E+00  0.0000E+00  0.1600E+03  0.1600E+03
    -20.372  0.0000E+00  0.0000E+00  0.1600E+03  0.1600E+03
    -20.133  0.0000E+00  0.0000E+00  0.1600E+03  0.1600E+03
    -19.894  0.0000E+00  0.0000E+00  0.1600E+03  0.1600E+03
    -19.656  0.0000E+00  0.0000E+00  0.1600E+03  0.1600E+03
    -19.417  0.0000E+00  0.0000E+00  0.1600E+03  0.1600E+03
    -19.178  0.0000E+00  0.0000E+00  0.1600E+03  0.1600E+03
    -18.940  0.0000E+00  0.0000E+00  0.1600E+03  0.1600E+03
    -18.701  0.0000E+00  0.0000E+00  0.1600E+03  0.1600E+03
    -18.462  0.0000E+00  0.0000E+00  0.1600E+03  0.1600E+03
    -18.223  0.0000E+00  0.0000E+00  0.1600E+03  0.1600E+03
    -17.985  0.0000E+00  0.0000E+00  0.1600E+03  0.1600E+03
    -17.746  0.0000E+00  0.0000E+00  0.1600E+03  0.1600E+03
    -17.507  0.0000E+00  0.0000E+00  0.1600E+03  0.1600E+03
    -17.269  0.0000E+00  0.0000E+00  0.1600E+03  0.1600E+03
    -17.030  0.0000E+00  0.0000E+00  0.1600E+03  0.1600E+03
    -16.791  0.0000E+00  0.0000E+00  0.1600E+03  0.1600E+03
    -16.552  0.0000E+00  0.0000E+00  0.1600E+03  0.1600E+03
    -16.314  0.0000E+00  0.0000E+00  0.1600E+03  0.1600E+03
    -16.075  0.0000E+00  0.0000E+00  0.1600E+03  0.1600E+03
    -15.836  0.0000E+00  0.0000E+00  0.1600E+03  0.1600E+03
    -15.598  0.0000E+00  0.0000E+00  0.1600E+03  0.1600E+03
    -15.359  0.0000E+00  0.0000E+00  0.1600E+03  0.1600E+03
    -15.120  0.0000E+00  0.0000E+00  0.1600E+03  0.1600E+03
    -14.881  0.0000E+00  0.0000E+00  0.1600E+03  0.1600E+03
    -14.643  0.0000E+00  0.0000E+00  0.1600E+03  0.1600E+03
    -14.404  0.0000E+00  0.0000E+00  0.1600E+03  0.1600E+03
    -14.165  0.0000E+00  0.0000E+00  0.1600E+03  0.1600E+03
    -13.927  0.0000E+00  0.0000E+00  0.1600E+03  0.1600E+03
    -13.688  0.4096E-05  0.0000E+00  0.1600E+03  0.1600E+03
    -13.449  0.3582E+02  0.2364E-11  0.1686E+03  0.1600E+03
    -13.210  0.7571E+02  0.6394E+01  0.1866E+03  0.1615E+03
    -12.972  0.2252E+02  0.1091E+03  0.1920E+03  0.1876E+03
    -12.733  0.0000E+00  0.1854E+02  0.1920E+03  0.1920E+03
    -12.494  0.0000E+00  0.0000E+00  0.1920E+03  0.1920E+03
    -12.256  0.0000E+00  0.0000E+00  0.1920E+03  0.1920E+03
    -12.017  0.0000E+00  0.0000E+00  0.1920E+03  0.1920E+03
    -11.778  0.0000E+00  0.0000E+00  0.1920E+03  0.1920E+03
    -11.539  0.0000E+00  0.0000E+00  0.1920E+03  0.1920E+03
    -11.301  0.0000E+00  0.0000E+00  0.1920E+03  0.1920E+03
    -11.062  0.0000E+00  0.0000E+00  0.1920E+03  0.1920E+03
    -10.823  0.0000E+00  0.0000E+00  0.1920E+03  0.1920E+03
    -10.585  0.0000E+00  0.0000E+00  0.1920E+03  0.1920E+03
    -10.346  0.0000E+00  0.0000E+00  0.1920E+03  0.1920E+03
    -10.107  0.0000E+00  0.0000E+00  0.1920E+03  0.1920E+03
     -9.868  0.0000E+00  0.0000E+00  0.1920E+03  0.1920E+03
     -9.630  0.0000E+00  0.0000E+00  0.1920E+03  0.1920E+03
     -9.391  0.0000E+00  0.0000E+00  0.1920E+03  0.1920E+03
     -9.152  0.0000E+00  0.0000E+00  0.1920E+03  0.1920E+03
     -8.914  0.0000E+00  0.0000E+00  0.1920E+03  0.1920E+03
     -8.675  0.0000E+00  0.0000E+00  0.1920E+03  0.1920E+03
     -8.436  0.0000E+00  0.0000E+00  0.1920E+03  0.1920E+03
     -8.197  0.0000E+00  0.0000E+00  0.1920E+03  0.1920E+03
     -7.959  0.0000E+00  0.0000E+00  0.1920E+03  0.1920E+03
     -7.720  0.6689E-02  0.3230E-15  0.1920E+03  0.1920E+03
     -7.481  0.2385E+02  0.1569E+00  0.1977E+03  0.1920E+03
     -7.243  0.6260E+02  0.4259E+02  0.2126E+03  0.2022E+03
     -7.004  0.4604E+02  0.6350E+02  0.2236E+03  0.2174E+03
     -6.765  0.1549E+01  0.2704E+02  0.2240E+03  0.2238E+03
     -6.526  0.0000E+00  0.7624E+00  0.2240E+03  0.2240E+03
     -6.288  0.0000E+00  0.0000E+00  0.2240E+03  0.2240E+03
     -6.049  0.0000E+00  0.0000E+00  0.2240E+03  0.2240E+03
     -5.810  0.0000E+00  0.0000E+00  0.2240E+03  0.2240E+03
     -5.572  0.0000E+00  0.0000E+00  0.2240E+03  0.2240E+03
     -5.333  0.0000E+00  0.0000E+00  0.2240E+03  0.2240E+03
     -5.094  0.0000E+00  0.0000E+00  0.2240E+03  0.2240E+03
     -4.855  0.0000E+00  0.0000E+00  0.2240E+03  0.2240E+03
     -4.617  0.0000E+00  0.0000E+00  0.2240E+03  0.2240E+03
     -4.378  0.0000E+00  0.0000E+00  0.2240E+03  0.2240E+03
     -4.139  0.0000E+00  0.0000E+00  0.2240E+03  0.2240E+03
     -3.901  0.0000E+00  0.0000E+00  0.2240E+03  0.2240E+03
     -3.662  0.0000E+00  0.0000E+00  0.2240E+03  0.2240E+03
     -3.423  0.0000E+00  0.0000E+00  0.2240E+03  0.2240E+03
     -3.184  0.0000E+00  0.0000E+00  0.2240E+03  0.2240E+03
     -2.946  0.0000E+00  0.0000E+00  0.2240E+03  0.2240E+03
     -2.707  0.6194E-04  0.0000E+00  0.2240E+03  0.2240E+03
     -2.468  0.1629E+02  0.0000E+00  0.2279E+03  0.2240E+03
     -2.230  0.1730E+02  0.0000E+00  0.2320E+03  0.2240E+03
     -1.991  0.2226E+02  0.0000E+00  0.2373E+03  0.2240E+03
     -1.752  0.2037E+00  0.0000E+00  0.2374E+03  0.2240E+03
     -1.513  0.2214E+02  0.0000E+00  0.2427E+03  0.2240E+03
     -1.275  0.3149E+02  0.4405E-14  0.2502E+03  0.2240E+03
     -1.036  0.7727E+02  0.1182E+00  0.2686E+03  0.2240E+03
     -0.797  0.7205E+02  0.2236E+02  0.2858E+03  0.2294E+03
     -0.559  0.7059E+02  0.2726E+02  0.3027E+03  0.2359E+03
     -0.320  0.9566E+02  0.1582E+02  0.3255E+03  0.2396E+03
     -0.081  0.1026E+03  0.1403E+02  0.3500E+03  0.2430E+03
      0.158  0.5412E+02  0.2698E+02  0.3629E+03  0.2494E+03
      0.396  0.4756E+02  0.5323E+02  0.3743E+03  0.2621E+03
      0.635  0.5238E+02  0.7774E+02  0.3868E+03  0.2807E+03
      0.874  0.4324E+02  0.7184E+02  0.3971E+03  0.2979E+03
      1.112  0.6379E+02  0.7666E+02  0.4123E+03  0.3162E+03
      1.351  0.8395E+02  0.2799E+02  0.4324E+03  0.3228E+03
      1.590  0.7930E+02  0.3845E+02  0.4513E+03  0.3320E+03
      1.829  0.4094E+02  0.4994E+02  0.4611E+03  0.3439E+03
      2.067  0.4015E+02  0.4258E+02  0.4707E+03  0.3541E+03
      2.306  0.4857E+02  0.2890E+02  0.4822E+03  0.3610E+03
      2.545  0.4386E+02  0.5111E+02  0.4927E+03  0.3732E+03
      2.783  0.5574E+02  0.6867E+02  0.5060E+03  0.3896E+03
      3.022  0.5565E+02  0.8163E+02  0.5193E+03  0.4091E+03
      3.261  0.5437E+02  0.2777E+02  0.5323E+03  0.4157E+03
      3.500  0.4544E+02  0.2275E+02  0.5431E+03  0.4211E+03
      3.738  0.5661E+02  0.4835E+02  0.5566E+03  0.4327E+03
      3.977  0.3695E+02  0.5480E+02  0.5655E+03  0.4458E+03
      4.216  0.2636E+02  0.9359E+01  0.5718E+03  0.4480E+03
      4.454  0.1588E+02  0.2441E-03  0.5755E+03  0.4480E+03
      4.693  0.1891E+01  0.0000E+00  0.5760E+03  0.4480E+03
      4.932  0.5125E-04  0.0000E+00  0.5760E+03  0.4480E+03
      5.171  0.0000E+00  0.0000E+00  0.5760E+03  0.4480E+03
      5.409  0.0000E+00  0.0000E+00  0.5760E+03  0.4480E+03
      5.648  0.0000E+00  0.0000E+00  0.5760E+03  0.4480E+03
      5.887  0.0000E+00  0.0000E+00  0.5760E+03  0.4480E+03
      6.125  0.0000E+00  0.0000E+00  0.5760E+03  0.4480E+03
      6.364  0.0000E+00  0.3028E-10  0.5760E+03  0.4480E+03
      6.603  0.0000E+00  0.1867E+01  0.5760E+03  0.4484E+03
      6.842  0.3204E-14  0.5566E+02  0.5760E+03  0.4617E+03
      7.080  0.4553E-01  0.7681E+02  0.5760E+03  0.4801E+03
      7.319  0.1872E+00  0.5726E+02  0.5761E+03  0.4937E+03
      7.558  0.9892E+00  0.6940E+02  0.5763E+03  0.5103E+03
      7.796  0.1523E+01  0.6496E+02  0.5767E+03  0.5258E+03
      8.035  0.3249E+01  0.9685E+02  0.5774E+03  0.5489E+03
      8.274  0.8755E+01  0.6905E+02  0.5795E+03  0.5654E+03
      8.513  0.1110E+02  0.3465E+02  0.5822E+03  0.5737E+03
      8.751  0.2256E+02  0.1196E+02  0.5876E+03  0.5765E+03
      8.990  0.2764E+02  0.8450E+01  0.5942E+03  0.5786E+03
      9.229  0.2835E+02  0.1166E+02  0.6009E+03  0.5813E+03
      9.467  0.3260E+02  0.2129E+02  0.6087E+03  0.5864E+03
      9.706  0.2905E+02  0.2569E+02  0.6156E+03  0.5926E+03
      9.945  0.2061E+02  0.4188E+02  0.6206E+03  0.6026E+03
     10.184  0.2184E+02  0.3248E+02  0.6258E+03  0.6103E+03
     10.422  0.2610E+02  0.3414E+02  0.6320E+03  0.6185E+03
     10.661  0.4126E+02  0.3219E+02  0.6418E+03  0.6261E+03
     10.900  0.3928E+02  0.2404E+02  0.6512E+03  0.6319E+03
     11.138  0.4504E+02  0.3392E+02  0.6620E+03  0.6400E+03
     11.377  0.4004E+02  0.2245E+02  0.6715E+03  0.6453E+03
     11.616  0.3891E+02  0.3704E+02  0.6808E+03  0.6542E+03
     11.855  0.4700E+02  0.5247E+02  0.6920E+03  0.6667E+03
     12.093  0.3006E+02  0.5871E+02  0.6992E+03  0.6807E+03
     12.332  0.2899E+02  0.4441E+02  0.7061E+03  0.6913E+03
     12.571  0.3349E+02  0.3094E+02  0.7141E+03  0.6987E+03
     12.809  0.4135E+02  0.3283E+02  0.7240E+03  0.7065E+03
     13.048  0.1882E+02  0.3551E+02  0.7285E+03  0.7150E+03
     13.287  0.1444E+02  0.3567E+02  0.7319E+03  0.7235E+03
     13.526  0.2355E+00  0.2853E+02  0.7320E+03  0.7303E+03
     13.764  0.0000E+00  0.6957E+01  0.7320E+03  0.7320E+03
     14.003  0.0000E+00  0.4036E-05  0.7320E+03  0.7320E+03
     14.242  0.0000E+00  0.0000E+00  0.7320E+03  0.7320E+03
     14.480  0.0000E+00  0.0000E+00  0.7320E+03  0.7320E+03
     14.719  0.0000E+00  0.0000E+00  0.7320E+03  0.7320E+03
     14.958  0.0000E+00  0.0000E+00  0.7320E+03  0.7320E+03
     15.197  0.0000E+00  0.0000E+00  0.7320E+03  0.7320E+03
     15.435  0.0000E+00  0.0000E+00  0.7320E+03  0.7320E+03
     15.674  0.0000E+00  0.0000E+00  0.7320E+03  0.7320E+03
     15.913  0.0000E+00  0.0000E+00  0.7320E+03  0.7320E+03
     16.151  0.0000E+00  0.0000E+00  0.7320E+03  0.7320E+03
     16.390  0.0000E+00  0.0000E+00  0.7320E+03  0.7320E+03
     16.629  0.0000E+00  0.0000E+00  0.7320E+03  0.7320E+03
     16.868  0.0000E+00  0.0000E+00  0.7320E+03  0.7320E+03
