 vasp.5.4.4.18Apr17-6-g9f103f2a35 (build Oct 25 2017 14:42:18) complex          
  
 executed on             LinuxIFC date 2021.06.15  06:08:34
 running on   48 total cores
 distrk:  each k-point on   24 cores,    2 groups
 distr:  one band on NCORES_PER_BAND=   6 cores,    4 groups


--------------------------------------------------------------------------------------------------------


 INCAR:
 POTCAR:    PAW_PBE Li_sv 10Sep2004               
 POTCAR:    PAW_PBE Fe_pv 02Aug2007               
 POTCAR:    PAW_PBE S 06Sep2000                   
 POTCAR:    PAW_PBE O 08Apr2002                   

 ----------------------------------------------------------------------------- 
|                                                                             |
|           W    W    AA    RRRRR   N    N  II  N    N   GGGG   !!!           |
|           W    W   A  A   R    R  NN   N  II  NN   N  G    G  !!!           |
|           W    W  A    A  R    R  N N  N  II  N N  N  G       !!!           |
|           W WW W  AAAAAA  RRRRR   N  N N  II  N  N N  G  GGG   !            |
|           WW  WW  A    A  R   R   N   NN  II  N   NN  G    G                |
|           W    W  A    A  R    R  N    N  II  N    N   GGGG   !!!           |
|                                                                             |
|      You have enabled k-point parallelism (KPAR>1).                         |
|      This developmental code was originally  written by Paul Kent at ORNL,  |
|      and carefully double checked in Vienna.                                |
|      GW as well as linear response parallelism added by Martijn Marsman     |
|      and Georg Kresse.                                                      |
|      Carefully verify results versus KPAR=1.                                |
|      Report problems to Paul Kent and Vienna.                               |
|                                                                             |
 ----------------------------------------------------------------------------- 

 POTCAR:    PAW_PBE Li_sv 10Sep2004               
  local pseudopotential read in
  atomic valenz-charges read in
  non local Contribution for L=           0  read in
    real space projection operators read in
  non local Contribution for L=           0  read in
    real space projection operators read in
  non local Contribution for L=           1  read in
    real space projection operators read in
    PAW grid and wavefunctions read in
 
   number of l-projection  operators is LMAX  =           3
   number of lm-projection operators is LMMAX =           5
 
 POTCAR:    PAW_PBE Fe_pv 02Aug2007               
  local pseudopotential read in
  partial core-charges read in
  partial kinetic energy density read in
  atomic valenz-charges read in
  non local Contribution for L=           1  read in
    real space projection operators read in
  non local Contribution for L=           1  read in
    real space projection operators read in
  non local Contribution for L=           2  read in
    real space projection operators read in
  non local Contribution for L=           2  read in
    real space projection operators read in
  non local Contribution for L=           0  read in
    real space projection operators read in
  non local Contribution for L=           0  read in
    real space projection operators read in
    PAW grid and wavefunctions read in
 
   number of l-projection  operators is LMAX  =           6
   number of lm-projection operators is LMMAX =          18
 
 POTCAR:    PAW_PBE S 06Sep2000                   
  local pseudopotential read in
  partial core-charges read in
  partial kinetic energy density read in
  atomic valenz-charges read in
  non local Contribution for L=           0  read in
    real space projection operators read in
  non local Contribution for L=           0  read in
    real space projection operators read in
  non local Contribution for L=           1  read in
    real space projection operators read in
  non local Contribution for L=           1  read in
    real space projection operators read in
    PAW grid and wavefunctions read in
 
   number of l-projection  operators is LMAX  =           4
   number of lm-projection operators is LMMAX =           8
 
 POTCAR:    PAW_PBE O 08Apr2002                   
  local pseudopotential read in
  partial core-charges read in
  partial kinetic energy density read in
  kinetic energy density of atom read in
  atomic valenz-charges read in
  non local Contribution for L=           0  read in
    real space projection operators read in
  non local Contribution for L=           0  read in
    real space projection operators read in
  non local Contribution for L=           1  read in
    real space projection operators read in
  non local Contribution for L=           1  read in
    real space projection operators read in
    PAW grid and wavefunctions read in
 
   number of l-projection  operators is LMAX  =           4
   number of lm-projection operators is LMMAX =           8
 

 ----------------------------------------------------------------------------- 
|                                                                             |
|  ADVICE TO THIS USER RUNNING 'VASP/VAMP'   (HEAR YOUR MASTER'S VOICE ...):  |
|                                                                             |
|      You have a (more or less) 'large supercell' and for larger cells       |
|      it might be more efficient to use real space projection opertators     |
|      So try LREAL= Auto  in the INCAR   file.                               |
|      Mind:          For very  accurate calculation you might also keep the  |
|      reciprocal projection scheme          (i.e. LREAL=.FALSE.)             |
|                                                                             |
 ----------------------------------------------------------------------------- 

  PAW_PBE Li_sv 10Sep2004               :
 energy of atom  1       EATOM= -202.7858
 kinetic energy error for atom=    0.0072 (will be added to EATOM!!)
  PAW_PBE Fe_pv 02Aug2007               :
 energy of atom  2       EATOM=-2457.4239
 kinetic energy error for atom=    0.0041 (will be added to EATOM!!)
  PAW_PBE S 06Sep2000                   :
 energy of atom  3       EATOM= -276.8230
 kinetic energy error for atom=    0.0008 (will be added to EATOM!!)
  PAW_PBE O 08Apr2002                   :
 energy of atom  4       EATOM= -432.3788
 kinetic energy error for atom=    0.0129 (will be added to EATOM!!)
 
 
 POSCAR: # Compound: Li64Fe32S32O32. Old comment:
  positions in direct lattice
  No initial velocities read in
 exchange correlation table for  LEXCH =        8
   RHO(1)=    0.500       N(1)  =     2000
   RHO(2)=  100.500       N(2)  =     4000
 


--------------------------------------------------------------------------------------------------------


 ion  position               nearest neighbor table
   1  0.125  0.250  0.468- 133 1.96 149 1.96 105 2.46
   2  0.625  0.250  0.468- 134 1.96 150 1.96 106 2.46
   3  0.125  0.750  0.468- 135 1.96 151 1.96 107 2.46
   4  0.625  0.750  0.468- 136 1.96 152 1.96 108 2.46
   5  0.125  0.250  0.968- 129 1.96 145 1.96 109 2.46
   6  0.625  0.250  0.968- 130 1.96 146 1.96 110 2.46
   7  0.125  0.750  0.968- 131 1.96 147 1.96 111 2.46
   8  0.625  0.750  0.968- 132 1.96 148 1.96 112 2.46
   9  0.125  0.000  0.282- 137 1.96 153 1.96  97 2.46
  10  0.625  0.000  0.282- 138 1.96 154 1.96  98 2.46
  11  0.125  0.500  0.282- 139 1.96 155 1.96  99 2.46
  12  0.625  0.500  0.282- 140 1.96 156 1.96 100 2.46
  13  0.125  0.000  0.782- 141 1.96 157 1.96 101 2.46
  14  0.625  0.000  0.782- 142 1.96 158 1.96 102 2.46
  15  0.125  0.500  0.782- 143 1.96 159 1.96 103 2.46
  16  0.625  0.500  0.782- 144 1.96 160 1.96 104 2.46
  17  0.375  0.250  0.032- 130 1.96 145 1.96 121 2.46
  18  0.875  0.250  0.032- 129 1.96 146 1.96 122 2.46
  19  0.375  0.750  0.032- 132 1.96 147 1.96 123 2.46
  20  0.875  0.750  0.032- 131 1.96 148 1.96 124 2.46
  21  0.375  0.250  0.532- 134 1.96 149 1.96 125 2.46
  22  0.875  0.250  0.532- 133 1.96 150 1.96 126 2.46
  23  0.375  0.750  0.532- 136 1.96 151 1.96 127 2.46
  24  0.875  0.750  0.532- 135 1.96 152 1.96 128 2.46
  25  0.375  0.000  0.218- 138 1.96 153 1.96 113 2.46
  26  0.875  0.000  0.218- 137 1.96 154 1.96 114 2.46
  27  0.375  0.500  0.218- 140 1.96 155 1.96 115 2.46
  28  0.875  0.500  0.218- 139 1.96 156 1.96 116 2.46
  29  0.375  0.000  0.718- 142 1.96 157 1.96 117 2.46
  30  0.875  0.000  0.718- 141 1.96 158 1.96 118 2.46
  31  0.375  0.500  0.718- 144 1.96 159 1.96 119 2.46
  32  0.875  0.500  0.718- 143 1.96 160 1.96 120 2.46
  33  0.269  0.375  0.375- 149 2.01 155 2.01 119 2.56 121 2.56
  34  0.769  0.375  0.375- 150 2.01 156 2.01 120 2.56 122 2.56
  35  0.269  0.875  0.375- 151 2.01 153 2.01 117 2.56 123 2.56
  36  0.769  0.875  0.375- 152 2.01 154 2.01 118 2.56 124 2.56
  37  0.269  0.375  0.875- 145 2.01 159 2.01 115 2.56 125 2.56
  38  0.769  0.375  0.875- 146 2.01 160 2.01 116 2.56 126 2.56
  39  0.269  0.875  0.875- 147 2.01 157 2.01 113 2.56 127 2.56
  40  0.769  0.875  0.875- 148 2.01 158 2.01 114 2.56 128 2.56
  41  0.231  0.125  0.125- 145 2.01 153 2.01 101 2.56 105 2.56
  42  0.731  0.125  0.125- 146 2.01 154 2.01 102 2.56 106 2.56
  43  0.231  0.625  0.125- 147 2.01 155 2.01 103 2.56 107 2.56
  44  0.731  0.625  0.125- 148 2.01 156 2.01 104 2.56 108 2.56
  45  0.231  0.125  0.625- 149 2.01 157 2.01  97 2.56 109 2.56
  46  0.731  0.125  0.625- 150 2.01 158 2.01  98 2.56 110 2.56
  47  0.231  0.625  0.625- 151 2.01 159 2.01  99 2.56 111 2.56
  48  0.731  0.625  0.625- 152 2.01 160 2.01 100 2.56 112 2.56
  49  0.019  0.375  0.125- 129 2.01 139 2.01 103 2.56 105 2.56
  50  0.519  0.375  0.125- 130 2.01 140 2.01 104 2.56 106 2.56
  51  0.019  0.875  0.125- 131 2.01 137 2.01 101 2.56 107 2.56
  52  0.519  0.875  0.125- 132 2.01 138 2.01 102 2.56 108 2.56
  53  0.019  0.375  0.625- 133 2.01 143 2.01  99 2.56 109 2.56
  54  0.519  0.375  0.625- 134 2.01 144 2.01 100 2.56 110 2.56
  55  0.019  0.875  0.625- 135 2.01 141 2.01  97 2.56 111 2.56
  56  0.519  0.875  0.625- 136 2.01 142 2.01  98 2.56 112 2.56
  57  0.481  0.125  0.375- 134 2.01 138 2.01 117 2.56 121 2.56
  58  0.981  0.125  0.375- 133 2.01 137 2.01 118 2.56 122 2.56
  59  0.481  0.625  0.375- 136 2.01 140 2.01 119 2.56 123 2.56
  60  0.981  0.625  0.375- 135 2.01 139 2.01 120 2.56 124 2.56
  61  0.481  0.125  0.875- 130 2.01 142 2.01 113 2.56 125 2.56
  62  0.981  0.125  0.875- 129 2.01 141 2.01 114 2.56 126 2.56
  63  0.481  0.625  0.875- 132 2.01 144 2.01 115 2.56 127 2.56
  64  0.981  0.625  0.875- 131 2.01 143 2.01 116 2.56 128 2.56
  65  0.486  0.375  0.376- 134 1.99 140 2.01 119 2.61 121 2.62
  66  0.986  0.375  0.375- 133 2.00 139 2.00 120 2.62 122 2.62
  67  0.486  0.875  0.375- 136 2.00 138 2.00 117 2.62 123 2.62
  68  0.986  0.875  0.375- 135 2.00 137 2.00 118 2.62 124 2.62
  69  0.486  0.375  0.875- 130 2.00 144 2.00 115 2.62 125 2.62
  70  0.986  0.375  0.875- 129 2.00 143 2.00 116 2.62 126 2.62
  71  0.486  0.875  0.875- 132 2.00 142 2.00 113 2.62 127 2.62
  72  0.986  0.875  0.875- 131 2.00 141 2.00 114 2.62 128 2.62
  73  0.014  0.125  0.125- 129 2.00 137 2.00 101 2.62 105 2.62
  74  0.514  0.125  0.125- 130 2.00 138 2.00 102 2.62 106 2.62
  75  0.014  0.625  0.125- 131 2.00 139 2.00 103 2.62 107 2.62
  76  0.514  0.625  0.125- 132 2.00 140 2.00 104 2.62 108 2.62
  77  0.014  0.125  0.625- 133 2.00 141 2.00  97 2.62 109 2.62
  78  0.514  0.125  0.625- 134 2.00 142 2.00  98 2.62 110 2.62
  79  0.014  0.625  0.625- 135 2.00 143 2.00  99 2.62 111 2.62
  80  0.514  0.625  0.625- 136 2.00 144 2.00 100 2.62 112 2.62
  81  0.236  0.375  0.125- 145 2.00 155 2.00 103 2.62 105 2.62
  82  0.736  0.375  0.125- 146 2.00 156 2.00 104 2.62 106 2.62
  83  0.236  0.875  0.125- 147 2.00 153 2.00 101 2.62 107 2.62
  84  0.736  0.875  0.125- 148 2.00 154 2.00 102 2.62 108 2.62
  85  0.236  0.375  0.625- 149 2.00 159 2.00  99 2.62 109 2.62
  86  0.736  0.375  0.625- 150 2.00 160 2.00 100 2.62 110 2.62
  87  0.236  0.875  0.625- 151 2.00 157 2.00  97 2.62 111 2.62
  88  0.736  0.875  0.625- 152 2.00 158 2.00  98 2.62 112 2.62
  89  0.264  0.125  0.375- 149 2.00 153 2.00 117 2.62 121 2.62
  90  0.764  0.125  0.375- 150 2.00 154 2.00 118 2.62 122 2.62
  91  0.264  0.625  0.375- 151 2.00 155 2.00 119 2.62 123 2.62
  92  0.764  0.625  0.375- 152 2.00 156 2.00 120 2.62 124 2.62
  93  0.264  0.125  0.875- 145 2.00 157 2.00 113 2.62 125 2.62
  94  0.764  0.125  0.875- 146 2.00 158 2.00 114 2.62 126 2.62
  95  0.264  0.625  0.875- 147 2.00 159 2.00 115 2.62 127 2.62
  96  0.764  0.625  0.875- 148 2.00 160 2.00 116 2.62 128 2.62
  97  0.125  0.000  0.501-   9 2.46  45 2.56  55 2.56  77 2.62  87 2.62
  98  0.625  0.000  0.501-  10 2.46  46 2.56  56 2.56  78 2.62  88 2.62
  99  0.125  0.500  0.501-  11 2.46  47 2.56  53 2.56  79 2.62  85 2.62
 100  0.625  0.500  0.501-  12 2.46  48 2.56  54 2.56  80 2.62  86 2.62
 101  0.125  0.000  0.001-  13 2.46  41 2.56  51 2.56  73 2.62  83 2.62
 102  0.625  0.000  0.001-  14 2.46  42 2.56  52 2.56  74 2.62  84 2.62
 103  0.125  0.500  0.001-  15 2.46  43 2.56  49 2.56  75 2.62  81 2.62
 104  0.625  0.500  0.001-  16 2.46  44 2.56  50 2.56  76 2.62  82 2.62
 105  0.125  0.250  0.249-   1 2.46  41 2.56  49 2.56  73 2.62  81 2.62
 106  0.625  0.250  0.249-   2 2.46  42 2.56  50 2.56  74 2.62  82 2.62
 107  0.125  0.750  0.249-   3 2.46  43 2.56  51 2.56  75 2.62  83 2.62
 108  0.625  0.750  0.249-   4 2.46  44 2.56  52 2.56  76 2.62  84 2.62
 109  0.125  0.250  0.749-   5 2.46  45 2.56  53 2.56  77 2.62  85 2.62
 110  0.625  0.250  0.749-   6 2.46  46 2.56  54 2.56  78 2.62  86 2.62
 111  0.125  0.750  0.749-   7 2.46  47 2.56  55 2.56  79 2.62  87 2.62
 112  0.625  0.750  0.749-   8 2.46  48 2.56  56 2.56  80 2.62  88 2.62
 113  0.375  0.000  0.999-  25 2.46  39 2.56  61 2.56  71 2.62  93 2.62
 114  0.875  0.000  0.999-  26 2.46  40 2.56  62 2.56  72 2.62  94 2.62
 115  0.375  0.500  0.999-  27 2.46  37 2.56  63 2.56  69 2.62  95 2.62
 116  0.875  0.500  0.999-  28 2.46  38 2.56  64 2.56  70 2.62  96 2.62
 117  0.375  0.000  0.499-  29 2.46  35 2.56  57 2.56  67 2.62  89 2.62
 118  0.875  0.000  0.499-  30 2.46  36 2.56  58 2.56  68 2.62  90 2.62
 119  0.375  0.500  0.499-  31 2.46  33 2.56  59 2.56  65 2.61  91 2.62
 120  0.875  0.500  0.499-  32 2.46  34 2.56  60 2.56  66 2.62  92 2.62
 121  0.375  0.250  0.251-  17 2.46  33 2.56  57 2.56  89 2.62  65 2.62
 122  0.875  0.250  0.251-  18 2.46  34 2.56  58 2.56  66 2.62  90 2.62
 123  0.375  0.750  0.251-  19 2.46  35 2.56  59 2.56  67 2.62  91 2.62
 124  0.875  0.750  0.251-  20 2.46  36 2.56  60 2.56  68 2.62  92 2.62
 125  0.375  0.250  0.751-  21 2.46  37 2.56  61 2.56  69 2.62  93 2.62
 126  0.875  0.250  0.751-  22 2.46  38 2.56  62 2.56  70 2.62  94 2.62
 127  0.375  0.750  0.751-  23 2.46  39 2.56  63 2.56  71 2.62  95 2.62
 128  0.875  0.750  0.751-  24 2.46  40 2.56  64 2.56  72 2.62  96 2.62
 129  0.000  0.250  0.000-   5 1.96  18 1.96  70 2.00  73 2.00  49 2.01  62 2.01
 130  0.500  0.250  0.000-   6 1.96  17 1.96  69 2.00  74 2.00  50 2.01  61 2.01
 131  0.000  0.750  0.000-   7 1.96  20 1.96  72 2.00  75 2.00  51 2.01  64 2.01
 132  0.500  0.750  0.000-   8 1.96  19 1.96  71 2.00  76 2.00  52 2.01  63 2.01
 133  0.000  0.250  0.500-   1 1.96  22 1.96  66 2.00  77 2.00  53 2.01  58 2.01
 134  0.500  0.250  0.500-   2 1.96  21 1.96  65 1.99  78 2.00  54 2.01  57 2.01
 135  0.000  0.750  0.500-   3 1.96  24 1.96  68 2.00  79 2.00  55 2.01  60 2.01
 136  0.500  0.750  0.500-   4 1.96  23 1.96  67 2.00  80 2.00  56 2.01  59 2.01
 137  0.000  0.000  0.250-   9 1.96  26 1.96  68 2.00  73 2.00  51 2.01  58 2.01
 138  0.500  0.000  0.250-  10 1.96  25 1.96  67 2.00  74 2.00  52 2.01  57 2.01
 139  0.000  0.500  0.250-  11 1.96  28 1.96  66 2.00  75 2.00  49 2.01  60 2.01
 140  0.500  0.500  0.250-  12 1.96  27 1.96  76 2.00  65 2.01  50 2.01  59 2.01
 141  0.000  0.000  0.750-  13 1.96  30 1.96  72 2.00  77 2.00  55 2.01  62 2.01
 142  0.500  0.000  0.750-  14 1.96  29 1.96  71 2.00  78 2.00  56 2.01  61 2.01
 143  0.000  0.500  0.750-  15 1.96  32 1.96  70 2.00  79 2.00  53 2.01  64 2.01
 144  0.500  0.500  0.750-  16 1.96  31 1.96  69 2.00  80 2.00  54 2.01  63 2.01
 145  0.250  0.250  0.000-   5 1.96  17 1.96  81 2.00  93 2.00  37 2.01  41 2.01
 146  0.750  0.250  0.000-   6 1.96  18 1.96  82 2.00  94 2.00  38 2.01  42 2.01
 147  0.250  0.750  0.000-   7 1.96  19 1.96  83 2.00  95 2.00  39 2.01  43 2.01
 148  0.750  0.750  0.000-   8 1.96  20 1.96  84 2.00  96 2.00  40 2.01  44 2.01
 149  0.250  0.250  0.500-   1 1.96  21 1.96  85 2.00  89 2.00  33 2.01  45 2.01
 150  0.750  0.250  0.500-   2 1.96  22 1.96  86 2.00  90 2.00  34 2.01  46 2.01
 151  0.250  0.750  0.500-   3 1.96  23 1.96  87 2.00  91 2.00  35 2.01  47 2.01
 152  0.750  0.750  0.500-   4 1.96  24 1.96  88 2.00  92 2.00  36 2.01  48 2.01
 153  0.250  0.000  0.250-   9 1.96  25 1.96  83 2.00  89 2.00  35 2.01  41 2.01
 154  0.750  0.000  0.250-  10 1.96  26 1.96  84 2.00  90 2.00  36 2.01  42 2.01
 155  0.250  0.500  0.250-  11 1.96  27 1.96  81 2.00  91 2.00  33 2.01  43 2.01
 156  0.750  0.500  0.250-  12 1.96  28 1.96  82 2.00  92 2.00  34 2.01  44 2.01
 157  0.250  0.000  0.750-  13 1.96  29 1.96  87 2.00  93 2.00  39 2.01  45 2.01
 158  0.750  0.000  0.750-  14 1.96  30 1.96  88 2.00  94 2.00  40 2.01  46 2.01
 159  0.250  0.500  0.750-  15 1.96  31 1.96  85 2.00  95 2.00  37 2.01  47 2.01
 160  0.750  0.500  0.750-  16 1.96  32 1.96  86 2.00  96 2.00  38 2.01  48 2.01
 
  LATTYP: Found a simple orthorhombic cell.
 ALAT       =    11.2102424200
 B/A-ratio  =     1.0059574590
 C/A-ratio  =     1.3759579358
  
  Lattice vectors:
  
 A1 = (   0.0000000000,  11.2102424200,   0.0000000000)
 A2 = (   0.0000000000,   0.0000000000, -11.2770269800)
 A3 = ( -15.4248220200,   0.0000000000,   0.0000000000)


Analysis of symmetry for initial positions (statically):
=====================================================================
 Subroutine PRICEL returns:
 Original cell was already a primitive cell.
 

 Routine SETGRP: Setting up the symmetry group for a 
 simple orthorhombic supercell.


 Subroutine GETGRP returns: Found  1 space group operations
 (whereof  1 operations were pure point group operations)
 out of a pool of  8 trial point group operations.


The static configuration has the point symmetry C_1 .


Analysis of symmetry for dynamics (positions and initial velocities):
=====================================================================
 Subroutine PRICEL returns:
 Original cell was already a primitive cell.
 

 Routine SETGRP: Setting up the symmetry group for a 
 simple orthorhombic supercell.


 Subroutine GETGRP returns: Found  1 space group operations
 (whereof  1 operations were pure point group operations)
 out of a pool of  8 trial point group operations.


The dynamic configuration has the point symmetry C_1 .


Analysis of structural, dynamic, and magnetic symmetry:
=====================================================================
 Subroutine PRICEL returns:
 Original cell was already a primitive cell.
 

 Routine SETGRP: Setting up the symmetry group for a 
 simple orthorhombic supercell.


 Subroutine GETGRP returns: Found  1 space group operations
 (whereof  1 operations were pure point group operations)
 out of a pool of  8 trial point group operations.


The magnetic configuration has the point symmetry C_1 .


 Subroutine INISYM returns: Found  1 space group operations
 (whereof  1 operations are pure point group operations),
 and found     1 'primitive' translations

 
 
 KPOINTS: # No comment                            

Automatic generation of k-mesh.
Space group operators:
 irot       det(A)        alpha          n_x          n_y          n_z        tau_x        tau_y        tau_z
    1     1.000000     0.000000     1.000000     0.000000     0.000000     0.000000     0.000000     0.000000
 
 Subroutine IBZKPT returns following result:
 ===========================================
 
 Found     10 irreducible k-points:
 
 Following reciprocal coordinates:
            Coordinates               Weight
  0.000000  0.000000  0.000000      1.000000
  0.500000  0.000000  0.000000      1.000000
  0.000000  0.333333  0.000000      2.000000
  0.500000  0.333333  0.000000      2.000000
  0.000000  0.000000  0.333333      2.000000
  0.500000  0.000000  0.333333      2.000000
  0.000000  0.333333  0.333333      2.000000
  0.500000  0.333333  0.333333      2.000000
  0.000000 -0.333333  0.333333      2.000000
  0.500000 -0.333333  0.333333      2.000000
 
 Following cartesian coordinates:
            Coordinates               Weight
  0.000000  0.000000  0.000000      1.000000
  0.032415  0.000000  0.000000      1.000000
  0.000000  0.029735  0.000000      2.000000
  0.032415  0.029735  0.000000      2.000000
  0.000000  0.000000  0.029559      2.000000
  0.032415  0.000000  0.029559      2.000000
  0.000000  0.029735  0.029559      2.000000
  0.032415  0.029735  0.029559      2.000000
  0.000000 -0.029735  0.029559      2.000000
  0.032415 -0.029735  0.029559      2.000000
 


--------------------------------------------------------------------------------------------------------




 Dimension of arrays:
   k-points           NKPTS =     10   k-points in BZ     NKDIM =     10   number of bands    NBANDS=    732
   number of dos      NEDOS =    301   number of ions     NIONS =    160
   non local maximal  LDIM  =      6   non local SUM 2l+1 LMDIM =     18
   total plane-waves  NPLWV = ******
   max r-space proj   IRMAX =      1   max aug-charges    IRDMAX= 152654
   dimension x,y,z NGX =   128 NGY =   96 NGZ =   96
   dimension x,y,z NGXF=   256 NGYF=  192 NGZF=  192
   support grid    NGXF=   512 NGYF=  384 NGZF=  384
   ions per type =              64  32  32  32
   NGX,Y,Z   is equivalent  to a cutoff of  13.80, 14.24, 14.15 a.u.
   NGXF,Y,Z  is equivalent  to a cutoff of  27.59, 28.47, 28.30 a.u.

 SYSTEM =  unknown system                          
 POSCAR =  # Compound: Li64Fe32S32O32. Old comment:

 Startparameter for this run:
   NWRITE =      1    write-flag & timer
   PREC   = accura    normal or accurate (medium, high low for compatibility)
   ISTART =      0    job   : 0-new  1-cont  2-samecut
   ICHARG =      1    charge: 1-file 2-atom 10-const
   ISPIN  =      2    spin polarized calculation?
   LNONCOLLINEAR =      F non collinear calculations
   LSORBIT =      F    spin-orbit coupling
   INIWAV =      1    electr: 0-lowe 1-rand  2-diag
   LASPH  =      T    aspherical Exc in radial PAW
   METAGGA=      F    non-selfconsistent MetaGGA calc.

 Electronic Relaxation 1
   ENCUT  =  650.0 eV  47.77 Ry    6.91 a.u.  32.07 23.30 23.44*2*pi/ulx,y,z
   ENINI  =  650.0     initial cutoff
   ENAUG  =  628.9 eV  augmentation charge cutoff
   NELM   =    200;   NELMIN=  8; NELMDL=  0     # of ELM steps 
   EDIFF  = 0.1E-05   stopping-criterion for ELM
   LREAL  =      F    real-space projection
   NLSPLINE    = F    spline interpolate recip. space projectors
   LCOMPAT=      F    compatible to vasp.4.4
   GGA_COMPAT  = T    GGA compatible to vasp.4.4-vasp.4.6
   LMAXPAW     = -100 max onsite density
   LMAXMIX     =    4 max onsite mixed and CHGCAR
   VOSKOWN=      0    Vosko Wilk Nusair interpolation
   ROPT   =    0.00000   0.00000   0.00000   0.00000
 Ionic relaxation
   EDIFFG = 0.1E-04   stopping-criterion for IOM
   NSW    =      0    number of steps for IOM
   NBLOCK =      1;   KBLOCK =      1    inner block; outer block 
   IBRION =     -1    ionic relax: 0-MD 1-quasi-New 2-CG
   NFREE  =      0    steps in history (QN), initial steepest desc. (CG)
   ISIF   =      2    stress and relaxation
   IWAVPR =     10    prediction:  0-non 1-charg 2-wave 3-comb
   ISYM   =      2    0-nonsym 1-usesym 2-fastsym
   LCORR  =      T    Harris-Foulkes like correction to forces

   POTIM  = 0.5000    time-step for ionic-motion
   TEIN   =    0.0    initial temperature
   TEBEG  =    0.0;   TEEND  =   0.0 temperature during run
   SMASS  =  -3.00    Nose mass-parameter (am)
   estimated Nose-frequenzy (Omega)   =  0.10E-29 period in steps =****** mass=  -0.544E-26a.u.
   SCALEE = 1.0000    scale energy and forces
   NPACO  =    256;   APACO  = 16.0  distance and # of slots for P.C.
   PSTRESS=    0.0 pullay stress

  Mass of Ions in am
   POMASS =   7.01 55.85 32.07 16.00
  Ionic Valenz
   ZVAL   =   3.00 14.00  6.00  6.00
  Atomic Wigner-Seitz radii
   RWIGS  =  -1.00 -1.00 -1.00 -1.00
  virtual crystal weights 
   VCA    =   1.00  1.00  1.00  1.00
   NELECT =    1024.0000    total number of electrons
   NUPDOWN=      -1.0000    fix difference up-down

 DOS related values:
   EMIN   =  10.00;   EMAX   =-10.00  energy-range for DOS
   EFERMI =   0.00
   ISMEAR =     0;   SIGMA  =   0.05  broadening in eV -4-tet -1-fermi 0-gaus

 Electronic relaxation 2 (details)
   IALGO  =     38    algorithm
   LDIAG  =      T    sub-space diagonalisation (order eigenvalues)
   LSUBROT=      F    optimize rotation matrix (better conditioning)
   TURBO    =      0    0=normal 1=particle mesh
   IRESTART =      0    0=no restart 2=restart with 2 vectors
   NREBOOT  =      0    no. of reboots
   NMIN     =      0    reboot dimension
   EREF     =   0.00    reference energy to select bands
   IMIX   =      4    mixing-type and parameters
     AMIX     =   0.40;   BMIX     =  1.00
     AMIX_MAG =   1.60;   BMIX_MAG =  1.00
     AMIN     =   0.10
     WC   =   100.;   INIMIX=   1;  MIXPRE=   1;  MAXMIX= -45

 Intra band minimization:
   WEIMIN = 0.0000     energy-eigenvalue tresh-hold
   EBREAK =  0.34E-09  absolut break condition
   DEPER  =   0.30     relativ break condition  

   TIME   =   0.40     timestep for ELM

  volume/ion in A,a.u.               =      12.19        82.24
  Fermi-wavevector in a.u.,A,eV,Ry     =   1.320783  2.495918 23.734934  1.744468
  Thomas-Fermi vector in A             =   2.450584
 
 Write flags
   LWAVE        =      F    write WAVECAR
   LDOWNSAMPLE  =      F    k-point downsampling of WAVECAR
   LCHARG       =      T    write CHGCAR
   LVTOT        =      F    write LOCPOT, total local potential
   LVHAR        =      F    write LOCPOT, Hartree potential only
   LELF         =      F    write electronic localiz. function (ELF)
   LORBIT       =      0    0 simple, 1 ext, 2 COOP (PROOUT), +10 PAW based schemes


 Dipole corrections
   LMONO  =      F    monopole corrections only (constant potential shift)
   LDIPOL =      F    correct potential (dipole corrections)
   IDIPOL =      0    1-x, 2-y, 3-z, 4-all directions 
   EPSILON=  1.0000000 bulk dielectric constant

 LDA+U is selected, type is set to LDAUTYPE =  2
   angular momentum for each species LDAUL =    -1    2   -1   -1
   U (eV)           for each species LDAUU =   0.0  4.0  0.0  0.0
   J (eV)           for each species LDAUJ =   0.0  0.0  0.0  0.0
 Exchange correlation treatment:
   GGA     =    PE    GGA type
   LEXCH   =     8    internal setting for exchange type
   VOSKOWN=      0    Vosko Wilk Nusair interpolation
   LHFCALC =     F    Hartree Fock is set to
   LHFONE  =     F    Hartree Fock one center treatment
   AEXX    =    0.0000 exact exchange contribution

 Linear response parameters
   LEPSILON=     F    determine dielectric tensor
   LRPA    =     F    only Hartree local field effects (RPA)
   LNABLA  =     F    use nabla operator in PAW spheres
   LVEL    =     F    velocity operator in full k-point grid
   LINTERFAST=   F  fast interpolation
   KINTER  =     0    interpolate to denser k-point grid
   CSHIFT  =0.1000    complex shift for real part using Kramers Kronig
   OMEGAMAX=  -1.0    maximum frequency
   DEG_THRESHOLD= 0.2000000E-02 threshold for treating states as degnerate
   RTIME   =   -0.100 relaxation time in fs
  (WPLASMAI=    0.000 imaginary part of plasma frequency in eV, 0.658/RTIME)
   DFIELD  = 0.0000000 0.0000000 0.0000000 field for delta impulse in time
 
 Orbital magnetization related:
   ORBITALMAG=     F  switch on orbital magnetization
   LCHIMAG   =     F  perturbation theory with respect to B field
   DQ        =  0.001000  dq finite difference perturbation B field
   LLRAUG    =     F  two centre corrections for induced B field



--------------------------------------------------------------------------------------------------------


 Static calculation
 charge density and potential will be updated during run
 spin polarized calculation
 Variant of blocked Davidson
 Davidson routine will perform the subspace rotation
 perform sub-space diagonalisation
    after iterative eigenvector-optimisation
 modified Broyden-mixing scheme, WC =      100.0
 initial mixing is a Kerker type mixing with AMIX =  0.4000 and BMIX =      1.0000
 Hartree-type preconditioning will be used
 using additional bands          220
 reciprocal scheme for non local part
 use partial core corrections
 calculate Harris-corrections to forces 
   (improved forces if not selfconsistent)
 use gradient corrections 
 use of overlap-Matrix (Vanderbilt PP)
 Gauss-broadening in eV      SIGMA  =   0.05


--------------------------------------------------------------------------------------------------------


  energy-cutoff  :      650.00
  volume of cell :     1949.98
      direct lattice vectors                 reciprocal lattice vectors
    15.424822020  0.000000000  0.000000000     0.064830570  0.000000000  0.000000000
     0.000000000 11.210242420  0.000000000     0.000000000  0.089204137  0.000000000
     0.000000000  0.000000000 11.277026980     0.000000000  0.000000000  0.088675854

  length of vectors
    15.424822020 11.210242420 11.277026980     0.064830570  0.089204137  0.088675854


 
 k-points in units of 2pi/SCALE and weight: # No comment                            
   0.00000000  0.00000000  0.00000000       0.056
   0.03241528  0.00000000  0.00000000       0.056
   0.00000000  0.02973471  0.00000000       0.111
   0.03241528  0.02973471  0.00000000       0.111
   0.00000000  0.00000000  0.02955862       0.111
   0.03241528  0.00000000  0.02955862       0.111
   0.00000000  0.02973471  0.02955862       0.111
   0.03241528  0.02973471  0.02955862       0.111
   0.00000000 -0.02973471  0.02955862       0.111
   0.03241528 -0.02973471  0.02955862       0.111
 
 k-points in reciprocal lattice and weights: # No comment                            
   0.00000000  0.00000000  0.00000000       0.056
   0.50000000  0.00000000  0.00000000       0.056
   0.00000000  0.33333333  0.00000000       0.111
   0.50000000  0.33333333  0.00000000       0.111
   0.00000000  0.00000000  0.33333333       0.111
   0.50000000  0.00000000  0.33333333       0.111
   0.00000000  0.33333333  0.33333333       0.111
   0.50000000  0.33333333  0.33333333       0.111
   0.00000000 -0.33333333  0.33333333       0.111
   0.50000000 -0.33333333  0.33333333       0.111
 
 position of ions in fractional coordinates (direct lattice) 
   0.12500000  0.25000000  0.46751010
   0.62500000  0.25000000  0.46751010
   0.12500000  0.75000000  0.46751010
   0.62500000  0.75000000  0.46751010
   0.12500000  0.25000000  0.96751010
   0.62500000  0.25000000  0.96751010
   0.12500000  0.75000000  0.96751010
   0.62500000  0.75000000  0.96751010
   0.12500000  0.00000000  0.28248990
   0.62500000  0.00000000  0.28248990
   0.12500000  0.50000000  0.28248990
   0.62500000  0.50000000  0.28248990
   0.12500000  0.00000000  0.78248990
   0.62500000  0.00000000  0.78248990
   0.12500000  0.50000000  0.78248990
   0.62500000  0.50000000  0.78248990
   0.37500000  0.25000000  0.03248990
   0.87500000  0.25000000  0.03248990
   0.37500000  0.75000000  0.03248990
   0.87500000  0.75000000  0.03248990
   0.37500000  0.25000000  0.53248990
   0.87500000  0.25000000  0.53248990
   0.37500000  0.75000000  0.53248990
   0.87500000  0.75000000  0.53248990
   0.37500000  0.00000000  0.21751010
   0.87500000  0.00000000  0.21751010
   0.37500000  0.50000000  0.21751010
   0.87500000  0.50000000  0.21751010
   0.37500000  0.00000000  0.71751010
   0.87500000  0.00000000  0.71751010
   0.37500000  0.50000000  0.71751010
   0.87500000  0.50000000  0.71751010
   0.26924068  0.37500000  0.37500000
   0.76924068  0.37500000  0.37500000
   0.26924068  0.87500000  0.37500000
   0.76924068  0.87500000  0.37500000
   0.26924068  0.37500000  0.87500000
   0.76924068  0.37500000  0.87500000
   0.26924068  0.87500000  0.87500000
   0.76924068  0.87500000  0.87500000
   0.23075932  0.12500000  0.12500000
   0.73075932  0.12500000  0.12500000
   0.23075932  0.62500000  0.12500000
   0.73075932  0.62500000  0.12500000
   0.23075932  0.12500000  0.62500000
   0.73075932  0.12500000  0.62500000
   0.23075932  0.62500000  0.62500000
   0.73075932  0.62500000  0.62500000
   0.01924068  0.37500000  0.12500000
   0.51924068  0.37500000  0.12500000
   0.01924068  0.87500000  0.12500000
   0.51924068  0.87500000  0.12500000
   0.01924068  0.37500000  0.62500000
   0.51924068  0.37500000  0.62500000
   0.01924068  0.87500000  0.62500000
   0.51924068  0.87500000  0.62500000
   0.48075932  0.12500000  0.37500000
   0.98075932  0.12500000  0.37500000
   0.48075932  0.62500000  0.37500000
   0.98075932  0.62500000  0.37500000
   0.48075932  0.12500000  0.87500000
   0.98075932  0.12500000  0.87500000
   0.48075932  0.62500000  0.87500000
   0.98075932  0.62500000  0.87500000
   0.48606648  0.37500000  0.37588676
   0.98606648  0.37500000  0.37500000
   0.48606648  0.87500000  0.37500000
   0.98606648  0.87500000  0.37500000
   0.48606648  0.37500000  0.87500000
   0.98606648  0.37500000  0.87500000
   0.48606648  0.87500000  0.87500000
   0.98606648  0.87500000  0.87500000
   0.01393352  0.12500000  0.12500000
   0.51393352  0.12500000  0.12500000
   0.01393352  0.62500000  0.12500000
   0.51393352  0.62500000  0.12500000
   0.01393352  0.12500000  0.62500000
   0.51393352  0.12500000  0.62500000
   0.01393352  0.62500000  0.62500000
   0.51393352  0.62500000  0.62500000
   0.23606648  0.37500000  0.12500000
   0.73606648  0.37500000  0.12500000
   0.23606648  0.87500000  0.12500000
   0.73606648  0.87500000  0.12500000
   0.23606648  0.37500000  0.62500000
   0.73606648  0.37500000  0.62500000
   0.23606648  0.87500000  0.62500000
   0.73606648  0.87500000  0.62500000
   0.26393352  0.12500000  0.37500000
   0.76393352  0.12500000  0.37500000
   0.26393352  0.62500000  0.37500000
   0.76393352  0.62500000  0.37500000
   0.26393352  0.12500000  0.87500000
   0.76393352  0.12500000  0.87500000
   0.26393352  0.62500000  0.87500000
   0.76393352  0.62500000  0.87500000
   0.12500000  0.00000000  0.50106053
   0.62500000  0.00000000  0.50106053
   0.12500000  0.50000000  0.50106053
   0.62500000  0.50000000  0.50106053
   0.12500000  0.00000000  0.00106053
   0.62500000  0.00000000  0.00106053
   0.12500000  0.50000000  0.00106053
   0.62500000  0.50000000  0.00106053
   0.12500000  0.25000000  0.24893947
   0.62500000  0.25000000  0.24893947
   0.12500000  0.75000000  0.24893947
   0.62500000  0.75000000  0.24893947
   0.12500000  0.25000000  0.74893947
   0.62500000  0.25000000  0.74893947
   0.12500000  0.75000000  0.74893947
   0.62500000  0.75000000  0.74893947
   0.37500000  0.00000000  0.99893947
   0.87500000  0.00000000  0.99893947
   0.37500000  0.50000000  0.99893947
   0.87500000  0.50000000  0.99893947
   0.37500000  0.00000000  0.49893947
   0.87500000  0.00000000  0.49893947
   0.37500000  0.50000000  0.49893947
   0.87500000  0.50000000  0.49893947
   0.37500000  0.25000000  0.25106053
   0.87500000  0.25000000  0.25106053
   0.37500000  0.75000000  0.25106053
   0.87500000  0.75000000  0.25106053
   0.37500000  0.25000000  0.75106053
   0.87500000  0.25000000  0.75106053
   0.37500000  0.75000000  0.75106053
   0.87500000  0.75000000  0.75106053
   0.00000000  0.25000000  0.00000000
   0.50000000  0.25000000  0.00000000
   0.00000000  0.75000000  0.00000000
   0.50000000  0.75000000  0.00000000
   0.00000000  0.25000000  0.50000000
   0.50000000  0.25000000  0.50000000
   0.00000000  0.75000000  0.50000000
   0.50000000  0.75000000  0.50000000
   0.00000000  0.00000000  0.25000000
   0.50000000  0.00000000  0.25000000
   0.00000000  0.50000000  0.25000000
   0.50000000  0.50000000  0.25000000
   0.00000000  0.00000000  0.75000000
   0.50000000  0.00000000  0.75000000
   0.00000000  0.50000000  0.75000000
   0.50000000  0.50000000  0.75000000
   0.25000000  0.25000000  0.00000000
   0.75000000  0.25000000  0.00000000
   0.25000000  0.75000000  0.00000000
   0.75000000  0.75000000  0.00000000
   0.25000000  0.25000000  0.50000000
   0.75000000  0.25000000  0.50000000
   0.25000000  0.75000000  0.50000000
   0.75000000  0.75000000  0.50000000
   0.25000000  0.00000000  0.25000000
   0.75000000  0.00000000  0.25000000
   0.25000000  0.50000000  0.25000000
   0.75000000  0.50000000  0.25000000
   0.25000000  0.00000000  0.75000000
   0.75000000  0.00000000  0.75000000
   0.25000000  0.50000000  0.75000000
   0.75000000  0.50000000  0.75000000
 
 position of ions in cartesian coordinates  (Angst):
   1.92810275  2.80256061  5.27212395
   9.64051376  2.80256061  5.27212395
   1.92810275  8.40768182  5.27212395
   9.64051376  8.40768182  5.27212395
   1.92810275  2.80256061 10.91063744
   9.64051376  2.80256061 10.91063744
   1.92810275  8.40768182 10.91063744
   9.64051376  8.40768182 10.91063744
   1.92810275  0.00000000  3.18564628
   9.64051376  0.00000000  3.18564628
   1.92810275  5.60512121  3.18564628
   9.64051376  5.60512121  3.18564628
   1.92810275  0.00000000  8.82415977
   9.64051376  0.00000000  8.82415977
   1.92810275  5.60512121  8.82415977
   9.64051376  5.60512121  8.82415977
   5.78430826  2.80256061  0.36638954
  13.49671927  2.80256061  0.36638954
   5.78430826  8.40768182  0.36638954
  13.49671927  8.40768182  0.36638954
   5.78430826  2.80256061  6.00490303
  13.49671927  2.80256061  6.00490303
   5.78430826  8.40768182  6.00490303
  13.49671927  8.40768182  6.00490303
   5.78430826  0.00000000  2.45286721
  13.49671927  0.00000000  2.45286721
   5.78430826  5.60512121  2.45286721
  13.49671927  5.60512121  2.45286721
   5.78430826  0.00000000  8.09138070
  13.49671927  0.00000000  8.09138070
   5.78430826  5.60512121  8.09138070
  13.49671927  5.60512121  8.09138070
   4.15298957  4.20384091  4.22888512
  11.86540058  4.20384091  4.22888512
   4.15298957  9.80896212  4.22888512
  11.86540058  9.80896212  4.22888512
   4.15298957  4.20384091  9.86739861
  11.86540058  4.20384091  9.86739861
   4.15298957  9.80896212  9.86739861
  11.86540058  9.80896212  9.86739861
   3.55942144  1.40128030  1.40962837
  11.27183245  1.40128030  1.40962837
   3.55942144  7.00640151  1.40962837
  11.27183245  7.00640151  1.40962837
   3.55942144  1.40128030  7.04814186
  11.27183245  1.40128030  7.04814186
   3.55942144  7.00640151  7.04814186
  11.27183245  7.00640151  7.04814186
   0.29678406  4.20384091  1.40962837
   8.00919507  4.20384091  1.40962837
   0.29678406  9.80896212  1.40962837
   8.00919507  9.80896212  1.40962837
   0.29678406  4.20384091  7.04814186
   8.00919507  4.20384091  7.04814186
   0.29678406  9.80896212  7.04814186
   8.00919507  9.80896212  7.04814186
   7.41562695  1.40128030  4.22888512
  15.12803796  1.40128030  4.22888512
   7.41562695  7.00640151  4.22888512
  15.12803796  7.00640151  4.22888512
   7.41562695  1.40128030  9.86739861
  15.12803796  1.40128030  9.86739861
   7.41562695  7.00640151  9.86739861
  15.12803796  7.00640151  9.86739861
   7.49748887  4.20384091  4.23888512
  15.20989988  4.20384091  4.22888512
   7.49748887  9.80896212  4.22888512
  15.20989988  9.80896212  4.22888512
   7.49748887  4.20384091  9.86739861
  15.20989988  4.20384091  9.86739861
   7.49748887  9.80896212  9.86739861
  15.20989988  9.80896212  9.86739861
   0.21492214  1.40128030  1.40962837
   7.92733315  1.40128030  1.40962837
   0.21492214  7.00640151  1.40962837
   7.92733315  7.00640151  1.40962837
   0.21492214  1.40128030  7.04814186
   7.92733315  1.40128030  7.04814186
   0.21492214  7.00640151  7.04814186
   7.92733315  7.00640151  7.04814186
   3.64128336  4.20384091  1.40962837
  11.35369437  4.20384091  1.40962837
   3.64128336  9.80896212  1.40962837
  11.35369437  9.80896212  1.40962837
   3.64128336  4.20384091  7.04814186
  11.35369437  4.20384091  7.04814186
   3.64128336  9.80896212  7.04814186
  11.35369437  9.80896212  7.04814186
   4.07112765  1.40128030  4.22888512
  11.78353866  1.40128030  4.22888512
   4.07112765  7.00640151  4.22888512
  11.78353866  7.00640151  4.22888512
   4.07112765  1.40128030  9.86739861
  11.78353866  1.40128030  9.86739861
   4.07112765  7.00640151  9.86739861
  11.78353866  7.00640151  9.86739861
   1.92810275  0.00000000  5.65047312
   9.64051376  0.00000000  5.65047312
   1.92810275  5.60512121  5.65047312
   9.64051376  5.60512121  5.65047312
   1.92810275  0.00000000  0.01195963
   9.64051376  0.00000000  0.01195963
   1.92810275  5.60512121  0.01195963
   9.64051376  5.60512121  0.01195963
   1.92810275  2.80256061  2.80729712
   9.64051376  2.80256061  2.80729712
   1.92810275  8.40768182  2.80729712
   9.64051376  8.40768182  2.80729712
   1.92810275  2.80256061  8.44581061
   9.64051376  2.80256061  8.44581061
   1.92810275  8.40768182  8.44581061
   9.64051376  8.40768182  8.44581061
   5.78430826  0.00000000 11.26506735
  13.49671927  0.00000000 11.26506735
   5.78430826  5.60512121 11.26506735
  13.49671927  5.60512121 11.26506735
   5.78430826  0.00000000  5.62655386
  13.49671927  0.00000000  5.62655386
   5.78430826  5.60512121  5.62655386
  13.49671927  5.60512121  5.62655386
   5.78430826  2.80256061  2.83121637
  13.49671927  2.80256061  2.83121637
   5.78430826  8.40768182  2.83121637
  13.49671927  8.40768182  2.83121637
   5.78430826  2.80256061  8.46972986
  13.49671927  2.80256061  8.46972986
   5.78430826  8.40768182  8.46972986
  13.49671927  8.40768182  8.46972986
   0.00000000  2.80256061  0.00000000
   7.71241101  2.80256061  0.00000000
   0.00000000  8.40768182  0.00000000
   7.71241101  8.40768182  0.00000000
   0.00000000  2.80256061  5.63851349
   7.71241101  2.80256061  5.63851349
   0.00000000  8.40768182  5.63851349
   7.71241101  8.40768182  5.63851349
   0.00000000  0.00000000  2.81925675
   7.71241101  0.00000000  2.81925675
   0.00000000  5.60512121  2.81925675
   7.71241101  5.60512121  2.81925675
   0.00000000  0.00000000  8.45777023
   7.71241101  0.00000000  8.45777023
   0.00000000  5.60512121  8.45777023
   7.71241101  5.60512121  8.45777023
   3.85620551  2.80256061  0.00000000
  11.56861652  2.80256061  0.00000000
   3.85620551  8.40768182  0.00000000
  11.56861652  8.40768182  0.00000000
   3.85620551  2.80256061  5.63851349
  11.56861652  2.80256061  5.63851349
   3.85620551  8.40768182  5.63851349
  11.56861652  8.40768182  5.63851349
   3.85620551  0.00000000  2.81925675
  11.56861652  0.00000000  2.81925675
   3.85620551  5.60512121  2.81925675
  11.56861652  5.60512121  2.81925675
   3.85620551  0.00000000  8.45777023
  11.56861652  0.00000000  8.45777023
   3.85620551  5.60512121  8.45777023
  11.56861652  5.60512121  8.45777023
 


--------------------------------------------------------------------------------------------------------


 k-point  1 :   0.0000 0.0000 0.0000  plane waves:   73361
 k-point  2 :   0.5000 0.0000 0.0000  plane waves:   73360
 k-point  3 :   0.0000 0.3333 0.0000  plane waves:   73390
 k-point  4 :   0.5000 0.3333 0.0000  plane waves:   73436
 k-point  5 :   0.0000 0.0000 0.3333  plane waves:   73375
 k-point  6 :   0.5000 0.0000 0.3333  plane waves:   73362
 k-point  7 :   0.0000 0.3333 0.3333  plane waves:   73334
 k-point  8 :   0.5000 0.3333 0.3333  plane waves:   73372
 k-point  9 :   0.0000-0.3333 0.3333  plane waves:   73334
 k-point 10 :   0.5000-0.3333 0.3333  plane waves:   73372

 maximum and minimum number of plane-waves per node :     12308    12161

 maximum number of plane-waves:     73436
 maximum index in each direction: 
   IXMAX=   32   IYMAX=   23   IZMAX=   23
   IXMIN=  -32   IYMIN=  -23   IZMIN=  -23


 parallel 3D FFT for wavefunctions:
    minimum data exchange during FFTs selected (reduces bandwidth)
 parallel 3D FFT for charge:
    minimum data exchange during FFTs selected (reduces bandwidth)


 total amount of memory used by VASP MPI-rank0   984794. kBytes
=======================================================================

   base      :      30000. kBytes
   nonl-proj :     101936. kBytes
   fftplans  :      64934. kBytes
   grid      :      55554. kBytes
   one-center:        839. kBytes
   wavefun   :     731531. kBytes
 
     INWAV:  cpu time    0.0000: real time    0.0000
 Broyden mixing: mesh for mixing (old mesh)
   NGX = 65   NGY = 47   NGZ = 47
  (NGX  =256   NGY  =192   NGZ  =192)
  gives a total of 143585 points

 initial charge density was supplied:
 number of electron    1024.0000020 magnetization     128.0001055
 keeping initial charge density in first step


--------------------------------------------------------------------------------------------------------


 Maximum index for augmentation-charges         8055 (set IRDMAX)


--------------------------------------------------------------------------------------------------------


 First call to EWALD:  gamma=   0.142
 Maximum number of real-space cells 2x 3x 3
 Maximum number of reciprocal cells 3x 3x 3

    FEWALD:  cpu time    0.0207: real time    0.0253


--------------------------------------- Iteration      1(   1)  ---------------------------------------


    POTLOK:  cpu time    0.6845: real time    0.7045
    SETDIJ:  cpu time    1.6741: real time    1.7002
     EDDAV:  cpu time  357.2045: real time  364.7843
       DOS:  cpu time    0.0130: real time    0.0133
    --------------------------------------------
      LOOP:  cpu time  359.5762: real time  367.2022

 eigenvalue-minimisations  : 30688
 total energy-change (2. order) : 0.1345950E+05  (-0.5521206E+05)
 number of electron    1024.0000020 magnetization     128.0001055
 augmentation part     1024.0000020 magnetization     128.0001055

 Free energy of the ion-electron system (eV)
  ---------------------------------------------------
  alpha Z        PSCENC =      2574.33730679
  Ewald energy   TEWEN  =    -67378.50938405
  -Hartree energ DENC   =    -36045.57021334
  -exchange      EXHF   =         0.00000000
  -V(xc)+E(xc)   XCENC  =      4397.16458867
  PAW double counting   =    108725.82191982  -112342.66432617
  entropy T*S    EENTRO =        -0.02978934
  eigenvalues    EBANDS =      -780.33935786
  atomic energy  EATOM  =    114309.28505226
  Solvation  Ediel_sol  =         0.00000000
  ---------------------------------------------------
  free energy    TOTEN  =     13459.49579678 eV

  energy without entropy =    13459.52558612  energy(sigma->0) =    13459.51069145


--------------------------------------------------------------------------------------------------------




--------------------------------------- Iteration      1(   2)  ---------------------------------------


     EDDAV:  cpu time  347.5002: real time  354.2780
       DOS:  cpu time    0.0053: real time    0.0054
    --------------------------------------------
      LOOP:  cpu time  347.5054: real time  354.2835

 eigenvalue-minimisations  : 29280
 total energy-change (2. order) :-0.1205110E+05  (-0.1120297E+05)
 number of electron    1024.0000020 magnetization     128.0001055
 augmentation part     1024.0000020 magnetization     128.0001055

 Free energy of the ion-electron system (eV)
  ---------------------------------------------------
  alpha Z        PSCENC =      2574.33730679
  Ewald energy   TEWEN  =    -67378.50938405
  -Hartree energ DENC   =    -36045.57021334
  -exchange      EXHF   =         0.00000000
  -V(xc)+E(xc)   XCENC  =      4397.16458867
  PAW double counting   =    108725.82191982  -112342.66432617
  entropy T*S    EENTRO =        -0.06936052
  eigenvalues    EBANDS =    -12831.39515800
  atomic energy  EATOM  =    114309.28505226
  Solvation  Ediel_sol  =         0.00000000
  ---------------------------------------------------
  free energy    TOTEN  =      1408.40042546 eV

  energy without entropy =     1408.46978598  energy(sigma->0) =     1408.43510572


--------------------------------------------------------------------------------------------------------




--------------------------------------- Iteration      1(   3)  ---------------------------------------


     EDDAV:  cpu time  379.3391: real time  387.1160
       DOS:  cpu time    0.0017: real time    0.0017
    --------------------------------------------
      LOOP:  cpu time  379.3408: real time  387.1178

 eigenvalue-minimisations  : 32904
 total energy-change (2. order) :-0.1936023E+04  (-0.1738520E+04)
 number of electron    1024.0000020 magnetization     128.0001055
 augmentation part     1024.0000020 magnetization     128.0001055

 Free energy of the ion-electron system (eV)
  ---------------------------------------------------
  alpha Z        PSCENC =      2574.33730679
  Ewald energy   TEWEN  =    -67378.50938405
  -Hartree energ DENC   =    -36045.57021334
  -exchange      EXHF   =         0.00000000
  -V(xc)+E(xc)   XCENC  =      4397.16458867
  PAW double counting   =    108725.82191982  -112342.66432617
  entropy T*S    EENTRO =        -0.00000000
  eigenvalues    EBANDS =    -14767.48713552
  atomic energy  EATOM  =    114309.28505226
  Solvation  Ediel_sol  =         0.00000000
  ---------------------------------------------------
  free energy    TOTEN  =      -527.62219154 eV

  energy without entropy =     -527.62219154  energy(sigma->0) =     -527.62219154


--------------------------------------------------------------------------------------------------------




--------------------------------------- Iteration      1(   4)  ---------------------------------------


     EDDAV:  cpu time  438.0390: real time  447.6834
       DOS:  cpu time    0.0017: real time    0.0017
    --------------------------------------------
      LOOP:  cpu time  438.0406: real time  447.6851

 eigenvalue-minimisations  : 39376
 total energy-change (2. order) :-0.2612743E+03  (-0.2584176E+03)
 number of electron    1024.0000020 magnetization     128.0001055
 augmentation part     1024.0000020 magnetization     128.0001055

 Free energy of the ion-electron system (eV)
  ---------------------------------------------------
  alpha Z        PSCENC =      2574.33730679
  Ewald energy   TEWEN  =    -67378.50938405
  -Hartree energ DENC   =    -36045.57021334
  -exchange      EXHF   =         0.00000000
  -V(xc)+E(xc)   XCENC  =      4397.16458867
  PAW double counting   =    108725.82191982  -112342.66432617
  entropy T*S    EENTRO =        -0.00000000
  eigenvalues    EBANDS =    -15028.76145947
  atomic energy  EATOM  =    114309.28505226
  Solvation  Ediel_sol  =         0.00000000
  ---------------------------------------------------
  free energy    TOTEN  =      -788.89651549 eV

  energy without entropy =     -788.89651549  energy(sigma->0) =     -788.89651549


--------------------------------------------------------------------------------------------------------




--------------------------------------- Iteration      1(   5)  ---------------------------------------


     EDDAV:  cpu time  544.5587: real time  555.4175
       DOS:  cpu time    0.0019: real time    0.0019
    CHARGE:  cpu time    8.2547: real time    8.5396
    MIXING:  cpu time    0.0211: real time    0.0247
    --------------------------------------------
      LOOP:  cpu time  552.8363: real time  563.9837

 eigenvalue-minimisations  : 51304
 total energy-change (2. order) :-0.3150302E+02  (-0.3125039E+02)
 number of electron    1024.0000020 magnetization     128.0000816
 augmentation part      329.2122665 magnetization      84.1832156

 Broyden mixing:
  rms(total) = 0.31910E+00    rms(broyden)= 0.31884E+00
  rms(prec ) = 0.32281E+00
  weight for this iteration     100.00

 Free energy of the ion-electron system (eV)
  ---------------------------------------------------
  alpha Z        PSCENC =      2574.33730679
  Ewald energy   TEWEN  =    -67378.50938405
  -Hartree energ DENC   =    -36045.57021334
  -exchange      EXHF   =         0.00000000
  -V(xc)+E(xc)   XCENC  =      4397.16458867
  PAW double counting   =    108725.82191982  -112342.66432617
  entropy T*S    EENTRO =        -0.00000000
  eigenvalues    EBANDS =    -15060.26447865
  atomic energy  EATOM  =    114309.28505226
  Solvation  Ediel_sol  =         0.00000000
  ---------------------------------------------------
  free energy    TOTEN  =      -820.39953467 eV

  energy without entropy =     -820.39953467  energy(sigma->0) =     -820.39953467


--------------------------------------------------------------------------------------------------------




--------------------------------------- Iteration      1(   6)  ---------------------------------------


    POTLOK:  cpu time    0.7047: real time    0.7284
    SETDIJ:  cpu time    1.6294: real time    1.6542
     EDDAV:  cpu time  451.7074: real time  460.7438
       DOS:  cpu time    0.0020: real time    0.0020
    CHARGE:  cpu time    8.3736: real time    8.5788
    MIXING:  cpu time    0.0277: real time    0.0285
    --------------------------------------------
      LOOP:  cpu time  462.4447: real time  471.7357

 eigenvalue-minimisations  : 40904
 total energy-change (2. order) :-0.1447683E+01  (-0.1495088E+01)
 number of electron    1024.0000020 magnetization     128.0000682
 augmentation part      327.4940715 magnetization      84.3251204

 Broyden mixing:
  rms(total) = 0.12690E+00    rms(broyden)= 0.12666E+00
  rms(prec ) = 0.12771E+00
  weight for this iteration     100.00

 eigenvalues of (default mixing * dielectric matrix)
  average eigenvalue GAMMA=   0.6925
  0.6925

 Free energy of the ion-electron system (eV)
  ---------------------------------------------------
  alpha Z        PSCENC =      2574.33730679
  Ewald energy   TEWEN  =    -67378.50938405
  -Hartree energ DENC   =    -36036.94499591
  -exchange      EXHF   =         0.00000000
  -V(xc)+E(xc)   XCENC  =      4395.88741946
  PAW double counting   =    108540.56516050  -112151.68866897
  entropy T*S    EENTRO =        -0.00000000
  eigenvalues    EBANDS =    -15074.77910733
  atomic energy  EATOM  =    114309.28505226
  Solvation  Ediel_sol  =         0.00000000
  ---------------------------------------------------
  free energy    TOTEN  =      -821.84721725 eV

  energy without entropy =     -821.84721725  energy(sigma->0) =     -821.84721725


--------------------------------------------------------------------------------------------------------




--------------------------------------- Iteration      1(   7)  ---------------------------------------


    POTLOK:  cpu time    0.6503: real time    0.6753
    SETDIJ:  cpu time    1.6741: real time    1.6950
     EDDAV:  cpu time  506.0432: real time  516.1587
       DOS:  cpu time    0.0031: real time    0.0034
    CHARGE:  cpu time    8.2778: real time    8.5487
    MIXING:  cpu time    0.0389: real time    0.0393
    --------------------------------------------
      LOOP:  cpu time  516.6873: real time  527.1204

 eigenvalue-minimisations  : 46744
 total energy-change (2. order) :-0.7832909E-01  (-0.7939896E-01)
 number of electron    1024.0000020 magnetization     128.0000626
 augmentation part      327.1722884 magnetization      84.2663741

 Broyden mixing:
  rms(total) = 0.96742E-01    rms(broyden)= 0.96642E-01
  rms(prec ) = 0.98207E-01
  weight for this iteration     100.00

 eigenvalues of (default mixing * dielectric matrix)
  average eigenvalue GAMMA=   0.5786
  0.5786  0.5786

 Free energy of the ion-electron system (eV)
  ---------------------------------------------------
  alpha Z        PSCENC =      2574.33730679
  Ewald energy   TEWEN  =    -67378.50938405
  -Hartree energ DENC   =    -36039.63565625
  -exchange      EXHF   =         0.00000000
  -V(xc)+E(xc)   XCENC  =      4396.22994727
  PAW double counting   =    108584.32121874  -112196.87752374
  entropy T*S    EENTRO =        -0.00000000
  eigenvalues    EBANDS =    -15071.07650737
  atomic energy  EATOM  =    114309.28505226
  Solvation  Ediel_sol  =         0.00000000
  ---------------------------------------------------
  free energy    TOTEN  =      -821.92554635 eV

  energy without entropy =     -821.92554635  energy(sigma->0) =     -821.92554635


--------------------------------------------------------------------------------------------------------




--------------------------------------- Iteration      1(   8)  ---------------------------------------


    POTLOK:  cpu time    0.6925: real time    0.6958
    SETDIJ:  cpu time    1.6976: real time    1.7013
     EDDAV:  cpu time  492.5037: real time  502.1291
       DOS:  cpu time    0.0021: real time    0.0021
    CHARGE:  cpu time    8.4558: real time    8.5565
    MIXING:  cpu time    0.0268: real time    0.0268
    --------------------------------------------
      LOOP:  cpu time  503.3786: real time  513.1116

 eigenvalue-minimisations  : 45144
 total energy-change (2. order) :-0.4174770E-03  (-0.3127827E-02)
 number of electron    1024.0000020 magnetization     128.0000600
 augmentation part      327.1118326 magnetization      84.2573879

 Broyden mixing:
  rms(total) = 0.85251E-01    rms(broyden)= 0.85241E-01
  rms(prec ) = 0.86686E-01
  weight for this iteration     100.00

 eigenvalues of (default mixing * dielectric matrix)
  average eigenvalue GAMMA=   0.4710
  0.5414  0.5414  0.3302

 Free energy of the ion-electron system (eV)
  ---------------------------------------------------
  alpha Z        PSCENC =      2574.33730679
  Ewald energy   TEWEN  =    -67378.50938405
  -Hartree energ DENC   =    -36040.47064958
  -exchange      EXHF   =         0.00000000
  -V(xc)+E(xc)   XCENC  =      4396.36962219
  PAW double counting   =    108608.33925264  -112221.61100311
  entropy T*S    EENTRO =        -0.00000000
  eigenvalues    EBANDS =    -15069.66616096
  atomic energy  EATOM  =    114309.28505226
  Solvation  Ediel_sol  =         0.00000000
  ---------------------------------------------------
  free energy    TOTEN  =      -821.92596382 eV

  energy without entropy =     -821.92596382  energy(sigma->0) =     -821.92596382


--------------------------------------------------------------------------------------------------------




--------------------------------------- Iteration      1(   9)  ---------------------------------------


    POTLOK:  cpu time    0.6548: real time    0.6675
    SETDIJ:  cpu time    1.6797: real time    1.6978
     EDDAV:  cpu time  513.0768: real time  524.4190
       DOS:  cpu time    0.0031: real time    0.0036
    CHARGE:  cpu time    8.3245: real time    8.5694
    MIXING:  cpu time    0.0317: real time    0.0367
    --------------------------------------------
      LOOP:  cpu time  523.7705: real time  535.3940

 eigenvalue-minimisations  : 47776
 total energy-change (2. order) : 0.1101801E-02  (-0.1799208E-03)
 number of electron    1024.0000020 magnetization     128.0000480
 augmentation part      327.1193964 magnetization      84.2541622

 Broyden mixing:
  rms(total) = 0.78174E-01    rms(broyden)= 0.78173E-01
  rms(prec ) = 0.79475E-01
  weight for this iteration     100.00

 eigenvalues of (default mixing * dielectric matrix)
  average eigenvalue GAMMA=   0.8320
  1.1163  1.1163  0.5477  0.5477

 Free energy of the ion-electron system (eV)
  ---------------------------------------------------
  alpha Z        PSCENC =      2574.33730679
  Ewald energy   TEWEN  =    -67378.50938405
  -Hartree energ DENC   =    -36040.75789271
  -exchange      EXHF   =         0.00000000
  -V(xc)+E(xc)   XCENC  =      4396.43556554
  PAW double counting   =    108616.15725372  -112229.72339535
  entropy T*S    EENTRO =        -0.00000000
  eigenvalues    EBANDS =    -15069.14936822
  atomic energy  EATOM  =    114309.28505226
  Solvation  Ediel_sol  =         0.00000000
  ---------------------------------------------------
  free energy    TOTEN  =      -821.92486202 eV

  energy without entropy =     -821.92486202  energy(sigma->0) =     -821.92486202


--------------------------------------------------------------------------------------------------------




--------------------------------------- Iteration      1(  10)  ---------------------------------------


    POTLOK:  cpu time    0.6706: real time    0.6898
    SETDIJ:  cpu time    1.6722: real time    1.6874
     EDDAV:  cpu time  540.5613: real time  551.4853
       DOS:  cpu time    0.0021: real time    0.0035
    CHARGE:  cpu time    8.4168: real time    8.5257
    MIXING:  cpu time    0.0293: real time    0.0293
    --------------------------------------------
      LOOP:  cpu time  551.3523: real time  562.4210

 eigenvalue-minimisations  : 50760
 total energy-change (2. order) : 0.3284913E-02  (-0.1380994E-03)
 number of electron    1024.0000020 magnetization     128.0000243
 augmentation part      327.1477220 magnetization      84.2520310

 Broyden mixing:
  rms(total) = 0.50828E-01    rms(broyden)= 0.50827E-01
  rms(prec ) = 0.51532E-01
  weight for this iteration     100.00

 eigenvalues of (default mixing * dielectric matrix)
  average eigenvalue GAMMA=   0.9447
  1.4960  1.4960  0.6195  0.6195  0.4927

 Free energy of the ion-electron system (eV)
  ---------------------------------------------------
  alpha Z        PSCENC =      2574.33730679
  Ewald energy   TEWEN  =    -67378.50938405
  -Hartree energ DENC   =    -36042.60662944
  -exchange      EXHF   =         0.00000000
  -V(xc)+E(xc)   XCENC  =      4396.72953345
  PAW double counting   =    108649.01284513  -112263.84541648
  entropy T*S    EENTRO =        -0.00000000
  eigenvalues    EBANDS =    -15066.32488475
  atomic energy  EATOM  =    114309.28505226
  Solvation  Ediel_sol  =         0.00000000
  ---------------------------------------------------
  free energy    TOTEN  =      -821.92157711 eV

  energy without entropy =     -821.92157711  energy(sigma->0) =     -821.92157711


--------------------------------------------------------------------------------------------------------




--------------------------------------- Iteration      1(  11)  ---------------------------------------


    POTLOK:  cpu time    0.6662: real time    0.6715
    SETDIJ:  cpu time    1.6808: real time    1.6944
     EDDAV:  cpu time  504.7284: real time  514.6827
       DOS:  cpu time    0.0022: real time    0.0022
    CHARGE:  cpu time    8.5081: real time    8.6451
    MIXING:  cpu time    0.0425: real time    0.0441
    --------------------------------------------
      LOOP:  cpu time  515.6282: real time  525.7400

 eigenvalue-minimisations  : 46816
 total energy-change (2. order) : 0.1731663E-02  (-0.4097563E-03)
 number of electron    1024.0000020 magnetization     128.0000179
 augmentation part      327.1965466 magnetization      84.2498220

 Broyden mixing:
  rms(total) = 0.10567E-01    rms(broyden)= 0.10559E-01
  rms(prec ) = 0.10679E-01
  weight for this iteration     100.00

 eigenvalues of (default mixing * dielectric matrix)
  average eigenvalue GAMMA=   0.9795
  2.1008  1.1151  0.7650  0.7650  0.6202  0.5111

 Free energy of the ion-electron system (eV)
  ---------------------------------------------------
  alpha Z        PSCENC =      2574.33730679
  Ewald energy   TEWEN  =    -67378.50938405
  -Hartree energ DENC   =    -36045.72118218
  -exchange      EXHF   =         0.00000000
  -V(xc)+E(xc)   XCENC  =      4397.21091524
  PAW double counting   =    108710.24930404  -112327.25082348
  entropy T*S    EENTRO =        -0.00000000
  eigenvalues    EBANDS =    -15061.52103405
  atomic energy  EATOM  =    114309.28505226
  Solvation  Ediel_sol  =         0.00000000
  ---------------------------------------------------
  free energy    TOTEN  =      -821.91984545 eV

  energy without entropy =     -821.91984545  energy(sigma->0) =     -821.91984545


--------------------------------------------------------------------------------------------------------




--------------------------------------- Iteration      1(  12)  ---------------------------------------


    POTLOK:  cpu time    0.6799: real time    0.6995
    SETDIJ:  cpu time    1.7324: real time    1.7736
     EDDAV:  cpu time  442.4389: real time  451.2003
       DOS:  cpu time    0.0018: real time    0.0018
    CHARGE:  cpu time    8.5109: real time    8.6454
    MIXING:  cpu time    0.0375: real time    0.0375
    --------------------------------------------
      LOOP:  cpu time  453.4014: real time  462.3580

 eigenvalue-minimisations  : 39752
 total energy-change (2. order) :-0.1836544E-03  (-0.1108433E-03)
 number of electron    1024.0000020 magnetization     128.0000151
 augmentation part      327.2076844 magnetization      84.2509564

 Broyden mixing:
  rms(total) = 0.10391E-01    rms(broyden)= 0.10389E-01
  rms(prec ) = 0.10725E-01
  weight for this iteration     100.00

 eigenvalues of (default mixing * dielectric matrix)
  average eigenvalue GAMMA=   1.0166
  2.3245  1.0557  1.0557  1.0193  0.6030  0.5290  0.5290

 Free energy of the ion-electron system (eV)
  ---------------------------------------------------
  alpha Z        PSCENC =      2574.33730679
  Ewald energy   TEWEN  =    -67378.50938405
  -Hartree energ DENC   =    -36046.02718000
  -exchange      EXHF   =         0.00000000
  -V(xc)+E(xc)   XCENC  =      4397.26268606
  PAW double counting   =    108722.01954910  -112339.24623955
  entropy T*S    EENTRO =        -0.00000000
  eigenvalues    EBANDS =    -15061.04181971
  atomic energy  EATOM  =    114309.28505226
  Solvation  Ediel_sol  =         0.00000000
  ---------------------------------------------------
  free energy    TOTEN  =      -821.92002910 eV

  energy without entropy =     -821.92002910  energy(sigma->0) =     -821.92002910


--------------------------------------------------------------------------------------------------------




--------------------------------------- Iteration      1(  13)  ---------------------------------------


    POTLOK:  cpu time    0.6798: real time    0.6879
    SETDIJ:  cpu time    1.6819: real time    1.6881
     EDDAV:  cpu time  433.1238: real time  441.4100
       DOS:  cpu time    0.0017: real time    0.0017
    CHARGE:  cpu time    8.3983: real time    8.5574
    MIXING:  cpu time    0.0384: real time    0.0392
    --------------------------------------------
      LOOP:  cpu time  443.9240: real time  452.3844

 eigenvalue-minimisations  : 38952
 total energy-change (2. order) : 0.4692971E-04  (-0.6918749E-05)
 number of electron    1024.0000020 magnetization     128.0000105
 augmentation part      327.2120862 magnetization      84.2508645

 Broyden mixing:
  rms(total) = 0.85438E-02    rms(broyden)= 0.85432E-02
  rms(prec ) = 0.88368E-02
  weight for this iteration     100.00

 eigenvalues of (default mixing * dielectric matrix)
  average eigenvalue GAMMA=   1.0973
  2.5687  1.4314  1.4314  0.9650  0.6406  0.6406  0.4940  0.6065

 Free energy of the ion-electron system (eV)
  ---------------------------------------------------
  alpha Z        PSCENC =      2574.33730679
  Ewald energy   TEWEN  =    -67378.50938405
  -Hartree energ DENC   =    -36045.86272189
  -exchange      EXHF   =         0.00000000
  -V(xc)+E(xc)   XCENC  =      4397.23835912
  PAW double counting   =    108723.06463843  -112340.17399719
  entropy T*S    EENTRO =        -0.00000000
  eigenvalues    EBANDS =    -15061.29923563
  atomic energy  EATOM  =    114309.28505226
  Solvation  Ediel_sol  =         0.00000000
  ---------------------------------------------------
  free energy    TOTEN  =      -821.91998217 eV

  energy without entropy =     -821.91998217  energy(sigma->0) =     -821.91998217


--------------------------------------------------------------------------------------------------------




--------------------------------------- Iteration      1(  14)  ---------------------------------------


    POTLOK:  cpu time    0.6695: real time    0.6801
    SETDIJ:  cpu time    1.6869: real time    1.7099
     EDDAV:  cpu time  410.4868: real time  418.3590
       DOS:  cpu time    0.0024: real time    0.0024
    CHARGE:  cpu time    8.4364: real time    8.5674
    MIXING:  cpu time    0.0499: real time    0.0510
    --------------------------------------------
      LOOP:  cpu time  421.3319: real time  429.3698

 eigenvalue-minimisations  : 35352
 total energy-change (2. order) : 0.5078720E-04  (-0.2548081E-05)
 number of electron    1024.0000020 magnetization     128.0000067
 augmentation part      327.2093437 magnetization      84.2507938

 Broyden mixing:
  rms(total) = 0.48107E-02    rms(broyden)= 0.48102E-02
  rms(prec ) = 0.49891E-02
  weight for this iteration     100.00

 eigenvalues of (default mixing * dielectric matrix)
  average eigenvalue GAMMA=   1.1207
  2.6156  1.5784  1.5784  0.9697  0.7964  0.7964  0.6523  0.5106  0.5887

 Free energy of the ion-electron system (eV)
  ---------------------------------------------------
  alpha Z        PSCENC =      2574.33730679
  Ewald energy   TEWEN  =    -67378.50938405
  -Hartree energ DENC   =    -36045.70808247
  -exchange      EXHF   =         0.00000000
  -V(xc)+E(xc)   XCENC  =      4397.20233436
  PAW double counting   =    108725.25923576  -112342.20980773
  entropy T*S    EENTRO =        -0.00000000
  eigenvalues    EBANDS =    -15061.57658630
  atomic energy  EATOM  =    114309.28505226
  Solvation  Ediel_sol  =         0.00000000
  ---------------------------------------------------
  free energy    TOTEN  =      -821.91993138 eV

  energy without entropy =     -821.91993138  energy(sigma->0) =     -821.91993138


--------------------------------------------------------------------------------------------------------




--------------------------------------- Iteration      1(  15)  ---------------------------------------


    POTLOK:  cpu time    0.6772: real time    0.6932
    SETDIJ:  cpu time    1.7251: real time    1.7509
     EDDAV:  cpu time  414.2466: real time  422.8570
       DOS:  cpu time    0.0021: real time    0.0021
    CHARGE:  cpu time    8.3177: real time    8.6049
    MIXING:  cpu time    0.0494: real time    0.0494
    --------------------------------------------
      LOOP:  cpu time  425.0180: real time  433.9575

 eigenvalue-minimisations  : 36424
 total energy-change (2. order) : 0.6428440E-05  (-0.7352597E-05)
 number of electron    1024.0000020 magnetization     128.0000052
 augmentation part      327.2030772 magnetization      84.2511317

 Broyden mixing:
  rms(total) = 0.10578E-02    rms(broyden)= 0.10548E-02
  rms(prec ) = 0.10962E-02
  weight for this iteration     100.00

 eigenvalues of (default mixing * dielectric matrix)
  average eigenvalue GAMMA=   1.1100
  2.7029  1.6158  1.6158  0.9335  0.9335  0.8821  0.6781  0.6781  0.5064  0.5535

 Free energy of the ion-electron system (eV)
  ---------------------------------------------------
  alpha Z        PSCENC =      2574.33730679
  Ewald energy   TEWEN  =    -67378.50938405
  -Hartree energ DENC   =    -36045.58583711
  -exchange      EXHF   =         0.00000000
  -V(xc)+E(xc)   XCENC  =      4397.16618852
  PAW double counting   =    108725.51346555  -112342.31736081
  entropy T*S    EENTRO =        -0.00000000
  eigenvalues    EBANDS =    -15061.80935610
  atomic energy  EATOM  =    114309.28505226
  Solvation  Ediel_sol  =         0.00000000
  ---------------------------------------------------
  free energy    TOTEN  =      -821.91992495 eV

  energy without entropy =     -821.91992495  energy(sigma->0) =     -821.91992495


--------------------------------------------------------------------------------------------------------




--------------------------------------- Iteration      1(  16)  ---------------------------------------


    POTLOK:  cpu time    0.6651: real time    0.6693
    SETDIJ:  cpu time    1.7055: real time    1.7172
     EDDAV:  cpu time  449.5933: real time  458.7831
       DOS:  cpu time    0.0022: real time    0.0022
    CHARGE:  cpu time    8.5149: real time    8.5857
    MIXING:  cpu time    0.0368: real time    0.0533
    --------------------------------------------
      LOOP:  cpu time  460.5177: real time  469.8107

 eigenvalue-minimisations  : 40608
 total energy-change (2. order) :-0.7632392E-05  (-0.4455891E-05)
 number of electron    1024.0000020 magnetization     128.0000047
 augmentation part      327.1991527 magnetization      84.2509463

 Broyden mixing:
  rms(total) = 0.56159E-03    rms(broyden)= 0.55520E-03
  rms(prec ) = 0.56519E-03
  weight for this iteration     100.00

 eigenvalues of (default mixing * dielectric matrix)
  average eigenvalue GAMMA=   1.0653
  2.7802  1.6446  1.6446  0.9457  0.9457  0.8804  0.6523  0.6523  0.6231  0.4864
  0.4629

 Free energy of the ion-electron system (eV)
  ---------------------------------------------------
  alpha Z        PSCENC =      2574.33730679
  Ewald energy   TEWEN  =    -67378.50938405
  -Hartree energ DENC   =    -36045.58985573
  -exchange      EXHF   =         0.00000000
  -V(xc)+E(xc)   XCENC  =      4397.16416143
  PAW double counting   =    108725.68970867  -112342.50234628
  entropy T*S    EENTRO =        -0.00000000
  eigenvalues    EBANDS =    -15061.79457568
  atomic energy  EATOM  =    114309.28505226
  Solvation  Ediel_sol  =         0.00000000
  ---------------------------------------------------
  free energy    TOTEN  =      -821.91993259 eV

  energy without entropy =     -821.91993259  energy(sigma->0) =     -821.91993259


--------------------------------------------------------------------------------------------------------




--------------------------------------- Iteration      1(  17)  ---------------------------------------


    POTLOK:  cpu time    0.6653: real time    0.6763
    SETDIJ:  cpu time    1.6753: real time    1.6916
     EDDAV:  cpu time  306.4466: real time  313.2909
       DOS:  cpu time    0.0020: real time    0.0020
    --------------------------------------------
      LOOP:  cpu time  308.7892: real time  315.6608

 eigenvalue-minimisations  : 24432
 total energy-change (2. order) :-0.3907189E-06  (-0.1372012E-06)
 number of electron    1024.0000020 magnetization     128.0000047
 augmentation part      327.1991527 magnetization      84.2509463

 Free energy of the ion-electron system (eV)
  ---------------------------------------------------
  alpha Z        PSCENC =      2574.33730679
  Ewald energy   TEWEN  =    -67378.50938405
  -Hartree energ DENC   =    -36045.58645267
  -exchange      EXHF   =         0.00000000
  -V(xc)+E(xc)   XCENC  =      4397.16487666
  PAW double counting   =    108725.90349029  -112342.72669253
  entropy T*S    EENTRO =        -0.00000000
  eigenvalues    EBANDS =    -15061.78812971
  atomic energy  EATOM  =    114309.28505226
  Solvation  Ediel_sol  =         0.00000000
  ---------------------------------------------------
  free energy    TOTEN  =      -821.91993298 eV

  energy without entropy =     -821.91993298  energy(sigma->0) =     -821.91993298


--------------------------------------------------------------------------------------------------------




 average (electrostatic) potential at core
  the test charge radii are     0.7079  0.9500  0.9698  0.7215
  (the norm of the test charge is              1.0000)
       1 -59.3055       2 -59.3107       3 -59.3060       4 -59.3066       5 -59.3052
       6 -59.3052       7 -59.3054       8 -59.3047       9 -59.3049      10 -59.3046
      11 -59.3056      12 -59.3001      13 -59.3058      14 -59.3059      15 -59.3055
      16 -59.3057      17 -59.3040      18 -59.3051      19 -59.3047      20 -59.3054
      21 -59.3119      22 -59.3056      23 -59.3069      24 -59.3060      25 -59.3039
      26 -59.3052      27 -59.2989      28 -59.3053      29 -59.3062      30 -59.3058
      31 -59.3069      32 -59.3057      33 -59.4171      34 -59.4168      35 -59.4168
      36 -59.4169      37 -59.4166      38 -59.4171      39 -59.4168      40 -59.4167
      41 -59.4158      42 -59.4150      43 -59.4162      44 -59.4158      45 -59.4174
      46 -59.4177      47 -59.4183      48 -59.4184      49 -59.4164      50 -59.4089
      51 -59.4169      52 -59.4165      53 -59.4170      54 -59.4247      55 -59.4168
      56 -59.4178      57 -59.4195      58 -59.4171      59 -59.4141      60 -59.4173
      61 -59.4171      62 -59.4167      63 -59.4164      64 -59.4169      65 -79.0453
      66 -79.0454      67 -79.0454      68 -79.0454      69 -79.0454      70 -79.0454
      71 -79.0454      72 -79.0454      73 -79.0450      74 -79.0439      75 -79.0452
      76 -79.0405      77 -79.0455      78 -79.0502      79 -79.0457      80 -79.0468
      81 -79.0444      82 -79.0441      83 -79.0448      84 -79.0447      85 -79.0463
      86 -79.0466      87 -79.0459      88 -79.0461      89 -79.0440      90 -79.0447
      91 -79.0467      92 -79.0460      93 -79.0456      94 -79.0455      95 -79.0451
      96 -79.0452      97 -85.9372      98 -85.9384      99 -85.9377     100 -85.9414
     101 -85.9369     102 -85.9366     103 -85.9368     104 -85.9354     105 -85.9364
     106 -85.9327     107 -85.9369     108 -85.9357     109 -85.9373     110 -85.9387
     111 -85.9373     112 -85.9376     113 -85.9366     114 -85.9369     115 -85.9355
     116 -85.9368     117 -85.9381     118 -85.9372     119 -85.9423     120 -85.9377
     121 -85.9318     122 -85.9365     123 -85.9360     124 -85.9369     125 -85.9386
     126 -85.9373     127 -85.9375     128 -85.9372     129 -70.1516     130 -70.1506
     131 -70.1517     132 -70.1505     133 -70.1519     134 -70.1696     135 -70.1520
     136 -70.1526     137 -70.1516     138 -70.1509     139 -70.1517     140 -70.1341
     141 -70.1519     142 -70.1530     143 -70.1520     144 -70.1530     145 -70.1512
     146 -70.1513     147 -70.1514     148 -70.1514     149 -70.1523     150 -70.1524
     151 -70.1530     152 -70.1528     153 -70.1506     154 -70.1508     155 -70.1513
     156 -70.1512     157 -70.1521     158 -70.1522     159 -70.1523     160 -70.1523
 
 
 
 E-fermi :   4.9617     XC(G=0): -10.2321     alpha+bet :-12.7705


 spin component 1

 k-point     1 :       0.0000    0.0000    0.0000
  band No.  band energies     occupation 
      1     -51.4916      1.00000
      2     -51.4876      1.00000
      3     -51.4875      1.00000
      4     -51.4873      1.00000
      5     -51.4871      1.00000
      6     -51.4870      1.00000
      7     -51.4868      1.00000
      8     -51.4867      1.00000
      9     -51.4867      1.00000
     10     -51.4865      1.00000
     11     -51.4861      1.00000
     12     -51.4861      1.00000
     13     -51.4860      1.00000
     14     -51.4860      1.00000
     15     -51.4860      1.00000
     16     -51.4860      1.00000
     17     -51.4860      1.00000
     18     -51.4860      1.00000
     19     -51.4860      1.00000
     20     -51.4860      1.00000
     21     -51.4860      1.00000
     22     -51.4859      1.00000
     23     -51.4856      1.00000
     24     -51.4854      1.00000
     25     -51.4854      1.00000
     26     -51.4853      1.00000
     27     -51.4850      1.00000
     28     -51.4850      1.00000
     29     -51.4847      1.00000
     30     -51.4846      1.00000
     31     -51.4845      1.00000
     32     -51.4805      1.00000
     33     -50.0995      1.00000
     34     -50.0962      1.00000
     35     -50.0962      1.00000
     36     -50.0961      1.00000
     37     -50.0958      1.00000
     38     -50.0955      1.00000
     39     -50.0955      1.00000
     40     -50.0954      1.00000
     41     -50.0953      1.00000
     42     -50.0951      1.00000
     43     -50.0951      1.00000
[...]
   0.158E-01 -.991E-01 -.303E+00   -.158E-01 0.101E+00 0.309E+00   -.938E-05 -.237E-02 -.843E-02   -.648E-04 0.237E-04 0.911E-04
   -.975E-03 0.186E-02 -.106E-01   0.979E-03 -.196E-02 0.109E-01   -.898E-05 0.225E-03 -.341E-03   -.126E-05 -.267E-04 -.397E-04
   0.343E-02 0.432E-01 -.772E-01   -.329E-02 -.454E-01 0.798E-01   -.453E-03 0.417E-02 -.461E-02   0.584E-04 -.144E-03 -.415E-04
   0.224E-02 0.196E-02 0.144E-01   -.225E-02 -.242E-02 -.152E-01   0.465E-04 0.477E-03 0.104E-02   -.105E-04 0.863E-04 0.952E-04
   -.325E+00 0.211E+01 -.710E+00   0.346E+00 -.225E+01 0.779E+00   -.178E-01 0.122E+00 -.388E-01   0.236E-03 -.368E-04 -.177E-03
   0.104E-02 -.172E-02 0.106E-01   -.108E-02 0.215E-02 -.109E-01   0.806E-04 -.755E-03 0.397E-03   -.921E-05 0.546E-04 0.794E-04
   -.631E-02 -.102E+00 0.768E-01   0.646E-02 0.104E+00 -.787E-01   -.937E-04 -.300E-02 0.298E-02   -.730E-05 0.110E-04 -.566E-04
   -.109E-02 -.169E-02 0.105E-01   0.109E-02 0.217E-02 -.108E-01   -.118E-03 -.715E-03 0.436E-03   0.796E-04 -.128E-04 -.126E-04
   0.643E-02 -.103E+00 0.759E-01   -.648E-02 0.104E+00 -.778E-01   0.154E-03 -.303E-02 0.295E-02   -.124E-03 0.909E-04 0.344E-04
   -.224E-02 0.206E-02 0.144E-01   0.226E-02 -.243E-02 -.151E-01   -.438E-04 0.539E-03 0.110E-02   -.379E-05 -.521E-04 -.542E-04
   0.321E+00 0.209E+01 -.718E+00   -.342E+00 -.223E+01 0.787E+00   0.178E-01 0.121E+00 -.399E-01   -.268E-03 -.407E-06 -.164E-03
   0.974E-03 0.185E-02 -.106E-01   -.985E-03 -.197E-02 0.108E-01   0.156E-05 0.210E-03 -.352E-03   0.101E-04 0.263E-06 -.107E-04
   -.345E-02 0.435E-01 -.770E-01   0.331E-02 -.457E-01 0.796E-01   0.448E-03 0.413E-02 -.467E-02   -.589E-04 -.605E-04 0.888E-04
   0.181E-02 -.211E-02 -.143E-01   -.188E-02 0.216E-02 0.151E-01   0.757E-04 0.250E-04 -.112E-02   0.298E-04 -.431E-05 -.101E-04
   -.160E-01 -.100E+00 -.304E+00   0.160E-01 0.102E+00 0.310E+00   0.182E-04 -.240E-02 -.846E-02   0.549E-04 0.282E-04 0.998E-04
   -.609E-01 -.225E-01 -.811E-01   0.618E-01 0.228E-01 0.846E-01   -.120E-02 -.776E-03 -.515E-02   0.323E-04 0.559E-04 -.343E-04
   0.506E-01 -.165E-01 -.634E-01   -.515E-01 0.169E-01 0.664E-01   0.133E-02 -.891E-03 -.462E-02   0.176E-04 -.661E-04 0.103E-03
   -.204E-01 0.146E-01 -.357E-01   0.211E-01 -.150E-01 0.364E-01   -.820E-03 0.441E-03 -.112E-02   -.125E-04 -.757E-05 0.267E-04
   0.182E-01 0.114E-01 -.300E-01   -.190E-01 -.118E-01 0.309E-01   0.112E-02 0.426E-03 -.133E-02   -.480E-04 0.258E-05 0.497E-05
   0.143E+00 0.529E-01 0.788E-01   -.145E+00 -.549E-01 -.820E-01   0.309E-02 0.337E-02 0.496E-02   -.999E-04 -.751E-04 -.513E-05
   -.100E+00 0.330E-01 0.631E-01   0.103E+00 -.345E-01 -.655E-01   -.324E-02 0.240E-02 0.374E-02   0.137E-03 0.738E-05 -.348E-04
   0.262E-01 -.200E-01 0.355E-01   -.290E-01 0.231E-01 -.364E-01   0.384E-02 -.456E-02 0.109E-02   -.656E-05 0.775E-04 -.271E-04
   -.226E-01 -.150E-01 0.299E-01   0.249E-01 0.171E-01 -.309E-01   -.316E-02 -.305E-02 0.128E-02   -.304E-06 0.668E-06 0.801E-05
   -.264E-01 -.201E-01 0.352E-01   0.291E-01 0.232E-01 -.361E-01   -.386E-02 -.454E-02 0.106E-02   0.313E-04 -.154E-05 0.355E-04
   0.227E-01 -.151E-01 0.297E-01   -.250E-01 0.172E-01 -.307E-01   0.315E-02 -.306E-02 0.129E-02   0.101E-04 0.472E-04 -.172E-04
   -.143E+00 0.530E-01 0.779E-01   0.146E+00 -.550E-01 -.810E-01   -.313E-02 0.335E-02 0.499E-02   0.158E-03 -.360E-05 -.105E-03
   0.101E+00 0.332E-01 0.624E-01   -.103E+00 -.346E-01 -.648E-01   0.323E-02 0.241E-02 0.373E-02   -.128E-03 -.118E-04 -.226E-04
   0.206E-01 0.147E-01 -.355E-01   -.212E-01 -.151E-01 0.363E-01   0.802E-03 0.446E-03 -.111E-02   0.568E-04 -.379E-05 -.615E-05
   -.183E-01 0.115E-01 -.299E-01   0.191E-01 -.119E-01 0.308E-01   -.107E-02 0.437E-03 -.135E-02   -.314E-04 -.230E-04 0.562E-04
   0.614E-01 -.227E-01 -.810E-01   -.623E-01 0.229E-01 0.844E-01   0.120E-02 -.732E-03 -.518E-02   -.556E-04 -.410E-04 0.795E-04
   -.510E-01 -.167E-01 -.631E-01   0.519E-01 0.170E-01 0.662E-01   -.133E-02 -.947E-03 -.454E-02   -.163E-04 0.529E-04 -.320E-04
 -----------------------------------------------------------------------------------------------
   0.354E-03 -.360E+00 0.315E+00   -.212E-12 -.423E-15 -.408E-12   -.443E-03 0.361E+00 -.315E+00   0.734E-04 -.771E-03 -.418E-03
 
 
 POSITION                                       TOTAL-FORCE (eV/Angst)
 -----------------------------------------------------------------------------------
      1.92810      2.80256      5.27212        -0.000036     -0.000124     -0.000325
      9.64051      2.80256      5.27212         0.006921     -0.002630     -0.001723
      1.92810      8.40768      5.27212        -0.000243      0.000100     -0.000189
      9.64051      8.40768      5.27212        -0.000185      0.000598     -0.000757
      1.92810      2.80256     10.91064         0.000078      0.000022      0.000098
      9.64051      2.80256     10.91064        -0.000203      0.000231      0.000970
      1.92810      8.40768     10.91064         0.000074     -0.000016      0.000006
      9.64051      8.40768     10.91064        -0.000216     -0.000257      0.000346
      1.92810      0.00000      3.18565         0.000251      0.000102     -0.000028
      9.64051      0.00000      3.18565         0.000185      0.000594     -0.000596
      1.92810      5.60512      3.18565         0.000043     -0.000121     -0.000165
      9.64051      5.60512      3.18565        -0.006914     -0.002632     -0.001534
      1.92810      0.00000      8.82416        -0.000071     -0.000016      0.000166
      9.64051      0.00000      8.82416         0.000216     -0.000258      0.000509
      1.92810      5.60512      8.82416        -0.000078      0.000021      0.000260
      9.64051      5.60512      8.82416         0.000203      0.000230      0.001132
      5.78431      2.80256      0.36639         0.000196      0.000304      0.001389
     13.49672      2.80256      0.36639        -0.000087      0.000024      0.000220
      5.78431      8.40768      0.36639         0.000295     -0.000311      0.000308
     13.49672      8.40768      0.36639        -0.000094     -0.000015      0.000104
      5.78431      2.80256      6.00490        -0.007390     -0.003727      0.002329
     13.49672      2.80256      6.00490         0.000119     -0.000104     -0.000023
      5.78431      8.40768      6.00490         0.000278      0.000968      0.000198
     13.49672      8.40768      6.00490         0.000197      0.000081      0.000091
      5.78431      0.00000      2.45287        -0.000287      0.000977      0.000033
     13.49672      0.00000      2.45287        -0.000197      0.000082     -0.000077
      5.78431      5.60512      2.45287         0.007340     -0.003694      0.002165
     13.49672      5.60512      2.45287        -0.000123     -0.000104     -0.000187
      5.78431      0.00000      8.09138        -0.000297     -0.000310      0.000145
     13.49672      0.00000      8.09138         0.000093     -0.000014     -0.000058
      5.78431      5.60512      8.09138        -0.000205      0.000312      0.001227
     13.49672      5.60512      8.09138         0.000092      0.000024      0.000059
      4.15299      4.20384      4.22889        -0.000104     -0.001127     -0.001579
     11.86540      4.20384      4.22889        -0.000107     -0.000581     -0.000988
      4.15299      9.80896      4.22889        -0.000105      0.000112     -0.000888
     11.86540      9.80896      4.22889        -0.000106      0.000031     -0.000687
      4.15299      4.20384      9.86740        -0.000103      0.000407      0.000662
     11.86540      4.20384      9.86740        -0.000107      0.000253      0.000577
      4.15299      9.80896      9.86740        -0.000106      0.000028      0.000294
     11.86540      9.80896      9.86740        -0.000105      0.000000      0.000286
      3.55942      1.40128      1.40963         0.001023      0.000453      0.000790
     11.27183      1.40128      1.40963        -0.000607      0.000547      0.000958
      3.55942      7.00640      1.40963         0.000378     -0.000067     -0.000033
     11.27183      7.00640      1.40963        -0.000353     -0.000098      0.000007
      3.55942      1.40128      7.04814        -0.000170     -0.000069     -0.000032
     11.27183      1.40128      7.04814         0.000562     -0.000101      0.000009
      3.55942      7.00640      7.04814        -0.000802      0.000449      0.000789
     11.27183      7.00640      7.04814         0.000813      0.000547      0.000960
      0.29678      4.20384      1.40963        -0.000074     -0.000106      0.000082
      8.00920      4.20384      1.40963        -0.002413      0.001947      0.011287
      0.29678      9.80896      1.40963        -0.000096      0.000043     -0.000005
      8.00920      9.80896      1.40963        -0.000053     -0.000271      0.000080
      0.29678      4.20384      7.04814        -0.000131     -0.000101      0.000089
      8.00920      4.20384      7.04814         0.002249      0.001959      0.011479
      0.29678      9.80896      7.04814        -0.000114      0.000044     -0.000002
      8.00920      9.80896      7.04814        -0.000157     -0.000269      0.000081
      7.41563      1.40128      4.22889        -0.000519     -0.000629     -0.005213
     15.12804      1.40128      4.22889         0.000105      0.000139     -0.000251
      7.41563      7.00640      4.22889         0.000727     -0.000667     -0.005211
     15.12804      7.00640      4.22889         0.000112      0.000136     -0.000250
      7.41563      1.40128      9.86740         0.000130     -0.000022      0.000877
     15.12804      1.40128      9.86740         0.000113     -0.000073      0.000171
      7.41563      7.00640      9.86740         0.000078     -0.000022      0.000876
     15.12804      7.00640      9.86740         0.000096     -0.000075      0.000170
      7.49749      4.20384      4.23889        -0.000148      0.061179     -0.102270
     15.20990      4.20384      4.22889        -0.000026     -0.000466     -0.000718
      7.49749      9.80896      4.22889        -0.000025      0.000018     -0.001640
     15.20990      9.80896      4.22889        -0.000025      0.000068     -0.000280
      7.49749      4.20384      9.86740        -0.000025     -0.000038      0.002334
     15.20990      4.20384      9.86740        -0.000024      0.000066      0.000422
      7.49749      9.80896      9.86740        -0.000025     -0.000924      0.001622
     15.20990      9.80896      9.86740        -0.000025      0.000100      0.000239
      0.21492      1.40128      1.40963         0.000050      0.000208      0.000188
      7.92733      1.40128      1.40963        -0.000022      0.002188      0.001750
      0.21492      7.00640      1.40963         0.000027     -0.000101     -0.000042
      7.92733      7.00640      1.40963        -0.000823     -0.008312      0.008618
      0.21492      1.40128      7.04814         0.000028     -0.000102     -0.000036
      7.92733      1.40128      7.04814         0.000871     -0.008350      0.008650
      0.21492      7.00640      7.04814         0.000004      0.000199      0.000200
      7.92733      7.00640      7.04814         0.000067      0.002198      0.001752
      3.64128      4.20384      1.40963         0.001265     -0.000728      0.000593
     11.35369      4.20384      1.40963        -0.001349     -0.000572      0.000595
      3.64128      9.80896      1.40963         0.000382      0.000263      0.000636
     11.35369      9.80896      1.40963        -0.000490      0.000070      0.000628
      3.64128      4.20384      7.04814        -0.001312     -0.000727      0.000594
     11.35369      4.20384      7.04814         0.001301     -0.000567      0.000591
      3.64128      9.80896      7.04814        -0.000430      0.000255      0.000626
     11.35369      9.80896      7.04814         0.000438      0.000069      0.000633
      4.07113      1.40128      4.22889         0.001495      0.000804     -0.003236
     11.78354      1.40128      4.22889        -0.000898      0.000497     -0.002348
      4.07113      7.00640      4.22889        -0.001448      0.000806     -0.003234
     11.78354      7.00640      4.22889         0.000952      0.000496     -0.002352
      4.07113      1.40128      9.86740        -0.000429     -0.000202      0.000994
     11.78354      1.40128      9.86740         0.000404     -0.000081      0.000953
      4.07113      7.00640      9.86740         0.000479     -0.000208      0.000991
     11.78354      7.00640      9.86740        -0.000357     -0.000080      0.000949
      1.92810      0.00000      5.65047         0.000106     -0.000197      0.000315
      9.64051      0.00000      5.65047        -0.001525      0.001656      0.000759
      1.92810      5.60512      5.65047         0.000743      0.000176      0.000176
      9.64051      5.60512      5.65047        -0.003641     -0.002959      0.002053
      1.92810      0.00000      0.01196        -0.000111     -0.000037     -0.000262
      9.64051      0.00000      0.01196         0.000068     -0.000103     -0.000880
      1.92810      5.60512      0.01196        -0.000219      0.000094     -0.000190
      9.64051      5.60512      0.01196         0.001354      0.000069     -0.002378
      1.92810      2.80256      2.80730        -0.000746      0.000177      0.000146
      9.64051      2.80256      2.80730         0.003656     -0.002952      0.001985
      1.92810      8.40768      2.80730        -0.000105     -0.000198      0.000286
      9.64051      8.40768      2.80730         0.001531      0.001646      0.000731
      1.92810      2.80256      8.44581         0.000217      0.000096     -0.000216
      9.64051      2.80256      8.44581        -0.001357      0.000067     -0.002412
      1.92810      8.40768      8.44581         0.000114     -0.000042     -0.000289
      9.64051      8.40768      8.44581        -0.000067     -0.000103     -0.000900
      5.78431      0.00000     11.26507        -0.000051     -0.000099     -0.000916
     13.49672      0.00000     11.26507         0.000099     -0.000019     -0.000278
      5.78431      5.60512     11.26507        -0.001360      0.000197     -0.002374
     13.49672      5.60512     11.26507         0.000251      0.000074     -0.000264
      5.78431      0.00000      5.62655         0.001580      0.001349      0.001112
     13.49672      0.00000      5.62655        -0.000172     -0.000159      0.000293
      5.78431      5.60512      5.62655        -0.001291      0.001058      0.007043
     13.49672      5.60512      5.62655        -0.000671      0.000105      0.000280
      5.78431      2.80256      2.83122         0.001140      0.000939      0.006962
     13.49672      2.80256      2.83122         0.000670      0.000106      0.000306
      5.78431      8.40768      2.83122        -0.001582      0.001346      0.001140
     13.49672      8.40768      2.83122         0.000167     -0.000164      0.000319
      5.78431      2.80256      8.46973         0.001366      0.000200     -0.002352
     13.49672      2.80256      8.46973        -0.000254      0.000077     -0.000242
      5.78431      8.40768      8.46973         0.000053     -0.000104     -0.000888
     13.49672      8.40768      8.46973        -0.000098     -0.000019     -0.000249
      0.00000      2.80256      0.00000        -0.000043      0.000067     -0.000367
      7.71241      2.80256      0.00000        -0.000071     -0.000240     -0.002481
      0.00000      8.40768      0.00000        -0.000006      0.000095     -0.000121
      7.71241      8.40768      0.00000        -0.000252      0.001866     -0.001999
      0.00000      2.80256      5.63851         0.000025      0.000100      0.000313
      7.71241      2.80256      5.63851         0.003381     -0.022005      0.030116
      0.00000      8.40768      5.63851         0.000029     -0.000271      0.000173
      7.71241      8.40768      5.63851         0.000041     -0.001135      0.001087
      0.00000      0.00000      2.81926        -0.000039     -0.000256      0.000175
      7.71241      0.00000      2.81926        -0.000020     -0.001143      0.001082
      0.00000      5.60512      2.81926        -0.000023      0.000115      0.000321
      7.71241      5.60512      2.81926        -0.003131     -0.020456      0.028889
      0.00000      0.00000      8.45777         0.000001      0.000089     -0.000121
      7.71241      0.00000      8.45777         0.000250      0.001859     -0.002013
      0.00000      5.60512      8.45777         0.000036      0.000070     -0.000365
      7.71241      5.60512      8.45777         0.000081     -0.000244     -0.002489
      3.85621      2.80256      0.00000        -0.000263     -0.000492     -0.001663
     11.56862      2.80256      0.00000         0.000406     -0.000536     -0.001514
      3.85621      8.40768      0.00000        -0.000199      0.000056     -0.000346
     11.56862      8.40768      0.00000         0.000306      0.000027     -0.000431
      3.85621      2.80256      5.63851         0.000621      0.001287      0.001758
     11.56862      2.80256      5.63851        -0.000852      0.000995      0.001339
      3.85621      8.40768      5.63851         0.001105     -0.001389      0.000119
     11.56862      8.40768      5.63851        -0.000881     -0.000929      0.000278
      3.85621      0.00000      2.81926        -0.001113     -0.001390      0.000117
     11.56862      0.00000      2.81926         0.000877     -0.000926      0.000283
      3.85621      5.60512      2.81926        -0.000628      0.001283      0.001762
     11.56862      5.60512      2.81926         0.000848      0.000997      0.001342
      3.85621      0.00000      8.45777         0.000198      0.000054     -0.000347
     11.56862      0.00000      8.45777        -0.000295      0.000030     -0.000432
      3.85621      5.60512      8.45777         0.000262     -0.000489     -0.001664
     11.56862      5.60512      8.45777        -0.000408     -0.000544     -0.001498
 -----------------------------------------------------------------------------------
    total drift:                               -0.000015      0.000006     -0.000015


--------------------------------------------------------------------------------------------------------



  FREE ENERGIE OF THE ION-ELECTRON SYSTEM (eV)
  ---------------------------------------------------
  free  energy   TOTEN  =      -821.91993298 eV

  energy  without entropy=     -821.91993298  energy(sigma->0) =     -821.91993298
 


--------------------------------------------------------------------------------------------------------


    POTLOK:  cpu time    2.3198: real time    2.3528


--------------------------------------------------------------------------------------------------------


     LOOP+:  cpu time 8278.3930: real time 8442.4446
    4ORBIT:  cpu time    0.0000: real time    0.0000

 total amount of memory used by VASP MPI-rank0   984794. kBytes
=======================================================================

   base      :      30000. kBytes
   nonl-proj :     101936. kBytes
   fftplans  :      64934. kBytes
   grid      :      55554. kBytes
   one-center:        839. kBytes
   wavefun   :     731531. kBytes
 
  
  
 General timing and accounting informations for this job:
 ========================================================
  
                  Total CPU time used (sec):     8430.570
                            User time (sec):     8375.631
                          System time (sec):       54.939
                         Elapsed time (sec):     8598.561
  
                   Maximum memory used (kb):     1171212.
                   Average memory used (kb):           0.
  
                          Minor page faults:       972740
                          Major page faults:            8
                 Voluntary context switches:        51058
