 126 126   0   0
  0.1357194E+02  0.1157659E-08  0.1157660E-08  0.1387803E-08  0.5000000E-15
  1.000000000000000E-004
  CAR 
 unknown system                          
     17.62410862    -54.41653818  301      5.40721560      1.00000000
    -54.417  0.0000E+00  0.0000E+00  0.0000E+00  0.0000E+00
    -54.176  0.0000E+00  0.0000E+00  0.0000E+00  0.0000E+00
    -53.936  0.0000E+00  0.0000E+00  0.0000E+00  0.0000E+00
    -53.696  0.0000E+00  0.0000E+00  0.0000E+00  0.0000E+00
    -53.456  0.0000E+00  0.0000E+00  0.0000E+00  0.0000E+00
    -53.216  0.0000E+00  0.0000E+00  0.0000E+00  0.0000E+00
    -52.976  0.0000E+00  0.0000E+00  0.0000E+00  0.0000E+00
    -52.736  0.0000E+00  0.0000E+00  0.0000E+00  0.0000E+00
    -52.495  0.0000E+00  0.0000E+00  0.0000E+00  0.0000E+00
    -52.255  0.0000E+00  0.0000E+00  0.0000E+00  0.0000E+00
    -52.015  0.0000E+00  0.0000E+00  0.0000E+00  0.0000E+00
    -51.775  0.0000E+00  0.0000E+00  0.0000E+00  0.0000E+00
    -51.535  0.0000E+00  0.0000E+00  0.0000E+00  0.0000E+00
    -51.295  0.8431E-03  0.0000E+00  0.2025E-03  0.0000E+00
    -51.055  0.1487E+03  0.0000E+00  0.3570E+02  0.0000E+00
    -50.815  0.1237E+01  0.0000E+00  0.3600E+02  0.0000E+00
    -50.574  0.0000E+00  0.0000E+00  0.3600E+02  0.0000E+00
    -50.334  0.0000E+00  0.0000E+00  0.3600E+02  0.0000E+00
    -50.094  0.0000E+00  0.0000E+00  0.3600E+02  0.0000E+00
    -49.854  0.2108E-05  0.0000E+00  0.3600E+02  0.0000E+00
    -49.614  0.2600E+03  0.0000E+00  0.9845E+02  0.0000E+00
    -49.374  0.3978E+02  0.0000E+00  0.1080E+03  0.0000E+00
    -49.134  0.0000E+00  0.0000E+00  0.1080E+03  0.0000E+00
    -48.893  0.0000E+00  0.0000E+00  0.1080E+03  0.0000E+00
    -48.653  0.0000E+00  0.0000E+00  0.1080E+03  0.0000E+00
    -48.413  0.0000E+00  0.0000E+00  0.1080E+03  0.0000E+00
    -48.173  0.0000E+00  0.0000E+00  0.1080E+03  0.0000E+00
    -47.933  0.0000E+00  0.0000E+00  0.1080E+03  0.0000E+00
    -47.693  0.0000E+00  0.0000E+00  0.1080E+03  0.0000E+00
    -47.453  0.0000E+00  0.0000E+00  0.1080E+03  0.0000E+00
    -47.212  0.0000E+00  0.0000E+00  0.1080E+03  0.0000E+00
    -46.972  0.0000E+00  0.0000E+00  0.1080E+03  0.0000E+00
    -46.732  0.0000E+00  0.0000E+00  0.1080E+03  0.0000E+00
    -46.492  0.0000E+00  0.3726E+00  0.1080E+03  0.8947E-01
    -46.252  0.0000E+00  0.1495E+03  0.1080E+03  0.3600E+02
    -46.012  0.0000E+00  0.4979E+01  0.1080E+03  0.3719E+02
    -45.772  0.0000E+00  0.2949E+03  0.1080E+03  0.1080E+03
    -45.532  0.0000E+00  0.0000E+00  0.1080E+03  0.1080E+03
    -45.291  0.0000E+00  0.0000E+00  0.1080E+03  0.1080E+03
    -45.051  0.0000E+00  0.0000E+00  0.1080E+03  0.1080E+03
    -44.811  0.0000E+00  0.0000E+00  0.1080E+03  0.1080E+03
    -44.571  0.0000E+00  0.0000E+00  0.1080E+03  0.1080E+03
    -44.331  0.0000E+00  0.0000E+00  0.1080E+03  0.1080E+03
    -44.091  0.0000E+00  0.0000E+00  0.1080E+03  0.1080E+03
    -43.851  0.0000E+00  0.0000E+00  0.1080E+03  0.1080E+03
    -43.610  0.0000E+00  0.0000E+00  0.1080E+03  0.1080E+03
    -43.370  0.0000E+00  0.0000E+00  0.1080E+03  0.1080E+03
    -43.130  0.0000E+00  0.0000E+00  0.1080E+03  0.1080E+03
    -42.890  0.0000E+00  0.0000E+00  0.1080E+03  0.1080E+03
    -42.650  0.0000E+00  0.0000E+00  0.1080E+03  0.1080E+03
    -42.410  0.0000E+00  0.0000E+00  0.1080E+03  0.1080E+03
    -42.170  0.0000E+00  0.0000E+00  0.1080E+03  0.1080E+03
    -41.929  0.0000E+00  0.0000E+00  0.1080E+03  0.1080E+03
    -41.689  0.0000E+00  0.0000E+00  0.1080E+03  0.1080E+03
    -41.449  0.0000E+00  0.0000E+00  0.1080E+03  0.1080E+03
    -41.209  0.0000E+00  0.0000E+00  0.1080E+03  0.1080E+03
    -40.969  0.0000E+00  0.0000E+00  0.1080E+03  0.1080E+03
    -40.729  0.0000E+00  0.0000E+00  0.1080E+03  0.1080E+03
    -40.489  0.0000E+00  0.0000E+00  0.1080E+03  0.1080E+03
    -40.249  0.0000E+00  0.0000E+00  0.1080E+03  0.1080E+03
    -40.008  0.0000E+00  0.0000E+00  0.1080E+03  0.1080E+03
    -39.768  0.2095E-02  0.1936E-02  0.1080E+03  0.1080E+03
    -39.528  0.1479E+03  0.1478E+03  0.1435E+03  0.1435E+03
    -39.288  0.2028E+01  0.2103E+01  0.1440E+03  0.1440E+03
    -39.048  0.0000E+00  0.0000E+00  0.1440E+03  0.1440E+03
    -38.808  0.0000E+00  0.0000E+00  0.1440E+03  0.1440E+03
    -38.568  0.0000E+00  0.0000E+00  0.1440E+03  0.1440E+03
    -38.327  0.0000E+00  0.0000E+00  0.1440E+03  0.1440E+03
    -38.087  0.0000E+00  0.0000E+00  0.1440E+03  0.1440E+03
    -37.847  0.0000E+00  0.0000E+00  0.1440E+03  0.1440E+03
    -37.607  0.0000E+00  0.0000E+00  0.1440E+03  0.1440E+03
    -37.367  0.0000E+00  0.0000E+00  0.1440E+03  0.1440E+03
    -37.127  0.0000E+00  0.0000E+00  0.1440E+03  0.1440E+03
    -36.887  0.0000E+00  0.0000E+00  0.1440E+03  0.1440E+03
    -36.647  0.0000E+00  0.0000E+00  0.1440E+03  0.1440E+03
    -36.406  0.0000E+00  0.0000E+00  0.1440E+03  0.1440E+03
    -36.166  0.0000E+00  0.0000E+00  0.1440E+03  0.1440E+03
    -35.926  0.0000E+00  0.0000E+00  0.1440E+03  0.1440E+03
    -35.686  0.0000E+00  0.0000E+00  0.1440E+03  0.1440E+03
    -35.446  0.0000E+00  0.0000E+00  0.1440E+03  0.1440E+03
    -35.206  0.0000E+00  0.0000E+00  0.1440E+03  0.1440E+03
    -34.966  0.0000E+00  0.0000E+00  0.1440E+03  0.1440E+03
    -34.725  0.0000E+00  0.0000E+00  0.1440E+03  0.1440E+03
    -34.485  0.0000E+00  0.0000E+00  0.1440E+03  0.1440E+03
    -34.245  0.0000E+00  0.0000E+00  0.1440E+03  0.1440E+03
    -34.005  0.0000E+00  0.0000E+00  0.1440E+03  0.1440E+03
    -33.765  0.0000E+00  0.0000E+00  0.1440E+03  0.1440E+03
    -33.525  0.0000E+00  0.0000E+00  0.1440E+03  0.1440E+03
    -33.285  0.0000E+00  0.0000E+00  0.1440E+03  0.1440E+03
    -33.044  0.0000E+00  0.0000E+00  0.1440E+03  0.1440E+03
    -32.804  0.0000E+00  0.0000E+00  0.1440E+03  0.1440E+03
    -32.564  0.0000E+00  0.0000E+00  0.1440E+03  0.1440E+03
    -32.324  0.0000E+00  0.0000E+00  0.1440E+03  0.1440E+03
    -32.084  0.0000E+00  0.0000E+00  0.1440E+03  0.1440E+03
    -31.844  0.0000E+00  0.0000E+00  0.1440E+03  0.1440E+03
    -31.604  0.0000E+00  0.0000E+00  0.1440E+03  0.1440E+03
    -31.364  0.0000E+00  0.0000E+00  0.1440E+03  0.1440E+03
    -31.123  0.0000E+00  0.0000E+00  0.1440E+03  0.1440E+03
    -30.883  0.0000E+00  0.0000E+00  0.1440E+03  0.1440E+03
    -30.643  0.0000E+00  0.0000E+00  0.1440E+03  0.1440E+03
    -30.403  0.0000E+00  0.0000E+00  0.1440E+03  0.1440E+03
    -30.163  0.0000E+00  0.0000E+00  0.1440E+03  0.1440E+03
    -29.923  0.0000E+00  0.0000E+00  0.1440E+03  0.1440E+03
    -29.683  0.0000E+00  0.0000E+00  0.1440E+03  0.1440E+03
    -29.442  0.0000E+00  0.0000E+00  0.1440E+03  0.1440E+03
    -29.202  0.0000E+00  0.0000E+00  0.1440E+03  0.1440E+03
    -28.962  0.0000E+00  0.0000E+00  0.1440E+03  0.1440E+03
    -28.722  0.0000E+00  0.0000E+00  0.1440E+03  0.1440E+03
    -28.482  0.0000E+00  0.0000E+00  0.1440E+03  0.1440E+03
    -28.242  0.0000E+00  0.0000E+00  0.1440E+03  0.1440E+03
    -28.002  0.0000E+00  0.0000E+00  0.1440E+03  0.1440E+03
    -27.761  0.0000E+00  0.0000E+00  0.1440E+03  0.1440E+03
    -27.521  0.0000E+00  0.0000E+00  0.1440E+03  0.1440E+03
    -27.281  0.0000E+00  0.0000E+00  0.1440E+03  0.1440E+03
    -27.041  0.0000E+00  0.0000E+00  0.1440E+03  0.1440E+03
    -26.801  0.0000E+00  0.0000E+00  0.1440E+03  0.1440E+03
    -26.561  0.0000E+00  0.0000E+00  0.1440E+03  0.1440E+03
    -26.321  0.0000E+00  0.0000E+00  0.1440E+03  0.1440E+03
    -26.081  0.0000E+00  0.0000E+00  0.1440E+03  0.1440E+03
    -25.840  0.0000E+00  0.0000E+00  0.1440E+03  0.1440E+03
    -25.600  0.0000E+00  0.0000E+00  0.1440E+03  0.1440E+03
    -25.360  0.0000E+00  0.0000E+00  0.1440E+03  0.1440E+03
    -25.120  0.0000E+00  0.0000E+00  0.1440E+03  0.1440E+03
    -24.880  0.0000E+00  0.0000E+00  0.1440E+03  0.1440E+03
    -24.640  0.0000E+00  0.0000E+00  0.1440E+03  0.1440E+03
    -24.400  0.0000E+00  0.0000E+00  0.1440E+03  0.1440E+03
    -24.159  0.0000E+00  0.0000E+00  0.1440E+03  0.1440E+03
    -23.919  0.0000E+00  0.0000E+00  0.1440E+03  0.1440E+03
    -23.679  0.0000E+00  0.0000E+00  0.1440E+03  0.1440E+03
    -23.439  0.0000E+00  0.0000E+00  0.1440E+03  0.1440E+03
    -23.199  0.0000E+00  0.0000E+00  0.1440E+03  0.1440E+03
    -22.959  0.0000E+00  0.0000E+00  0.1440E+03  0.1440E+03
    -22.719  0.0000E+00  0.0000E+00  0.1440E+03  0.1440E+03
    -22.479  0.0000E+00  0.0000E+00  0.1440E+03  0.1440E+03
    -22.238  0.0000E+00  0.0000E+00  0.1440E+03  0.1440E+03
    -21.998  0.0000E+00  0.0000E+00  0.1440E+03  0.1440E+03
    -21.758  0.0000E+00  0.0000E+00  0.1440E+03  0.1440E+03
    -21.518  0.0000E+00  0.0000E+00  0.1440E+03  0.1440E+03
    -21.278  0.0000E+00  0.0000E+00  0.1440E+03  0.1440E+03
    -21.038  0.0000E+00  0.0000E+00  0.1440E+03  0.1440E+03
    -20.798  0.0000E+00  0.0000E+00  0.1440E+03  0.1440E+03
    -20.557  0.0000E+00  0.0000E+00  0.1440E+03  0.1440E+03
    -20.317  0.0000E+00  0.0000E+00  0.1440E+03  0.1440E+03
    -20.077  0.0000E+00  0.0000E+00  0.1440E+03  0.1440E+03
    -19.837  0.0000E+00  0.0000E+00  0.1440E+03  0.1440E+03
    -19.597  0.0000E+00  0.0000E+00  0.1440E+03  0.1440E+03
    -19.357  0.0000E+00  0.0000E+00  0.1440E+03  0.1440E+03
    -19.117  0.0000E+00  0.0000E+00  0.1440E+03  0.1440E+03
    -18.876  0.0000E+00  0.0000E+00  0.1440E+03  0.1440E+03
    -18.636  0.0000E+00  0.0000E+00  0.1440E+03  0.1440E+03
    -18.396  0.0000E+00  0.0000E+00  0.1440E+03  0.1440E+03
    -18.156  0.0000E+00  0.0000E+00  0.1440E+03  0.1440E+03
    -17.916  0.0000E+00  0.0000E+00  0.1440E+03  0.1440E+03
    -17.676  0.0000E+00  0.0000E+00  0.1440E+03  0.1440E+03
    -17.436  0.0000E+00  0.0000E+00  0.1440E+03  0.1440E+03
    -17.196  0.0000E+00  0.0000E+00  0.1440E+03  0.1440E+03
    -16.955  0.0000E+00  0.0000E+00  0.1440E+03  0.1440E+03
    -16.715  0.0000E+00  0.0000E+00  0.1440E+03  0.1440E+03
    -16.475  0.0000E+00  0.0000E+00  0.1440E+03  0.1440E+03
    -16.235  0.0000E+00  0.0000E+00  0.1440E+03  0.1440E+03
    -15.995  0.0000E+00  0.0000E+00  0.1440E+03  0.1440E+03
    -15.755  0.0000E+00  0.0000E+00  0.1440E+03  0.1440E+03
    -15.515  0.0000E+00  0.0000E+00  0.1440E+03  0.1440E+03
    -15.274  0.0000E+00  0.0000E+00  0.1440E+03  0.1440E+03
    -15.034  0.0000E+00  0.0000E+00  0.1440E+03  0.1440E+03
    -14.794  0.0000E+00  0.0000E+00  0.1440E+03  0.1440E+03
    -14.554  0.0000E+00  0.0000E+00  0.1440E+03  0.1440E+03
    -14.314  0.0000E+00  0.0000E+00  0.1440E+03  0.1440E+03
    -14.074  0.0000E+00  0.0000E+00  0.1440E+03  0.1440E+03
    -13.834  0.0000E+00  0.0000E+00  0.1440E+03  0.1440E+03
    -13.594  0.0000E+00  0.0000E+00  0.1440E+03  0.1440E+03
    -13.353  0.0000E+00  0.0000E+00  0.1440E+03  0.1440E+03
    -13.113  0.0000E+00  0.0000E+00  0.1440E+03  0.1440E+03
    -12.873  0.3182E-01  0.0000E+00  0.1440E+03  0.1440E+03
    -12.633  0.7320E+02  0.6119E-03  0.1616E+03  0.1440E+03
    -12.393  0.1730E+01  0.6470E+02  0.1620E+03  0.1595E+03
    -12.153  0.0000E+00  0.1025E+02  0.1620E+03  0.1620E+03
    -11.913  0.0000E+00  0.0000E+00  0.1620E+03  0.1620E+03
    -11.672  0.0000E+00  0.0000E+00  0.1620E+03  0.1620E+03
    -11.432  0.0000E+00  0.0000E+00  0.1620E+03  0.1620E+03
    -11.192  0.0000E+00  0.0000E+00  0.1620E+03  0.1620E+03
    -10.952  0.0000E+00  0.0000E+00  0.1620E+03  0.1620E+03
    -10.712  0.0000E+00  0.0000E+00  0.1620E+03  0.1620E+03
    -10.472  0.0000E+00  0.0000E+00  0.1620E+03  0.1620E+03
    -10.232  0.0000E+00  0.0000E+00  0.1620E+03  0.1620E+03
     -9.991  0.0000E+00  0.0000E+00  0.1620E+03  0.1620E+03
     -9.751  0.0000E+00  0.0000E+00  0.1620E+03  0.1620E+03
     -9.511  0.0000E+00  0.0000E+00  0.1620E+03  0.1620E+03
     -9.271  0.0000E+00  0.0000E+00  0.1620E+03  0.1620E+03
     -9.031  0.0000E+00  0.0000E+00  0.1620E+03  0.1620E+03
     -8.791  0.0000E+00  0.0000E+00  0.1620E+03  0.1620E+03
     -8.551  0.0000E+00  0.0000E+00  0.1620E+03  0.1620E+03
     -8.311  0.0000E+00  0.0000E+00  0.1620E+03  0.1620E+03
     -8.070  0.0000E+00  0.0000E+00  0.1620E+03  0.1620E+03
     -7.830  0.8242E-02  0.1772E-14  0.1620E+03  0.1620E+03
     -7.590  0.7933E+01  0.9085E-01  0.1639E+03  0.1620E+03
     -7.350  0.1443E+02  0.9762E+01  0.1674E+03  0.1644E+03
     -7.110  0.2468E+02  0.1724E+02  0.1733E+03  0.1685E+03
     -6.870  0.7411E+02  0.2413E+02  0.1911E+03  0.1743E+03
     -6.630  0.2875E+02  0.7029E+02  0.1980E+03  0.1912E+03
     -6.389  0.1263E-03  0.2839E+02  0.1980E+03  0.1980E+03
     -6.149  0.0000E+00  0.1079E-01  0.1980E+03  0.1980E+03
     -5.909  0.0000E+00  0.0000E+00  0.1980E+03  0.1980E+03
     -5.669  0.0000E+00  0.0000E+00  0.1980E+03  0.1980E+03
     -5.429  0.0000E+00  0.0000E+00  0.1980E+03  0.1980E+03
     -5.189  0.0000E+00  0.0000E+00  0.1980E+03  0.1980E+03
     -4.949  0.0000E+00  0.0000E+00  0.1980E+03  0.1980E+03
     -4.708  0.0000E+00  0.0000E+00  0.1980E+03  0.1980E+03
     -4.468  0.0000E+00  0.0000E+00  0.1980E+03  0.1980E+03
     -4.228  0.0000E+00  0.0000E+00  0.1980E+03  0.1980E+03
     -3.988  0.0000E+00  0.0000E+00  0.1980E+03  0.1980E+03
     -3.748  0.0000E+00  0.0000E+00  0.1980E+03  0.1980E+03
     -3.508  0.0000E+00  0.0000E+00  0.1980E+03  0.1980E+03
     -3.268  0.0000E+00  0.0000E+00  0.1980E+03  0.1980E+03
     -3.028  0.0000E+00  0.0000E+00  0.1980E+03  0.1980E+03
     -2.787  0.0000E+00  0.0000E+00  0.1980E+03  0.1980E+03
     -2.547  0.0000E+00  0.0000E+00  0.1980E+03  0.1980E+03
     -2.307  0.0000E+00  0.0000E+00  0.1980E+03  0.1980E+03
     -2.067  0.0000E+00  0.0000E+00  0.1980E+03  0.1980E+03
     -1.827  0.4880E-15  0.0000E+00  0.1980E+03  0.1980E+03
     -1.587  0.1510E+00  0.0000E+00  0.1980E+03  0.1980E+03
     -1.347  0.4666E+02  0.0000E+00  0.2092E+03  0.1980E+03
     -1.106  0.2814E+02  0.0000E+00  0.2160E+03  0.1980E+03
     -0.866  0.3152E+01  0.0000E+00  0.2168E+03  0.1980E+03
     -0.626  0.4047E+02  0.6296E-10  0.2265E+03  0.1980E+03
     -0.386  0.1098E+03  0.1339E+01  0.2528E+03  0.1983E+03
     -0.146  0.1156E+03  0.1264E+02  0.2806E+03  0.2014E+03
      0.094  0.1050E+03  0.2004E+02  0.3058E+03  0.2062E+03
      0.334  0.8738E+02  0.2750E+02  0.3268E+03  0.2128E+03
      0.574  0.7685E+02  0.3088E+02  0.3453E+03  0.2202E+03
      0.815  0.3478E+02  0.3752E+02  0.3536E+03  0.2292E+03
      1.055  0.3028E+02  0.3598E+02  0.3609E+03  0.2378E+03
      1.295  0.4999E+02  0.4692E+02  0.3729E+03  0.2491E+03
      1.535  0.3211E+02  0.3088E+02  0.3806E+03  0.2565E+03
      1.775  0.5671E+02  0.6168E+02  0.3942E+03  0.2713E+03
      2.015  0.1238E+03  0.4706E+02  0.4240E+03  0.2826E+03
      2.255  0.7821E+02  0.1852E+02  0.4427E+03  0.2871E+03
      2.496  0.5323E+02  0.3033E+02  0.4555E+03  0.2944E+03
      2.736  0.3976E+02  0.5974E+02  0.4651E+03  0.3087E+03
      2.976  0.2529E+02  0.4970E+02  0.4711E+03  0.3206E+03
      3.216  0.1591E+02  0.5650E+02  0.4750E+03  0.3342E+03
      3.456  0.2757E+02  0.7522E+02  0.4816E+03  0.3523E+03
      3.696  0.4038E+02  0.2639E+02  0.4913E+03  0.3586E+03
      3.936  0.4256E+02  0.1956E+02  0.5015E+03  0.3633E+03
      4.177  0.4504E+02  0.9385E+02  0.5123E+03  0.3858E+03
      4.417  0.4517E+02  0.4063E+02  0.5232E+03  0.3956E+03
      4.657  0.2498E+02  0.1667E+01  0.5292E+03  0.3960E+03
      4.897  0.2766E+02  0.0000E+00  0.5358E+03  0.3960E+03
      5.137  0.1746E+02  0.0000E+00  0.5400E+03  0.3960E+03
      5.377  0.3618E-01  0.0000E+00  0.5400E+03  0.3960E+03
      5.617  0.0000E+00  0.0000E+00  0.5400E+03  0.3960E+03
      5.857  0.0000E+00  0.0000E+00  0.5400E+03  0.3960E+03
      6.098  0.0000E+00  0.4038E-13  0.5400E+03  0.3960E+03
      6.338  0.0000E+00  0.1776E+00  0.5400E+03  0.3960E+03
      6.578  0.0000E+00  0.4453E+01  0.5400E+03  0.3971E+03
      6.818  0.0000E+00  0.1382E+02  0.5400E+03  0.4004E+03
      7.058  0.0000E+00  0.2996E+02  0.5400E+03  0.4076E+03
      7.298  0.7042E-05  0.5683E+02  0.5400E+03  0.4213E+03
      7.538  0.5347E+00  0.7990E+02  0.5401E+03  0.4405E+03
      7.779  0.2315E+01  0.6731E+02  0.5407E+03  0.4566E+03
      8.019  0.1676E+01  0.8339E+02  0.5411E+03  0.4766E+03
      8.259  0.7096E+01  0.9899E+02  0.5428E+03  0.5004E+03
      8.499  0.7687E+01  0.3869E+02  0.5446E+03  0.5097E+03
      8.739  0.4748E+01  0.4437E+02  0.5458E+03  0.5204E+03
      8.979  0.1133E+02  0.4030E+02  0.5485E+03  0.5300E+03
      9.219  0.2026E+02  0.3935E+02  0.5534E+03  0.5395E+03
      9.460  0.2080E+02  0.1498E+02  0.5584E+03  0.5431E+03
      9.700  0.3075E+02  0.1564E+02  0.5657E+03  0.5468E+03
      9.940  0.2757E+02  0.1311E+02  0.5724E+03  0.5500E+03
     10.180  0.1730E+02  0.2571E+02  0.5765E+03  0.5562E+03
     10.420  0.1459E+02  0.2220E+02  0.5800E+03  0.5615E+03
     10.660  0.1893E+02  0.2769E+02  0.5846E+03  0.5681E+03
     10.900  0.2372E+02  0.2487E+02  0.5903E+03  0.5741E+03
     11.140  0.2881E+02  0.2497E+02  0.5972E+03  0.5801E+03
     11.381  0.2914E+02  0.2038E+02  0.6042E+03  0.5850E+03
     11.621  0.3031E+02  0.2436E+02  0.6115E+03  0.5909E+03
     11.861  0.3004E+02  0.2682E+02  0.6187E+03  0.5973E+03
     12.101  0.4166E+02  0.2657E+02  0.6287E+03  0.6037E+03
     12.341  0.5019E+02  0.3627E+02  0.6407E+03  0.6124E+03
     12.581  0.2537E+02  0.3818E+02  0.6468E+03  0.6215E+03
     12.821  0.2737E+02  0.4653E+02  0.6534E+03  0.6327E+03
     13.062  0.3288E+02  0.3542E+02  0.6613E+03  0.6412E+03
     13.302  0.3674E+02  0.3001E+02  0.6701E+03  0.6484E+03
     13.542  0.2431E+02  0.4823E+02  0.6759E+03  0.6600E+03
     13.782  0.1259E+02  0.3848E+02  0.6790E+03  0.6693E+03
     14.022  0.4280E+01  0.2088E+02  0.6800E+03  0.6743E+03
     14.262  0.3359E-02  0.1811E+02  0.6800E+03  0.6786E+03
     14.502  0.0000E+00  0.5739E+01  0.6800E+03  0.6800E+03
     14.742  0.0000E+00  0.8496E-05  0.6800E+03  0.6800E+03
     14.983  0.0000E+00  0.0000E+00  0.6800E+03  0.6800E+03
     15.223  0.0000E+00  0.0000E+00  0.6800E+03  0.6800E+03
     15.463  0.0000E+00  0.0000E+00  0.6800E+03  0.6800E+03
     15.703  0.0000E+00  0.0000E+00  0.6800E+03  0.6800E+03
     15.943  0.0000E+00  0.0000E+00  0.6800E+03  0.6800E+03
     16.183  0.0000E+00  0.0000E+00  0.6800E+03  0.6800E+03
     16.423  0.0000E+00  0.0000E+00  0.6800E+03  0.6800E+03
     16.664  0.0000E+00  0.0000E+00  0.6800E+03  0.6800E+03
     16.904  0.0000E+00  0.0000E+00  0.6800E+03  0.6800E+03
     17.144  0.0000E+00  0.0000E+00  0.6800E+03  0.6800E+03
     17.384  0.0000E+00  0.0000E+00  0.6800E+03  0.6800E+03
     17.624  0.0000E+00  0.0000E+00  0.6800E+03  0.6800E+03
