 vasp.5.4.4.18Apr17-6-g9f103f2a35 (build Oct 25 2017 14:42:18) complex          
  
 executed on             LinuxIFC date 2021.04.17  04:17:48
 running on   48 total cores
 distrk:  each k-point on   24 cores,    2 groups
 distr:  one band on NCORES_PER_BAND=   6 cores,    4 groups


--------------------------------------------------------------------------------------------------------


 INCAR:
 POTCAR:    PAW_PBE Li_sv 10Sep2004               
 POTCAR:    PAW_PBE O 08Apr2002                   
 POTCAR:    PAW_PBE S 06Sep2000                   
 POTCAR:    PAW_PBE Fe_pv 02Aug2007               

 ----------------------------------------------------------------------------- 
|                                                                             |
|           W    W    AA    RRRRR   N    N  II  N    N   GGGG   !!!           |
|           W    W   A  A   R    R  NN   N  II  NN   N  G    G  !!!           |
|           W    W  A    A  R    R  N N  N  II  N N  N  G       !!!           |
|           W WW W  AAAAAA  RRRRR   N  N N  II  N  N N  G  GGG   !            |
|           WW  WW  A    A  R   R   N   NN  II  N   NN  G    G                |
|           W    W  A    A  R    R  N    N  II  N    N   GGGG   !!!           |
|                                                                             |
|      You have enabled k-point parallelism (KPAR>1).                         |
|      This developmental code was originally  written by Paul Kent at ORNL,  |
|      and carefully double checked in Vienna.                                |
|      GW as well as linear response parallelism added by Martijn Marsman     |
|      and Georg Kresse.                                                      |
|      Carefully verify results versus KPAR=1.                                |
|      Report problems to Paul Kent and Vienna.                               |
|                                                                             |
 ----------------------------------------------------------------------------- 

 POTCAR:    PAW_PBE Li_sv 10Sep2004               
  local pseudopotential read in
  atomic valenz-charges read in
  non local Contribution for L=           0  read in
    real space projection operators read in
  non local Contribution for L=           0  read in
    real space projection operators read in
  non local Contribution for L=           1  read in
    real space projection operators read in
    PAW grid and wavefunctions read in
 
   number of l-projection  operators is LMAX  =           3
   number of lm-projection operators is LMMAX =           5
 
 POTCAR:    PAW_PBE O 08Apr2002                   
  local pseudopotential read in
  partial core-charges read in
  partial kinetic energy density read in
  kinetic energy density of atom read in
  atomic valenz-charges read in
  non local Contribution for L=           0  read in
    real space projection operators read in
  non local Contribution for L=           0  read in
    real space projection operators read in
  non local Contribution for L=           1  read in
    real space projection operators read in
  non local Contribution for L=           1  read in
    real space projection operators read in
    PAW grid and wavefunctions read in
 
   number of l-projection  operators is LMAX  =           4
   number of lm-projection operators is LMMAX =           8
 
 POTCAR:    PAW_PBE S 06Sep2000                   
  local pseudopotential read in
  partial core-charges read in
  partial kinetic energy density read in
  atomic valenz-charges read in
  non local Contribution for L=           0  read in
    real space projection operators read in
  non local Contribution for L=           0  read in
    real space projection operators read in
  non local Contribution for L=           1  read in
    real space projection operators read in
  non local Contribution for L=           1  read in
    real space projection operators read in
    PAW grid and wavefunctions read in
 
   number of l-projection  operators is LMAX  =           4
   number of lm-projection operators is LMMAX =           8
 
 POTCAR:    PAW_PBE Fe_pv 02Aug2007               
  local pseudopotential read in
  partial core-charges read in
  partial kinetic energy density read in
  atomic valenz-charges read in
  non local Contribution for L=           1  read in
    real space projection operators read in
  non local Contribution for L=           1  read in
    real space projection operators read in
  non local Contribution for L=           2  read in
    real space projection operators read in
  non local Contribution for L=           2  read in
    real space projection operators read in
  non local Contribution for L=           0  read in
    real space projection operators read in
  non local Contribution for L=           0  read in
    real space projection operators read in
    PAW grid and wavefunctions read in
 
   number of l-projection  operators is LMAX  =           6
   number of lm-projection operators is LMMAX =          18
 

 ----------------------------------------------------------------------------- 
|                                                                             |
|  ADVICE TO THIS USER RUNNING 'VASP/VAMP'   (HEAR YOUR MASTER'S VOICE ...):  |
|                                                                             |
|      You have a (more or less) 'large supercell' and for larger cells       |
|      it might be more efficient to use real space projection opertators     |
|      So try LREAL= Auto  in the INCAR   file.                               |
|      Mind:          For very  accurate calculation you might also keep the  |
|      reciprocal projection scheme          (i.e. LREAL=.FALSE.)             |
|                                                                             |
 ----------------------------------------------------------------------------- 

  PAW_PBE Li_sv 10Sep2004               :
 energy of atom  1       EATOM= -202.7858
 kinetic energy error for atom=    0.0072 (will be added to EATOM!!)
  PAW_PBE O 08Apr2002                   :
 energy of atom  2       EATOM= -432.3788
 kinetic energy error for atom=    0.0129 (will be added to EATOM!!)
  PAW_PBE S 06Sep2000                   :
 energy of atom  3       EATOM= -276.8230
 kinetic energy error for atom=    0.0008 (will be added to EATOM!!)
  PAW_PBE Fe_pv 02Aug2007               :
 energy of atom  4       EATOM=-2457.4239
 kinetic energy error for atom=    0.0041 (will be added to EATOM!!)
 
 
 POSCAR: # Compound: Li36O18S36Fe36. Old comment:
  positions in direct lattice
  No initial velocities read in
 exchange correlation table for  LEXCH =        8
   RHO(1)=    0.500       N(1)  =     2000
   RHO(2)=  100.500       N(2)  =     4000
 


--------------------------------------------------------------------------------------------------------


 ion  position               nearest neighbor table
   1  0.149  0.017  0.999-  37 1.93  39 1.93
   2  0.483  0.017  0.000-  38 1.93  37 1.93
   3  0.816  0.017  0.000-  39 1.93  38 1.93
   4  0.149  0.351  0.000-  40 1.93  42 1.93
   5  0.483  0.351  0.000-  41 1.93  40 1.93
   6  0.816  0.351  0.000-  42 1.93  41 1.93
   7  0.149  0.684  0.000-  43 1.93  45 1.93
   8  0.483  0.684  0.000-  44 1.93  43 1.93
   9  0.816  0.684  0.000-  45 1.93  44 1.93
  10  0.149  0.017  0.500-  46 1.93  48 1.93
  11  0.483  0.017  0.500-  47 1.93  46 1.93
  12  0.816  0.017  0.500-  48 1.93  47 1.93
  13  0.149  0.351  0.500-  49 1.93  51 1.93
  14  0.483  0.351  0.500-  50 1.93  49 1.93
  15  0.816  0.351  0.500-  51 1.93  50 1.93
  16  0.149  0.684  0.500-  52 1.93  54 1.93
  17  0.483  0.684  0.500-  53 1.93  52 1.93
  18  0.816  0.684  0.500-  54 1.93  53 1.93
  19  0.316  0.184  0.500-  46 1.93  49 1.93
  20  0.649  0.184  0.500-  47 1.93  50 1.93
  21  0.983  0.184  0.500-  48 1.93  51 1.93
  22  0.316  0.517  0.500-  49 1.93  52 1.93
  23  0.649  0.517  0.500-  50 1.93  53 1.93
  24  0.983  0.517  0.500-  51 1.93  54 1.93
  25  0.316  0.851  0.500-  52 1.93  46 1.93
  26  0.649  0.851  0.500-  53 1.93  47 1.93
  27  0.983  0.851  0.500-  54 1.93  48 1.93
  28  0.316  0.184  1.000-  37 1.93  40 1.93
  29  0.649  0.184  1.000-  38 1.93  41 1.93
  30  0.983  0.184  1.000-  39 1.93  42 1.93
  31  0.316  0.517  1.000-  40 1.93  43 1.93
  32  0.649  0.517  1.000-  41 1.93  44 1.93
  33  0.983  0.517  1.000-  42 1.93  45 1.93
  34  0.316  0.851  1.000-  43 1.93  37 1.93
  35  0.649  0.851  1.000-  44 1.93  38 1.93
  36  0.983  0.851  1.000-  45 1.93  39 1.93
  37  0.316  0.017  0.000-   1 1.93  28 1.93   2 1.93  34 1.93  92 2.04 124 2.04
  38  0.649  0.017  0.000-  29 1.93   2 1.93   3 1.93  35 1.93  93 2.04 125 2.04
  39  0.983  0.017  0.000-  30 1.93   3 1.93  36 1.93   1 1.93  91 2.04 126 2.04
  40  0.316  0.351  0.000-  31 1.93   4 1.93   5 1.93  28 1.93  95 2.04 118 2.04
  41  0.649  0.351  0.000-  32 1.93   5 1.93   6 1.93  29 1.93  96 2.04 119 2.04
  42  0.983  0.351  0.000-  33 1.93   6 1.93   4 1.93  30 1.93  94 2.04 120 2.04
  43  0.316  0.684  0.000-  34 1.93   7 1.93   8 1.93  31 1.93  98 2.04 121 2.04
  44  0.649  0.684  0.000-  35 1.93   8 1.93   9 1.93  32 1.93  99 2.04 122 2.04
  45  0.983  0.684  0.000-  36 1.93   9 1.93   7 1.93  33 1.93  97 2.04 123 2.04
  46  0.316  0.017  0.500-  19 1.93  10 1.93  11 1.93  25 1.93 101 2.04 115 2.04
  47  0.649  0.017  0.500-  20 1.93  11 1.93  12 1.93  26 1.93 102 2.04 116 2.04
  48  0.983  0.017  0.500-  21 1.93  12 1.93  10 1.93  27 1.93 100 2.04 117 2.04
  49  0.316  0.351  0.500-  22 1.93  13 1.93  14 1.93  19 1.93 104 2.04 109 2.04
  50  0.649  0.351  0.500-  23 1.93  14 1.93  15 1.93  20 1.93 105 2.04 110 2.04
  51  0.983  0.351  0.500-  24 1.93  15 1.93  13 1.93  21 1.93 103 2.04 111 2.04
  52  0.316  0.684  0.500-  25 1.93  16 1.93  17 1.93  22 1.93 107 2.04 112 2.04
  53  0.649  0.684  0.500-  26 1.93  17 1.93  18 1.93  23 1.93 108 2.04 113 2.04
  54  0.983  0.684  0.500-  27 1.93  18 1.93  16 1.93  24 1.93 106 2.04 114 2.04
  55  0.199  0.234  0.150- 109 2.43  91 2.73  94 2.73  92 2.73  95 2.73
  56  0.533  0.234  0.150- 110 2.43  92 2.73  95 2.73  93 2.73  96 2.73
  57  0.866  0.234  0.150- 111 2.43  93 2.73  96 2.73  91 2.73  94 2.73
  58  0.199  0.567  0.150- 112 2.43  94 2.73  97 2.73  95 2.73  98 2.73
  59  0.533  0.567  0.150- 113 2.43  95 2.73  98 2.73  96 2.73  99 2.73
  60  0.866  0.567  0.150- 114 2.43  96 2.73  99 2.73  94 2.73  97 2.73
  61  0.199  0.901  0.150- 115 2.43  97 2.73  91 2.73  98 2.73  92 2.73
  62  0.533  0.901  0.150- 116 2.43  98 2.73  92 2.73  99 2.73  93 2.73
  63  0.866  0.901  0.150- 117 2.43  99 2.73  93 2.73  97 2.73  91 2.73
  64  0.199  0.234  0.650- 118 2.43 100 2.73 103 2.73 101 2.73 104 2.73
  65  0.533  0.234  0.650- 119 2.43 101 2.73 104 2.73 102 2.73 105 2.73
  66  0.866  0.234  0.650- 120 2.43 102 2.73 105 2.73 100 2.73 103 2.73
  67  0.199  0.567  0.650- 121 2.43 103 2.73 106 2.73 104 2.73 107 2.73
  68  0.533  0.567  0.650- 122 2.43 104 2.73 107 2.73 105 2.73 108 2.73
  69  0.866  0.567  0.650- 123 2.43 105 2.73 108 2.73 103 2.73 106 2.73
  70  0.199  0.901  0.650- 124 2.43 106 2.73 100 2.73 107 2.73 101 2.73
  71  0.533  0.901  0.650- 125 2.43 107 2.73 101 2.73 108 2.73 102 2.73
  72  0.866  0.901  0.650- 126 2.43 108 2.73 102 2.73 106 2.73 100 2.73
  73  0.099  0.134  0.350-  91 2.43 109 2.73 111 2.73 115 2.73 117 2.73
  74  0.433  0.134  0.350-  92 2.43 110 2.73 109 2.73 116 2.73 115 2.73
  75  0.766  0.134  0.350-  93 2.43 111 2.73 110 2.73 117 2.73 116 2.73
  76  0.099  0.467  0.350-  94 2.43 112 2.73 114 2.73 109 2.73 111 2.73
  77  0.433  0.467  0.350-  95 2.43 113 2.73 112 2.73 110 2.73 109 2.73
  78  0.766  0.467  0.350-  96 2.43 114 2.73 113 2.73 111 2.73 110 2.73
  79  0.099  0.801  0.350-  97 2.43 115 2.73 117 2.73 112 2.73 114 2.73
  80  0.433  0.801  0.350-  98 2.43 116 2.73 115 2.73 113 2.73 112 2.73
  81  0.766  0.801  0.350-  99 2.43 117 2.73 116 2.73 114 2.73 113 2.73
  82  0.099  0.134  0.850- 100 2.43 118 2.73 120 2.73 124 2.73 126 2.73
  83  0.433  0.134  0.850- 101 2.43 119 2.73 118 2.73 125 2.73 124 2.73
  84  0.766  0.134  0.850- 102 2.43 120 2.73 119 2.73 126 2.73 125 2.73
  85  0.099  0.467  0.850- 103 2.43 121 2.73 123 2.73 118 2.73 120 2.73
  86  0.433  0.467  0.850- 104 2.43 122 2.73 121 2.73 119 2.73 118 2.73
  87  0.766  0.467  0.850- 105 2.43 123 2.73 122 2.73 120 2.73 119 2.73
  88  0.099  0.801  0.850- 106 2.43 124 2.73 126 2.73 121 2.73 123 2.73
  89  0.433  0.801  0.850- 107 2.43 125 2.73 124 2.73 122 2.73 121 2.73
  90  0.766  0.801  0.850- 108 2.43 126 2.73 125 2.73 123 2.73 122 2.73
  91  0.036  0.071  0.160-  39 2.04  73 2.43  55 2.73  61 2.73  57 2.73  63 2.73
  92  0.369  0.071  0.160-  37 2.04  74 2.43  56 2.73  62 2.73  55 2.73  61 2.73
  93  0.703  0.071  0.160-  38 2.04  75 2.43  57 2.73  63 2.73  56 2.73  62 2.73
  94  0.036  0.404  0.160-  42 2.04  76 2.43  58 2.73  55 2.73  60 2.73  57 2.73
  95  0.369  0.404  0.160-  40 2.04  77 2.43  59 2.73  56 2.73  58 2.73  55 2.73
  96  0.703  0.404  0.160-  41 2.04  78 2.43  60 2.73  57 2.73  59 2.73  56 2.73
  97  0.036  0.737  0.160-  45 2.04  79 2.43  61 2.73  58 2.73  63 2.73  60 2.73
  98  0.369  0.737  0.160-  43 2.04  80 2.43  62 2.73  59 2.73  61 2.73  58 2.73
  99  0.703  0.737  0.160-  44 2.04  81 2.43  63 2.73  60 2.73  62 2.73  59 2.73
 100  0.036  0.071  0.660-  48 2.04  82 2.43  64 2.73  70 2.73  66 2.73  72 2.73
 101  0.369  0.071  0.660-  46 2.04  83 2.43  65 2.73  71 2.73  64 2.73  70 2.73
 102  0.703  0.071  0.660-  47 2.04  84 2.43  66 2.73  72 2.73  65 2.73  71 2.73
 103  0.036  0.404  0.660-  51 2.04  85 2.43  67 2.73  64 2.73  69 2.73  66 2.73
 104  0.369  0.404  0.660-  49 2.04  86 2.43  68 2.73  65 2.73  67 2.73  64 2.73
 105  0.703  0.404  0.660-  50 2.04  87 2.43  69 2.73  66 2.73  68 2.73  65 2.73
 106  0.036  0.737  0.660-  54 2.04  88 2.43  70 2.73  67 2.73  72 2.73  69 2.73
 107  0.369  0.737  0.660-  52 2.04  89 2.43  71 2.73  68 2.73  70 2.73  67 2.73
 108  0.703  0.737  0.660-  53 2.04  90 2.43  72 2.73  69 2.73  71 2.73  68 2.73
 109  0.263  0.297  0.340-  49 2.04  55 2.43  73 2.73  74 2.73  76 2.73  77 2.73
 110  0.596  0.297  0.340-  50 2.04  56 2.43  74 2.73  75 2.73  77 2.73  78 2.73
 111  0.929  0.297  0.340-  51 2.04  57 2.43  75 2.73  73 2.73  78 2.73  76 2.73
 112  0.263  0.631  0.340-  52 2.04  58 2.43  76 2.73  77 2.73  79 2.73  80 2.73
 113  0.596  0.631  0.340-  53 2.04  59 2.43  77 2.73  78 2.73  80 2.73  81 2.73
 114  0.929  0.631  0.340-  54 2.04  60 2.43  78 2.73  76 2.73  81 2.73  79 2.73
 115  0.263  0.964  0.340-  46 2.04  61 2.43  79 2.73  80 2.73  73 2.73  74 2.73
 116  0.596  0.964  0.340-  47 2.04  62 2.43  80 2.73  81 2.73  74 2.73  75 2.73
 117  0.929  0.964  0.340-  48 2.04  63 2.43  81 2.73  79 2.73  75 2.73  73 2.73
 118  0.263  0.297  0.840-  40 2.04  64 2.43  82 2.73  83 2.73  85 2.73  86 2.73
 119  0.596  0.297  0.840-  41 2.04  65 2.43  83 2.73  84 2.73  86 2.73  87 2.73
 120  0.929  0.297  0.840-  42 2.04  66 2.43  84 2.73  82 2.73  87 2.73  85 2.73
 121  0.263  0.631  0.840-  43 2.04  67 2.43  85 2.73  86 2.73  88 2.73  89 2.73
 122  0.596  0.631  0.840-  44 2.04  68 2.43  86 2.73  87 2.73  89 2.73  90 2.73
 123  0.929  0.631  0.840-  45 2.04  69 2.43  87 2.73  85 2.73  90 2.73  88 2.73
 124  0.263  0.964  0.840-  37 2.04  70 2.43  88 2.73  89 2.73  82 2.73  83 2.73
 125  0.596  0.964  0.840-  38 2.04  71 2.43  89 2.73  90 2.73  83 2.73  84 2.73
 126  0.929  0.964  0.840-  39 2.04  72 2.43  90 2.73  88 2.73  84 2.73  82 2.73
 

IMPORTANT INFORMATION: All symmetrisations will be switched off!
NOSYMM: (Re-)initialisation of all symmetry stuff for point group C_1.

 
 
 KPOINTS: # No comment                            

Automatic generation of k-mesh.
Space group operators:
 irot       det(A)        alpha          n_x          n_y          n_z        tau_x        tau_y        tau_z
    1     1.000000     0.000000     1.000000     0.000000     0.000000     0.000000     0.000000     0.000000
 
 Subroutine IBZKPT returns following result:
 ===========================================
 
 Found     10 irreducible k-points:
 
 Following reciprocal coordinates:
            Coordinates               Weight
  0.000000  0.000000  0.000000      1.000000
  0.333333  0.000000 -0.000000      2.000000
 -0.000000  0.333333  0.000000      2.000000
  0.333333  0.333333 -0.000000      2.000000
 -0.333333  0.333333  0.000000      2.000000
  0.000000 -0.000000  0.500000      1.000000
  0.333333 -0.000000  0.500000      2.000000
  0.000000  0.333333  0.500000      2.000000
  0.333333  0.333333  0.500000      2.000000
 -0.333333  0.333333  0.500000      2.000000
 
 Following cartesian coordinates:
            Coordinates               Weight
  0.000000  0.000000  0.000000      1.000000
  0.028801  0.000012  0.008684      2.000000
  0.000002  0.028801  0.008684      2.000000
  0.028803  0.028813  0.017368      2.000000
 -0.028799  0.028789 -0.000000      2.000000
  0.000032  0.000032  0.039185      1.000000
  0.028833  0.000044  0.047869      2.000000
  0.000034  0.028833  0.047869      2.000000
  0.028835  0.028845  0.056553      2.000000
 -0.028767  0.028821  0.039185      2.000000
 


--------------------------------------------------------------------------------------------------------




 Dimension of arrays:
   k-points           NKPTS =     10   k-points in BZ     NKDIM =     10   number of bands    NBANDS=    680
   number of dos      NEDOS =    301   number of ions     NIONS =    126
   non local maximal  LDIM  =      6   non local SUM 2l+1 LMDIM =     18
   total plane-waves  NPLWV = ******
   max r-space proj   IRMAX =      1   max aug-charges    IRDMAX= 163177
   dimension x,y,z NGX =    96 NGY =   96 NGZ =  120
   dimension x,y,z NGXF=   192 NGYF=  192 NGZF=  240
   support grid    NGXF=   384 NGYF=  384 NGZF=  480
   ions per type =              36  18  36  36
   NGX,Y,Z   is equivalent  to a cutoff of  13.79, 13.79, 14.37 a.u.
   NGXF,Y,Z  is equivalent  to a cutoff of  27.57, 27.57, 28.75 a.u.

 SYSTEM =  unknown system                          
 POSCAR =  # Compound: Li36O18S36Fe36. Old comment:

 Startparameter for this run:
   NWRITE =      1    write-flag & timer
   PREC   = accura    normal or accurate (medium, high low for compatibility)
   ISTART =      0    job   : 0-new  1-cont  2-samecut
   ICHARG =      1    charge: 1-file 2-atom 10-const
   ISPIN  =      2    spin polarized calculation?
   LNONCOLLINEAR =      F non collinear calculations
   LSORBIT =      F    spin-orbit coupling
   INIWAV =      1    electr: 0-lowe 1-rand  2-diag
   LASPH  =      T    aspherical Exc in radial PAW
   METAGGA=      F    non-selfconsistent MetaGGA calc.

 Electronic Relaxation 1
   ENCUT  =  650.0 eV  47.77 Ry    6.91 a.u.  24.07 24.07 28.85*2*pi/ulx,y,z
   ENINI  =  650.0     initial cutoff
   ENAUG  =  628.9 eV  augmentation charge cutoff
   NELM   =    200;   NELMIN=  8; NELMDL=  0     # of ELM steps 
   EDIFF  = 0.1E-05   stopping-criterion for ELM
   LREAL  =      F    real-space projection
   NLSPLINE    = F    spline interpolate recip. space projectors
   LCOMPAT=      F    compatible to vasp.4.4
   GGA_COMPAT  = T    GGA compatible to vasp.4.4-vasp.4.6
   LMAXPAW     = -100 max onsite density
   LMAXMIX     =    4 max onsite mixed and CHGCAR
   VOSKOWN=      0    Vosko Wilk Nusair interpolation
   ROPT   =    0.00000   0.00000   0.00000   0.00000
 Ionic relaxation
   EDIFFG = 0.1E-04   stopping-criterion for IOM
   NSW    =      0    number of steps for IOM
   NBLOCK =      1;   KBLOCK =      1    inner block; outer block 
   IBRION =     -1    ionic relax: 0-MD 1-quasi-New 2-CG
   NFREE  =      0    steps in history (QN), initial steepest desc. (CG)
   ISIF   =      3    stress and relaxation
   IWAVPR =     10    prediction:  0-non 1-charg 2-wave 3-comb
   ISYM   =      0    0-nonsym 1-usesym 2-fastsym
   LCORR  =      T    Harris-Foulkes like correction to forces

   POTIM  = 0.5000    time-step for ionic-motion
   TEIN   =    0.0    initial temperature
   TEBEG  =    0.0;   TEEND  =   0.0 temperature during run
   SMASS  =  -3.00    Nose mass-parameter (am)
   estimated Nose-frequenzy (Omega)   =  0.10E-29 period in steps =****** mass=  -0.306E-26a.u.
   SCALEE = 1.0000    scale energy and forces
   NPACO  =    256;   APACO  = 16.0  distance and # of slots for P.C.
   PSTRESS=    0.0 pullay stress

  Mass of Ions in am
   POMASS =   7.01 16.00 32.07 55.85
  Ionic Valenz
   ZVAL   =   3.00  6.00  6.00 14.00
  Atomic Wigner-Seitz radii
   RWIGS  =  -1.00 -1.00 -1.00 -1.00
  virtual crystal weights 
   VCA    =   1.00  1.00  1.00  1.00
   NELECT =     936.0000    total number of electrons
   NUPDOWN=      -1.0000    fix difference up-down

 DOS related values:
   EMIN   =  10.00;   EMAX   =-10.00  energy-range for DOS
   EFERMI =   0.00
   ISMEAR =     0;   SIGMA  =   0.05  broadening in eV -4-tet -1-fermi 0-gaus

 Electronic relaxation 2 (details)
   IALGO  =     58    algorithm
   LDIAG  =      T    sub-space diagonalisation (order eigenvalues)
   LSUBROT=      F    optimize rotation matrix (better conditioning)
   TURBO    =      0    0=normal 1=particle mesh
   IRESTART =      0    0=no restart 2=restart with 2 vectors
   NREBOOT  =      0    no. of reboots
   NMIN     =      0    reboot dimension
   EREF     =   0.00    reference energy to select bands
   IMIX   =      4    mixing-type and parameters
     AMIX     =   0.40;   BMIX     =  1.00
     AMIX_MAG =   1.60;   BMIX_MAG =  1.00
     AMIN     =   0.10
     WC   =   100.;   INIMIX=   1;  MIXPRE=   1;  MAXMIX= -45

 Intra band minimization:
   WEIMIN = 0.0000     energy-eigenvalue tresh-hold
   EBREAK =  0.37E-09  absolut break condition
   DEPER  =   0.30     relativ break condition  

   TIME   =   0.40     timestep for ELM

  volume/ion in A,a.u.               =      13.57        91.59
  Fermi-wavevector in a.u.,A,eV,Ry     =   1.339150  2.530627 24.399639  1.793323
  Thomas-Fermi vector in A             =   2.467565
 
 Write flags
   LWAVE        =      F    write WAVECAR
   LDOWNSAMPLE  =      F    k-point downsampling of WAVECAR
   LCHARG       =      T    write CHGCAR
   LVTOT        =      F    write LOCPOT, total local potential
   LVHAR        =      F    write LOCPOT, Hartree potential only
   LELF         =      F    write electronic localiz. function (ELF)
   LORBIT       =      0    0 simple, 1 ext, 2 COOP (PROOUT), +10 PAW based schemes


 Dipole corrections
   LMONO  =      F    monopole corrections only (constant potential shift)
   LDIPOL =      F    correct potential (dipole corrections)
   IDIPOL =      0    1-x, 2-y, 3-z, 4-all directions 
   EPSILON=  1.0000000 bulk dielectric constant

 LDA+U is selected, type is set to LDAUTYPE =  2
   angular momentum for each species LDAUL =    -1   -1   -1    2
   U (eV)           for each species LDAUU =   0.0  0.0  0.0  4.0
   J (eV)           for each species LDAUJ =   0.0  0.0  0.0  0.0
 Exchange correlation treatment:
   GGA     =    PE    GGA type
   LEXCH   =     8    internal setting for exchange type
   VOSKOWN=      0    Vosko Wilk Nusair interpolation
   LHFCALC =     F    Hartree Fock is set to
   LHFONE  =     F    Hartree Fock one center treatment
   AEXX    =    0.0000 exact exchange contribution

 Linear response parameters
   LEPSILON=     F    determine dielectric tensor
   LRPA    =     F    only Hartree local field effects (RPA)
   LNABLA  =     F    use nabla operator in PAW spheres
   LVEL    =     F    velocity operator in full k-point grid
   LINTERFAST=   F  fast interpolation
   KINTER  =     0    interpolate to denser k-point grid
   CSHIFT  =0.1000    complex shift for real part using Kramers Kronig
   OMEGAMAX=  -1.0    maximum frequency
   DEG_THRESHOLD= 0.2000000E-02 threshold for treating states as degnerate
   RTIME   =   -0.100 relaxation time in fs
  (WPLASMAI=    0.000 imaginary part of plasma frequency in eV, 0.658/RTIME)
   DFIELD  = 0.0000000 0.0000000 0.0000000 field for delta impulse in time
 
 Orbital magnetization related:
   ORBITALMAG=     F  switch on orbital magnetization
   LCHIMAG   =     F  perturbation theory with respect to B field
   DQ        =  0.001000  dq finite difference perturbation B field
   LLRAUG    =     F  two centre corrections for induced B field



--------------------------------------------------------------------------------------------------------


 Static calculation
 charge density and potential will be updated during run
 spin polarized calculation
 Conjugate gradient for all bands (Freysoldt, et al. PRB 79, 241103 (2009))
 preconditioned conjugated gradient                                        
 perform sub-space diagonalisation
    before iterative eigenvector-optimisation
 modified Broyden-mixing scheme, WC =      100.0
 initial mixing is a Kerker type mixing with AMIX =  0.4000 and BMIX =      1.0000
 Hartree-type preconditioning will be used
 using additional bands          212
 reciprocal scheme for non local part
 use partial core corrections
 no Harris-corrections to forces 
 use gradient corrections 
 use of overlap-Matrix (Vanderbilt PP)
 Gauss-broadening in eV      SIGMA  =   0.05


--------------------------------------------------------------------------------------------------------


  energy-cutoff  :      650.00
  volume of cell :     1710.06
      direct lattice vectors                 reciprocal lattice vectors
    11.576583240  0.002066280 -0.009542910     0.086402742  0.000036295  0.026052044
    -0.001985520 11.576599830 -0.009542940     0.000006054  0.086402626  0.026052036
    -3.847679420 -3.849030720 12.766359180     0.000064591  0.000064614  0.078369816

  length of vectors
    11.576587358 11.576603934 13.878025836     0.090244912  0.090244792  0.078369870


 
 k-points in units of 2pi/SCALE and weight: # No comment                            
   0.00000000  0.00000000  0.00000000       0.056
   0.02880091  0.00001210  0.00868401       0.111
   0.00000202  0.02880088  0.00868401       0.111
   0.02880293  0.02881297  0.01736803       0.111
  -0.02879890  0.02878878 -0.00000000       0.111
   0.00003230  0.00003231  0.03918491       0.056
   0.02883321  0.00004441  0.04786892       0.111
   0.00003431  0.02883318  0.04786892       0.111
   0.02883523  0.02884528  0.05655294       0.111
  -0.02876660  0.02882108  0.03918491       0.111
 
 k-points in reciprocal lattice and weights: # No comment                            
   0.00000000  0.00000000  0.00000000       0.056
   0.33333333  0.00000000 -0.00000000       0.111
  -0.00000000  0.33333333  0.00000000       0.111
   0.33333333  0.33333333 -0.00000000       0.111
  -0.33333333  0.33333333  0.00000000       0.111
   0.00000000 -0.00000000  0.50000000       0.056
   0.33333333 -0.00000000  0.50000000       0.111
   0.00000000  0.33333333  0.50000000       0.111
   0.33333333  0.33333333  0.50000000       0.111
  -0.33333333  0.33333333  0.50000000       0.111
 
 position of ions in fractional coordinates (direct lattice) 
   0.14940024  0.01727802  0.99928654
   0.48273357  0.01727802  0.00000711
   0.81606690  0.01727802  0.00000711
   0.14940024  0.35061135  0.00000711
   0.48273357  0.35061135  0.00000711
   0.81606690  0.35061135  0.00000711
   0.14940024  0.68394468  0.00000711
   0.48273357  0.68394468  0.00000711
   0.81606690  0.68394468  0.00000711
   0.14940024  0.01727802  0.50000711
   0.48273357  0.01727802  0.50000711
   0.81606690  0.01727802  0.50000711
   0.14940024  0.35061135  0.50000711
   0.48273357  0.35061135  0.50000711
   0.81606690  0.35061135  0.50000711
   0.14940024  0.68394468  0.50000711
   0.48273357  0.68394468  0.50000711
   0.81606690  0.68394468  0.50000711
   0.31605532  0.18393310  0.49999289
   0.64938865  0.18393310  0.49999289
   0.98272198  0.18393310  0.49999289
   0.31605532  0.51726643  0.49999289
   0.64938865  0.51726643  0.49999289
   0.98272198  0.51726643  0.49999289
   0.31605532  0.85059976  0.49999289
   0.64938865  0.85059976  0.49999289
   0.98272198  0.85059976  0.49999289
   0.31605532  0.18393310  0.99999289
   0.64938865  0.18393310  0.99999289
   0.98272198  0.18393310  0.99999289
   0.31605532  0.51726643  0.99999289
   0.64938865  0.51726643  0.99999289
   0.98272198  0.51726643  0.99999289
   0.31605532  0.85059976  0.99999289
   0.64938865  0.85059976  0.99999289
   0.98272198  0.85059976  0.99999289
   0.31606288  0.01727079  0.00000000
   0.64939621  0.01727079  0.00000000
   0.98272954  0.01727079  0.00000000
   0.31606288  0.35060413  0.00000000
   0.64939621  0.35060413  0.00000000
   0.98272954  0.35060413  0.00000000
   0.31606288  0.68393746  0.00000000
   0.64939621  0.68393746  0.00000000
   0.98272954  0.68393746  0.00000000
   0.31606288  0.01727079  0.50000000
   0.64939621  0.01727079  0.50000000
   0.98272954  0.01727079  0.50000000
   0.31606288  0.35060413  0.50000000
   0.64939621  0.35060413  0.50000000
   0.98272954  0.35060413  0.50000000
   0.31606288  0.68393746  0.50000000
   0.64939621  0.68393746  0.50000000
   0.98272954  0.68393746  0.50000000
   0.19934057  0.23388678  0.14983771
   0.53267391  0.23388678  0.14983771
   0.86600724  0.23388678  0.14983771
   0.19934057  0.56722011  0.14983771
   0.53267391  0.56722011  0.14983771
   0.86600724  0.56722011  0.14983771
   0.19934057  0.90055344  0.14983771
   0.53267391  0.90055344  0.14983771
   0.86600724  0.90055344  0.14983771
   0.19934057  0.23388678  0.64983771
   0.53267391  0.23388678  0.64983771
   0.86600724  0.23388678  0.64983771
   0.19934057  0.56722011  0.64983771
   0.53267391  0.56722011  0.64983771
   0.86600724  0.56722011  0.64983771
   0.19934057  0.90055344  0.64983771
   0.53267391  0.90055344  0.64983771
   0.86600724  0.90055344  0.64983771
   0.09944656  0.13399276  0.35016229
   0.43277989  0.13399276  0.35016229
   0.76611322  0.13399276  0.35016229
   0.09944656  0.46732609  0.35016229
   0.43277989  0.46732609  0.35016229
   0.76611322  0.46732609  0.35016229
   0.09944656  0.80065943  0.35016229
   0.43277989  0.80065943  0.35016229
   0.76611322  0.80065943  0.35016229
   0.09944656  0.13399276  0.85016229
   0.43277989  0.13399276  0.85016229
   0.76611322  0.13399276  0.85016229
   0.09944656  0.46732609  0.85016229
   0.43277989  0.46732609  0.85016229
   0.76611322  0.46732609  0.85016229
   0.09944656  0.80065943  0.85016229
   0.43277989  0.80065943  0.85016229
   0.76611322  0.80065943  0.85016229
   0.03603208  0.07057630  0.15990037
   0.36936541  0.07057630  0.15990037
   0.70269875  0.07057630  0.15990037
   0.03603208  0.40390964  0.15990037
   0.36936541  0.40390964  0.15990037
   0.70269875  0.40390964  0.15990037
   0.03603208  0.73724297  0.15990037
   0.36936541  0.73724297  0.15990037
   0.70269875  0.73724297  0.15990037
   0.03603208  0.07057630  0.65990037
   0.36936541  0.07057630  0.65990037
   0.70269875  0.07057630  0.65990037
   0.03603208  0.40390964  0.65990037
   0.36936541  0.40390964  0.65990037
   0.70269875  0.40390964  0.65990037
   0.03603208  0.73724297  0.65990037
   0.36936541  0.73724297  0.65990037
   0.70269875  0.73724297  0.65990037
   0.26275703  0.29730125  0.34009963
   0.59609036  0.29730125  0.34009963
   0.92942370  0.29730125  0.34009963
   0.26275703  0.63063459  0.34009963
   0.59609036  0.63063459  0.34009963
   0.92942370  0.63063459  0.34009963
   0.26275703  0.96396792  0.34009963
   0.59609036  0.96396792  0.34009963
   0.92942370  0.96396792  0.34009963
   0.26275703  0.29730125  0.84009963
   0.59609036  0.29730125  0.84009963
   0.92942370  0.29730125  0.84009963
   0.26275703  0.63063459  0.84009963
   0.59609036  0.63063459  0.84009963
   0.92942370  0.63063459  0.84009963
   0.26275703  0.96396792  0.84009963
   0.59609036  0.96396792  0.84009963
   0.92942370  0.96396792  0.84009963
 
 position of ions in cartesian coordinates  (Angst):
  -2.11542429 -3.64595521 12.75566032
   5.58834371  0.20099080 -0.00468086
   9.44720479  0.20167956 -0.00786183
   1.72882079  4.05916865 -0.00468087
   5.58768187  4.05985741 -0.00786184
   9.44654295  4.06054617 -0.01104281
   1.72815895  7.91803526 -0.00786185
   5.58702003  7.91872402 -0.01104282
   9.44588111  7.91941278 -0.01422379
  -0.19435708 -1.72421332  6.38167970
   3.66450400 -1.72352456  6.37849873
   7.52336508 -1.72283580  6.37531776
  -0.19501892  2.13465329  6.37849872
   3.66384216  2.13534205  6.37531775
   7.52270324  2.13603081  6.37213678
  -0.19568076  5.99351990  6.37531774
   3.66318032  5.99420866  6.37213677
   7.52204140  5.99489742  6.36895580
   1.73466311  0.20548490  6.37831754
   5.59352419  0.20617366  6.37513657
   9.45238527  0.20686242  6.37195560
   1.73400127  4.06435151  6.37513656
   5.59286235  4.06504027  6.37195559
   9.45172343  4.06572903  6.36877462
   1.73333943  7.92321812  6.37195558
   5.59220051  7.92390688  6.36877461
   9.45106159  7.92459564  6.36559364
  -0.18917660 -1.71903046 12.76149713
   3.66968448 -1.71834170 12.75831616
   7.52854556 -1.71765294 12.75513519
  -0.18983844  2.13983615 12.75831615
   3.66902264  2.14052491 12.75513518
   7.52788372  2.14121367 12.75195421
  -0.19050028  5.99870276 12.75513517
   3.66836080  5.99939152 12.75195420
   7.52722188  6.00008028 12.74877323
   3.65889391  0.20059014 -0.00318097
   7.51775499  0.20127890 -0.00636194
  11.37661607  0.20196766 -0.00954291
   3.65823207  4.05945675 -0.00636195
   7.51709315  4.06014551 -0.00954292
  11.37595423  4.06083427 -0.01272389
   3.65757023  7.91832336 -0.00954293
   7.51643131  7.91901212 -0.01272390
  11.37529239  7.91970088 -0.01590487
   1.73505420 -1.72392522  6.37999862
   5.59391528 -1.72323646  6.37681765
   9.45277636 -1.72254770  6.37363668
   1.73439236  2.13494139  6.37681764
   5.59325344  2.13563015  6.37363667
   9.45211452  2.13631891  6.37045570
   1.73373052  5.99380800  6.37363666
   5.59259160  5.99449676  6.37045569
   9.45145268  5.99518552  6.36727472
   1.73069086  2.13129554  1.90874783
   5.58955194  2.13198430  1.90556686
   9.44841302  2.13267306  1.90238589
   1.73002902  5.99016215  1.90556685
   5.58889010  5.99085091  1.90238588
   9.44775118  5.99153967  1.89920491
   1.72936718  9.84902876  1.90238587
   5.58822826  9.84971752  1.89920490
   9.44708934  9.85040628  1.89602393
  -0.19314885  0.20678018  8.29192742
   3.66571223  0.20746894  8.28874645
   7.52457331  0.20815770  8.28556548
  -0.19381069  4.06564679  8.28874644
   3.66505039  4.06633555  8.28556547
   7.52391147  4.06702431  8.28238450
  -0.19447253  7.92451340  8.28556546
   3.66438855  7.92520216  8.28238449
   7.52324963  7.92589092  8.27920352
  -0.19632692  0.20360066  4.46806981
   3.66253416  0.20428942  4.46488884
   7.52139524  0.20497818  4.46170787
  -0.19698876  4.06246726  4.46488883
   3.66187232  4.06315602  4.46170786
   7.52073340  4.06384478  4.45852689
  -0.19765060  7.92133388  4.46170785
   3.66121048  7.92202264  4.45852688
   7.52007156  7.92271140  4.45534591
  -2.12016663 -1.72091470 10.85124940
   1.73869445 -1.72022594 10.84806843
   5.59755553 -1.71953718 10.84488746
  -2.12082847  2.13795190 10.84806842
   1.73803261  2.13864066 10.84488745
   5.59689369  2.13932942 10.84170648
  -2.12149031  5.99681852 10.84488744
   1.73737077  5.99750728 10.84170647
   5.59623185  5.99819604 10.83852550
  -0.19825714  0.20164662  2.04032826
   3.66060394  0.20233538  2.03714729
   7.51946502  0.20302414  2.03396632
  -0.19891898  4.06051323  2.03714728
   3.65994210  4.06120199  2.03396631
   7.51880318  4.06189075  2.03078534
  -0.19958082  7.91937984  2.03396630
   3.65928026  7.92006860  2.03078533
   7.51814134  7.92075736  2.02760436
  -2.12209685 -1.72286874  8.42350785
   1.73676423 -1.72217998  8.42032688
   5.59562531 -1.72149122  8.41714591
  -2.12275869  2.13599787  8.42032687
   1.73610239  2.13668663  8.41714590
   5.59496347  2.13737539  8.41396493
  -2.12342053  5.99486448  8.41714589
   1.73544055  5.99555324  8.41396492
   5.59430163  5.99624200  8.41078395
   1.73264400  2.13322666  4.33648938
   5.59150508  2.13391542  4.33330841
   9.45036616  2.13460418  4.33012744
   1.73198216  5.99209327  4.33330840
   5.59084324  5.99278203  4.33012743
   9.44970432  5.99347079  4.32694646
   1.73132032  9.85095988  4.33012742
   5.59018140  9.85164864  4.32694645
   9.44904248  9.85233740  4.32376548
  -0.19119571  0.20871130 10.71966897
   3.66766537  0.20940006 10.71648800
   7.52652645  0.21008882 10.71330703
  -0.19185755  4.06757791 10.71648799
   3.66700353  4.06826667 10.71330702
   7.52586461  4.06895543 10.71012605
  -0.19251939  7.92644452 10.71330701
   3.66634169  7.92713328 10.71012604
   7.52520277  7.92782204 10.70694507
 


--------------------------------------------------------------------------------------------------------


 k-point  1 :   0.0000 0.0000 0.0000  plane waves:   64263
 k-point  2 :   0.3333 0.0000-0.0000  plane waves:   64335
 k-point  3 :  -0.0000 0.3333 0.0000  plane waves:   64335
 k-point  4 :   0.3333 0.3333-0.0000  plane waves:   64357
 k-point  5 :  -0.3333 0.3333 0.0000  plane waves:   64358
 k-point  6 :   0.0000-0.0000 0.5000  plane waves:   64288
 k-point  7 :   0.3333-0.0000 0.5000  plane waves:   64351
 k-point  8 :   0.0000 0.3333 0.5000  plane waves:   64351
 k-point  9 :   0.3333 0.3333 0.5000  plane waves:   64367
 k-point 10 :  -0.3333 0.3333 0.5000  plane waves:   64380

 maximum and minimum number of plane-waves per node :     10768    10677

 maximum number of plane-waves:     64380
 maximum index in each direction: 
   IXMAX=   24   IYMAX=   24   IZMAX=   28
   IXMIN=  -24   IYMIN=  -24   IZMIN=  -29


 parallel 3D FFT for wavefunctions:
    minimum data exchange during FFTs selected (reduces bandwidth)
 parallel 3D FFT for charge:
    minimum data exchange during FFTs selected (reduces bandwidth)


 total amount of memory used by VASP MPI-rank0  2010615. kBytes
=======================================================================

   base      :      30000. kBytes
   nonl-proj :      83483. kBytes
   fftplans  :      59337. kBytes
   grid      :      50429. kBytes
   one-center:        653. kBytes
   wavefun   :    1786713. kBytes
 
     INWAV:  cpu time    0.0000: real time    0.0000
 Broyden mixing: mesh for mixing (old mesh)
   NGX = 49   NGY = 49   NGZ = 57
  (NGX  =192   NGY  =192   NGZ  =240)
  gives a total of 136857 points

 initial charge density was supplied:
 number of electron     936.0000012 magnetization     144.0000005
 charge density for first step will be calculated from the start-wavefunctions


--------------------------------------------------------------------------------------------------------


 Maximum index for augmentation-charges         6958 (set IRDMAX)


--------------------------------------------------------------------------------------------------------


 First call to EWALD:  gamma=   0.148
 Maximum number of real-space cells 3x 3x 3
 Maximum number of reciprocal cells 3x 3x 3

    FEWALD:  cpu time    0.0617: real time    0.0789


--------------------------------------- Iteration      1(   1)  ---------------------------------------


    POTLOK:  cpu time    0.6472: real time    0.6492
    SETDIJ:  cpu time    1.5523: real time    1.5701
    TRIAL :  cpu time  253.9311: real time  260.1517
    CORREC:  cpu time    0.0040: real time    0.0042
    --------------------------------------------
      LOOP:  cpu time  256.6870: real time  262.9366

 eigenvalue-minimisations  : 28328
 total energy-change (2. order) : 0.1264851E+05  (-0.5394364E+05)
 number of electron     936.0000012 magnetization     144.0000005
 augmentation part      936.0000012 magnetization     144.0000005

 Free energy of the ion-electron system (eV)
  ---------------------------------------------------
  alpha Z        PSCENC =      2639.27042227
  Ewald energy   TEWEN  =    -69235.15885276
  -Hartree energ DENC   =    -34827.58686044
  -exchange      EXHF   =         0.00000000
  -V(xc)+E(xc)   XCENC  =      3975.73292686
  PAW double counting   =    109952.41695739  -113408.94482908
  entropy T*S    EENTRO =        -0.02348840
  eigenvalues    EBANDS =        37.47408686
  atomic energy  EATOM  =    113515.32941094
  ---------------------------------------------------
  free energy    TOTEN  =     12648.50977364 eV

  energy without entropy =    12648.53326204  energy(sigma->0) =    12648.52151784


--------------------------------------------------------------------------------------------------------




--------------------------------------- Iteration      1(   2)  ---------------------------------------


    TRIAL :  cpu time  246.1461: real time  251.2385
    CORREC:  cpu time    0.0052: real time    0.0054
    --------------------------------------------
      LOOP:  cpu time  246.1574: real time  251.2506

 eigenvalue-minimisations  : 27200
 total energy-change (2. order) :-0.1127355E+05  (-0.1054572E+05)
 number of electron     936.0000012 magnetization     144.0000005
 augmentation part      936.0000012 magnetization     144.0000005

 Free energy of the ion-electron system (eV)
  ---------------------------------------------------
  alpha Z        PSCENC =      2639.27042227
  Ewald energy   TEWEN  =    -69235.15885276
  -Hartree energ DENC   =    -34827.58686044
  -exchange      EXHF   =         0.00000000
  -V(xc)+E(xc)   XCENC  =      3975.73292686
  PAW double counting   =    109952.41695739  -113408.94482908
  entropy T*S    EENTRO =        -0.08229840
  eigenvalues    EBANDS =    -11236.01737977
  atomic energy  EATOM  =    113515.32941094
  ---------------------------------------------------
  free energy    TOTEN  =      1374.95949701 eV

  energy without entropy =     1375.04179541  energy(sigma->0) =     1375.00064621


--------------------------------------------------------------------------------------------------------




--------------------------------------- Iteration      1(   3)  ---------------------------------------


    TRIAL :  cpu time  264.4864: real time  270.6226
    CORREC:  cpu time    0.0013: real time    0.0016
    --------------------------------------------
      LOOP:  cpu time  264.4931: real time  270.6315

 eigenvalue-minimisations  : 29888
 total energy-change (2. order) :-0.1785659E+04  (-0.1558393E+04)
 number of electron     936.0000012 magnetization     144.0000005
 augmentation part      936.0000012 magnetization     144.0000005

 Free energy of the ion-electron system (eV)
  ---------------------------------------------------
  alpha Z        PSCENC =      2639.27042227
  Ewald energy   TEWEN  =    -69235.15885276
  -Hartree energ DENC   =    -34827.58686044
  -exchange      EXHF   =         0.00000000
  -V(xc)+E(xc)   XCENC  =      3975.73292686
  PAW double counting   =    109952.41695739  -113408.94482908
  entropy T*S    EENTRO =        -0.00000000
  eigenvalues    EBANDS =    -13021.75875885
  atomic energy  EATOM  =    113515.32941094
  ---------------------------------------------------
  free energy    TOTEN  =      -410.69958367 eV

  energy without entropy =     -410.69958367  energy(sigma->0) =     -410.69958367


--------------------------------------------------------------------------------------------------------




--------------------------------------- Iteration      1(   4)  ---------------------------------------


    TRIAL :  cpu time  286.7141: real time  292.4656
    CORREC:  cpu time    0.0012: real time    0.0012
    --------------------------------------------
      LOOP:  cpu time  286.7166: real time  292.4699

 eigenvalue-minimisations  : 33232
 total energy-change (2. order) :-0.2220372E+03  (-0.2191071E+03)
 number of electron     936.0000012 magnetization     144.0000005
 augmentation part      936.0000012 magnetization     144.0000005

 Free energy of the ion-electron system (eV)
  ---------------------------------------------------
  alpha Z        PSCENC =      2639.27042227
  Ewald energy   TEWEN  =    -69235.15885276
  -Hartree energ DENC   =    -34827.58686044
  -exchange      EXHF   =         0.00000000
  -V(xc)+E(xc)   XCENC  =      3975.73292686
  PAW double counting   =    109952.41695739  -113408.94482908
  entropy T*S    EENTRO =        -0.00000000
  eigenvalues    EBANDS =    -13243.79592541
  atomic energy  EATOM  =    113515.32941094
  ---------------------------------------------------
  free energy    TOTEN  =      -632.73675023 eV

  energy without entropy =     -632.73675023  energy(sigma->0) =     -632.73675023


--------------------------------------------------------------------------------------------------------




--------------------------------------- Iteration      1(   5)  ---------------------------------------


    TRIAL :  cpu time  377.5521: real time  385.5757
    CORREC:  cpu time    0.0013: real time    0.0015
    CHARGE:  cpu time    7.2126: real time    7.3549
    --------------------------------------------
      LOOP:  cpu time  384.7730: real time  392.9425

 eigenvalue-minimisations  : 46056
 total energy-change (2. order) :-0.2419951E+02  (-0.2400475E+02)
 number of electron     936.0000012 magnetization     144.0000005
 augmentation part      323.4142272 magnetization      94.2670731

 Free energy of the ion-electron system (eV)
  ---------------------------------------------------
  alpha Z        PSCENC =      2639.27042227
  Ewald energy   TEWEN  =    -69235.15885276
  -Hartree energ DENC   =    -34827.58686044
  -exchange      EXHF   =         0.00000000
  -V(xc)+E(xc)   XCENC  =      3975.73292686
  PAW double counting   =    109952.41695739  -113408.94482908
  entropy T*S    EENTRO =        -0.00000000
  eigenvalues    EBANDS =    -13267.99543726
  atomic energy  EATOM  =    113515.32941094
  ---------------------------------------------------
  free energy    TOTEN  =      -656.93626209 eV

  energy without entropy =     -656.93626209  energy(sigma->0) =     -656.93626209


--------------------------------------------------------------------------------------------------------




--------------------------------------- Iteration      1(   6)  ---------------------------------------


    POTLOK:  cpu time    0.6292: real time    0.6353
    SETDIJ:  cpu time    1.5861: real time    1.6297
    TRIAL :  cpu time  126.3491: real time  129.1487
    CORREC:  cpu time   31.5328: real time   32.1335
    CHARGE:  cpu time    7.2589: real time    7.4169
    --------------------------------------------
      LOOP:  cpu time  167.3692: real time  170.9831

 eigenvalue-minimisations  :     0
 total energy-change (2. order) : 0.4866980E-01  (-0.5192122E+00)
 number of electron     936.0000012 magnetization     144.0000005
 augmentation part      323.0680741 magnetization      94.2322302

 Free energy of the ion-electron system (eV)
  ---------------------------------------------------
  alpha Z        PSCENC =      2639.27042227
  Ewald energy   TEWEN  =    -69235.15885276
  -Hartree energ DENC   =    -34813.94546692
  -exchange      EXHF   =         0.00000000
  -V(xc)+E(xc)   XCENC  =      3973.74355505
  PAW double counting   =    109403.29236182  -112850.89940627
  entropy T*S    EENTRO =        -0.00000000
  eigenvalues    EBANDS =    -13288.51961642
  atomic energy  EATOM  =    113515.32941094
  ---------------------------------------------------
  free energy    TOTEN  =      -656.88759228 eV

  energy without entropy =     -656.88759228  energy(sigma->0) =     -656.88759228


--------------------------------------------------------------------------------------------------------




--------------------------------------- Iteration      1(   7)  ---------------------------------------


    POTLOK:  cpu time    0.6126: real time    0.6129
    SETDIJ:  cpu time    1.5926: real time    1.5928
    TRIAL :  cpu time  126.4756: real time  129.2033
    CORREC:  cpu time   31.3400: real time   32.3416
    CHARGE:  cpu time    7.3726: real time    7.4588
    --------------------------------------------
      LOOP:  cpu time  167.4048: real time  171.2214

 eigenvalue-minimisations  :     0
 total energy-change (2. order) :-0.5193940E+00  (-0.3019520E+00)
 number of electron     936.0000012 magnetization     144.0000005
 augmentation part      322.6873910 magnetization      94.2119498

 Free energy of the ion-electron system (eV)
  ---------------------------------------------------
  alpha Z        PSCENC =      2639.27042227
  Ewald energy   TEWEN  =    -69235.15885276
  -Hartree energ DENC   =    -34822.84972886
  -exchange      EXHF   =         0.00000000
  -V(xc)+E(xc)   XCENC  =      3974.73725099
  PAW double counting   =    109635.65366025  -113086.17007331
  entropy T*S    EENTRO =        -0.00000000
  eigenvalues    EBANDS =    -13278.21907578
  atomic energy  EATOM  =    113515.32941094
  ---------------------------------------------------
  free energy    TOTEN  =      -657.40698626 eV

  energy without entropy =     -657.40698626  energy(sigma->0) =     -657.40698626


--------------------------------------------------------------------------------------------------------




--------------------------------------- Iteration      1(   8)  ---------------------------------------


    POTLOK:  cpu time    0.6145: real time    0.6173
    SETDIJ:  cpu time    1.5675: real time    1.5740
    TRIAL :  cpu time  126.9361: real time  129.5638
    CORREC:  cpu time   30.3226: real time   31.0125
    CHARGE:  cpu time    7.3960: real time    7.4286
    --------------------------------------------
      LOOP:  cpu time  166.8506: real time  170.2122

 eigenvalue-minimisations  :     0
 total energy-change (2. order) :-0.3019970E+00  (-0.1197004E+00)
 number of electron     936.0000012 magnetization     144.0000005
 augmentation part      322.4001112 magnetization      94.1912819

 Free energy of the ion-electron system (eV)
  ---------------------------------------------------
  alpha Z        PSCENC =      2639.27042227
  Ewald energy   TEWEN  =    -69235.15885276
  -Hartree energ DENC   =    -34827.10522901
  -exchange      EXHF   =         0.00000000
  -V(xc)+E(xc)   XCENC  =      3975.30383391
  PAW double counting   =    109906.49662373  -113360.49968182
  entropy T*S    EENTRO =        -0.00000000
  eigenvalues    EBANDS =    -13271.34551050
  atomic energy  EATOM  =    113515.32941094
  ---------------------------------------------------
  free energy    TOTEN  =      -657.70898324 eV

  energy without entropy =     -657.70898324  energy(sigma->0) =     -657.70898324


--------------------------------------------------------------------------------------------------------




--------------------------------------- Iteration      1(   9)  ---------------------------------------


    POTLOK:  cpu time    0.6118: real time    0.6163
    SETDIJ:  cpu time    1.6010: real time    1.6230
    TRIAL :  cpu time  125.6545: real time  128.2551
    CORREC:  cpu time   31.0011: real time   31.3887
    CHARGE:  cpu time    7.2466: real time    7.4611
    --------------------------------------------
      LOOP:  cpu time  166.1328: real time  169.3629

 eigenvalue-minimisations  :     0
 total energy-change (2. order) :-0.1197193E+00  (-0.4438422E-01)
 number of electron     936.0000012 magnetization     144.0000005
 augmentation part      322.2880369 magnetization      94.1805906

 Free energy of the ion-electron system (eV)
  ---------------------------------------------------
  alpha Z        PSCENC =      2639.27042227
  Ewald energy   TEWEN  =    -69235.15885276
  -Hartree energ DENC   =    -34823.55384087
  -exchange      EXHF   =         0.00000000
  -V(xc)+E(xc)   XCENC  =      3975.36086825
  PAW double counting   =    110027.43596537  -113482.60344488
  entropy T*S    EENTRO =        -0.00000000
  eigenvalues    EBANDS =    -13273.90923084
  atomic energy  EATOM  =    113515.32941094
  ---------------------------------------------------
  free energy    TOTEN  =      -657.82870251 eV

  energy without entropy =     -657.82870251  energy(sigma->0) =     -657.82870251


--------------------------------------------------------------------------------------------------------




--------------------------------------- Iteration      1(  10)  ---------------------------------------


    POTLOK:  cpu time    0.6065: real time    0.6178
    SETDIJ:  cpu time    1.5503: real time    1.5750
    TRIAL :  cpu time  126.7316: real time  129.0365
    CORREC:  cpu time   31.1470: real time   31.6083
    CHARGE:  cpu time    7.1300: real time    7.3298
    --------------------------------------------
      LOOP:  cpu time  167.1682: real time  170.1755

 eigenvalue-minimisations  :     0
 total energy-change (2. order) :-0.4438292E-01  (-0.1722875E-01)
 number of electron     936.0000012 magnetization     144.0000005
 augmentation part      322.2212532 magnetization      94.1691469

 Free energy of the ion-electron system (eV)
  ---------------------------------------------------
  alpha Z        PSCENC =      2639.27042227
  Ewald energy   TEWEN  =    -69235.15885276
  -Hartree energ DENC   =    -34828.04666923
  -exchange      EXHF   =         0.00000000
  -V(xc)+E(xc)   XCENC  =      3975.72033618
  PAW double counting   =    110047.61167232  -113504.02755670
  entropy T*S    EENTRO =        -0.00000000
  eigenvalues    EBANDS =    -13268.57184846
  atomic energy  EATOM  =    113515.32941094
  ---------------------------------------------------
  free energy    TOTEN  =      -657.87308544 eV

  energy without entropy =     -657.87308544  energy(sigma->0) =     -657.87308544


--------------------------------------------------------------------------------------------------------




--------------------------------------- Iteration      1(  11)  ---------------------------------------


    POTLOK:  cpu time    0.6141: real time    0.6159
    SETDIJ:  cpu time    1.6139: real time    1.6180
    TRIAL :  cpu time  126.7344: real time  129.5053
    CORREC:  cpu time   30.8931: real time   31.4671
    CHARGE:  cpu time    7.2930: real time    7.4384
    --------------------------------------------
      LOOP:  cpu time  167.1544: real time  170.6548

 eigenvalue-minimisations  :     0
 total energy-change (2. order) :-0.1723253E-01  (-0.5368493E-02)
 number of electron     936.0000012 magnetization     144.0000005
 augmentation part      322.2032170 magnetization      94.1637200

 Free energy of the ion-electron system (eV)
  ---------------------------------------------------
  alpha Z        PSCENC =      2639.27042227
  Ewald energy   TEWEN  =    -69235.15885276
  -Hartree energ DENC   =    -34827.78622657
  -exchange      EXHF   =         0.00000000
  -V(xc)+E(xc)   XCENC  =      3975.75798659
  PAW double counting   =    110011.26745195  -113467.86801336
  entropy T*S    EENTRO =        -0.00000000
  eigenvalues    EBANDS =    -13268.70249703
  atomic energy  EATOM  =    113515.32941094
  ---------------------------------------------------
  free energy    TOTEN  =      -657.89031796 eV

  energy without entropy =     -657.89031796  energy(sigma->0) =     -657.89031796


--------------------------------------------------------------------------------------------------------




--------------------------------------- Iteration      1(  12)  ---------------------------------------


    POTLOK:  cpu time    0.6112: real time    0.6153
    SETDIJ:  cpu time    1.5520: real time    1.5746
    TRIAL :  cpu time  126.8138: real time  129.2547
    CORREC:  cpu time   32.2854: real time   32.6429
    CHARGE:  cpu time    7.4061: real time    7.4112
    --------------------------------------------
      LOOP:  cpu time  168.6766: real time  171.5080

 eigenvalue-minimisations  :     0
 total energy-change (2. order) :-0.5368669E-02  (-0.2489191E-02)
 number of electron     936.0000012 magnetization     144.0000005
 augmentation part      322.1997014 magnetization      94.1578356

 Free energy of the ion-electron system (eV)
  ---------------------------------------------------
  alpha Z        PSCENC =      2639.27042227
  Ewald energy   TEWEN  =    -69235.15885276
  -Hartree energ DENC   =    -34827.56265608
  -exchange      EXHF   =         0.00000000
  -V(xc)+E(xc)   XCENC  =      3975.73839015
  PAW double counting   =    109975.11476704  -113431.87568690
  entropy T*S    EENTRO =        -0.00000000
  eigenvalues    EBANDS =    -13268.75148130
  atomic energy  EATOM  =    113515.32941094
  ---------------------------------------------------
  free energy    TOTEN  =      -657.89568663 eV

  energy without entropy =     -657.89568663  energy(sigma->0) =     -657.89568663


--------------------------------------------------------------------------------------------------------




--------------------------------------- Iteration      1(  13)  ---------------------------------------


    POTLOK:  cpu time    0.6236: real time    0.6292
    SETDIJ:  cpu time    1.5813: real time    1.6124
    TRIAL :  cpu time  126.7236: real time  128.3260
    CORREC:  cpu time   31.6622: real time   32.1191
    CHARGE:  cpu time    7.3725: real time    7.3767
    --------------------------------------------
      LOOP:  cpu time  167.9820: real time  170.0824

 eigenvalue-minimisations  :     0
 total energy-change (2. order) :-0.2492841E-02  (-0.1432799E-02)
 number of electron     936.0000012 magnetization     144.0000005
 augmentation part      322.2049128 magnetization      94.1554295

 Free energy of the ion-electron system (eV)
  ---------------------------------------------------
  alpha Z        PSCENC =      2639.27042227
  Ewald energy   TEWEN  =    -69235.15885276
  -Hartree energ DENC   =    -34827.67589085
  -exchange      EXHF   =         0.00000000
  -V(xc)+E(xc)   XCENC  =      3975.75810261
  PAW double counting   =    109946.04291919  -113402.67850711
  entropy T*S    EENTRO =        -0.00000000
  eigenvalues    EBANDS =    -13268.78578377
  atomic energy  EATOM  =    113515.32941094
  ---------------------------------------------------
  free energy    TOTEN  =      -657.89817947 eV

  energy without entropy =     -657.89817947  energy(sigma->0) =     -657.89817947


--------------------------------------------------------------------------------------------------------




--------------------------------------- Iteration      1(  14)  ---------------------------------------


    POTLOK:  cpu time    0.6135: real time    0.6137
    SETDIJ:  cpu time    1.5786: real time    1.5816
    TRIAL :  cpu time  127.1017: real time  128.6187
    CORREC:  cpu time   32.0501: real time   32.3317
    CHARGE:  cpu time    7.3433: real time    7.3605
    --------------------------------------------
      LOOP:  cpu time  168.6946: real time  170.5157

 eigenvalue-minimisations  :     0
 total energy-change (2. order) :-0.1431923E-02  (-0.8238460E-03)
 number of electron     936.0000012 magnetization     144.0000005
 augmentation part      322.2046906 magnetization      94.1509274

 Free energy of the ion-electron system (eV)
  ---------------------------------------------------
  alpha Z        PSCENC =      2639.27042227
  Ewald energy   TEWEN  =    -69235.15885276
  -Hartree energ DENC   =    -34828.00687535
  -exchange      EXHF   =         0.00000000
  -V(xc)+E(xc)   XCENC  =      3975.75259870
  PAW double counting   =    109936.41181643  -113393.16266468
  entropy T*S    EENTRO =        -0.00000000
  eigenvalues    EBANDS =    -13268.33546695
  atomic energy  EATOM  =    113515.32941094
  ---------------------------------------------------
  free energy    TOTEN  =      -657.89961140 eV

  energy without entropy =     -657.89961140  energy(sigma->0) =     -657.89961140


--------------------------------------------------------------------------------------------------------




--------------------------------------- Iteration      1(  15)  ---------------------------------------


    POTLOK:  cpu time    0.6141: real time    0.6160
    SETDIJ:  cpu time    1.6137: real time    1.6147
    TRIAL :  cpu time  127.5421: real time  128.7287
    CORREC:  cpu time   31.5097: real time   31.8280
    CHARGE:  cpu time    7.3862: real time    7.3919
    --------------------------------------------
      LOOP:  cpu time  168.6874: real time  170.2016

 eigenvalue-minimisations  :     0
 total energy-change (2. order) :-0.8273235E-03  (-0.4529228E-03)
 number of electron     936.0000012 magnetization     144.0000005
 augmentation part      322.2180417 magnetization      94.1520015

 Free energy of the ion-electron system (eV)
  ---------------------------------------------------
  alpha Z        PSCENC =      2639.27042227
  Ewald energy   TEWEN  =    -69235.15885276
  -Hartree energ DENC   =    -34827.18903300
  -exchange      EXHF   =         0.00000000
  -V(xc)+E(xc)   XCENC  =      3975.72305331
  PAW double counting   =    109936.51365424  -113393.00840804
  entropy T*S    EENTRO =        -0.00000000
  eigenvalues    EBANDS =    -13269.38068568
  atomic energy  EATOM  =    113515.32941094
  ---------------------------------------------------
  free energy    TOTEN  =      -657.90043872 eV

  energy without entropy =     -657.90043872  energy(sigma->0) =     -657.90043872


--------------------------------------------------------------------------------------------------------




--------------------------------------- Iteration      1(  16)  ---------------------------------------


    POTLOK:  cpu time    0.6115: real time    0.6119
    SETDIJ:  cpu time    1.6437: real time    1.6467
    TRIAL :  cpu time  126.1384: real time  127.3748
    CORREC:  cpu time   31.3340: real time   31.7355
    CHARGE:  cpu time    7.3282: real time    7.3706
    --------------------------------------------
      LOOP:  cpu time  167.0805: real time  168.7648

 eigenvalue-minimisations  :     0
 total energy-change (2. order) :-0.4519107E-03  (-0.2467736E-03)
 number of electron     936.0000012 magnetization     144.0000005
 augmentation part      322.2135750 magnetization      94.1495909

 Free energy of the ion-electron system (eV)
  ---------------------------------------------------
  alpha Z        PSCENC =      2639.27042227
  Ewald energy   TEWEN  =    -69235.15885276
  -Hartree energ DENC   =    -34828.31881589
  -exchange      EXHF   =         0.00000000
  -V(xc)+E(xc)   XCENC  =      3975.76089517
  PAW double counting   =    109949.24409302  -113405.92354860
  entropy T*S    EENTRO =        -0.00000000
  eigenvalues    EBANDS =    -13268.10449479
  atomic energy  EATOM  =    113515.32941094
  ---------------------------------------------------
  free energy    TOTEN  =      -657.90089063 eV

  energy without entropy =     -657.90089063  energy(sigma->0) =     -657.90089063


--------------------------------------------------------------------------------------------------------




--------------------------------------- Iteration      1(  17)  ---------------------------------------


    POTLOK:  cpu time    0.6127: real time    0.6128
    SETDIJ:  cpu time    1.6153: real time    1.6159
    TRIAL :  cpu time  127.8934: real time  129.4569
    CORREC:  cpu time   30.8913: real time   31.2022
    CHARGE:  cpu time    7.3189: real time    7.3511
    --------------------------------------------
      LOOP:  cpu time  168.3531: real time  170.2615

 eigenvalue-minimisations  :     0
 total energy-change (2. order) :-0.2493118E-03  (-0.1809859E-03)
 number of electron     936.0000012 magnetization     144.0000005
 augmentation part      322.2197744 magnetization      94.1514523

 Free energy of the ion-electron system (eV)
  ---------------------------------------------------
  alpha Z        PSCENC =      2639.27042227
  Ewald energy   TEWEN  =    -69235.15885276
  -Hartree energ DENC   =    -34827.07984012
  -exchange      EXHF   =         0.00000000
  -V(xc)+E(xc)   XCENC  =      3975.71001868
  PAW double counting   =    109953.34930988  -113409.77097372
  entropy T*S    EENTRO =        -0.00000000
  eigenvalues    EBANDS =    -13269.55063511
  atomic energy  EATOM  =    113515.32941094
  ---------------------------------------------------
  free energy    TOTEN  =      -657.90113994 eV

  energy without entropy =     -657.90113994  energy(sigma->0) =     -657.90113994


--------------------------------------------------------------------------------------------------------




--------------------------------------- Iteration      1(  18)  ---------------------------------------


    POTLOK:  cpu time    0.6247: real time    0.6316
    SETDIJ:  cpu time    1.5822: real time    1.5877
    TRIAL :  cpu time  127.5103: real time  129.2798
    CORREC:  cpu time   31.7615: real time   31.8309
    CHARGE:  cpu time    7.3361: real time    7.3419
    --------------------------------------------
      LOOP:  cpu time  168.8218: real time  170.6870

 eigenvalue-minimisations  :     0
 total energy-change (2. order) :-0.1810551E-03  (-0.1374154E-03)
 number of electron     936.0000012 magnetization     144.0000005
 augmentation part      322.2169296 magnetization      94.1514581

 Free energy of the ion-electron system (eV)
  ---------------------------------------------------
  alpha Z        PSCENC =      2639.27042227
  Ewald energy   TEWEN  =    -69235.15885276
  -Hartree energ DENC   =    -34827.85179569
  -exchange      EXHF   =         0.00000000
  -V(xc)+E(xc)   XCENC  =      3975.74023966
  PAW double counting   =    109958.98418405  -113415.53767022
  entropy T*S    EENTRO =        -0.00000000
  eigenvalues    EBANDS =    -13268.67725925
  atomic energy  EATOM  =    113515.32941094
  ---------------------------------------------------
  free energy    TOTEN  =      -657.90132100 eV

  energy without entropy =     -657.90132100  energy(sigma->0) =     -657.90132100


--------------------------------------------------------------------------------------------------------




--------------------------------------- Iteration      1(  19)  ---------------------------------------


    POTLOK:  cpu time    0.6132: real time    0.6134
    SETDIJ:  cpu time    1.6029: real time    1.6032
    TRIAL :  cpu time  127.1060: real time  128.7196
    CORREC:  cpu time   31.0065: real time   31.5052
    CHARGE:  cpu time    7.2449: real time    7.3338
    --------------------------------------------
      LOOP:  cpu time  167.5976: real time  169.8016

 eigenvalue-minimisations  :     0
 total energy-change (2. order) :-0.1381570E-03  (-0.8539275E-04)
 number of electron     936.0000012 magnetization     144.0000005
 augmentation part      322.2174244 magnetization      94.1528110

 Free energy of the ion-electron system (eV)
  ---------------------------------------------------
  alpha Z        PSCENC =      2639.27042227
  Ewald energy   TEWEN  =    -69235.15885276
  -Hartree energ DENC   =    -34827.41847130
  -exchange      EXHF   =         0.00000000
  -V(xc)+E(xc)   XCENC  =      3975.72450460
  PAW double counting   =    109955.85389630  -113412.32756383
  entropy T*S    EENTRO =        -0.00000000
  eigenvalues    EBANDS =    -13269.17480537
  atomic energy  EATOM  =    113515.32941094
  ---------------------------------------------------
  free energy    TOTEN  =      -657.90145915 eV

  energy without entropy =     -657.90145915  energy(sigma->0) =     -657.90145915


--------------------------------------------------------------------------------------------------------




--------------------------------------- Iteration      1(  20)  ---------------------------------------


    POTLOK:  cpu time    0.6113: real time    0.6158
    SETDIJ:  cpu time    1.6155: real time    1.6217
    TRIAL :  cpu time  127.6774: real time  129.0712
    CORREC:  cpu time   31.9128: real time   32.3300
    CHARGE:  cpu time    7.2233: real time    7.2997
    --------------------------------------------
      LOOP:  cpu time  169.0591: real time  170.9587

 eigenvalue-minimisations  :     0
 total energy-change (2. order) :-0.8524621E-04  (-0.4387384E-04)
 number of electron     936.0000012 magnetization     144.0000005
 augmentation part      322.2160609 magnetization      94.1530919

 Free energy of the ion-electron system (eV)
  ---------------------------------------------------
  alpha Z        PSCENC =      2639.27042227
  Ewald energy   TEWEN  =    -69235.15885276
  -Hartree energ DENC   =    -34827.64105379
  -exchange      EXHF   =         0.00000000
  -V(xc)+E(xc)   XCENC  =      3975.73198117
  PAW double counting   =    109953.29846082  -113409.81853800
  entropy T*S    EENTRO =        -0.00000000
  eigenvalues    EBANDS =    -13268.91337506
  atomic energy  EATOM  =    113515.32941094
  ---------------------------------------------------
  free energy    TOTEN  =      -657.90154440 eV

  energy without entropy =     -657.90154440  energy(sigma->0) =     -657.90154440


--------------------------------------------------------------------------------------------------------




--------------------------------------- Iteration      1(  21)  ---------------------------------------


    POTLOK:  cpu time    0.6156: real time    0.6168
    SETDIJ:  cpu time    1.5639: real time    1.5765
    TRIAL :  cpu time  125.2738: real time  128.0275
    CORREC:  cpu time   31.1386: real time   31.4589
    CHARGE:  cpu time    7.1367: real time    7.3440
    --------------------------------------------
      LOOP:  cpu time  165.7707: real time  169.0658

 eigenvalue-minimisations  :     0
 total energy-change (2. order) :-0.4385045E-04  (-0.2843913E-04)
 number of electron     936.0000012 magnetization     144.0000005
 augmentation part      322.2155219 magnetization      94.1534898

 Free energy of the ion-electron system (eV)
  ---------------------------------------------------
  alpha Z        PSCENC =      2639.27042227
  Ewald energy   TEWEN  =    -69235.15885276
  -Hartree energ DENC   =    -34827.56261582
  -exchange      EXHF   =         0.00000000
  -V(xc)+E(xc)   XCENC  =      3975.73051779
  PAW double counting   =    109951.09084987  -113407.59266406
  entropy T*S    EENTRO =        -0.00000000
  eigenvalues    EBANDS =    -13269.00865649
  atomic energy  EATOM  =    113515.32941094
  ---------------------------------------------------
  free energy    TOTEN  =      -657.90158825 eV

  energy without entropy =     -657.90158825  energy(sigma->0) =     -657.90158825


--------------------------------------------------------------------------------------------------------




--------------------------------------- Iteration      1(  22)  ---------------------------------------


    POTLOK:  cpu time    0.6298: real time    0.6549
    SETDIJ:  cpu time    1.5513: real time    1.5792
    TRIAL :  cpu time  126.5106: real time  128.9718
    CORREC:  cpu time   31.1700: real time   31.9183
    CHARGE:  cpu time    7.2264: real time    7.3614
    --------------------------------------------
      LOOP:  cpu time  167.0911: real time  170.4893

 eigenvalue-minimisations  :     0
 total energy-change (2. order) :-0.2818910E-04  (-0.1691928E-04)
 number of electron     936.0000012 magnetization     144.0000005
 augmentation part      322.2156236 magnetization      94.1536553

 Free energy of the ion-electron system (eV)
  ---------------------------------------------------
  alpha Z        PSCENC =      2639.27042227
  Ewald energy   TEWEN  =    -69235.15885276
  -Hartree energ DENC   =    -34827.56873678
  -exchange      EXHF   =         0.00000000
  -V(xc)+E(xc)   XCENC  =      3975.73068215
  PAW double counting   =    109950.75345768  -113407.26754929
  entropy T*S    EENTRO =        -0.00000000
  eigenvalues    EBANDS =    -13268.99045066
  atomic energy  EATOM  =    113515.32941094
  ---------------------------------------------------
  free energy    TOTEN  =      -657.90161644 eV

  energy without entropy =     -657.90161644  energy(sigma->0) =     -657.90161644


--------------------------------------------------------------------------------------------------------




--------------------------------------- Iteration      1(  23)  ---------------------------------------


    POTLOK:  cpu time    0.6143: real time    0.6151
    SETDIJ:  cpu time    1.5902: real time    1.6102
    TRIAL :  cpu time  125.8295: real time  128.5345
    CORREC:  cpu time   31.3051: real time   31.9077
    CHARGE:  cpu time    7.3203: real time    7.4393
    --------------------------------------------
      LOOP:  cpu time  166.6721: real time  170.1193

 eigenvalue-minimisations  :     0
 total energy-change (2. order) :-0.1678488E-04  (-0.8570765E-05)
 number of electron     936.0000012 magnetization     144.0000005
 augmentation part      322.2149235 magnetization      94.1534383

 Free energy of the ion-electron system (eV)
  ---------------------------------------------------
  alpha Z        PSCENC =      2639.27042227
  Ewald energy   TEWEN  =    -69235.15885276
  -Hartree energ DENC   =    -34827.63708081
  -exchange      EXHF   =         0.00000000
  -V(xc)+E(xc)   XCENC  =      3975.73402876
  PAW double counting   =    109951.67396035  -113408.20037581
  entropy T*S    EENTRO =        -0.00000000
  eigenvalues    EBANDS =    -13268.91314617
  atomic energy  EATOM  =    113515.32941094
  ---------------------------------------------------
  free energy    TOTEN  =      -657.90163322 eV

  energy without entropy =     -657.90163322  energy(sigma->0) =     -657.90163322


--------------------------------------------------------------------------------------------------------




--------------------------------------- Iteration      1(  24)  ---------------------------------------


    POTLOK:  cpu time    0.6076: real time    0.6204
    SETDIJ:  cpu time    1.5478: real time    1.5699
    TRIAL :  cpu time  126.5096: real time  128.3213
    CORREC:  cpu time   31.9845: real time   32.3602
    CHARGE:  cpu time    7.2752: real time    7.3435
    --------------------------------------------
      LOOP:  cpu time  167.9460: real time  170.2375

 eigenvalue-minimisations  :     0
 total energy-change (2. order) :-0.8569434E-05  (-0.5396645E-05)
 number of electron     936.0000012 magnetization     144.0000005
 augmentation part      322.2152583 magnetization      94.1535142

 Free energy of the ion-electron system (eV)
  ---------------------------------------------------
  alpha Z        PSCENC =      2639.27042227
  Ewald energy   TEWEN  =    -69235.15885276
  -Hartree energ DENC   =    -34827.55070098
  -exchange      EXHF   =         0.00000000
  -V(xc)+E(xc)   XCENC  =      3975.73047744
  PAW double counting   =    109952.13289288  -113408.64714853
  entropy T*S    EENTRO =        -0.00000000
  eigenvalues    EBANDS =    -13269.00814306
  atomic energy  EATOM  =    113515.32941094
  ---------------------------------------------------
  free energy    TOTEN  =      -657.90164179 eV

  energy without entropy =     -657.90164179  energy(sigma->0) =     -657.90164179


--------------------------------------------------------------------------------------------------------




--------------------------------------- Iteration      1(  25)  ---------------------------------------


    POTLOK:  cpu time    0.6274: real time    0.6374
    SETDIJ:  cpu time    1.5732: real time    1.5896
    TRIAL :  cpu time  127.0998: real time  128.7784
    CORREC:  cpu time   31.6509: real time   31.7881
    CHARGE:  cpu time    7.3710: real time    7.4098
    --------------------------------------------
      LOOP:  cpu time  168.3274: real time  170.2092

 eigenvalue-minimisations  :     0
 total energy-change (2. order) :-0.5381517E-05  (-0.3975163E-05)
 number of electron     936.0000012 magnetization     144.0000005
 augmentation part      322.2147927 magnetization      94.1533001

 Free energy of the ion-electron system (eV)
  ---------------------------------------------------
  alpha Z        PSCENC =      2639.27042227
  Ewald energy   TEWEN  =    -69235.15885276
  -Hartree energ DENC   =    -34827.62886690
  -exchange      EXHF   =         0.00000000
  -V(xc)+E(xc)   XCENC  =      3975.73371714
  PAW double counting   =    109952.81618347  -113409.34541744
  entropy T*S    EENTRO =        -0.00000000
  eigenvalues    EBANDS =    -13268.91824391
  atomic energy  EATOM  =    113515.32941094
  ---------------------------------------------------
  free energy    TOTEN  =      -657.90164718 eV

  energy without entropy =     -657.90164718  energy(sigma->0) =     -657.90164718


--------------------------------------------------------------------------------------------------------




--------------------------------------- Iteration      1(  26)  ---------------------------------------


    POTLOK:  cpu time    0.6308: real time    0.6777
    SETDIJ:  cpu time    1.5604: real time    1.5762
    TRIAL :  cpu time  127.2837: real time  128.6801
    CORREC:  cpu time   31.5400: real time   31.8633
    CHARGE:  cpu time    7.2361: real time    7.3096
    --------------------------------------------
      LOOP:  cpu time  168.2566: real time  170.1123

 eigenvalue-minimisations  :     0
 total energy-change (2. order) :-0.3992420E-05  (-0.3036467E-05)
 number of electron     936.0000012 magnetization     144.0000005
 augmentation part      322.2148700 magnetization      94.1533317

 Free energy of the ion-electron system (eV)
  ---------------------------------------------------
  alpha Z        PSCENC =      2639.27042227
  Ewald energy   TEWEN  =    -69235.15885276
  -Hartree energ DENC   =    -34827.57746874
  -exchange      EXHF   =         0.00000000
  -V(xc)+E(xc)   XCENC  =      3975.73218296
  PAW double counting   =    109952.76833103  -113409.28890546
  entropy T*S    EENTRO =        -0.00000000
  eigenvalues    EBANDS =    -13268.97677141
  atomic energy  EATOM  =    113515.32941094
  ---------------------------------------------------
  free energy    TOTEN  =      -657.90165117 eV

  energy without entropy =     -657.90165117  energy(sigma->0) =     -657.90165117


--------------------------------------------------------------------------------------------------------




--------------------------------------- Iteration      1(  27)  ---------------------------------------


    POTLOK:  cpu time    0.6020: real time    0.6116
    SETDIJ:  cpu time    1.5463: real time    1.5713
    TRIAL :  cpu time  126.8817: real time  128.0297
    CORREC:  cpu time   31.7860: real time   32.1860
    CHARGE:  cpu time    7.3864: real time    7.4371
    --------------------------------------------
      LOOP:  cpu time  168.2140: real time  169.8490

 eigenvalue-minimisations  :     0
 total energy-change (2. order) :-0.2995817E-05  (-0.2021261E-05)
 number of electron     936.0000012 magnetization     144.0000005
 augmentation part      322.2145908 magnetization      94.1531624

 Free energy of the ion-electron system (eV)
  ---------------------------------------------------
  alpha Z        PSCENC =      2639.27042227
  Ewald energy   TEWEN  =    -69235.15885276
  -Hartree energ DENC   =    -34827.61224582
  -exchange      EXHF   =         0.00000000
  -V(xc)+E(xc)   XCENC  =      3975.73312409
  PAW double counting   =    109952.73253207  -113409.26371345
  entropy T*S    EENTRO =        -0.00000000
  eigenvalues    EBANDS =    -13268.93233150
  atomic energy  EATOM  =    113515.32941094
  ---------------------------------------------------
  free energy    TOTEN  =      -657.90165416 eV

  energy without entropy =     -657.90165416  energy(sigma->0) =     -657.90165416


--------------------------------------------------------------------------------------------------------




--------------------------------------- Iteration      1(  28)  ---------------------------------------


    POTLOK:  cpu time    0.6054: real time    0.6135
    SETDIJ:  cpu time    1.6153: real time    1.6274
    TRIAL :  cpu time  127.0724: real time  128.8272
    CORREC:  cpu time   31.4532: real time   31.7550
    CHARGE:  cpu time    7.4130: real time    7.4185
[...]
   0.975E-01 0.219E+00 0.894E+02   -.990E-01 -.224E+00 -.899E+02   0.227E-02 0.613E-02 0.514E+00
   0.692E-01 0.741E-01 0.894E+02   -.696E-01 -.743E-01 -.899E+02   0.374E-03 -.192E-03 0.513E+00
   0.417E-01 0.854E-01 0.894E+02   -.414E-01 -.860E-01 -.899E+02   -.712E-03 0.711E-03 0.514E+00
   0.685E-01 0.562E-01 0.894E+02   -.689E-01 -.560E-01 -.899E+02   0.307E-03 -.556E-03 0.514E+00
   0.664E-01 0.628E-01 0.894E+02   -.669E-01 -.628E-01 -.899E+02   0.597E-03 -.115E-03 0.514E+00
   0.601E-01 0.629E-01 0.894E+02   -.602E-01 -.629E-01 -.899E+02   0.513E-04 -.967E-04 0.514E+00
   0.974E-01 -.124E+00 0.895E+02   -.989E-01 0.130E+00 -.900E+02   0.226E-02 -.687E-02 0.517E+00
   0.808E-01 0.636E-01 0.894E+02   -.815E-01 -.639E-01 -.899E+02   0.806E-03 0.519E-03 0.513E+00
   0.303E-01 0.522E-01 0.894E+02   -.297E-01 -.521E-01 -.899E+02   -.112E-02 -.384E-03 0.514E+00
   0.579E-01 0.546E-01 0.894E+02   -.577E-01 -.544E-01 -.899E+02   -.718E-03 -.765E-03 0.515E+00
   0.648E-01 0.636E-01 0.894E+02   -.650E-01 -.637E-01 -.899E+02   0.299E-03 0.444E-04 0.514E+00
   0.723E-01 0.569E-01 0.894E+02   -.731E-01 -.566E-01 -.899E+02   0.145E-02 -.847E-03 0.515E+00
   0.606E-01 0.769E-01 0.894E+02   -.607E-01 -.772E-01 -.899E+02   -.155E-03 0.368E-03 0.515E+00
   0.641E-01 0.704E-01 0.894E+02   -.643E-01 -.706E-01 -.899E+02   0.262E-03 0.652E-04 0.514E+00
   0.703E-01 0.740E-01 0.894E+02   -.709E-01 -.743E-01 -.899E+02   0.924E-03 0.398E-03 0.515E+00
   0.451E-01 0.703E-01 0.895E+02   -.450E-01 -.707E-01 -.900E+02   -.688E-03 0.429E-03 0.516E+00
   0.623E-01 0.674E-01 0.894E+02   -.626E-01 -.676E-01 -.899E+02   0.236E-03 0.938E-04 0.514E+00
   0.870E-01 0.709E-01 0.894E+02   -.878E-01 -.713E-01 -.899E+02   0.138E-02 0.474E-03 0.515E+00
   -.868E-01 -.620E-01 -.894E+02   0.875E-01 0.621E-01 0.899E+02   -.106E-02 0.568E-04 -.512E+00
   -.455E-01 -.614E-01 -.894E+02   0.450E-01 0.615E-01 0.899E+02   0.102E-02 0.113E-03 -.513E+00
   -.698E-01 -.649E-01 -.894E+02   0.700E-01 0.651E-01 0.899E+02   -.134E-03 -.278E-03 -.513E+00
   -.715E-01 -.554E-01 -.894E+02   0.719E-01 0.555E-01 0.899E+02   -.521E-03 0.112E-04 -.513E+00
   -.620E-01 -.583E-01 -.894E+02   0.618E-01 0.584E-01 0.899E+02   0.555E-03 0.323E-04 -.513E+00
   -.681E-01 -.619E-01 -.894E+02   0.683E-01 0.621E-01 0.899E+02   -.105E-03 -.288E-03 -.514E+00
   -.741E-01 -.774E-01 -.894E+02   0.749E-01 0.782E-01 0.899E+02   -.109E-02 -.113E-02 -.512E+00
   -.601E-01 -.752E-01 -.894E+02   0.595E-01 0.760E-01 0.899E+02   0.107E-02 -.121E-02 -.512E+00
   -.674E-01 -.685E-01 -.894E+02   0.676E-01 0.690E-01 0.899E+02   -.585E-04 -.327E-03 -.514E+00
   -.342E-01 -.259E+00 -.893E+02   0.330E-01 0.265E+00 0.898E+02   0.194E-02 -.708E-02 -.511E+00
   -.102E+00 -.801E-01 -.894E+02   0.103E+00 0.807E-01 0.899E+02   -.149E-02 -.752E-03 -.514E+00
   -.514E-01 -.687E-01 -.894E+02   0.512E-01 0.687E-01 0.899E+02   0.432E-03 0.163E-03 -.515E+00
   -.636E-01 -.762E-01 -.894E+02   0.637E-01 0.768E-01 0.899E+02   -.640E-04 -.931E-03 -.514E+00
   -.722E-01 -.694E-01 -.894E+02   0.724E-01 0.698E-01 0.899E+02   -.323E-03 -.464E-03 -.514E+00
   -.657E-01 -.695E-01 -.894E+02   0.657E-01 0.699E-01 0.899E+02   0.231E-03 -.486E-03 -.514E+00
   -.344E-01 0.870E-01 -.894E+02   0.333E-01 -.912E-01 0.899E+02   0.194E-02 0.572E-02 -.514E+00
   -.905E-01 -.467E-01 -.894E+02   0.912E-01 0.466E-01 0.899E+02   -.107E-02 0.328E-03 -.514E+00
   -.630E-01 -.581E-01 -.894E+02   0.631E-01 0.585E-01 0.899E+02   -.868E-05 -.567E-03 -.515E+00
   -.436E+00 0.176E-01 -.654E+02   0.456E+00 -.219E-01 0.643E+02   -.119E-01 0.334E-02 0.112E+01
   0.272E+00 0.180E-01 -.656E+02   -.289E+00 -.224E-01 0.645E+02   0.110E-01 0.338E-02 0.111E+01
   -.717E-01 -.421E-01 -.657E+02   0.720E-01 0.404E-01 0.646E+02   -.197E-03 0.141E-02 0.111E+01
   -.522E-01 -.138E-01 -.657E+02   0.558E-01 0.100E-01 0.646E+02   -.276E-02 0.322E-02 0.111E+01
   -.353E-01 -.402E-01 -.657E+02   0.294E-01 0.360E-01 0.646E+02   0.467E-02 0.361E-02 0.111E+01
   -.563E-01 -.457E-01 -.657E+02   0.567E-01 0.442E-01 0.646E+02   -.241E-03 0.126E-02 0.111E+01
   -.758E-01 -.125E+00 -.657E+02   0.816E-01 0.129E+00 0.646E+02   -.451E-02 -.340E-02 0.111E+01
   -.118E-01 -.989E-01 -.657E+02   0.374E-02 0.104E+00 0.646E+02   0.641E-02 -.384E-02 0.111E+01
   -.561E-01 -.606E-01 -.657E+02   0.565E-01 0.605E-01 0.646E+02   -.231E-03 0.247E-03 0.111E+01
   -.378E-01 -.103E+00 -.656E+02   0.375E-01 0.101E+00 0.645E+02   0.300E-03 0.228E-02 0.113E+01
   -.781E-01 -.675E-01 -.656E+02   0.790E-01 0.668E-01 0.645E+02   -.680E-03 0.780E-03 0.112E+01
   -.244E-01 -.603E-01 -.657E+02   0.225E-01 0.594E-01 0.645E+02   0.152E-02 0.870E-03 0.111E+01
   -.459E-01 -.562E-01 -.657E+02   0.455E-01 0.557E-01 0.645E+02   0.378E-03 0.526E-03 0.112E+01
   -.545E-01 -.502E-01 -.657E+02   0.554E-01 0.497E-01 0.645E+02   -.691E-03 0.571E-03 0.111E+01
   -.411E-01 -.517E-01 -.657E+02   0.391E-01 0.512E-01 0.646E+02   0.167E-02 0.523E-03 0.111E+01
   -.366E-01 0.830E-02 -.656E+02   0.362E-01 -.934E-02 0.645E+02   0.335E-03 0.868E-03 0.112E+01
   -.723E-01 -.307E-01 -.656E+02   0.732E-01 0.290E-01 0.645E+02   -.646E-03 0.151E-02 0.111E+01
   -.314E-01 -.364E-01 -.657E+02   0.297E-01 0.348E-01 0.645E+02   0.146E-02 0.144E-02 0.111E+01
   0.602E-01 0.105E+00 0.657E+02   -.591E-01 -.105E+00 -.646E+02   -.106E-02 -.527E-03 -.111E+01
   0.655E-01 0.605E-01 0.657E+02   -.658E-01 -.607E-01 -.646E+02   0.693E-04 0.433E-04 -.111E+01
   0.249E-01 0.662E-01 0.657E+02   -.223E-01 -.665E-01 -.646E+02   -.207E-02 0.120E-03 -.111E+01
   0.510E-01 0.410E-01 0.657E+02   -.499E-01 -.400E-01 -.646E+02   -.101E-02 -.870E-03 -.111E+01
   0.558E-01 0.454E-01 0.657E+02   -.564E-01 -.444E-01 -.646E+02   0.248E-03 -.880E-03 -.111E+01
   0.426E-01 0.469E-01 0.657E+02   -.401E-01 -.459E-01 -.646E+02   -.210E-02 -.836E-03 -.111E+01
   0.589E-01 -.584E-02 0.658E+02   -.578E-01 0.482E-02 -.647E+02   -.112E-02 0.860E-03 -.110E+01
   0.724E-01 0.367E-01 0.657E+02   -.729E-01 -.361E-01 -.646E+02   0.143E-03 -.553E-03 -.111E+01
   0.192E-01 0.296E-01 0.657E+02   -.167E-01 -.288E-01 -.646E+02   -.209E-02 -.642E-03 -.111E+01
   0.210E-01 -.283E-01 0.657E+02   -.138E-01 0.342E-01 -.646E+02   -.593E-02 -.480E-02 -.111E+01
   0.408E-01 0.363E-01 0.657E+02   -.389E-01 -.350E-01 -.646E+02   -.165E-02 -.114E-02 -.111E+01
   0.853E-01 -.194E-02 0.657E+02   -.919E-01 0.829E-02 -.646E+02   0.504E-02 -.522E-02 -.112E+01
   0.448E-01 0.832E-01 0.657E+02   -.399E-01 -.854E-01 -.645E+02   -.416E-02 0.176E-02 -.112E+01
   0.406E-01 0.514E-01 0.657E+02   -.387E-01 -.513E-01 -.646E+02   -.165E-02 -.184E-03 -.111E+01
   0.617E-01 0.566E-01 0.656E+02   -.659E-01 -.593E-01 -.645E+02   0.327E-02 0.218E-02 -.112E+01
   -.343E+00 0.116E+00 0.659E+02   0.364E+00 -.119E+00 -.648E+02   -.135E-01 0.200E-02 -.110E+01
   0.252E-01 0.550E-01 0.657E+02   -.233E-01 -.551E-01 -.645E+02   -.160E-02 0.845E-05 -.111E+01
   0.370E+00 0.116E+00 0.657E+02   -.386E+00 -.119E+00 -.646E+02   0.966E-02 0.197E-02 -.112E+01
 -----------------------------------------------------------------------------------------------
   0.996E-01 -.445E-01 0.273E-02   0.372E-13 -.669E-12 0.109E-11   -.920E-01 0.369E-01 -.287E-02
 
 
 POSITION                                       TOTAL-FORCE (eV/Angst)
 -----------------------------------------------------------------------------------
     -2.11542     -3.64596     12.75566        -0.021601     -0.004146      0.018753
      5.58834      0.20099     -0.00468         0.000490     -0.000077      0.000523
      9.44720      0.20168     -0.00786         0.000494     -0.000074      0.000506
      1.72882      4.05917     -0.00468         0.000018      0.000269      0.001192
      5.58768      4.05986     -0.00786         0.000092      0.000012      0.000177
      9.44654      4.06055     -0.01104         0.000010     -0.000078      0.000180
      1.72816      7.91804     -0.00786         0.000018      0.000267      0.001212
      5.58702      7.91872     -0.01104         0.000011     -0.000080      0.000184
      9.44588      7.91941     -0.01422         0.000108      0.000016      0.000204
     -0.19436     -1.72421      6.38168         0.000168      0.000053     -0.000527
      3.66450     -1.72352      6.37850        -0.000013     -0.000039     -0.000310
      7.52337     -1.72284      6.37532        -0.000012     -0.000038     -0.000303
     -0.19502      2.13465      6.37850         0.000054     -0.000099     -0.000412
      3.66384      2.13534      6.37532         0.000000     -0.000088     -0.000268
      7.52270      2.13603      6.37214         0.000076     -0.000012     -0.000252
     -0.19568      5.99352      6.37532         0.000049     -0.000087     -0.000402
      3.66318      5.99421      6.37214         0.000069     -0.000001     -0.000268
      7.52204      5.99490      6.36896         0.000003     -0.000089     -0.000214
      1.73466      0.20548      6.37832         0.000104     -0.000073     -0.000424
      5.59352      0.20617      6.37514        -0.000155     -0.000050     -0.000308
      9.45239      0.20686      6.37196         0.000196      0.000055     -0.000408
      1.73400      4.06435      6.37514         0.000110     -0.000061     -0.000269
      5.59286      4.06504      6.37196        -0.000062      0.000016     -0.000191
      9.45172      4.06573      6.36877         0.000105     -0.000057     -0.000229
      1.73334      7.92322      6.37196         0.000194      0.000049     -0.000447
      5.59220      7.92391      6.36877        -0.000146     -0.000045     -0.000287
      9.45106      7.92460      6.36559         0.000110     -0.000057     -0.000361
     -0.18918     -1.71903     12.76150         0.002040      0.001949      0.001583
      3.66968     -1.71834     12.75832         0.000157     -0.000034      0.000283
      7.52855     -1.71765     12.75514        -0.000528     -0.000614      0.001587
     -0.18984      2.13984     12.75832         0.000048      0.000079      0.000305
      3.66902      2.14052     12.75514         0.000056     -0.000026      0.000168
      7.52788      2.14121     12.75195         0.000043      0.000072      0.000304
     -0.19050      5.99870     12.75514        -0.000548     -0.000580      0.001570
      3.66836      5.99939     12.75195         0.000156     -0.000027      0.000298
      7.52722      6.00008     12.74877         0.002049      0.001956      0.001581
      3.65889      0.20059     -0.00318         0.006090      0.001257     -0.005709
      7.51775      0.20128     -0.00636        -0.000159      0.000012     -0.000923
     11.37662      0.20197     -0.00954         0.006082      0.001313     -0.005728
      3.65823      4.05946     -0.00636        -0.000129     -0.000378     -0.001921
      7.51709      4.06015     -0.00954        -0.000071     -0.000084     -0.001044
     11.37595      4.06083     -0.01272         0.000202     -0.000220     -0.001852
      3.65757      7.91832     -0.00954         0.000213     -0.000139     -0.001807
      7.51643      7.91901     -0.01272        -0.000077     -0.000043     -0.000995
     11.37529      7.91970     -0.01590        -0.000135     -0.000347     -0.001725
      1.73505     -1.72393      6.38000        -0.000098     -0.000017      0.000985
      5.59392     -1.72324      6.37682         0.000263     -0.000045      0.000817
      9.45278     -1.72255      6.37364        -0.000118     -0.000019      0.001263
      1.73439      2.13494      6.37682        -0.000145     -0.000084      0.000854
      5.59325      2.13563      6.37364         0.000264     -0.000049      0.001049
      9.45211      2.13632      6.37046        -0.000102     -0.000036      0.000908
      1.73373      5.99381      6.37364        -0.000133     -0.000036      0.000839
      5.59259      5.99450      6.37046         0.000285     -0.000026      0.001144
      9.45145      5.99519      6.36727        -0.000143     -0.000050      0.001195
      1.73069      2.13130      1.90875         0.000623      0.001246     -0.000464
      5.58955      2.13198      1.90557        -0.000077     -0.000272     -0.000460
      9.44841      2.13267      1.90239        -0.000422      0.000171     -0.000039
      1.73003      5.99016      1.90557        -0.000120     -0.000227     -0.000198
      5.58889      5.99085      1.90239         0.000037     -0.000072     -0.000350
      9.44775      5.99154      1.89920        -0.000065     -0.000072     -0.000283
      1.72937      9.84903      1.90239         0.000616     -0.000906      0.001152
      5.58823      9.84972      1.89920         0.000055      0.000282     -0.000375
      9.44709      9.85041      1.89602        -0.000549     -0.000164      0.000078
     -0.19315      0.20678      8.29193        -0.000607     -0.000446      0.000822
      3.66571      0.20747      8.28875        -0.000021     -0.000005      0.000358
      7.52457      0.20816      8.28557         0.000521     -0.000486      0.000819
     -0.19381      4.06565      8.28875        -0.000297      0.000130      0.000542
      3.66505      4.06634      8.28557        -0.000029     -0.000039      0.000359
      7.52391      4.06702      8.28238         0.000243      0.000146      0.000606
     -0.19447      7.92451      8.28557        -0.000640      0.000160      0.001004
      3.66439      7.92520      8.28238        -0.000038     -0.000021      0.000407
      7.52325      7.92589      8.27920         0.000504      0.000177      0.000644
     -0.19633      0.20360      4.46807        -0.000439      0.000189      0.000839
      3.66253      0.20429      4.46489         0.000443      0.000194      0.000478
      7.52140      0.20498      4.46171         0.000057      0.000022      0.000317
     -0.19699      4.06247      4.46489        -0.000125      0.000140      0.000447
      3.66187      4.06316      4.46171         0.000205      0.000161      0.000541
      7.52073      4.06384      4.45853         0.000058     -0.000024      0.000367
     -0.19765      7.92133      4.46171        -0.000407     -0.000240      0.000665
      3.66121      7.92202      4.45853         0.000462     -0.000289      0.000690
      7.52007      7.92271      4.45535         0.000071      0.000174      0.000353
     -2.12017     -1.72091     10.85125         0.000721     -0.000767      0.000777
      1.73869     -1.72023     10.84807        -0.000569     -0.000111     -0.000030
      5.59756     -1.71954     10.84489         0.000213      0.000314     -0.000446
     -2.12083      2.13795     10.84807        -0.000005     -0.000220     -0.000335
      1.73803      2.13864     10.84489        -0.000102     -0.000018     -0.000276
      5.59689      2.13933     10.84171         0.000186     -0.000035     -0.000348
     -2.12149      5.99682     10.84489         0.000736      0.001399     -0.000684
      1.73737      5.99751     10.84171        -0.000406      0.000332     -0.000093
      5.59623      5.99820     10.83853         0.000052     -0.000098     -0.000496
     -0.19826      0.20165      2.04033         0.007643     -0.000874     -0.005935
      3.66060      0.20234      2.03715        -0.005692     -0.000889     -0.000518
      7.51947      0.20302      2.03397         0.000118     -0.000136     -0.000016
     -0.19892      4.06051      2.03715         0.000746     -0.000531      0.000310
      3.65994      4.06120      2.03397        -0.001188     -0.000574      0.000433
      7.51880      4.06189      2.03079         0.000131     -0.000124     -0.000108
     -0.19958      7.91938      2.03397         0.001226      0.001154      0.000282
      3.65928      7.92007      2.03079        -0.001680      0.001154      0.000454
      7.51814      7.92076      2.02760         0.000119      0.000267     -0.000089
     -2.12210     -1.72287      8.42351        -0.000074     -0.000250     -0.002647
      1.73676     -1.72218      8.42033         0.000226      0.000067     -0.000550
      5.59563     -1.72149      8.41715        -0.000390      0.000033     -0.000256
     -2.12276      2.13600      8.42033        -0.000089      0.000094     -0.000495
      1.73610      2.13669      8.41715         0.000187      0.000103     -0.000259
      5.59496      2.13738      8.41396        -0.000371      0.000090     -0.000197
     -2.12342      5.99486      8.41715        -0.000072     -0.000102     -0.001413
      1.73544      5.99555      8.41396         0.000205     -0.000131     -0.000378
      5.59430      5.99624      8.41078        -0.000345     -0.000123     -0.000212
      1.73264      2.13323      4.33649        -0.000011     -0.000093     -0.001215
      5.59151      2.13392      4.33331        -0.000309     -0.000119      0.000077
      9.45037      2.13460      4.33013         0.000375     -0.000115     -0.000178
      1.73198      5.99209      4.33331        -0.000008      0.000248     -0.000289
      5.59084      5.99278      4.33013        -0.000339      0.000207      0.000112
      9.44970      5.99347      4.32695         0.000372      0.000211     -0.000041
      1.73132      9.85096      4.33013        -0.000021     -0.000109     -0.002553
      5.59018      9.85165      4.32695        -0.000372      0.000167     -0.000024
      9.44904      9.85234      4.32377         0.000424      0.000200     -0.000452
     -0.19120      0.20871     10.71967         0.001230      0.001135      0.000484
      3.66767      0.20940     10.71649         0.000187      0.000263      0.000234
      7.52653      0.21009     10.71331        -0.001509      0.001160      0.000643
     -0.19186      4.06758     10.71649         0.000751     -0.000397      0.000512
      3.66700      4.06827     10.71331         0.000194      0.000011      0.000235
      7.52586      4.06896     10.71013        -0.001018     -0.000424      0.000636
     -0.19252      7.92644     10.71331         0.007754     -0.000772     -0.005928
      3.66634      7.92713     10.71013         0.000216     -0.000018      0.000255
      7.52520      7.92782     10.70695        -0.005554     -0.000780     -0.000381
 -----------------------------------------------------------------------------------
    total drift:                                0.007604     -0.007578     -0.000138


--------------------------------------------------------------------------------------------------------



  FREE ENERGIE OF THE ION-ELECTRON SYSTEM (eV)
  ---------------------------------------------------
  free  energy   TOTEN  =      -657.90166023 eV

  energy  without entropy=     -657.90166023  energy(sigma->0) =     -657.90166023
 


--------------------------------------------------------------------------------------------------------


    POTLOK:  cpu time    2.4191: real time    2.4206


--------------------------------------------------------------------------------------------------------


     LOOP+:  cpu time 6259.1152: real time 6357.9885
    4ORBIT:  cpu time    0.0000: real time    0.0000

 total amount of memory used by VASP MPI-rank0  2010615. kBytes
=======================================================================

   base      :      30000. kBytes
   nonl-proj :      83483. kBytes
   fftplans  :      59337. kBytes
   grid      :      50429. kBytes
   one-center:        653. kBytes
   wavefun   :    1786713. kBytes
 
  
  
 General timing and accounting informations for this job:
 ========================================================
  
                  Total CPU time used (sec):     6368.564
                            User time (sec):     6285.169
                          System time (sec):       83.395
                         Elapsed time (sec):     6469.120
  
                   Maximum memory used (kb):     2463504.
                   Average memory used (kb):           0.
  
                          Minor page faults:      1015505
                          Major page faults:           25
                 Voluntary context switches:        56421
