 vasp.6.2.0 18Jan21 (build Feb  9 2021 11:43:09) complex                         
 executed on       CrayXC_GCC_OMP date 2021.05.02  09:25:23
 running  512 mpi-ranks, with    1 threads/rank
 distrk:  each k-point on   64 cores,    8 groups
 distr:  one band on NCORE=   8 cores,    8 groups


--------------------------------------------------------------------------------------------------------


 INCAR:
   ALGO = all
   EDIFF = 0.000111
   EDIFFG = -0.03
   ENCUT = 520
   GGA = pe
   IBRION = 2
   ISIF = 2
   ISMEAR = 0
   ISPIN = 2
   KPAR = 8
   LASPH = .TRUE.
   LDAU = .TRUE.
   LDAUJ = 0.0 0.0 0.0 0.0
   LDAUL = 2 -1 -1 -1
   LDAUTYPE = 2
   LDAUU = 4.0 0.0 0.0 0.0
   LMAXMIX = 4
   LORBIT = 10
   LREAL = .FALSE.
   LVHAR = .TRUE.
   LWAVE = .FALSE.
   MAGMOM = 5 5 5 5 5 5 5 5 5 5 5 5 5 5 5 5 5 5 5 5 5 5 5 5 5 5 5 5 5 5 5 5 0.6 0.6 0.6 0.6 0.6 0.6 0.6 0.6 0.6 0.6 0.6 0.6 0.6 0.6 0.6 0.6 0.6 0.6 0.6 0.6 0.6 0.6 0.6 0.6 0.6 0.6 0.6 0.6 0.6 0.6 0.6 0.6 0.6 0.6 0.6 0.6 0.6 0.6 0.6 0.6 0.6 0.6 0.6 0.6 0.6 0.6 0.6 0.6 0.6 0.6 0.6 0.6 0.6 0.6 0.6 0.6 0.6 0.6 0.6 0.6 0.6 0.6 0.6 0.6 0.6 0.6 0.6 0.6 0.6 0.6 0.6 0.6 0.6 0.6 0.6 0.6 0.6 0.6 0.6
   NCORE = 8
   NEDOS = 2000
   NELECT = 828
   NELM = 200
   NELMIN = 4
   NSW = 60
   NWRITE = 1
   PREC = accurate
   SIGMA = 0.05

 POTCAR:    PAW_PBE Fe_pv 02Aug2007               
 POTCAR:    PAW_PBE Li_sv 10Sep2004               
 POTCAR:    PAW_PBE O 08Apr2002                   
 POTCAR:    PAW_PBE S 06Sep2000                   
 POTCAR:    PAW_PBE Fe_pv 02Aug2007               
  local pseudopotential read in
  partial core-charges read in
  partial kinetic energy density read in
  atomic valenz-charges read in
  non local Contribution for L=           1  read in
    real space projection operators read in
  non local Contribution for L=           1  read in
    real space projection operators read in
  non local Contribution for L=           2  read in
    real space projection operators read in
  non local Contribution for L=           2  read in
    real space projection operators read in
  non local Contribution for L=           0  read in
    real space projection operators read in
  non local Contribution for L=           0  read in
    real space projection operators read in
    PAW grid and wavefunctions read in

   number of l-projection  operators is LMAX  =           6
   number of lm-projection operators is LMMAX =          18

 POTCAR:    PAW_PBE Li_sv 10Sep2004               
  local pseudopotential read in
  atomic valenz-charges read in
  non local Contribution for L=           0  read in
    real space projection operators read in
  non local Contribution for L=           0  read in
    real space projection operators read in
  non local Contribution for L=           1  read in
    real space projection operators read in
    PAW grid and wavefunctions read in

   number of l-projection  operators is LMAX  =           3
   number of lm-projection operators is LMMAX =           5

 POTCAR:    PAW_PBE O 08Apr2002                   
  local pseudopotential read in
  partial core-charges read in
  partial kinetic energy density read in
  kinetic energy density of atom read in
  atomic valenz-charges read in
  non local Contribution for L=           0  read in
    real space projection operators read in
  non local Contribution for L=           0  read in
    real space projection operators read in
  non local Contribution for L=           1  read in
    real space projection operators read in
  non local Contribution for L=           1  read in
    real space projection operators read in
    PAW grid and wavefunctions read in

   number of l-projection  operators is LMAX  =           4
   number of lm-projection operators is LMMAX =           8

 POTCAR:    PAW_PBE S 06Sep2000                   
  local pseudopotential read in
  partial core-charges read in
  partial kinetic energy density read in
  atomic valenz-charges read in
  non local Contribution for L=           0  read in
    real space projection operators read in
  non local Contribution for L=           0  read in
    real space projection operators read in
  non local Contribution for L=           1  read in
    real space projection operators read in
  non local Contribution for L=           1  read in
    real space projection operators read in
    PAW grid and wavefunctions read in

   number of l-projection  operators is LMAX  =           4
   number of lm-projection operators is LMMAX =           8

 -----------------------------------------------------------------------------
|                                                                             |
|               ----> ADVICE to this user running VASP <----                  |
|                                                                             |
|     You have a (more or less) 'large supercell' and for larger cells it     |
|     might be more efficient to use real-space projection operators.         |
|     Therefore, try LREAL= Auto in the INCAR file.                           |
|     Mind: For very accurate calculation, you might also keep the            |
|     reciprocal projection scheme (i.e. LREAL=.FALSE.).                      |
|                                                                             |
 -----------------------------------------------------------------------------

  PAW_PBE Fe_pv 02Aug2007               :
 energy of atom  1       EATOM=-2457.4239
 kinetic energy error for atom=    0.0062 (will be added to EATOM!!)
  PAW_PBE Li_sv 10Sep2004               :
 energy of atom  2       EATOM= -202.7858
 kinetic energy error for atom=    0.0130 (will be added to EATOM!!)
  PAW_PBE O 08Apr2002                   :
 energy of atom  3       EATOM= -432.3788
 kinetic energy error for atom=    0.0208 (will be added to EATOM!!)
  PAW_PBE S 06Sep2000                   :
 energy of atom  4       EATOM= -276.8230
 kinetic energy error for atom=    0.0016 (will be added to EATOM!!)


 POSCAR: # Compound: Fe32Li31O16S32. Old comment:
  positions in direct lattice
  No initial velocities read in
 exchange correlation table for  LEXCH =        8
   RHO(1)=    0.500       N(1)  =     2000
   RHO(2)=  100.500       N(2)  =     4000



--------------------------------------------------------------------------------------------------------


 ion  position               nearest neighbor table
   1  0.974  0.079  0.159-  73 2.05  84 2.43  80 2.72  97 2.72  83 2.72  98 2.72
   2  0.225  0.330  0.159-  68 2.04  85 2.43  99 2.72  98 2.72  80 2.73  81 2.73
   3  0.724  0.329  0.158-  79 2.04  86 2.42  80 2.72  82 2.72  97 2.72  99 2.72
   4  0.973  0.580  0.159-  66 2.04  87 2.42  82 2.71  83 2.72  80 2.72  81 2.73
   5  0.975  0.422  0.341-  70 2.04  80 2.44  85 2.69  86 2.70  87 2.72  84 2.73
   6  0.223  0.670  0.341-  67 2.04  81 2.44  87 2.67  85 2.71 100 2.72 102 2.73
   7  0.715  0.666  0.347-  72 1.98  82 2.46 100 2.63  86 2.67
   8  0.973  0.920  0.341-  77 2.04  83 2.44  87 2.71 101 2.72  84 2.72 102 2.72
   9  0.973  0.079  0.659-  77 2.04  92 2.44  91 2.71 105 2.72  88 2.72 106 2.72
  10  0.224  0.330  0.659-  64 2.04  93 2.44 107 2.71  89 2.72 106 2.72  88 2.72
  11  0.723  0.329  0.659-  75 2.04  94 2.45 105 2.69  90 2.71 107 2.72  88 2.73
  12  0.975  0.580  0.659-  70 2.04  95 2.44  89 2.69  90 2.70  91 2.72  88 2.73
  13  0.974  0.421  0.841-  66 2.05  88 2.43  94 2.72  95 2.72  92 2.72  93 2.72
  14  0.225  0.670  0.841-  71 2.04  89 2.43 108 2.72  93 2.72  95 2.73 110 2.73
  15  0.724  0.671  0.842-  76 2.04  90 2.42  95 2.72 109 2.72  94 2.72 108 2.72
  16  0.973  0.920  0.841-  73 2.04  91 2.42 109 2.71  92 2.72  95 2.72 110 2.73
  17  0.473  0.580  0.159-  65 2.04 100 2.42  81 2.71  96 2.71  82 2.73  99 2.73
  18  0.724  0.829  0.159-  76 2.05 101 2.43  82 2.72  96 2.72  97 2.72  83 2.72
  19  0.224  0.830  0.159-  71 2.04 102 2.43  98 2.72  81 2.72  96 2.72  83 2.72
  20  0.474  0.080  0.159-  74 2.05 103 2.42  99 2.71  98 2.72  97 2.72  96 2.72
  21  0.474  0.921  0.341-  78 2.04  96 2.44 103 2.67 101 2.71 100 2.72 102 2.73
  22  0.723  0.170  0.341-  75 2.04  97 2.44 101 2.69  86 2.71 103 2.72  84 2.73
  23  0.224  0.171  0.341-  64 2.04  98 2.44 103 2.71  85 2.72 102 2.72  84 2.72
  24  0.481  0.433  0.347-  69 1.98  99 2.47 100 2.63  86 2.67
  25  0.481  0.586  0.653-  69 1.98 108 2.47 104 2.63  90 2.67
  26  0.715  0.820  0.653-  72 1.98 109 2.46 104 2.63  90 2.67
  27  0.223  0.829  0.659-  67 2.04 110 2.44  91 2.67  89 2.71 104 2.72 106 2.73
  28  0.474  0.080  0.659-  78 2.04 111 2.44 107 2.67 105 2.71 104 2.72 106 2.73
  29  0.473  0.922  0.841-  74 2.04 104 2.42 110 2.71 111 2.71 109 2.73 108 2.73
  30  0.724  0.170  0.841-  79 2.05 105 2.43 109 2.72 111 2.72  94 2.72  92 2.72
  31  0.224  0.171  0.841-  68 2.04 106 2.43  93 2.72 110 2.72  92 2.72 111 2.72
  32  0.474  0.421  0.841-  65 2.05 107 2.42 108 2.71  93 2.72  94 2.72 111 2.72
  33  0.081  0.143  0.000-  73 1.95  68 1.95  92 2.55  80 2.55
  34  0.867  0.857  0.000-  73 1.94  76 1.94  83 2.54  95 2.55
  35  0.867  0.356  1.000-  66 1.94  79 1.94  92 2.54  80 2.55
  36  0.081  0.643  1.000-  71 1.95  66 1.95  83 2.55  95 2.55
  37  0.117  0.394  0.500-  64 1.95  70 1.96  85 2.54  89 2.54
  38  0.339  0.611  0.500-  69 1.92  67 1.95  85 2.62  89 2.62
  39  0.823  0.604  0.500-  72 1.92  70 1.97  90 2.52  86 2.52
  40  0.620  0.401  0.500-  69 1.92  75 1.97  90 2.52  86 2.52
  41  0.081  0.143  0.500-  64 1.93  77 1.93  88 2.55  84 2.55
  42  0.870  0.857  0.500-  72 1.88  77 1.93  91 2.56  87 2.56
  43  0.868  0.356  0.500-  75 1.94  70 1.94  88 2.55  84 2.55
  44  0.082  0.643  0.500-  70 1.95  67 1.95  91 2.55  87 2.55
  45  0.117  0.393  0.000-  68 1.94  66 1.95  93 2.55  81 2.55
  46  0.331  0.607  0.000-  71 1.94  65 1.95  81 2.54  93 2.55
  47  0.831  0.607  0.000-  66 1.94  76 1.94  94 2.55  82 2.59
  48  0.618  0.394  0.000-  65 1.94  79 1.94  94 2.55  82 2.58
  49  0.581  0.643  1.000-  76 1.94  65 1.94  96 2.54 108 2.58
  50  0.367  0.357  0.000-  68 1.94  65 1.95 111 2.54  99 2.58
  51  0.367  0.857  1.000-  71 1.94  74 1.95  96 2.54 108 2.58
  52  0.581  0.144  0.000-  79 1.94  74 1.94 111 2.54  99 2.58
  53  0.613  0.885  0.500-  72 1.92  78 1.95 101 2.62 105 2.62
  54  0.830  0.107  0.500-  77 1.95  75 1.96 101 2.54 105 2.54
  55  0.331  0.106  0.500-  78 1.95  64 1.95 102 2.55 106 2.55
  56  0.118  0.893  0.500-  67 1.95  77 1.95 102 2.55 106 2.55
  57  0.367  0.354  0.500-  69 1.88  64 1.93 107 2.56 103 2.56
  58  0.369  0.855  0.500-  78 1.93  67 1.93 100 2.54 104 2.54
  59  0.581  0.143  0.500-  75 1.95  78 1.95 107 2.55 103 2.55
  60  0.618  0.893  1.000-  74 1.94  76 1.94  97 2.55 109 2.58
  61  0.831  0.107  1.000-  73 1.94  79 1.94  97 2.55 109 2.59
  62  0.331  0.107  1.000-  68 1.94  74 1.95 110 2.54  98 2.55
  63  0.117  0.893  1.000-  71 1.94  73 1.95  98 2.55 110 2.55
  64  0.223  0.249  0.500-  41 1.93  57 1.93  37 1.95  55 1.95  10 2.04  23 2.04
  65  0.474  0.500  0.000-  49 1.94  48 1.94  46 1.95  50 1.95  17 2.04  32 2.05
  66  0.974  0.500  0.000-  47 1.94  35 1.94  45 1.95  36 1.95   4 2.04  13 2.05
  67  0.226  0.750  0.500-  58 1.93  56 1.95  38 1.95  44 1.95  27 2.04   6 2.04
  68  0.224  0.250  0.000-  62 1.94  50 1.94  45 1.94  33 1.95   2 2.04  31 2.04
  69  0.470  0.493  0.500-  57 1.88  40 1.92  38 1.92  25 1.98  24 1.98
  70  0.972  0.501  0.500-  43 1.94  44 1.95  37 1.96  39 1.97  12 2.04   5 2.04
  71  0.224  0.750  1.000-  46 1.94  51 1.94  63 1.94  36 1.95  14 2.04  19 2.04
  72  0.731  0.754  0.500-  42 1.88  39 1.92  53 1.92  26 1.98   7 1.98
  73  0.974  1.000  1.000-  61 1.94  34 1.94  63 1.95  33 1.95  16 2.04   1 2.05
  74  0.474  0.000  1.000-  52 1.94  60 1.94  62 1.95  51 1.95  29 2.04  20 2.05
  75  0.723  0.252  0.500-  43 1.94  59 1.95  54 1.96  40 1.97  11 2.04  22 2.04
  76  0.724  0.750  0.000-  49 1.94  47 1.94  60 1.94  34 1.94  15 2.04  18 2.05
  77  0.975  0.001  0.500-  41 1.93  42 1.93  56 1.95  54 1.95   9 2.04   8 2.04
  78  0.474  0.998  0.500-  58 1.93  55 1.95  53 1.95  59 1.95  28 2.04  21 2.04
  79  0.724  0.250  1.000-  52 1.94  61 1.94  48 1.94  35 1.94   3 2.04  30 2.05
  80  0.974  0.326  0.152-   5 2.44  33 2.55  35 2.55   1 2.72   3 2.72   4 2.72   2 2.73
  81  0.224  0.576  0.151-   6 2.44  46 2.54  45 2.55  17 2.71  19 2.72   2 2.73   4 2.73
  82  0.724  0.577  0.155-   7 2.46  48 2.58  47 2.59   4 2.71   3 2.72  18 2.72  17 2.73
  83  0.974  0.826  0.151-   8 2.44  34 2.54  36 2.55   1 2.72  19 2.72  18 2.72   4 2.72
  84  0.974  0.174  0.348-   1 2.43  43 2.55  41 2.55   8 2.72  23 2.72   5 2.73  22 2.73
  85  0.222  0.424  0.348-   2 2.43  37 2.54  38 2.62   5 2.69   6 2.71  23 2.72
  86  0.726  0.421  0.347-   3 2.42  39 2.52  40 2.52  24 2.67   7 2.67   5 2.70  22 2.71
  87  0.978  0.675  0.348-   4 2.42  44 2.55  42 2.56   6 2.67   8 2.71   5 2.72
  88  0.974  0.326  0.652-  13 2.43  43 2.55  41 2.55   9 2.72  10 2.72  12 2.73  11 2.73
  89  0.222  0.576  0.652-  14 2.43  37 2.54  38 2.62  12 2.69  27 2.71  10 2.72
  90  0.726  0.575  0.653-  15 2.42  39 2.52  40 2.52  25 2.67  26 2.67  12 2.70  11 2.71
  91  0.978  0.827  0.652-  16 2.42  44 2.55  42 2.56  27 2.67   9 2.71  12 2.72
  92  0.974  0.175  0.849-   9 2.44  35 2.54  33 2.55  13 2.72  31 2.72  30 2.72  16 2.72
  93  0.224  0.424  0.849-  10 2.44  46 2.55  45 2.55  31 2.72  13 2.72  14 2.72  32 2.72
  94  0.724  0.424  0.849-  11 2.45  48 2.55  47 2.55  13 2.72  15 2.72  30 2.72  32 2.72
  95  0.974  0.674  0.848-  12 2.44  36 2.55  34 2.55  13 2.72  15 2.72  16 2.72  14 2.73
  96  0.474  0.826  0.151-  21 2.44  51 2.54  49 2.54  17 2.71  19 2.72  18 2.72  20 2.72
  97  0.724  0.075  0.151-  22 2.44  60 2.55  61 2.55   1 2.72   3 2.72  18 2.72  20 2.72
  98  0.224  0.075  0.151-  23 2.44  62 2.55  63 2.55  19 2.72   1 2.72   2 2.72  20 2.72
  99  0.474  0.328  0.155-  24 2.47  52 2.58  50 2.58  20 2.71   2 2.72   3 2.72  17 2.73
 100  0.473  0.674  0.347-  17 2.42  58 2.54   7 2.63  24 2.63   6 2.72  21 2.72
 101  0.724  0.926  0.348-  18 2.43  54 2.54  53 2.62  22 2.69  21 2.71   8 2.72
 102  0.224  0.924  0.348-  19 2.43  56 2.55  55 2.55  23 2.72   8 2.72   6 2.73  21 2.73
 103  0.473  0.170  0.347-  20 2.42  59 2.55  57 2.56  21 2.67  23 2.71  22 2.72
 104  0.473  0.827  0.653-  29 2.42  58 2.54  26 2.63  25 2.63  27 2.72  28 2.72
 105  0.724  0.078  0.652-  30 2.43  54 2.54  53 2.62  11 2.69  28 2.71   9 2.72
 106  0.224  0.076  0.652-  31 2.43  56 2.55  55 2.55  10 2.72   9 2.72  27 2.73  28 2.73
 107  0.473  0.322  0.653-  32 2.42  59 2.55  57 2.56  28 2.67  10 2.71  11 2.72
 108  0.474  0.672  0.845-  25 2.47  49 2.58  51 2.58  32 2.71  14 2.72  15 2.72  29 2.73
 109  0.724  0.922  0.845-  26 2.46  60 2.58  61 2.59  16 2.71  15 2.72  30 2.72  29 2.73
 110  0.224  0.925  0.849-  27 2.44  62 2.54  63 2.55  29 2.71  31 2.72  14 2.73  16 2.73
 111  0.474  0.175  0.849-  28 2.44  50 2.54  52 2.54  29 2.71  31 2.72  30 2.72  32 2.72

  LATTYP: Found a base centered orthorhombic cell.
 ALAT       =    10.8749739061
 B/A-ratio  =     2.3644048249
 C/A-ratio  =     1.0000101723
  
  Lattice vectors:
  
 A1 = (   3.8335882400,   3.8349345400, -12.8627506400)
 A2 = (   3.8548230400,   3.8561790800,  12.8500725900)
 A3 = (   7.6911861600,  -7.6885056400,   0.0000000100)


Analysis of symmetry for initial positions (statically):
=====================================================================
 Subroutine PRICEL returns:
 Original cell was already a primitive cell.
 

 Routine SETGRP: Setting up the symmetry group for a 
 base centered orthorhombic supercell.


 Subroutine GETGRP returns: Found  1 space group operations
 (whereof  1 operations were pure point group operations)
 out of a pool of  8 trial point group operations.


The static configuration has the point symmetry C_1 .


Analysis of symmetry for dynamics (positions and initial velocities):
=====================================================================
 Subroutine PRICEL returns:
 Original cell was already a primitive cell.
 

 Routine SETGRP: Setting up the symmetry group for a 
 base centered orthorhombic supercell.


 Subroutine GETGRP returns: Found  1 space group operations
 (whereof  1 operations were pure point group operations)
 out of a pool of  8 trial point group operations.


The dynamic configuration has the point symmetry C_1 .


Analysis of structural, dynamic, and magnetic symmetry:
=====================================================================
 Subroutine PRICEL returns:
 Original cell was already a primitive cell.
 

 Routine SETGRP: Setting up the symmetry group for a 
 base centered orthorhombic supercell.


 Subroutine GETGRP returns: Found  1 space group operations
 (whereof  1 operations were pure point group operations)
 out of a pool of  8 trial point group operations.


The overall configuration has the point symmetry C_1 .


 Subroutine INISYM returns: Found  1 space group operations
 (whereof  1 operations are pure point group operations),
 and found     1 'primitive' translations


----------------------------------------------------------------------------------------

                                     Primitive cell                                     

  volume of cell :    1520.4808

  direct lattice vectors                    reciprocal lattice vectors
     7.691186160 -7.688505640  0.000000010     0.065032232 -0.065009382  0.000000006
     7.688411280  7.691113620 -0.012678050     0.065042145  0.065064822  0.038783628
    -3.833588240 -3.834934540 12.862750640     0.000064108  0.000064131  0.077782096

  length of vectors
    10.875084530 10.874973906 13.958992648     0.091953308  0.099840280  0.077782149

  position of ions in fractional coordinates (direct lattice)
     0.973927570  0.079458040  0.158736660
     0.224525310  0.329548860  0.159399500
     0.724323920  0.328880280  0.158318680
     0.973271960  0.579711620  0.159214450
     0.974646270  0.421620420  0.341392580
     0.223330020  0.670324080  0.341181150
     0.714752570  0.666457580  0.346757360
     0.973498220  0.920289490  0.341068800
     0.973484770  0.079221240  0.658924280
     0.224480000  0.329931480  0.658950240
     0.722907840  0.328695520  0.658776900
     0.974661080  0.580234000  0.658596360
     0.973914800  0.420706650  0.841265990
     0.224518080  0.670135750  0.840612580
     0.724320650  0.670544740  0.841693980
     0.973265040  0.920496370  0.840797480
     0.473128080  0.580461740  0.158670240
     0.723997890  0.829379190  0.159385610
     0.224102050  0.829538700  0.158668820
     0.474008220  0.080097300  0.159077760
     0.474473390  0.921446530  0.340992750
     0.722910160  0.169910940  0.341214320
     0.224482550  0.170945740  0.341034890
     0.481218520  0.432653830  0.346745620
     0.481210020  0.585936290  0.653248140
     0.714728480  0.819665780  0.653228620
     0.223315220  0.829173190  0.658811150
     0.474460450  0.080469950  0.658998270
     0.473120100  0.921796350  0.841346660
     0.723994320  0.169987410  0.840624260
     0.224090750  0.170863090  0.841340730
     0.473986420  0.421013290  0.840930830
     0.081164050  0.142985790  0.000017070
     0.867288740  0.856731750  0.000236290
     0.867289850  0.356490700  0.999758890
     0.081171060  0.642968900  0.999986350
     0.117056520  0.393766410  0.499990600
     0.339217320  0.610867990  0.499988040
     0.823180990  0.603765360  0.499998600
     0.620373980  0.400683980  0.499998230
     0.080823480  0.143312260  0.499992310
     0.870313230  0.856794480  0.500005260
     0.867590040  0.356198780  0.499994350
     0.081527120  0.642828770  0.499994890
     0.117001590  0.393043680  0.000231660
     0.330587190  0.606786380  0.000117810
     0.830921820  0.606999960  0.000329420
     0.617544760  0.393700680  0.000445810
     0.580683860  0.643376540  0.999615740
     0.367461380  0.357072660  0.000468940
     0.367460080  0.856609190  0.999543270
     0.580685430  0.143775110  0.000411010
     0.613171410  0.885262950  0.499985490
     0.830087780  0.107155480  0.499994140
     0.331054760  0.105829140  0.499991400
     0.118174270  0.893235490  0.499992650
     0.367456770  0.353635070  0.500001660
     0.368961210  0.855420300  0.499979720
     0.581166120  0.142636530  0.500001060
     0.617541180  0.893254980  0.999578580
     0.830923170  0.106668520  0.999668430
     0.330585270  0.106670490  0.999898730
     0.117003640  0.892814580  0.999774500
     0.223375380  0.249443660  0.499998710
     0.474319460  0.500286930  0.000008850
     0.973685310  0.500134980  0.000338120
     0.225679240  0.749988540  0.500000620
     0.224464010  0.250269270  0.000378860
     0.470223750  0.492971570  0.499999980
     0.972257860  0.500775920  0.500004300
     0.224465970  0.749883420  0.999612560
     0.730974320  0.753930250  0.500020150
     0.973682010  0.999788280  0.999641850
     0.474321020  0.000276230  0.999992450
     0.723238360  0.251808880  0.500002990
     0.723880310  0.749897000  0.000191000
     0.974617920  0.000801280  0.500004620
     0.474129860  0.998457180  0.500002580
     0.723880870  0.249701640  0.999795780
     0.974103200  0.325574060  0.151665610
     0.224067890  0.576157810  0.151468790
     0.724029430  0.577309020  0.155356740
     0.974264520  0.826008190  0.151226230
     0.974124420  0.173884700  0.347848850
     0.221682310  0.424488540  0.348089360
     0.726072350  0.421271270  0.346555550
     0.978063210  0.674665090  0.347619000
     0.974128530  0.326024320  0.652135780
     0.221687880  0.576384890  0.651899470
     0.726065080  0.574713360  0.653431840
     0.978070960  0.827039050  0.652369580
     0.974266330  0.174791070  0.848789660
     0.223810380  0.424308370  0.848840880
     0.724296780  0.424329430  0.848957110
     0.974103080  0.673919600  0.848345250
     0.473910580  0.825600830  0.150843870
     0.724302250  0.075368700  0.151051340
     0.223801140  0.075473350  0.151170020
     0.474311880  0.327605880  0.155246680
     0.473357100  0.674064590  0.346680160
     0.723693860  0.926372990  0.348029050
     0.223819630  0.924097320  0.347678650
     0.473255320  0.169720240  0.347418280
     0.473345880  0.827390820  0.653323730
     0.723686940  0.078344310  0.651963470
     0.223826620  0.076410540  0.652315960
     0.473250960  0.322296760  0.652579370
     0.474309830  0.672359920  0.844755960
     0.724022950  0.921953860  0.844646230
     0.224071100  0.924692750  0.848534160
     0.473903820  0.174767500  0.849170890

  ion indices of the primitive-cell ions
   primitive index   ion index
                 1           1
                 2           2
                 3           3
                 4           4
                 5           5
                 6           6
                 7           7
                 8           8
                 9           9
                10          10
                11          11
                12          12
                13          13
                14          14
                15          15
                16          16
                17          17
                18          18
                19          19
                20          20
                21          21
                22          22
                23          23
                24          24
                25          25
                26          26
                27          27
                28          28
                29          29
                30          30
                31          31
                32          32
                33          33
                34          34
                35          35
                36          36
                37          37
                38          38
                39          39
                40          40
                41          41
                42          42
                43          43
                44          44
                45          45
                46          46
                47          47
                48          48
                49          49
                50          50
                51          51
                52          52
                53          53
                54          54
                55          55
                56          56
                57          57
                58          58
                59          59
                60          60
                61          61
                62          62
                63          63
                64          64
                65          65
                66          66
                67          67
                68          68
                69          69
                70          70
                71          71
                72          72
                73          73
                74          74
                75          75
                76          76
                77          77
                78          78
                79          79
                80          80
                81          81
                82          82
                83          83
                84          84
                85          85
                86          86
                87          87
                88          88
                89          89
                90          90
                91          91
                92          92
                93          93
                94          94
                95          95
                96          96
                97          97
                98          98
                99          99
               100         100
               101         101
               102         102
               103         103
               104         104
               105         105
               106         106
               107         107
               108         108
               109         109
               110         110
               111         111

----------------------------------------------------------------------------------------



 KPOINTS: # No comment                            

Automatic generation of k-mesh.
 Grid dimensions read from file:
 generate k-points for:    2    2    2

 Generating k-lattice:

  Cartesian coordinates                     Fractional coordinates (reciprocal lattice)
     0.032516116 -0.032504691  0.000000003     0.500000000 -0.000000000  0.000000000
     0.032521073  0.032532411  0.019391814    -0.000000000  0.500000000  0.000000000
     0.000032054  0.000032065  0.038891048     0.000000000 -0.000000000  0.500000000

  Length of vectors
     0.045976654  0.049920140  0.038891074

  Shift w.r.t. Gamma in fractional coordinates (k-lattice)
     0.000000000  0.000000000  0.000000000

 
 Subroutine IBZKPT returns following result:
 ===========================================
 
 Found      8 irreducible k-points:
 
 Following reciprocal coordinates:
            Coordinates               Weight
  0.000000  0.000000  0.000000      1.000000
  0.500000  0.000000  0.000000      1.000000
  0.000000  0.500000  0.000000      1.000000
  0.000000  0.500000  0.500000      1.000000
  0.500000  0.500000  0.000000      1.000000
  0.500000  0.500000  0.500000      1.000000
  0.000000  0.000000  0.500000      1.000000
  0.500000  0.000000  0.500000      1.000000
 
 Following cartesian coordinates:
            Coordinates               Weight
  0.000000  0.000000  0.000000      1.000000
  0.032516 -0.032505  0.000000      1.000000
  0.032521  0.032532  0.019392      1.000000
  0.032553  0.032564  0.058283      1.000000
  0.065037  0.000028  0.019392      1.000000
  0.065069  0.000060  0.058283      1.000000
  0.000032  0.000032  0.038891      1.000000
  0.032548 -0.032473  0.038891      1.000000
 


--------------------------------------------------------------------------------------------------------




 Dimension of arrays:
   k-points           NKPTS =      8   k-points in BZ     NKDIM =      8   number of bands    NBANDS=    600
   number of dos      NEDOS =   2000   number of ions     NIONS =    111
   non local maximal  LDIM  =      6   non local SUM 2l+1 LMDIM =     18
   total plane-waves  NPLWV = 762048
   max r-space proj   IRMAX =      1   max aug-charges    IRDMAX=  15988
   dimension x,y,z NGX =    84 NGY =   84 NGZ =  108
   dimension x,y,z NGXF=   168 NGYF=  168 NGZF=  216
   support grid    NGXF=   168 NGYF=  168 NGZF=  216
   ions per type =              32  31  16  32
   NGX,Y,Z   is equivalent  to a cutoff of  12.84, 12.84, 12.86 a.u.
   NGXF,Y,Z  is equivalent  to a cutoff of  25.68, 25.68, 25.72 a.u.

 SYSTEM =  unknown system                          
 POSCAR =  # Compound: Fe32Li31O16S32. Old comment:

 Startparameter for this run:
   NWRITE =      1    write-flag & timer
   PREC   = accura    normal or accurate (medium, high low for compatibility)
   ISTART =      0    job   : 0-new  1-cont  2-samecut
   ICHARG =      2    charge: 1-file 2-atom 10-const
   ISPIN  =      2    spin polarized calculation?
   LNONCOLLINEAR =      F non collinear calculations
   LSORBIT =      F    spin-orbit coupling
   INIWAV =      1    electr: 0-lowe 1-rand  2-diag
   LASPH  =      T    aspherical Exc in radial PAW
   METAGGA=      F    non-selfconsistent MetaGGA calc.

 Electronic Relaxation 1
   ENCUT  =  520.0 eV  38.22 Ry    6.18 a.u.  20.22 20.22 25.95*2*pi/ulx,y,z
   ENINI  =  520.0     initial cutoff
   ENAUG  =  628.9 eV  augmentation charge cutoff
   NELM   =    200;   NELMIN=  4; NELMDL= -5     # of ELM steps 
   EDIFF  = 0.1E-03   stopping-criterion for ELM
   LREAL  =      F    real-space projection
   NLSPLINE    = F    spline interpolate recip. space projectors
   LCOMPAT=      F    compatible to vasp.4.4
   GGA_COMPAT  = T    GGA compatible to vasp.4.4-vasp.4.6
   LMAXPAW     = -100 max onsite density
   LMAXMIX     =    4 max onsite mixed and CHGCAR
   VOSKOWN=      0    Vosko Wilk Nusair interpolation
   ROPT   =    0.00000   0.00000   0.00000   0.00000
 Ionic relaxation
   EDIFFG = -.3E-01   stopping-criterion for IOM
   NSW    =     60    number of steps for IOM
   NBLOCK =      1;   KBLOCK =     60    inner block; outer block 
   IBRION =      2    ionic relax: 0-MD 1-quasi-New 2-CG
   NFREE  =      1    steps in history (QN), initial steepest desc. (CG)
   ISIF   =      2    stress and relaxation
   IWAVPR =     11    prediction:  0-non 1-charg 2-wave 3-comb
   ISYM   =      2    0-nonsym 1-usesym 2-fastsym
   LCORR  =      T    Harris-Foulkes like correction to forces

   POTIM  = 0.5000    time-step for ionic-motion
   TEIN   =    0.0    initial temperature
   TEBEG  =    0.0;   TEEND  =   0.0 temperature during run
   SMASS  =  -3.00    Nose mass-parameter (am)
   estimated Nose-frequenzy (Omega)   =  0.10E-29 period in steps = 0.13E+47 mass=  -0.270E-26a.u.
   SCALEE = 1.0000    scale energy and forces
   NPACO  =    256;   APACO  = 16.0  distance and # of slots for P.C.
   PSTRESS=    0.0 pullay stress

  Mass of Ions in am
   POMASS =  55.85  7.01 16.00 32.07
  Ionic Valenz
   ZVAL   =  14.00  3.00  6.00  6.00
  Atomic Wigner-Seitz radii
   RWIGS  =  -1.00 -1.00 -1.00 -1.00
  virtual crystal weights 
   VCA    =   1.00  1.00  1.00  1.00
   NELECT =     828.0000    total number of electrons
   NUPDOWN=      -1.0000    fix difference up-down

 DOS related values:
   EMIN   =  10.00;   EMAX   =-10.00  energy-range for DOS
   EFERMI =   0.00
   ISMEAR =     0;   SIGMA  =   0.05  broadening in eV -4-tet -1-fermi 0-gaus

 Electronic relaxation 2 (details)
   IALGO  =     58    algorithm
   LDIAG  =      T    sub-space diagonalisation (order eigenvalues)
   LSUBROT=      F    optimize rotation matrix (better conditioning)
   TURBO    =      0    0=normal 1=particle mesh
   IRESTART =      0    0=no restart 2=restart with 2 vectors
   NREBOOT  =      0    no. of reboots
   NMIN     =      0    reboot dimension
   EREF     =   0.00    reference energy to select bands
   IMIX   =      4    mixing-type and parameters
     AMIX     =   0.40;   BMIX     =  1.00
     AMIX_MAG =   1.60;   BMIX_MAG =  1.00
     AMIN     =   0.10
     WC   =   100.;   INIMIX=   1;  MIXPRE=   1;  MAXMIX= -45

 Intra band minimization:
   WEIMIN = 0.0010     energy-eigenvalue tresh-hold
   EBREAK =  0.46E-07  absolut break condition
   DEPER  =   0.30     relativ break condition  

   TIME   =   0.40     timestep for ELM

  volume/ion in A,a.u.               =      13.70        92.44
  Fermi-wavevector in a.u.,A,eV,Ry     =   1.336877  2.526330 24.316861  1.787239
  Thomas-Fermi vector in A             =   2.465469

 Write flags
   LWAVE        =      F    write WAVECAR
   LDOWNSAMPLE  =      F    k-point downsampling of WAVECAR
   LCHARG       =      T    write CHGCAR
   LVTOT        =      F    write LOCPOT, total local potential
   LVHAR        =      T    write LOCPOT, Hartree potential only
   LELF         =      F    write electronic localiz. function (ELF)
   LORBIT       =     10    0 simple, 1 ext, 2 COOP (PROOUT), +10 PAW based schemes


 Dipole corrections
   LMONO  =      F    monopole corrections only (constant potential shift)
   LDIPOL =      F    correct potential (dipole corrections)
   IDIPOL =      0    1-x, 2-y, 3-z, 4-all directions 
   EPSILON=  1.0000000 bulk dielectric constant

 LDA+U is selected, type is set to LDAUTYPE =  2
   angular momentum for each species LDAUL =     2   -1   -1   -1
   U (eV)           for each species LDAUU =   4.0  0.0  0.0  0.0
   J (eV)           for each species LDAUJ =   0.0  0.0  0.0  0.0
 Exchange correlation treatment:
   GGA     =    PE    GGA type
   LEXCH   =     8    internal setting for exchange type
   VOSKOWN=      0    Vosko Wilk Nusair interpolation
   LHFCALC =     F    Hartree Fock is set to
   LHFONE  =     F    Hartree Fock one center treatment
   AEXX    =    0.0000 exact exchange contribution

 Linear response parameters
   LEPSILON=     F    determine dielectric tensor
   LRPA    =     F    only Hartree local field effects (RPA)
   LNABLA  =     F    use nabla operator in PAW spheres
   LVEL    =     F    velocity operator in full k-point grid
   LINTERFAST=   F  fast interpolation
   KINTER  =     0    interpolate to denser k-point grid
   CSHIFT  =0.1000    complex shift for real part using Kramers Kronig
   OMEGAMAX=  -1.0    maximum frequency
   DEG_THRESHOLD= 0.2000000E-02 threshold for treating states as degnerate
   RTIME   =   -0.100 relaxation time in fs
  (WPLASMAI=    0.000 imaginary part of plasma frequency in eV, 0.658/RTIME)
   DFIELD  = 0.0000000 0.0000000 0.0000000 field for delta impulse in time

 Orbital magnetization related:
   ORBITALMAG=     F  switch on orbital magnetization
   LCHIMAG   =     F  perturbation theory with respect to B field
   DQ        =  0.001000  dq finite difference perturbation B field
   LLRAUG    =     F  two centre corrections for induced B field



--------------------------------------------------------------------------------------------------------


 conjugate gradient relaxation of ions
 charge density and potential will be updated during run
 spin polarized calculation
 Conjugate gradient for all bands (Freysoldt, et al. PRB 79, 241103 (2009))
 preconditioned conjugated gradient                                        
 perform sub-space diagonalisation
    before iterative eigenvector-optimisation
 modified Broyden-mixing scheme, WC =      100.0
 initial mixing is a Kerker type mixing with AMIX =  0.4000 and BMIX =      1.0000
 Hartree-type preconditioning will be used
 using additional bands          186
 reciprocal scheme for non local part
 use partial core corrections
 no Harris-corrections to forces 
 use gradient corrections 
 use of overlap-Matrix (Vanderbilt PP)
 Gauss-broadening in eV      SIGMA  =   0.05


--------------------------------------------------------------------------------------------------------


  energy-cutoff  :      520.00
  volume of cell :     1520.48
      direct lattice vectors                 reciprocal lattice vectors
     7.691186160 -7.688505640  0.000000010     0.065032232 -0.065009382  0.000000006
     7.688411280  7.691113620 -0.012678050     0.065042145  0.065064822  0.038783628
    -3.833588240 -3.834934540 12.862750640     0.000064108  0.000064131  0.077782096

  length of vectors
    10.875084530 10.874973906 13.958992648     0.091953308  0.099840280  0.077782149



 k-points in units of 2pi/SCALE and weight: # No comment                            
   0.00000000  0.00000000  0.00000000       0.125
   0.03251612 -0.03250469  0.00000000       0.125
   0.03252107  0.03253241  0.01939181       0.125
   0.03255313  0.03256448  0.05828286       0.125
   0.06503719  0.00002772  0.01939182       0.125
   0.06506924  0.00005979  0.05828286       0.125
   0.00003205  0.00003207  0.03889105       0.125
   0.03254817 -0.03247263  0.03889105       0.125

 k-points in reciprocal lattice and weights: # No comment                            
   0.00000000  0.00000000  0.00000000       0.125
   0.50000000  0.00000000  0.00000000       0.125
   0.00000000  0.50000000  0.00000000       0.125
   0.00000000  0.50000000  0.50000000       0.125
   0.50000000  0.50000000  0.00000000       0.125
   0.50000000  0.50000000  0.50000000       0.125
   0.00000000  0.00000000  0.50000000       0.125
   0.50000000  0.00000000  0.50000000       0.125

 position of ions in fractional coordinates (direct lattice) 
   0.97392757  0.07945804  0.15873666
   0.22452531  0.32954886  0.15939950
   0.72432392  0.32888028  0.15831868
   0.97327196  0.57971162  0.15921445
   0.97464627  0.42162042  0.34139258
   0.22333002  0.67032408  0.34118115
   0.71475257  0.66645758  0.34675736
   0.97349822  0.92028949  0.34106880
   0.97348477  0.07922124  0.65892428
   0.22448000  0.32993148  0.65895024
   0.72290784  0.32869552  0.65877690
   0.97466108  0.58023400  0.65859636
   0.97391480  0.42070665  0.84126599
   0.22451808  0.67013575  0.84061258
   0.72432065  0.67054474  0.84169398
   0.97326504  0.92049637  0.84079748
   0.47312808  0.58046174  0.15867024
   0.72399789  0.82937919  0.15938561
   0.22410205  0.82953870  0.15866882
   0.47400822  0.08009730  0.15907776
   0.47447339  0.92144653  0.34099275
   0.72291016  0.16991094  0.34121432
   0.22448255  0.17094574  0.34103489
   0.48121852  0.43265383  0.34674562
   0.48121002  0.58593629  0.65324814
   0.71472848  0.81966578  0.65322862
   0.22331522  0.82917319  0.65881115
   0.47446045  0.08046995  0.65899827
   0.47312010  0.92179635  0.84134666
   0.72399432  0.16998741  0.84062426
   0.22409075  0.17086309  0.84134073
   0.47398642  0.42101329  0.84093083
   0.08116405  0.14298579  0.00001707
   0.86728874  0.85673175  0.00023629
   0.86728985  0.35649070  0.99975889
   0.08117106  0.64296890  0.99998635
   0.11705652  0.39376641  0.49999060
   0.33921732  0.61086799  0.49998804
   0.82318099  0.60376536  0.49999860
   0.62037398  0.40068398  0.49999823
   0.08082348  0.14331226  0.49999231
   0.87031323  0.85679448  0.50000526
   0.86759004  0.35619878  0.49999435
   0.08152712  0.64282877  0.49999489
   0.11700159  0.39304368  0.00023166
   0.33058719  0.60678638  0.00011781
   0.83092182  0.60699996  0.00032942
   0.61754476  0.39370068  0.00044581
   0.58068386  0.64337654  0.99961574
   0.36746138  0.35707266  0.00046894
   0.36746008  0.85660919  0.99954327
   0.58068543  0.14377511  0.00041101
   0.61317141  0.88526295  0.49998549
   0.83008778  0.10715548  0.49999414
   0.33105476  0.10582914  0.49999140
   0.11817427  0.89323549  0.49999265
   0.36745677  0.35363507  0.50000166
   0.36896121  0.85542030  0.49997972
   0.58116612  0.14263653  0.50000106
   0.61754118  0.89325498  0.99957858
   0.83092317  0.10666852  0.99966843
   0.33058527  0.10667049  0.99989873
   0.11700364  0.89281458  0.99977450
   0.22337538  0.24944366  0.49999871
   0.47431946  0.50028693  0.00000885
   0.97368531  0.50013498  0.00033812
   0.22567924  0.74998854  0.50000062
   0.22446401  0.25026927  0.00037886
   0.47022375  0.49297157  0.49999998
   0.97225786  0.50077592  0.50000430
   0.22446597  0.74988342  0.99961256
   0.73097432  0.75393025  0.50002015
   0.97368201  0.99978828  0.99964185
   0.47432102  0.00027623  0.99999245
   0.72323836  0.25180888  0.50000299
   0.72388031  0.74989700  0.00019100
   0.97461792  0.00080128  0.50000462
   0.47412986  0.99845718  0.50000258
   0.72388087  0.24970164  0.99979578
   0.97410320  0.32557406  0.15166561
   0.22406789  0.57615781  0.15146879
   0.72402943  0.57730902  0.15535674
   0.97426452  0.82600819  0.15122623
   0.97412442  0.17388470  0.34784885
   0.22168231  0.42448854  0.34808936
   0.72607235  0.42127127  0.34655555
   0.97806321  0.67466509  0.34761900
   0.97412853  0.32602432  0.65213578
   0.22168788  0.57638489  0.65189947
   0.72606508  0.57471336  0.65343184
   0.97807096  0.82703905  0.65236958
   0.97426633  0.17479107  0.84878966
   0.22381038  0.42430837  0.84884088
   0.72429678  0.42432943  0.84895711
   0.97410308  0.67391960  0.84834525
   0.47391058  0.82560083  0.15084387
   0.72430225  0.07536870  0.15105134
   0.22380114  0.07547335  0.15117002
   0.47431188  0.32760588  0.15524668
   0.47335710  0.67406459  0.34668016
   0.72369386  0.92637299  0.34802905
   0.22381963  0.92409732  0.34767865
   0.47325532  0.16972024  0.34741828
   0.47334588  0.82739082  0.65332373
   0.72368694  0.07834431  0.65196347
   0.22382662  0.07641054  0.65231596
   0.47325096  0.32229676  0.65257937
   0.47430983  0.67235992  0.84475596
   0.72402295  0.92195386  0.84464623
   0.22407110  0.92469275  0.84853416
   0.47390382  0.17476750  0.84917089

 position of ions in cartesian coordinates  (Angst):
   7.49303335 -7.48567150  2.04078271
   3.64950108  0.19704697  2.04613799
   7.49254833 -3.64665472  2.03224415
  11.33231454 -3.63495601  2.04058617
   9.42901852 -5.56006099  4.38590231
   5.56345193  2.13005717  4.38002966
   9.29197011 -1.69936997  4.45180408
  13.25540279 -1.71467205  4.37541546
   5.57029369 -9.40227507  8.47457434
   1.73702249 -1.71540628  8.47172974
   5.56168574 -5.55641270  8.46951578
   9.43259018 -5.55671552  8.46400453
   7.50005838 -7.47844679 10.81566092
   3.65652711  0.20418745 10.80409399
   7.49960056 -3.63954894 10.81799859
  11.33944595 -3.62771488 10.80329823
   7.49346836  0.21825930  2.03357661
  11.33399207  0.20115434  2.03962245
   7.49317436  4.04858198  2.03040054
   3.65166782 -3.63843023  2.04516209
   9.42649727  2.13127375  4.37442257
   5.55830660 -5.55982908  4.38680058
   1.73345089 -1.71901872  4.38447949
   5.69828188 -1.70200830  4.45461724
   5.70171064 -1.69844723  8.39513941
   9.29482787 -1.69614030  8.39192509
   5.56697276  2.13380725  8.46361124
   1.74152170 -5.55620354  8.47551022
   7.50062756  0.22554454 10.81034571
   3.65270094 -7.48278094 10.81058514
  -0.18816454 -3.63528218 10.81978980
   3.65865858 -3.63110090 10.81134595
   1.72351594  0.47562424 -0.00159321
  13.25647937 -0.07983929 -0.00782234
   5.57867089 -7.76036232 12.85512970
   1.73417517  0.48618052 12.85442347
   2.01098351  0.21108126  6.42626222
   5.38883963  0.17275944  6.42347687
   9.05644589 -3.60286560  6.42370275
   5.93524767 -3.60550331  6.42627267
  -0.19329261 -1.43661869  6.42945949
  11.36431513 -2.01919192  6.42058050
   7.49462677 -5.84835123  6.42678675
   3.65259769  2.39979971  6.42315978
   3.92087438  2.12248781 -0.00200324
   7.20737923  2.12468972 -0.00617750
  11.05637688 -1.72130474 -0.00345832
   7.77487541 -1.72170936  0.00074299
   5.58057597 -3.34976999 12.84965125
   5.56973762 -0.08074085  0.00150488
   5.58033032 -0.07012330 12.84601571
   5.56998628 -3.36038869  0.00346394
   9.60554262  0.17687446  6.41996528
   5.29144339 -7.47543440  6.42994143
   1.44310059 -3.64880674  6.42992300
   5.85969618  4.04395302  6.41995630
   3.62826980 -2.02281958  6.42691327
   7.49785606  1.82498488  6.42026941
   3.64970694 -5.28873657  6.42958061
   7.78536315 -1.71116172 12.84600529
   3.37857910 -9.40182076 12.85713340
  -0.47048056 -5.55583803 12.86009566
   3.93149870  2.13308547 12.84853094
   1.71905791 -1.71638566  6.42819627
   7.49445701  0.20092184 -0.00622882
  11.33274219 -3.64088671 -0.00199157
   5.58516490  2.11564132  6.42187490
   3.64911517  0.19760368  0.00170026
   5.48995253 -1.74128479  6.42512515
   9.41117682 -5.54116930  6.42508178
   3.65971875  0.20818198 12.84826004
   9.50171404 -1.73908151  6.42207615
  11.34333785 -3.63023543 12.84546849
  -0.18334426 -7.47960091 12.86265003
   5.58176552 -5.54141024  6.42822134
  11.33228256  0.20125271 -0.00705044
   5.58531660 -9.40467763  6.43142460
   9.40636645  2.11642035  6.41875002
   3.65450609 -7.47922984 12.85695809
   9.41373283 -5.56699855  1.94670929
   5.57241709  2.12767505  1.94100072
   9.41166054 -1.72233802  1.99099586
  13.26420138 -1.71765811  1.93471312
   7.49556009 -7.48617168  4.47208851
   3.63421112  0.22548399  4.47200495
   7.49471311 -3.67138400  4.45231673
  11.37694080 -3.66401475  4.46278309
   7.49879287 -7.48300064  8.38412658
   3.63741270  0.22860137  8.37791289
   7.49794576 -3.66803804  8.39764458
  11.38022584 -3.66084743  8.38078200
   5.58321929 -9.40136698 10.91555374
   1.72951814 -1.71261270 10.91304917
   5.57856855 -5.56088896 10.91454395
   9.42117281 -5.55955331 10.90350943
   9.41421994  2.12764925  1.92980008
   5.57114036 -5.56840470  1.94198020
   1.72204278 -1.71994935  1.94350542
   5.57163786 -1.72245637  1.99274593
   7.49413439  0.21540290  4.45071463
  11.35420067  0.22604697  4.46486629
   7.49342192  4.05317413  4.46038803
   3.61291514 -3.66561491  4.46660299
   7.49733803  0.21878060  8.39305053
   3.66899476 -7.46175336  8.38505030
  -0.19174293 -3.63479909  8.38960880
   3.61609068 -3.66237084  8.38987962
   5.57893828 -1.71512107 10.85736106
   9.41892990 -1.71496565 10.85278527
   5.57986014  2.13507213 10.90276001
   1.73319538 -5.55597027 10.92045770



--------------------------------------------------------------------------------------------------------


 k-point   1 :   0.0000 0.0000 0.0000  plane waves:   40887
 k-point   2 :   0.5000 0.0000 0.0000  plane waves:   40892
 k-point   3 :   0.0000 0.5000 0.0000  plane waves:   40934
 k-point   4 :   0.0000 0.5000 0.5000  plane waves:   40934
 k-point   5 :   0.5000 0.5000 0.0000  plane waves:   40932
 k-point   6 :   0.5000 0.5000 0.5000  plane waves:   40932
 k-point   7 :   0.0000 0.0000 0.5000  plane waves:   40952
 k-point   8 :   0.5000 0.0000 0.5000  plane waves:   40976

 maximum and minimum number of plane-waves per node :      5179     5066

 maximum number of plane-waves:     40976
 maximum index in each direction: 
   IXMAX=   20   IYMAX=   20   IZMAX=   25
   IXMIN=  -20   IYMIN=  -20   IZMIN=  -26


 parallel 3D FFT for wavefunctions:
    minimum data exchange during FFTs selected (reduces bandwidth)
 parallel 3D FFT for charge:
    minimum data exchange during FFTs selected (reduces bandwidth)


 total amount of memory used by VASP MPI-rank0   392450. kBytes
=======================================================================

   base      :      30000. kBytes
   nonl-proj :      32788. kBytes
   fftplans  :       6555. kBytes
   grid      :      18544. kBytes
   one-center:        435. kBytes
   wavefun   :     304128. kBytes

     INWAV:  cpu time    0.0000: real time    0.0000
 Broyden mixing: mesh for mixing (old mesh)
   NGX = 41   NGY = 41   NGZ = 51
  (NGX  =168   NGY  =168   NGZ  =216)
  gives a total of  85731 points

 initial charge density was supplied:
 charge density of overlapping atoms calculated
 number of electron     829.0000000 magnetization     207.4000000
 keeping initial charge density in first step


--------------------------------------------------------------------------------------------------------


 Maximum index for augmentation-charges          721 (set IRDMAX)


--------------------------------------------------------------------------------------------------------


 First call to EWALD:  gamma=   0.154
 Maximum number of real-space cells 3x 3x 3
 Maximum number of reciprocal cells 3x 3x 3

    FEWALD:  cpu time    0.0050: real time    0.0050


--------------------------------------- Iteration      1(   1)  ---------------------------------------


    POTLOK:  cpu time    0.2589: real time    0.2591
    SETDIJ:  cpu time    0.8427: real time    0.8432
    TRIAL :  cpu time   12.3145: real time   12.3190
    CORREC:  cpu time    0.0033: real time    0.0033
    --------------------------------------------
      LOOP:  cpu time   13.6818: real time   13.6872

 eigenvalue-minimisations  : 19968
 total energy-change (2. order) : 0.1077515E+05  (-0.4172706E+05)
 number of electron     829.0000000 magnetization     207.4000000
 augmentation part      829.0000000 magnetization     207.4000000

 Free energy of the ion-electron system (eV)
  ---------------------------------------------------
  alpha Z        PSCENC =      2332.72493728
  Ewald energy   TEWEN  =    -61294.64913288
  -Hartree energ DENC   =    -32036.97140834
  -exchange      EXHF   =         0.00000000
  -V(xc)+E(xc)   XCENC  =      3557.07983885
  PAW double counting   =     78939.49469920   -81928.53671730
  entropy T*S    EENTRO =        -0.02810113
  eigenvalues    EBANDS =       506.69658942
  atomic energy  EATOM  =    100699.33914061
  ---------------------------------------------------
  free energy    TOTEN  =     10775.14984570 eV

  energy without entropy =    10775.17794683  energy(sigma->0) =    10775.16389627


--------------------------------------------------------------------------------------------------------




--------------------------------------- Iteration      1(   2)  ---------------------------------------


    TRIAL :  cpu time   11.9549: real time   11.9595
    CORREC:  cpu time    0.0031: real time    0.0031
    --------------------------------------------
      LOOP:  cpu time   11.9692: real time   11.9916

 eigenvalue-minimisations  : 19200
 total energy-change (2. order) :-0.9665252E+04  (-0.8886365E+04)
 number of electron     829.0000000 magnetization     207.4000000
 augmentation part      829.0000000 magnetization     207.4000000

 Free energy of the ion-electron system (eV)
  ---------------------------------------------------
  alpha Z        PSCENC =      2332.72493728
  Ewald energy   TEWEN  =    -61294.64913288
  -Hartree energ DENC   =    -32036.97140834
  -exchange      EXHF   =         0.00000000
  -V(xc)+E(xc)   XCENC  =      3557.07983885
  PAW double counting   =     78939.49469920   -81928.53671730
  entropy T*S    EENTRO =        -0.08302337
  eigenvalues    EBANDS =     -9158.50073459
  atomic energy  EATOM  =    100699.33914061
  ---------------------------------------------------
  free energy    TOTEN  =      1109.89759946 eV

  energy without entropy =     1109.98062283  energy(sigma->0) =     1109.93911114


--------------------------------------------------------------------------------------------------------




--------------------------------------- Iteration      1(   3)  ---------------------------------------


    TRIAL :  cpu time   12.7208: real time   12.7260
    CORREC:  cpu time    0.0031: real time    0.0032
    --------------------------------------------
      LOOP:  cpu time   12.7326: real time   12.7595

 eigenvalue-minimisations  : 20704
 total energy-change (2. order) :-0.1579034E+04  (-0.1475153E+04)
 number of electron     829.0000000 magnetization     207.4000000
 augmentation part      829.0000000 magnetization     207.4000000

 Free energy of the ion-electron system (eV)
  ---------------------------------------------------
  alpha Z        PSCENC =      2332.72493728
  Ewald energy   TEWEN  =    -61294.64913288
  -Hartree energ DENC   =    -32036.97140834
  -exchange      EXHF   =         0.00000000
  -V(xc)+E(xc)   XCENC  =      3557.07983885
  PAW double counting   =     78939.49469920   -81928.53671730
  entropy T*S    EENTRO =        -0.05779138
  eigenvalues    EBANDS =    -10737.55946725
  atomic energy  EATOM  =    100699.33914061
  ---------------------------------------------------
  free energy    TOTEN  =      -469.13590122 eV

  energy without entropy =     -469.07810984  energy(sigma->0) =     -469.10700553


--------------------------------------------------------------------------------------------------------




--------------------------------------- Iteration      1(   4)  ---------------------------------------


    TRIAL :  cpu time   14.8330: real time   14.8380
    CORREC:  cpu time    0.0032: real time    0.0032
    --------------------------------------------
      LOOP:  cpu time   14.8447: real time   14.8715

 eigenvalue-minimisations  : 25000
 total energy-change (2. order) :-0.1774877E+03  (-0.1739910E+03)
 number of electron     829.0000000 magnetization     207.4000000
 augmentation part      829.0000000 magnetization     207.4000000

 Free energy of the ion-electron system (eV)
  ---------------------------------------------------
  alpha Z        PSCENC =      2332.72493728
  Ewald energy   TEWEN  =    -61294.64913288
  -Hartree energ DENC   =    -32036.97140834
  -exchange      EXHF   =         0.00000000
  -V(xc)+E(xc)   XCENC  =      3557.07983885
  PAW double counting   =     78939.49469920   -81928.53671730
  entropy T*S    EENTRO =        -0.06478560
  eigenvalues    EBANDS =    -10915.04018118
  atomic energy  EATOM  =    100699.33914061
  ---------------------------------------------------
  free energy    TOTEN  =      -646.62360937 eV

  energy without entropy =     -646.55882377  energy(sigma->0) =     -646.59121657


--------------------------------------------------------------------------------------------------------




--------------------------------------- Iteration      1(   5)  ---------------------------------------


    TRIAL :  cpu time   18.7022: real time   18.7100
    CORREC:  cpu time    0.0033: real time    0.0033
    CHARGE:  cpu time    0.2267: real time    0.2270
    --------------------------------------------
      LOOP:  cpu time   18.9571: real time   18.9699

 eigenvalue-minimisations  : 33312
 total energy-change (2. order) :-0.2051798E+02  (-0.2013431E+02)
 number of electron     828.0000038 magnetization     149.1146896
 augmentation part      262.8174513 magnetization      92.0255619

 Free energy of the ion-electron system (eV)
  ---------------------------------------------------
  alpha Z        PSCENC =      2332.72493728
  Ewald energy   TEWEN  =    -61294.64913288
  -Hartree energ DENC   =    -32036.97140834
  -exchange      EXHF   =         0.00000000
  -V(xc)+E(xc)   XCENC  =      3557.07983885
  PAW double counting   =     78939.49469920   -81928.53671730
  entropy T*S    EENTRO =        -0.07821246
  eigenvalues    EBANDS =    -10935.54473438
  atomic energy  EATOM  =    100699.33914061
  ---------------------------------------------------
  free energy    TOTEN  =      -667.14158942 eV

  energy without entropy =     -667.06337696  energy(sigma->0) =     -667.10248319


--------------------------------------------------------------------------------------------------------




--------------------------------------- Iteration      1(   6)  ---------------------------------------


    POTLOK:  cpu time    0.2464: real time    0.2464
    SETDIJ:  cpu time    0.8320: real time    0.8321
    TRIAL :  cpu time    6.7460: real time    6.7490
    CORREC:  cpu time    2.5807: real time    2.5814
    CHARGE:  cpu time    0.2265: real time    0.2265
    --------------------------------------------
      LOOP:  cpu time   10.6529: real time   10.6654

 eigenvalue-minimisations  :     0
 total energy-change (2. order) : 0.6338808E+03  (-0.4265135E+03)
 number of electron     828.0000035 magnetization     132.4357803
 augmentation part      288.2464779 magnetization      94.0949742

 Free energy of the ion-electron system (eV)
  ---------------------------------------------------
  alpha Z        PSCENC =      2332.72493728
  Ewald energy   TEWEN  =    -61294.64913288
  -Hartree energ DENC   =    -26970.78987665
  -exchange      EXHF   =         0.00000000
  -V(xc)+E(xc)   XCENC  =      3425.63114096
  PAW double counting   =     87769.25159845   -90433.01516020
  entropy T*S    EENTRO =        -0.07212146
  eigenvalues    EBANDS =    -15561.67525666
  atomic energy  EATOM  =    100699.33914061
  ---------------------------------------------------
  free energy    TOTEN  =       -33.26082154 eV

  energy without entropy =      -33.18870008  energy(sigma->0) =      -33.22476081


--------------------------------------------------------------------------------------------------------




--------------------------------------- Iteration      1(   7)  ---------------------------------------


    POTLOK:  cpu time    0.2465: real time    0.2465
    SETDIJ:  cpu time    0.8310: real time    0.8311
    TRIAL :  cpu time    6.6978: real time    6.7001
    CORREC:  cpu time    2.5803: real time    2.5809
    CHARGE:  cpu time    0.2242: real time    0.2242
    --------------------------------------------
      LOOP:  cpu time   10.5895: real time   10.6131

 eigenvalue-minimisations  :     0
 total energy-change (2. order) :-0.4322902E+03  (-0.4908995E+02)
 number of electron     828.0000033 magnetization     131.0003966
 augmentation part      287.7134665 magnetization      93.2591292

 Free energy of the ion-electron system (eV)
  ---------------------------------------------------
  alpha Z        PSCENC =      2332.72493728
  Ewald energy   TEWEN  =    -61294.64913288
  -Hartree energ DENC   =    -30515.26567933
  -exchange      EXHF   =         0.00000000
  -V(xc)+E(xc)   XCENC  =      3531.10157579
  PAW double counting   =     97416.42633458  -100718.28581543
  entropy T*S    EENTRO =        -0.07436569
  eigenvalues    EBANDS =    -11916.87025289
  atomic energy  EATOM  =    100699.33914061
  ---------------------------------------------------
  free energy    TOTEN  =      -465.55101374 eV

  energy without entropy =     -465.47664805  energy(sigma->0) =     -465.51383089


--------------------------------------------------------------------------------------------------------




--------------------------------------- Iteration      1(   8)  ---------------------------------------


    POTLOK:  cpu time    0.2451: real time    0.2451
    SETDIJ:  cpu time    0.8333: real time    0.8335
    TRIAL :  cpu time    6.6976: real time    6.7017
    CORREC:  cpu time    2.5782: real time    2.5787
    CHARGE:  cpu time    0.2233: real time    0.2233
    --------------------------------------------
      LOOP:  cpu time   10.5881: real time   10.6128

 eigenvalue-minimisations  :     0
 total energy-change (2. order) :-0.4286722E+02  (-0.1596541E+02)
 number of electron     828.0000032 magnetization     130.7505719
 augmentation part      286.3200655 magnetization      92.6725485

 Free energy of the ion-electron system (eV)
  ---------------------------------------------------
  alpha Z        PSCENC =      2332.72493728
  Ewald energy   TEWEN  =    -61294.64913288
  -Hartree energ DENC   =    -30669.61109973
  -exchange      EXHF   =         0.00000000
  -V(xc)+E(xc)   XCENC  =      3522.77681033
  PAW double counting   =     99190.70602112  -102448.62407773
  entropy T*S    EENTRO =        -0.10826598
  eigenvalues    EBANDS =    -11841.00647100
  atomic energy  EATOM  =    100699.33914061
  ---------------------------------------------------
  free energy    TOTEN  =      -508.41823770 eV

  energy without entropy =     -508.30997173  energy(sigma->0) =     -508.36410472


--------------------------------------------------------------------------------------------------------




--------------------------------------- Iteration      1(   9)  ---------------------------------------


    POTLOK:  cpu time    0.2455: real time    0.2456
    SETDIJ:  cpu time    0.8301: real time    0.8301
    TRIAL :  cpu time    6.6966: real time    6.6991
    CORREC:  cpu time    2.5783: real time    2.5788
    CHARGE:  cpu time    0.2225: real time    0.2225
    --------------------------------------------
      LOOP:  cpu time   10.5836: real time   10.6038

 eigenvalue-minimisations  :     0
 total energy-change (2. order) :-0.2138068E+02  (-0.5991682E+01)
 number of electron     828.0000031 magnetization     130.3628998
 augmentation part      285.4320628 magnetization      91.9405540

 Free energy of the ion-electron system (eV)
  ---------------------------------------------------
  alpha Z        PSCENC =      2332.72493728
  Ewald energy   TEWEN  =    -61294.64913288
  -Hartree energ DENC   =    -30583.18810917
  -exchange      EXHF   =         0.00000000
  -V(xc)+E(xc)   XCENC  =      3513.28798904
  PAW double counting   =     99504.16948032  -102705.83838088
  entropy T*S    EENTRO =        -0.11398371
  eigenvalues    EBANDS =    -11995.53657924
  atomic energy  EATOM  =    100699.33914061
  ---------------------------------------------------
  free energy    TOTEN  =      -529.79892089 eV

  energy without entropy =     -529.68493718  energy(sigma->0) =     -529.74192903


--------------------------------------------------------------------------------------------------------




--------------------------------------- Iteration      1(  10)  ---------------------------------------


    POTLOK:  cpu time    0.2459: real time    0.2459
    SETDIJ:  cpu time    0.8308: real time    0.8309
    TRIAL :  cpu time    6.6951: real time    6.6975
    CORREC:  cpu time    2.5805: real time    2.5809
    CHARGE:  cpu time    0.2239: real time    0.2240
    --------------------------------------------
      LOOP:  cpu time   10.5865: real time   10.6070

 eigenvalue-minimisations  :     0
 total energy-change (2. order) :-0.5795923E+01  (-0.6914529E+01)
 number of electron     828.0000031 magnetization     130.0000054
 augmentation part      283.9125803 magnetization      90.5658448

 Free energy of the ion-electron system (eV)
  ---------------------------------------------------
  alpha Z        PSCENC =      2332.72493728
  Ewald energy   TEWEN  =    -61294.64913288
  -Hartree energ DENC   =    -30538.81774117
  -exchange      EXHF   =         0.00000000
  -V(xc)+E(xc)   XCENC  =      3508.83540566
  PAW double counting   =     99244.19025325  -102404.41008488
  entropy T*S    EENTRO =        -0.12279546
  eigenvalues    EBANDS =    -12082.69363786
  atomic energy  EATOM  =    100699.33914061
  ---------------------------------------------------
  free energy    TOTEN  =      -535.59484371 eV

  energy without entropy =     -535.47204825  energy(sigma->0) =     -535.53344598


--------------------------------------------------------------------------------------------------------




--------------------------------------- Iteration      1(  11)  ---------------------------------------


    POTLOK:  cpu time    0.2463: real time    0.2463
    SETDIJ:  cpu time    0.8302: real time    0.8303
    TRIAL :  cpu time    6.6947: real time    6.6973
    CORREC:  cpu time    2.5855: real time    2.5861
    CHARGE:  cpu time    0.2220: real time    0.2220
    --------------------------------------------
      LOOP:  cpu time   10.5889: real time   10.6129

 eigenvalue-minimisations  :     0
 total energy-change (2. order) :-0.6234245E+01  (-0.5872661E+01)
 number of electron     828.0000032 magnetization     130.0000046
 augmentation part      282.6111815 magnetization      89.2134627

 Free energy of the ion-electron system (eV)
  ---------------------------------------------------
  alpha Z        PSCENC =      2332.72493728
  Ewald energy   TEWEN  =    -61294.64913288
  -Hartree energ DENC   =    -30473.22181286
  -exchange      EXHF   =         0.00000000
  -V(xc)+E(xc)   XCENC  =      3502.11924469
  PAW double counting   =     98682.53418169  -101774.74642013
  entropy T*S    EENTRO =        -0.09342840
  eigenvalues    EBANDS =    -12215.80643142
  atomic energy  EATOM  =    100699.33914061
  ---------------------------------------------------
  free energy    TOTEN  =      -541.82908849 eV

  energy without entropy =     -541.73566009  energy(sigma->0) =     -541.78237429


--------------------------------------------------------------------------------------------------------




--------------------------------------- Iteration      1(  12)  ---------------------------------------


    POTLOK:  cpu time    0.2452: real time    0.2452
    SETDIJ:  cpu time    0.8333: real time    0.8338
    TRIAL :  cpu time    6.6937: real time    6.6967
    CORREC:  cpu time    2.5825: real time    2.5831
    CHARGE:  cpu time    0.2223: real time    0.2227
    --------------------------------------------
      LOOP:  cpu time   10.5885: real time   10.6129

 eigenvalue-minimisations  :     0
 total energy-change (2. order) :-0.4048054E+01  (-0.2867231E+01)
 number of electron     828.0000033 magnetization     130.0000045
 augmentation part      282.9687311 magnetization      88.4742611

 Free energy of the ion-electron system (eV)
  ---------------------------------------------------
  alpha Z        PSCENC =      2332.72493728
  Ewald energy   TEWEN  =    -61294.64913288
  -Hartree energ DENC   =    -30432.58262865
  -exchange      EXHF   =         0.00000000
  -V(xc)+E(xc)   XCENC  =      3496.99704537
  PAW double counting   =     98269.78857496  -101308.89513703
  entropy T*S    EENTRO =        -0.06848993
  eigenvalues    EBANDS =    -12308.50651391
  atomic energy  EATOM  =    100699.33914061
  ---------------------------------------------------
  free energy    TOTEN  =      -545.87714265 eV

  energy without entropy =     -545.80865271  energy(sigma->0) =     -545.84289768


--------------------------------------------------------------------------------------------------------




--------------------------------------- Iteration      1(  13)  ---------------------------------------


    POTLOK:  cpu time    0.2471: real time    0.2471
    SETDIJ:  cpu time    0.8327: real time    0.8328
    TRIAL :  cpu time    6.6970: real time    6.6998
    CORREC:  cpu time    2.5828: real time    2.5833
    CHARGE:  cpu time    0.2237: real time    0.2237
    --------------------------------------------
      LOOP:  cpu time   10.6098: real time   10.6136

 eigenvalue-minimisations  :     0
 total energy-change (2. order) :-0.2599893E+01  (-0.2089728E+01)
 number of electron     828.0000034 magnetization     130.0000045
 augmentation part      283.8823602 magnetization      88.0155182

 Free energy of the ion-electron system (eV)
  ---------------------------------------------------
  alpha Z        PSCENC =      2332.72493728
  Ewald energy   TEWEN  =    -61294.64913288
  -Hartree energ DENC   =    -30544.02948780
  -exchange      EXHF   =         0.00000000
  -V(xc)+E(xc)   XCENC  =      3499.77003093
  PAW double counting   =     98213.99103317  -101257.80620504
  entropy T*S    EENTRO =        -0.10046651
  eigenvalues    EBANDS =    -12197.74886175
  atomic energy  EATOM  =    100699.33914061
  ---------------------------------------------------
  free energy    TOTEN  =      -548.47703541 eV

  energy without entropy =     -548.37656890  energy(sigma->0) =     -548.42680216


--------------------------------------------------------------------------------------------------------




--------------------------------------- Iteration      1(  14)  ---------------------------------------


    POTLOK:  cpu time    0.2465: real time    0.2466
    SETDIJ:  cpu time    0.8326: real time    0.8332
    TRIAL :  cpu time    6.6874: real time    6.6897
    CORREC:  cpu time    2.5791: real time    2.5796
    CHARGE:  cpu time    0.2223: real time    0.2223
    --------------------------------------------
      LOOP:  cpu time   10.5769: real time   10.6010

 eigenvalue-minimisations  :     0
 total energy-change (2. order) :-0.2935185E+01  (-0.1687540E+01)
 number of electron     828.0000034 magnetization     130.0000046
 augmentation part      284.6869201 magnetization      87.7423372

 Free energy of the ion-electron system (eV)
  ---------------------------------------------------
  alpha Z        PSCENC =      2332.72493728
  Ewald energy   TEWEN  =    -61294.64913288
  -Hartree energ DENC   =    -30703.56594567
  -exchange      EXHF   =         0.00000000
  -V(xc)+E(xc)   XCENC  =      3505.11239599
  PAW double counting   =     98246.66654281  -101315.04987577
  entropy T*S    EENTRO =        -0.14895194
  eigenvalues    EBANDS =    -12021.88981594
  atomic energy  EATOM  =    100699.33914061
  ---------------------------------------------------
  free energy    TOTEN  =      -551.41222008 eV

  energy without entropy =     -551.26326814  energy(sigma->0) =     -551.33774411


--------------------------------------------------------------------------------------------------------




--------------------------------------- Iteration      1(  15)  ---------------------------------------


    POTLOK:  cpu time    0.2467: real time    0.2467
    SETDIJ:  cpu time    0.8313: real time    0.8315
    TRIAL :  cpu time    6.6811: real time    6.6837
    CORREC:  cpu time    2.5876: real time    2.5880
    CHARGE:  cpu time    0.2233: real time    0.2235
    --------------------------------------------
      LOOP:  cpu time   10.6000: real time   10.6040

 eigenvalue-minimisations  :     0
 total energy-change (2. order) :-0.1513714E+01  (-0.5977185E+00)
 number of electron     828.0000034 magnetization     130.0000046
 augmentation part      285.3489996 magnetization      87.4931498

 Free energy of the ion-electron system (eV)
  ---------------------------------------------------
  alpha Z        PSCENC =      2332.72493728
  Ewald energy   TEWEN  =    -61294.64913288
  -Hartree energ DENC   =    -30830.71504673
  -exchange      EXHF   =         0.00000000
  -V(xc)+E(xc)   XCENC  =      3509.60551460
  PAW double counting   =     98219.61067153  -101311.70321693
  entropy T*S    EENTRO =        -0.15647611
  eigenvalues    EBANDS =    -11876.98984929
  atomic energy  EATOM  =    100699.33914061
  ---------------------------------------------------
  free energy    TOTEN  =      -552.92593375 eV

  energy without entropy =     -552.76945764  energy(sigma->0) =     -552.84769570


--------------------------------------------------------------------------------------------------------




--------------------------------------- Iteration      1(  16)  ---------------------------------------


    POTLOK:  cpu time    0.2454: real time    0.2458
    SETDIJ:  cpu time    0.8325: real time    0.8327
    TRIAL :  cpu time    6.6761: real time    6.6784
    CORREC:  cpu time    2.5944: real time    2.5951
    CHARGE:  cpu time    0.2239: real time    0.2239
    --------------------------------------------
      LOOP:  cpu time   10.5818: real time   10.6049

 eigenvalue-minimisations  :     0
 total energy-change (2. order) :-0.4078827E+00  (-0.1012280E+01)
 number of electron     828.0000034 magnetization     130.0000046
 augmentation part      285.9728481 magnetization      87.1892244

 Free energy of the ion-electron system (eV)
  ---------------------------------------------------
  alpha Z        PSCENC =      2332.72493728
  Ewald energy   TEWEN  =    -61294.64913288
  -Hartree energ DENC   =    -30932.30403579
  -exchange      EXHF   =         0.00000000
  -V(xc)+E(xc)   XCENC  =      3513.25619855
  PAW double counting   =     98141.00806185  -101253.29787676
  entropy T*S    EENTRO =        -0.14780928
  eigenvalues    EBANDS =    -11759.25463322
  atomic energy  EATOM  =    100699.33914061
  ---------------------------------------------------
  free energy    TOTEN  =      -553.33381648 eV

  energy without entropy =     -553.18600719  energy(sigma->0) =     -553.25991184


--------------------------------------------------------------------------------------------------------




--------------------------------------- Iteration      1(  17)  ---------------------------------------


    POTLOK:  cpu time    0.2455: real time    0.2455
    SETDIJ:  cpu time    0.8344: real time    0.8350
    TRIAL :  cpu time    6.6745: real time    6.6771
    CORREC:  cpu time    2.5784: real time    2.5790
    CHARGE:  cpu time    0.2228: real time    0.2228
    --------------------------------------------
      LOOP:  cpu time   10.5647: real time   10.5884

 eigenvalue-minimisations  :     0
 total energy-change (2. order) :-0.5915166E+00  (-0.1438165E+01)
 number of electron     828.0000033 magnetization     130.0000047
 augmentation part      285.5207982 magnetization      87.1326216

 Free energy of the ion-electron system (eV)
  ---------------------------------------------------
  alpha Z        PSCENC =      2332.72493728
  Ewald energy   TEWEN  =    -61294.64913288
  -Hartree energ DENC   =    -31025.48014117
  -exchange      EXHF   =         0.00000000
  -V(xc)+E(xc)   XCENC  =      3516.66170031
  PAW double counting   =     97999.40995875  -101131.56102845
  entropy T*S    EENTRO =        -0.14411462
  eigenvalues    EBANDS =    -11650.22295829
  atomic energy  EATOM  =    100699.33914061
  ---------------------------------------------------
  free energy    TOTEN  =      -553.92533312 eV

  energy without entropy =     -553.78121850  energy(sigma->0) =     -553.85327581


--------------------------------------------------------------------------------------------------------




--------------------------------------- Iteration      1(  18)  ---------------------------------------


    POTLOK:  cpu time    0.2450: real time    0.2450
    SETDIJ:  cpu time    0.8331: real time    0.8333
    TRIAL :  cpu time    6.6745: real time    6.6778
    CORREC:  cpu time    2.5777: real time    2.5782
    CHARGE:  cpu time    0.2221: real time    0.2221
    --------------------------------------------
      LOOP:  cpu time   10.5612: real time   10.5861

 eigenvalue-minimisations  :     0
 total energy-change (2. order) :-0.1210349E+01  (-0.9368726E+00)
 number of electron     828.0000032 magnetization     130.0000048
 augmentation part      284.9154873 magnetization      87.0509959

 Free energy of the ion-electron system (eV)
  ---------------------------------------------------
  alpha Z        PSCENC =      2332.72493728
  Ewald energy   TEWEN  =    -61294.64913288
  -Hartree energ DENC   =    -30952.60417782
  -exchange      EXHF   =         0.00000000
  -V(xc)+E(xc)   XCENC  =      3514.02454966
  PAW double counting   =     97734.91834089  -100853.85489126
  entropy T*S    EENTRO =        -0.13268658
  eigenvalues    EBANDS =    -11734.89033409
  atomic energy  EATOM  =    100699.33914061
  ---------------------------------------------------
  free energy    TOTEN  =      -555.13568222 eV

  energy without entropy =     -555.00299564  energy(sigma->0) =     -555.06933893


--------------------------------------------------------------------------------------------------------




--------------------------------------- Iteration      1(  19)  ---------------------------------------


    POTLOK:  cpu time    0.2460: real time    0.2462
    SETDIJ:  cpu time    0.8333: real time    0.8339
    TRIAL :  cpu time    6.6691: real time    6.6716
    CORREC:  cpu time    2.5843: real time    2.5849
    CHARGE:  cpu time    0.2230: real time    0.2230
    --------------------------------------------
      LOOP:  cpu time   10.5650: real time   10.5897

 eigenvalue-minimisations  :     0
 total energy-change (2. order) :-0.7002115E+00  (-0.1287066E+01)
 number of electron     828.0000031 magnetization     130.0000049
 augmentation part      283.9757564 magnetization      86.9449714

 Free energy of the ion-electron system (eV)
  ---------------------------------------------------
  alpha Z        PSCENC =      2332.72493728
  Ewald energy   TEWEN  =    -61294.64913288
  -Hartree energ DENC   =    -30856.33936093
  -exchange      EXHF   =         0.00000000
  -V(xc)+E(xc)   XCENC  =      3510.53036838
  PAW double counting   =     97382.64607542  -100483.91507843
  entropy T*S    EENTRO =        -0.09834888
  eigenvalues    EBANDS =    -11846.04015656
  atomic energy  EATOM  =    100699.33914061
  ---------------------------------------------------
  free energy    TOTEN  =      -555.83589369 eV

  energy without entropy =     -555.73754481  energy(sigma->0) =     -555.78671925


--------------------------------------------------------------------------------------------------------




--------------------------------------- Iteration      1(  20)  ---------------------------------------


    POTLOK:  cpu time    0.2480: real time    0.2480
    SETDIJ:  cpu time    0.8342: real time    0.8346
    TRIAL :  cpu time    6.6870: real time    6.6898
    CORREC:  cpu time    2.5867: real time    2.5873
    CHARGE:  cpu time    0.2220: real time    0.2222
    --------------------------------------------
      LOOP:  cpu time   10.5863: real time   10.6120

 eigenvalue-minimisations  :     0
 total energy-change (2. order) :-0.1135898E+01  (-0.6845300E+00)
 number of electron     828.0000030 magnetization     130.0000050
 augmentation part      284.2427868 magnetization      87.0882510

 Free energy of the ion-electron system (eV)
  ---------------------------------------------------
  alpha Z        PSCENC =      2332.72493728
  Ewald energy   TEWEN  =    -61294.64913288
  -Hartree energ DENC   =    -30706.12900736
  -exchange      EXHF   =         0.00000000
  -V(xc)+E(xc)   XCENC  =      3505.11426216
  PAW double counting   =     96827.71917835   -99901.73170474
  entropy T*S    EENTRO =        -0.06470115
  eigenvalues    EBANDS =    -12019.26111615
  atomic energy  EATOM  =    100699.33914061
  ---------------------------------------------------
  free energy    TOTEN  =      -556.97179161 eV

  energy without entropy =     -556.90709046  energy(sigma->0) =     -556.93944103


--------------------------------------------------------------------------------------------------------




--------------------------------------- Iteration      1(  21)  ---------------------------------------


    POTLOK:  cpu time    0.2465: real time    0.2465
    SETDIJ:  cpu time    0.8356: real time    0.8358
    TRIAL :  cpu time    6.7952: real time    6.7987
    CORREC:  cpu time    2.6108: real time    2.6113
    CHARGE:  cpu time    0.2227: real time    0.2227
    --------------------------------------------
      LOOP:  cpu time   10.7199: real time   10.7464

 eigenvalue-minimisations  :     0
 total energy-change (2. order) :-0.6783087E+00  (-0.7065971E+00)
 number of electron     828.0000029 magnetization     130.0000051
 augmentation part      284.9867135 magnetization      87.3766677

 Free energy of the ion-electron system (eV)
  ---------------------------------------------------
  alpha Z        PSCENC =      2332.72493728
  Ewald energy   TEWEN  =    -61294.64913288
  -Hartree energ DENC   =    -30744.27609258
  -exchange      EXHF   =         0.00000000
  -V(xc)+E(xc)   XCENC  =      3506.69991694
  PAW double counting   =     96920.05355609  -100002.03954241
  entropy T*S    EENTRO =        -0.03142085
  eigenvalues    EBANDS =    -11975.43818225
  atomic energy  EATOM  =    100699.33914061
  ---------------------------------------------------
  free energy    TOTEN  =      -557.65010035 eV

  energy without entropy =     -557.61867950  energy(sigma->0) =     -557.63438992


--------------------------------------------------------------------------------------------------------




--------------------------------------- Iteration      1(  22)  ---------------------------------------


    POTLOK:  cpu time    0.2461: real time    0.2462
    SETDIJ:  cpu time    0.8363: real time    0.8367
    TRIAL :  cpu time    6.7202: real time    6.7234
    CORREC:  cpu time    2.6160: real time    2.6168
[...]
      9.42887      2.13411      4.37601         0.007533      0.015915      0.005054
      5.55626     -5.55926      4.38844        -0.009456     -0.000102      0.004293
      1.73483     -1.71832      4.38605         0.008653      0.005240      0.008904
      5.70126     -1.70227      4.45584         0.024460     -0.000848     -0.007265
      5.70506     -1.69896      8.39447         0.026478     -0.002226      0.007822
      9.29047     -1.69548      8.39211        -0.028114     -0.001491     -0.001071
      5.56608      2.13511      8.46367        -0.005950      0.012528     -0.004636
      1.74370     -5.55379      8.47467         0.007089      0.015027     -0.007663
      7.50174      0.22720     10.81030         0.007287      0.012829      0.000782
      3.65128     -7.48247     10.80942        -0.011566      0.002392      0.005426
     -0.18720     -3.63564     10.82162         0.004355     -0.000456      0.002403
      3.65906     -3.63005     10.81112         0.003749      0.005141      0.005006
      1.72326      0.47425     -0.00152         0.000685     -0.002456      0.000572
     13.25602     -0.07997     -0.00712        -0.003635     -0.001127      0.002466
      5.57808     -7.76062     12.85401        -0.002885     -0.000734     -0.002769
      1.73391      0.48497     12.85399         0.001434     -0.002731     -0.001109
      2.01105      0.20851      6.42661         0.005279      0.000803      0.000198
      5.39191      0.17124      6.42369         0.014010     -0.004779      0.000673
      9.05428     -3.60508      6.42381        -0.008698     -0.007359      0.000281
      5.93626     -3.60693      6.42666         0.009929     -0.013150      0.000537
     -0.19323     -1.43521      6.42968         0.003159      0.000912      0.000675
     11.35920     -2.02072      6.42078        -0.008790     -0.010118      0.000675
      7.49488     -5.85199      6.42688        -0.003745     -0.012678      0.000591
      3.65290      2.39647      6.42357         0.001339     -0.007996      0.000127
      3.91987      2.12244     -0.00041        -0.001169     -0.000472      0.006754
      7.20712      2.12414     -0.00746        -0.001752      0.000075     -0.003609
     11.05615     -1.72075     -0.00131        -0.004458      0.003365      0.005547
      7.77569     -1.72096      0.00084         0.005621     -0.000424      0.000348
      5.58039     -3.34810     12.84797         0.001605      0.005052     -0.003070
      5.57059     -0.08102      0.00255         0.002154     -0.003686      0.005678
      5.58126     -0.07036     12.84460         0.002414     -0.003668     -0.006093
      5.56990     -3.35878      0.00473        -0.000004      0.005489      0.002945
      9.60277      0.17538      6.42031        -0.014053     -0.001019      0.000424
      5.29146     -7.47787      6.43010        -0.005869      0.003593      0.000432
      1.44195     -3.64567      6.42998        -0.002099     -0.003619      0.001286
      5.86121      4.04659      6.42008        -0.000679     -0.003456      0.001030
      3.63372     -2.02478      6.42695         0.003586     -0.009077      0.000526
      7.49722      1.82814      6.42048         0.005030      0.009011      0.000961
      3.64920     -5.29154      6.42969        -0.001627     -0.006904      0.000308
      7.78631     -1.71037     12.84548         0.004715      0.000876     -0.000591
      3.37828     -9.40132     12.85465        -0.004113      0.002891     -0.005103
     -0.47071     -5.55616     12.86099        -0.001553     -0.002729      0.002457
      3.93053      2.13327     12.84654        -0.001706     -0.002049     -0.007366
      1.72415     -1.71738      6.42833        -0.011087      0.003947      0.002278
      7.49507      0.20071     -0.00701        -0.003259      0.000705      0.000151
     11.33209     -3.64031     -0.00114         0.002863     -0.003655     -0.012787
      5.58670      2.11518      6.42265        -0.008637      0.010332     -0.004048
      3.64953      0.19690      0.00361        -0.003722      0.007649     -0.014261
      5.49374     -1.74600      6.42568         0.005550      0.015839     -0.000546
      9.40894     -5.54285      6.42543         0.022889     -0.004149     -0.000176
      3.66046      0.20781     12.84600        -0.006101      0.004822      0.010534
      9.49670     -1.74186      6.42194         0.004869      0.003037      0.008539
     11.34272     -3.62970     12.84444         0.002281     -0.003288      0.007017
      3.65089     -3.64461      0.00055        -0.003113     -0.001074     -0.009121
      5.58193     -5.54172      6.42850        -0.013239     -0.014620      0.001635
     11.33176      0.20233     -0.00630         0.004468     -0.001856     -0.001927
      5.58156     -9.40386      6.43187        -0.000522     -0.005622     -0.001111
      9.40618      2.11769      6.41897         0.000656     -0.001611      0.002087
      3.65382     -7.47838     12.85638         0.005514     -0.000175     -0.010657
      9.41321     -5.56592      1.94803         0.000157      0.001837      0.000255
      5.57315      2.12485      1.94142         0.003675      0.000348      0.006034
      9.41263     -1.72242      1.99054         0.002733     -0.004730      0.006395
     13.26325     -1.71637      1.93725         0.006160     -0.003871      0.005182
      7.49570     -7.48410      4.47377        -0.001184     -0.008529     -0.004173
      3.63543      0.22262      4.47148         0.010193      0.005244      0.012569
      7.49268     -3.67165      4.45217         0.007203     -0.004982     -0.014623
     11.37686     -3.66414      4.46150         0.008205     -0.010235      0.003976
      7.49896     -7.48096      8.38336        -0.001438     -0.008043     -0.003793
      3.63869      0.22643      8.37961         0.009795      0.002111     -0.021429
      7.49687     -3.66843      8.39870         0.004774     -0.003388      0.008053
     11.38038     -3.66130      8.38388         0.005909     -0.007791     -0.017960
      5.58174     -9.40097     10.91165         0.006931      0.000305      0.005726
      1.73114     -1.71182     10.90862        -0.012762      0.004745      0.009149
      5.57747     -5.55851     10.91142         0.003936      0.000068      0.006313
      9.42150     -5.55803     10.90073        -0.003493      0.000397      0.011166
      9.41434      2.12683      1.93099        -0.011176     -0.001284      0.002196
      5.56996     -5.56564      1.94409         0.004888     -0.001895     -0.000684
      1.72411     -1.71930      1.94675        -0.015228      0.005660     -0.002012
      5.56990     -1.72339      1.99340         0.003188      0.003348      0.000477
      7.49412      0.21468      4.45068        -0.002131      0.006370      0.001667
     11.35251      0.22667      4.46307        -0.008292     -0.009176      0.015159
      7.49553      4.05320      4.46072        -0.009716      0.004898     -0.003416
      3.61315     -3.66540      4.46385        -0.003959     -0.005554      0.009938
      7.49734      0.21815      8.39411         0.000106      0.004535     -0.008330
      3.66737     -7.46166      8.38777        -0.010462     -0.007810     -0.021682
     -0.19042     -3.63485      8.39025        -0.005389      0.004770     -0.004341
      3.61617     -3.66210      8.39275        -0.003569     -0.006360     -0.010145
      5.57772     -1.71532     10.85603         0.002466     -0.000399      0.002856
      9.42031     -1.71537     10.85220         0.000915     -0.003137      0.002036
      5.58043      2.13269     10.90124         0.005274     -0.002543      0.003564
      1.73250     -5.55722     10.91852        -0.007976     -0.000735      0.001485
 -----------------------------------------------------------------------------------
    total drift:                                0.008436      0.077961     -0.008275


--------------------------------------------------------------------------------------------------------



  FREE ENERGIE OF THE ION-ELECTRON SYSTEM (eV)
  ---------------------------------------------------
  free  energy   TOTEN  =      -585.30995148 eV

  energy  without entropy=     -585.28101204  energy(sigma->0) =     -585.29548176

 d Force = 0.1653072E-02[ 0.442E-03, 0.286E-02]  d Energy = 0.1134251E-02 0.519E-03
 d Force =-0.3813017E+01[-0.386E+01,-0.376E+01]  d Ewald  =-0.3813026E+01 0.890E-05


--------------------------------------------------------------------------------------------------------


    POTLOK:  cpu time    1.0945: real time    1.0949


--------------------------------------------------------------------------------------------------------




--------------------------------------------------------------------------------------------------------


  
 reached required accuracy - stopping structural energy minimisation
     LOOP+:  cpu time  104.3667: real time  104.5706
    4ORBIT:  cpu time    0.0000: real time    0.0000



 total charge

# of ion       s       p       d       tot
------------------------------------------
    1        0.240   6.209   5.909  12.358
    2        0.241   6.210   5.909  12.360
    3        0.242   6.213   5.911  12.366
    4        0.242   6.211   5.909  12.361
    5        0.241   6.212   5.907  12.360
    6        0.241   6.212   5.906  12.360
    7        0.243   6.213   5.906  12.362
    8        0.240   6.209   5.908  12.357
    9        0.240   6.209   5.908  12.357
   10        0.240   6.209   5.908  12.358
   11        0.241   6.211   5.908  12.359
   12        0.241   6.212   5.907  12.360
   13        0.240   6.209   5.909  12.358
   14        0.241   6.210   5.909  12.361
   15        0.242   6.213   5.911  12.366
   16        0.242   6.211   5.909  12.362
   17        0.244   6.213   5.910  12.367
   18        0.241   6.210   5.908  12.359
   19        0.241   6.209   5.909  12.359
   20        0.242   6.211   5.908  12.361
   21        0.241   6.211   5.908  12.360
   22        0.241   6.211   5.908  12.359
   23        0.240   6.209   5.908  12.358
   24        0.243   6.213   5.906  12.362
   25        0.243   6.213   5.906  12.363
   26        0.243   6.213   5.906  12.362
   27        0.242   6.213   5.907  12.361
   28        0.241   6.211   5.908  12.360
   29        0.244   6.213   5.910  12.367
   30        0.241   6.210   5.908  12.359
   31        0.241   6.210   5.909  12.359
   32        0.242   6.211   5.908  12.361
   33        2.025   0.064   0.000   2.089
   34        2.026   0.064   0.000   2.090
   35        2.026   0.064   0.000   2.090
   36        2.025   0.064   0.000   2.089
   37        2.025   0.064   0.000   2.089
   38        2.024   0.062   0.000   2.087
   39        2.026   0.065   0.000   2.090
   40        2.026   0.065   0.000   2.091
   41        2.026   0.065   0.000   2.090
   42        2.028   0.067   0.000   2.095
   43        2.026   0.065   0.000   2.091
   44        2.025   0.063   0.000   2.088
   45        2.025   0.064   0.000   2.089
   46        2.026   0.065   0.000   2.090
   47        2.025   0.064   0.000   2.089
   48        2.025   0.064   0.000   2.089
   49        2.026   0.064   0.000   2.090
   50        2.025   0.064   0.000   2.089
   51        2.025   0.064   0.000   2.089
   52        2.026   0.064   0.000   2.090
   53        2.025   0.062   0.000   2.087
   54        2.025   0.064   0.000   2.089
   55        2.025   0.064   0.000   2.089
   56        2.025   0.064   0.000   2.089
   57        2.028   0.068   0.000   2.096
   58        2.026   0.065   0.000   2.092
   59        2.025   0.063   0.000   2.088
   60        2.025   0.064   0.000   2.089
   61        2.025   0.064   0.000   2.090
   62        2.026   0.065   0.000   2.090
   63        2.025   0.064   0.000   2.089
   64        1.549   3.502   0.000   5.051
   65        1.549   3.500   0.000   5.049
   66        1.549   3.501   0.000   5.050
   67        1.549   3.498   0.000   5.047
   68        1.549   3.501   0.000   5.050
   69        1.551   3.497   0.000   5.048
   70        1.549   3.496   0.000   5.045
   71        1.549   3.501   0.000   5.050
   72        1.551   3.497   0.000   5.047
   73        1.549   3.501   0.000   5.050
   74        1.549   3.500   0.000   5.049
   75        1.549   3.498   0.000   5.046
   76        1.549   3.502   0.000   5.050
   77        1.549   3.502   0.000   5.050
   78        1.549   3.499   0.000   5.048
   79        1.549   3.502   0.000   5.050
   80        1.320   2.427   0.000   3.747
   81        1.320   2.427   0.000   3.747
   82        1.320   2.420   0.000   3.740
   83        1.320   2.429   0.000   3.748
   84        1.320   2.428   0.000   3.748
   85        1.321   2.421   0.000   3.743
   86        1.320   2.433   0.000   3.753
   87        1.322   2.423   0.000   3.744
   88        1.320   2.428   0.000   3.748
   89        1.321   2.422   0.000   3.743
   90        1.320   2.433   0.000   3.753
   91        1.322   2.423   0.000   3.745
   92        1.320   2.429   0.000   3.749
   93        1.320   2.429   0.000   3.748
   94        1.320   2.428   0.000   3.748
   95        1.320   2.427   0.000   3.747
   96        1.320   2.427   0.000   3.748
   97        1.320   2.428   0.000   3.748
   98        1.320   2.429   0.000   3.748
   99        1.320   2.420   0.000   3.740
  100        1.322   2.419   0.000   3.742
  101        1.321   2.423   0.000   3.744
  102        1.320   2.428   0.000   3.748
  103        1.321   2.425   0.000   3.746
  104        1.322   2.420   0.000   3.742
  105        1.321   2.423   0.000   3.744
  106        1.320   2.428   0.000   3.748
  107        1.321   2.425   0.000   3.746
  108        1.320   2.420   0.000   3.740
  109        1.320   2.420   0.000   3.740
  110        1.320   2.427   0.000   3.747
  111        1.320   2.428   0.000   3.748
--------------------------------------------------
tot        137.558 334.359 189.061 660.978



 magnetization (x)

# of ion       s       p       d       tot
------------------------------------------
    1        0.040   0.030   3.572   3.641
    2        0.041   0.030   3.570   3.641
    3        0.041   0.030   3.567   3.637
    4        0.041   0.030   3.569   3.639
    5        0.040   0.030   3.560   3.630
    6        0.040   0.030   3.557   3.626
    7        0.043   0.031   3.546   3.620
    8        0.040   0.030   3.573   3.642
    9        0.040   0.030   3.572   3.642
   10        0.040   0.030   3.573   3.642
   11        0.040   0.030   3.566   3.635
   12        0.040   0.030   3.559   3.629
   13        0.040   0.030   3.572   3.641
   14        0.041   0.030   3.570   3.640
   15        0.041   0.030   3.567   3.637
   16        0.041   0.030   3.568   3.639
   17        0.042   0.030   3.560   3.632
   18        0.041   0.030   3.570   3.640
   19        0.040   0.030   3.572   3.642
   20        0.041   0.030   3.565   3.636
   21        0.039   0.030   3.563   3.633
   22        0.040   0.030   3.566   3.636
   23        0.040   0.030   3.573   3.642
   24        0.043   0.031   3.548   3.622
   25        0.043   0.031   3.547   3.621
   26        0.043   0.031   3.546   3.620
   27        0.040   0.030   3.556   3.626
   28        0.039   0.030   3.563   3.632
   29        0.042   0.030   3.560   3.632
   30        0.041   0.030   3.570   3.640
   31        0.040   0.030   3.571   3.641
   32        0.041   0.030   3.565   3.636
   33        0.000   0.001   0.000   0.001
   34        0.000   0.001   0.000   0.001
   35        0.000   0.001   0.000   0.001
   36        0.000   0.001   0.000   0.001
   37        0.000   0.001   0.000   0.001
   38       -0.000   0.001   0.000   0.001
   39        0.000   0.001   0.000   0.001
   40        0.000   0.001   0.000   0.001
   41        0.000   0.001   0.000   0.001
   42        0.000   0.001   0.000   0.002
   43        0.000   0.001   0.000   0.001
   44       -0.000   0.001   0.000   0.001
   45        0.000   0.001   0.000   0.001
   46        0.000   0.001   0.000   0.001
   47       -0.000   0.001   0.000   0.001
   48        0.000   0.001   0.000   0.001
   49        0.000   0.001   0.000   0.001
   50        0.000   0.001   0.000   0.001
   51        0.000   0.001   0.000   0.001
   52        0.000   0.001   0.000   0.001
   53       -0.000   0.001   0.000   0.001
   54        0.000   0.001   0.000   0.001
   55        0.000   0.001   0.000   0.001
   56        0.000   0.001   0.000   0.001
   57        0.000   0.001   0.000   0.002
   58        0.000   0.001   0.000   0.001
   59       -0.000   0.001   0.000   0.001
   60        0.000   0.001   0.000   0.001
   61       -0.000   0.001   0.000   0.001
   62        0.000   0.001   0.000   0.001
   63        0.000   0.001   0.000   0.001
   64        0.009   0.099   0.000   0.108
   65        0.009   0.090   0.000   0.099
   66        0.009   0.095   0.000   0.104
   67        0.009   0.090   0.000   0.099
   68        0.009   0.096   0.000   0.105
   69        0.008   0.099   0.000   0.107
   70        0.009   0.092   0.000   0.100
   71        0.009   0.096   0.000   0.105
   72        0.008   0.097   0.000   0.105
   73        0.009   0.095   0.000   0.104
   74        0.009   0.090   0.000   0.099
   75        0.009   0.096   0.000   0.105
   76        0.009   0.094   0.000   0.103
   77        0.009   0.099   0.000   0.108
   78        0.009   0.095   0.000   0.104
   79        0.009   0.094   0.000   0.103
   80        0.016   0.063   0.000   0.079
   81        0.016   0.061   0.000   0.077
   82        0.015   0.054   0.000   0.070
   83        0.016   0.066   0.000   0.082
   84        0.016   0.066   0.000   0.082
   85        0.015   0.056   0.000   0.071
   86        0.016   0.052   0.000   0.067
   87        0.015   0.052   0.000   0.067
   88        0.016   0.066   0.000   0.082
   89        0.015   0.056   0.000   0.071
   90        0.016   0.052   0.000   0.068
   91        0.015   0.052   0.000   0.067
   92        0.016   0.066   0.000   0.082
   93        0.016   0.065   0.000   0.081
   94        0.016   0.063   0.000   0.079
   95        0.016   0.063   0.000   0.079
   96        0.016   0.062   0.000   0.077
   97        0.016   0.063   0.000   0.079
   98        0.016   0.065   0.000   0.081
   99        0.015   0.054   0.000   0.069
  100        0.015   0.044   0.000   0.059
  101        0.015   0.060   0.000   0.075
  102        0.016   0.066   0.000   0.081
  103        0.015   0.057   0.000   0.072
  104        0.015   0.044   0.000   0.059
  105        0.015   0.060   0.000   0.075
  106        0.016   0.066   0.000   0.081
  107        0.015   0.057   0.000   0.072
  108        0.015   0.054   0.000   0.069
  109        0.015   0.054   0.000   0.070
  110        0.016   0.061   0.000   0.077
  111        0.016   0.062   0.000   0.077
--------------------------------------------------
tot          1.936   4.383 114.056 120.375


 total amount of memory used by VASP MPI-rank0   392450. kBytes
=======================================================================

   base      :      30000. kBytes
   nonl-proj :      32788. kBytes
   fftplans  :       6555. kBytes
   grid      :      18544. kBytes
   one-center:        435. kBytes
   wavefun   :     304128. kBytes

  
  
 General timing and accounting informations for this job:
 ========================================================
  
                  Total CPU time used (sec):     1556.154
                            User time (sec):     1545.302
                          System time (sec):       10.852
                         Elapsed time (sec):     1569.281
  
                   Maximum memory used (kb):      750988.
                   Average memory used (kb):          N/A
  
                          Minor page faults:       737832
                          Major page faults:            0
                 Voluntary context switches:        14930
