 vasp.6.2.0 18Jan21 (build May  3 2021 10:16:23) complex                         
 executed on        HPECrayEX_GCC date 2021.05.05  07:16:05
 running 1280 mpi-ranks, with    1 threads/rank
 each image running on  256 cores
 distrk:  each k-point on   32 cores,    8 groups
 distr:  one band on NCORE=   4 cores,    8 groups


--------------------------------------------------------------------------------------------------------


 INCAR:
   ALGO = all
   EDIFF = 1e-06
   EDIFFG = -0.02
   ENCUT = 520
   GGA = pe
   IBRION = 3
   IMAGES = 5
   IOPT = 7
   ISIF = 2
   ISMEAR = 0
   ISPIN = 2
   KPAR = 8
   LASPH = .TRUE.
   LCHARG = .TRUE.
   LDAU = .TRUE.
   LDAUJ = 0.0 0.0 0.0 0.0
   LDAUL = 2 -1 -1 -1
   LDAUTYPE = 2
   LDAUU = 4.0 0.0 0.0 0.0
   LMAXMIX = 4
   LORBIT = 10
   LREAL = .FALSE.
   LVHAR = .TRUE.
   LWAVE = .TRUE.
   MAGMOM = 5 5 5 5 5 5 5 5 5 5 5 5 5 5 5 5 5 5 5 5 5 5 5 5 5 5 5 5 5 5 5 5 0.6 0.6 0.6 0.6 0.6 0.6 0.6 0.6 0.6 0.6 0.6 0.6 0.6 0.6 0.6 0.6 0.6 0.6 0.6 0.6 0.6 0.6 0.6 0.6 0.6 0.6 0.6 0.6 0.6 0.6 0.6 0.6 0.6 0.6 0.6 0.6 0.6 0.6 0.6 0.6 0.6 0.6 0.6 0.6 0.6 0.6 0.6 0.6 0.6 0.6 0.6 0.6 0.6 0.6 0.6 0.6 0.6 0.6 0.6 0.6 0.6 0.6 0.6 0.6 0.6 0.6 0.6 0.6 0.6 0.6 0.6 0.6 0.6 0.6 0.6 0.6 0.6 0.6 0.6
   NCORE = 4
   NEDOS = 2000
   NELECT = 828
   NELM = 200
   NELMIN = 4
   NSW = 60
   NWRITE = 1
   POTIM = 0.0
   PREC = accurate
   SIGMA = 0.05
   SPRING = -5

 POTCAR:    PAW_PBE Fe_pv 02Aug2007               
 POTCAR:    PAW_PBE Li_sv 10Sep2004               
 POTCAR:    PAW_PBE O 08Apr2002                   
 POTCAR:    PAW_PBE S 06Sep2000                   
 POTCAR:    PAW_PBE Fe_pv 02Aug2007               
  local pseudopotential read in
  partial core-charges read in
  partial kinetic energy density read in
  atomic valenz-charges read in
  non local Contribution for L=           1  read in
    real space projection operators read in
  non local Contribution for L=           1  read in
    real space projection operators read in
  non local Contribution for L=           2  read in
    real space projection operators read in
  non local Contribution for L=           2  read in
    real space projection operators read in
  non local Contribution for L=           0  read in
    real space projection operators read in
  non local Contribution for L=           0  read in
    real space projection operators read in
    PAW grid and wavefunctions read in

   number of l-projection  operators is LMAX  =           6
   number of lm-projection operators is LMMAX =          18

 POTCAR:    PAW_PBE Li_sv 10Sep2004               
  local pseudopotential read in
  atomic valenz-charges read in
  non local Contribution for L=           0  read in
    real space projection operators read in
  non local Contribution for L=           0  read in
    real space projection operators read in
  non local Contribution for L=           1  read in
    real space projection operators read in
    PAW grid and wavefunctions read in

   number of l-projection  operators is LMAX  =           3
   number of lm-projection operators is LMMAX =           5

 POTCAR:    PAW_PBE O 08Apr2002                   
  local pseudopotential read in
  partial core-charges read in
  partial kinetic energy density read in
  kinetic energy density of atom read in
  atomic valenz-charges read in
  non local Contribution for L=           0  read in
    real space projection operators read in
  non local Contribution for L=           0  read in
    real space projection operators read in
  non local Contribution for L=           1  read in
    real space projection operators read in
  non local Contribution for L=           1  read in
    real space projection operators read in
    PAW grid and wavefunctions read in

   number of l-projection  operators is LMAX  =           4
   number of lm-projection operators is LMMAX =           8

 POTCAR:    PAW_PBE S 06Sep2000                   
  local pseudopotential read in
  partial core-charges read in
  partial kinetic energy density read in
  atomic valenz-charges read in
  non local Contribution for L=           0  read in
    real space projection operators read in
  non local Contribution for L=           0  read in
    real space projection operators read in
  non local Contribution for L=           1  read in
    real space projection operators read in
  non local Contribution for L=           1  read in
    real space projection operators read in
    PAW grid and wavefunctions read in

   number of l-projection  operators is LMAX  =           4
   number of lm-projection operators is LMMAX =           8

 -----------------------------------------------------------------------------
|                                                                             |
|               ----> ADVICE to this user running VASP <----                  |
|                                                                             |
|     You have a (more or less) 'large supercell' and for larger cells it     |
|     might be more efficient to use real-space projection operators.         |
|     Therefore, try LREAL= Auto in the INCAR file.                           |
|     Mind: For very accurate calculation, you might also keep the            |
|     reciprocal projection scheme (i.e. LREAL=.FALSE.).                      |
|                                                                             |
 -----------------------------------------------------------------------------

  PAW_PBE Fe_pv 02Aug2007               :
 energy of atom  1       EATOM=-2457.4239
 kinetic energy error for atom=    0.0062 (will be added to EATOM!!)
  PAW_PBE Li_sv 10Sep2004               :
 energy of atom  2       EATOM= -202.7858
 kinetic energy error for atom=    0.0130 (will be added to EATOM!!)
  PAW_PBE O 08Apr2002                   :
 energy of atom  3       EATOM= -432.3788
 kinetic energy error for atom=    0.0208 (will be added to EATOM!!)
  PAW_PBE S 06Sep2000                   :
 energy of atom  4       EATOM= -276.8230
 kinetic energy error for atom=    0.0016 (will be added to EATOM!!)


 POSCAR: # Compound: Fe32Li31O16S32. Old comment:
  positions in direct lattice
  No initial velocities read in
 exchange correlation table for  LEXCH =        8
   RHO(1)=    0.500       N(1)  =     2000
   RHO(2)=  100.500       N(2)  =     4000

 VTST: version 3.2, (02/03/18)

 CHAIN: initializing optimizer
 
 OPT: Using FIRE optimizer
 OPT: FIRE, Init
 OPT: FIRE, MAXMOVE       0.20000
 OPT: FIRE, TIMESTEP      0.10000
 OPT: FIRE, FTIMEMAX      1.00000
 OPT: FIRE, FTIMEINC      1.10000
 OPT: FIRE, FTIMEDEC      0.50000
 OPT: FIRE, FALPHADEC     0.99000
 OPT: FIRE, FALPHA        0.10000
 OPT: FIRE, FNMIN         5
 
 CHAIN: Read ICHAIN            0
 CHAIN: Running the NEB
 NEB:          SPRING     -5.000000
 NEB:          LCLIMB      T
 NEB:     LTANGENTOLD      F
 NEB:           LDNEB      F
 NEB:        LDNEBORG      F
 NEB:        LNEBCELL      F
 NEB:          EFIRST      0.000000
 NEB:           ELAST      0.000000

 POSCAR: # Compound: Fe32Li31O16S32. Old comment:
  positions in direct lattice
  No initial velocities read in

 POSCAR: # Compound: Fe32Li31O16S32. Old comment:
  positions in direct lattice
  No initial velocities read in



--------------------------------------------------------------------------------------------------------


 ion  position               nearest neighbor table
   1  0.974  0.081  0.159-  73 2.04  84 2.43  80 2.71  97 2.72  98 2.72  83 2.73
   2  0.224  0.331  0.160-  68 2.05  85 2.43  99 2.71  98 2.72  81 2.73  80 2.73
   3  0.725  0.330  0.158-  79 2.03  86 2.41  82 2.70  80 2.70  99 2.73  97 2.74
   4  0.973  0.581  0.158-  66 2.04  87 2.42  83 2.71  82 2.71  81 2.73  80 2.73
   5  0.971  0.425  0.342-  70 2.03  80 2.44  87 2.68  86 2.70  85 2.71  84 2.78
   6  0.222  0.671  0.341-  67 2.04  81 2.44  87 2.66  85 2.70 100 2.73 102 2.73
   7  0.717  0.669  0.346-  72 1.99  82 2.46 100 2.66 101 2.75  86 2.75
   8  0.973  0.921  0.341-  77 2.04  83 2.44  84 2.71  87 2.71 101 2.72 102 2.73
   9  0.973  0.080  0.659-  77 2.04  92 2.44  88 2.71  91 2.71 105 2.72 106 2.73
  10  0.223  0.331  0.659-  64 2.04  93 2.44  88 2.72 107 2.72  89 2.72 106 2.72
  11  0.723  0.328  0.659-  75 2.04  94 2.44  90 2.67 105 2.71  88 2.72 107 2.72
  12  0.971  0.583  0.658-  70 2.03  95 2.44  91 2.68  90 2.70  89 2.71  88 2.78
  13  0.974  0.422  0.841-  66 2.04  88 2.43  95 2.71  94 2.72  93 2.72  92 2.73
  14  0.224  0.671  0.840-  71 2.05  89 2.43 108 2.71  93 2.72 110 2.73  95 2.73
  15  0.725  0.672  0.842-  76 2.03  90 2.41 109 2.70  95 2.71 108 2.73  94 2.74
  16  0.973  0.922  0.842-  73 2.04  91 2.42  92 2.71 109 2.71 110 2.73  95 2.73
  17  0.473  0.582  0.159-  65 2.04 100 2.42  96 2.70  81 2.71  82 2.73  99 2.74
  18  0.723  0.830  0.159-  76 2.04 101 2.42  97 2.70  96 2.72  83 2.73  82 2.74
  19  0.224  0.830  0.158-  71 2.05 102 2.44  81 2.71  96 2.71  83 2.72  98 2.72
  20  0.474  0.082  0.160-  74 2.05 103 2.43  99 2.71  98 2.72  97 2.72  96 2.73
  21  0.474  0.923  0.341-  78 2.04  96 2.45 103 2.65 101 2.71 100 2.72 102 2.72
  22  0.723  0.169  0.341-  75 2.04  97 2.44  86 2.67 101 2.71  84 2.72 103 2.73
  23  0.223  0.172  0.341-  64 2.04  98 2.44  84 2.72 103 2.72  85 2.72 102 2.72
  24  0.483  0.435  0.347-  69 1.98  99 2.47 100 2.61  86 2.62
  25  0.483  0.588  0.653-  69 1.98 108 2.47 104 2.61  90 2.62
  26  0.717  0.824  0.654-  72 1.99 109 2.46 104 2.66 105 2.75  90 2.75
  27  0.222  0.830  0.659-  67 2.04 110 2.44  91 2.66  89 2.70 104 2.73 106 2.73
  28  0.474  0.081  0.659-  78 2.04 111 2.45 107 2.65 105 2.71 104 2.72 106 2.72
  29  0.473  0.924  0.841-  74 2.04 104 2.42 111 2.70 110 2.71 109 2.73 108 2.74
  30  0.723  0.171  0.841-  79 2.04 105 2.42  94 2.70 111 2.72  92 2.73 109 2.74
  31  0.224  0.172  0.842-  68 2.05 106 2.44 110 2.71 111 2.71  92 2.72  93 2.72
  32  0.474  0.422  0.840-  65 2.05 107 2.43 108 2.71  93 2.72  94 2.72 111 2.73
  33  0.081  0.145  0.001-  68 1.94  73 1.95  80 2.55  92 2.55
  34  0.867  0.857  0.001-  73 1.95  76 1.95  83 2.53  95 2.56
  35  0.867  0.356  0.999-  66 1.95  79 1.95  92 2.53  80 2.56
  36  0.081  0.644  0.999-  71 1.94  66 1.95  95 2.55  83 2.55
  37  0.113  0.394  0.500-  64 1.95  70 1.97  89 2.55  85 2.55
  38  0.344  0.618  0.500-  69 1.92  67 1.96  89 2.68  85 2.68
  39  0.803  0.593  0.500-  72 1.90  70 2.04  86 2.43  90 2.43
  40  0.610  0.386  0.500-  69 1.92  75 1.96  86 2.61  90 2.61
  41  0.081  0.142  0.500-  64 1.94  77 1.95  84 2.56  88 2.56
  42  0.871  0.851  0.500-  72 1.89  77 1.95  91 2.53  87 2.53
  43  0.867  0.353  0.500-  75 1.93  70 1.94  88 2.54  84 2.54
  44  0.079  0.643  0.500-  67 1.96  70 1.96  87 2.55  91 2.55
  45  0.117  0.394  0.000-  68 1.94  66 1.94  81 2.55  93 2.55
  46  0.330  0.607  0.999-  71 1.94  65 1.95  93 2.54  81 2.55
  47  0.830  0.606  0.001-  66 1.94  76 1.94  94 2.55  82 2.57
  48  0.617  0.394  0.000-  65 1.94  79 1.95  94 2.54  82 2.57
  49  0.580  0.644  0.999-  65 1.94  76 1.94  96 2.55 108 2.57
  50  0.367  0.358  0.001-  68 1.94  65 1.94 111 2.55  99 2.58
  51  0.367  0.857  0.999-  71 1.94  74 1.94  96 2.55 108 2.58
  52  0.580  0.145  0.001-  74 1.94  79 1.94 111 2.55  99 2.57
  53  0.602  0.873  0.500-  72 1.92  78 1.96
  54  0.829  0.103  0.500-  77 1.93  75 1.95 105 2.54 101 2.54
  55  0.335  0.113  0.500-  64 1.95  78 1.95 102 2.60 106 2.60
  56  0.117  0.894  0.500-  77 1.93  67 1.94 106 2.55 102 2.55
  57  0.361  0.362  0.500-  69 1.88  64 1.93 103 2.62 107 2.62
  58  0.361  0.862  0.500-  78 1.91  67 1.92 100 2.60 104 2.60
  59  0.587  0.134  0.500-  78 1.93  75 1.94 103 2.61 107 2.61
  60  0.617  0.894  1.000-  74 1.94  76 1.95  97 2.54 109 2.57
  61  0.830  0.106  0.999-  73 1.94  79 1.94  97 2.55 109 2.57
  62  0.330  0.108  0.001-  68 1.94  74 1.95  98 2.54 110 2.55
  63  0.117  0.894  1.000-  71 1.94  73 1.94 110 2.55  98 2.55
  64  0.222  0.251  0.500-  57 1.93  41 1.94  55 1.95  37 1.95  10 2.04  23 2.04
  65  0.474  0.501  1.000-  49 1.94  48 1.94  50 1.94  46 1.95  17 2.04  32 2.05
  66  0.974  0.500  1.000-  47 1.94  45 1.94  35 1.95  36 1.95   4 2.04  13 2.04
  67  0.223  0.751  0.500-  58 1.92  56 1.94  38 1.96  44 1.96   6 2.04  27 2.04
  68  0.224  0.252  0.001-  45 1.94  62 1.94  50 1.94  33 1.94  31 2.05   2 2.05
  69  0.471  0.495  0.500-  57 1.88  40 1.92  38 1.92  24 1.98  25 1.98
  70  0.967  0.501  0.500-  43 1.94  44 1.96  37 1.97  12 2.03   5 2.03  39 2.04
  71  0.224  0.751  0.999-  63 1.94  46 1.94  51 1.94  36 1.94  19 2.05  14 2.05
  72  0.730  0.751  0.500-  42 1.89  39 1.90  53 1.92   7 1.99  26 1.99
  73  0.974  0.001  0.000-  61 1.94  63 1.94  34 1.95  33 1.95  16 2.04   1 2.04
  74  0.474  0.001  0.000-  52 1.94  60 1.94  51 1.94  62 1.95  29 2.04  20 2.05
  75  0.724  0.247  0.500-  43 1.93  59 1.94  54 1.95  40 1.96  22 2.04  11 2.04
  76  0.723  0.750  0.000-  49 1.94  47 1.94  34 1.95  60 1.95  15 2.03  18 2.04
  77  0.974  0.999  0.500-  56 1.93  54 1.93  41 1.95  42 1.95   9 2.04   8 2.04
  78  0.473  0.998  0.500-  58 1.91  59 1.93  55 1.95  53 1.96  28 2.04  21 2.04
  79  0.723  0.249  1.000-  52 1.94  61 1.94  35 1.95  48 1.95   3 2.03  30 2.04
  80  0.973  0.327  0.153-   5 2.44  33 2.55  35 2.56   3 2.70   1 2.71   4 2.73   2 2.73
  81  0.224  0.577  0.151-   6 2.44  45 2.55  46 2.55  17 2.71  19 2.71   2 2.73   4 2.73
  82  0.724  0.576  0.155-   7 2.46  47 2.57  48 2.57   3 2.70   4 2.71  17 2.73  18 2.74
  83  0.974  0.826  0.151-   8 2.44  34 2.53  36 2.55   4 2.71  19 2.72  18 2.73   1 2.73
  84  0.974  0.173  0.348-   1 2.43  43 2.54  41 2.56   8 2.71  23 2.72  22 2.72   5 2.78
  85  0.221  0.426  0.349-   2 2.43  37 2.55  38 2.68   6 2.70   5 2.71  23 2.72
  86  0.723  0.416  0.345-   3 2.41  39 2.43  40 2.61  24 2.62  22 2.67   5 2.70   7 2.75
  87  0.977  0.674  0.346-   4 2.42  42 2.53  44 2.55   6 2.66   5 2.68   8 2.71
  88  0.974  0.325  0.652-  13 2.43  43 2.54  41 2.56   9 2.71  10 2.72  11 2.72  12 2.78
  89  0.221  0.577  0.651-  14 2.43  37 2.55  38 2.68  27 2.70  12 2.71  10 2.72
  90  0.723  0.571  0.655-  15 2.41  39 2.43  40 2.61  25 2.62  11 2.67  12 2.70  26 2.75
  91  0.977  0.828  0.654-  16 2.42  42 2.53  44 2.55  27 2.66  12 2.68   9 2.71
  92  0.974  0.175  0.849-   9 2.44  35 2.53  33 2.55  16 2.71  31 2.72  30 2.73  13 2.73
  93  0.224  0.425  0.848-  10 2.44  46 2.54  45 2.55  14 2.72  13 2.72  32 2.72  31 2.72
  94  0.724  0.423  0.849-  11 2.44  48 2.54  47 2.55  30 2.70  13 2.72  32 2.72  15 2.74
  95  0.973  0.674  0.847-  12 2.44  36 2.55  34 2.56  15 2.71  13 2.71  16 2.73  14 2.73
  96  0.473  0.826  0.151-  21 2.45  49 2.55  51 2.55  17 2.70  19 2.71  18 2.72  20 2.73
  97  0.724  0.074  0.151-  22 2.44  60 2.54  61 2.55  18 2.70   1 2.72  20 2.72   3 2.74
  98  0.224  0.077  0.152-  23 2.44  62 2.54  63 2.55   2 2.72   1 2.72  20 2.72  19 2.72
  99  0.473  0.328  0.155-  24 2.47  52 2.57  50 2.58  20 2.71   2 2.71   3 2.73  17 2.74
 100  0.473  0.676  0.347-  17 2.42  58 2.60  24 2.61   7 2.66  21 2.72   6 2.73
 101  0.723  0.923  0.348-  18 2.42  54 2.54  21 2.71  22 2.71   8 2.72   7 2.75
 102  0.223  0.926  0.348-  19 2.44  56 2.55  55 2.60  21 2.72  23 2.72   8 2.73   6 2.73
 103  0.473  0.170  0.349-  20 2.43  59 2.61  57 2.62  21 2.65  23 2.72  22 2.73
 104  0.473  0.828  0.653-  29 2.42  58 2.60  25 2.61  26 2.66  28 2.72  27 2.73
 105  0.723  0.075  0.652-  30 2.42  54 2.54  28 2.71  11 2.71   9 2.72  26 2.75
 106  0.223  0.077  0.652-  31 2.44  56 2.55  55 2.60  28 2.72  10 2.72   9 2.73  27 2.73
 107  0.473  0.322  0.651-  32 2.43  59 2.61  57 2.62  28 2.65  10 2.72  11 2.72
 108  0.473  0.673  0.845-  25 2.47  49 2.57  51 2.58  32 2.71  14 2.71  15 2.73  29 2.74
 109  0.724  0.921  0.845-  26 2.46  61 2.57  60 2.57  15 2.70  16 2.71  29 2.73  30 2.74
 110  0.224  0.926  0.849-  27 2.44  63 2.55  62 2.55  29 2.71  31 2.71  14 2.73  16 2.73
 111  0.473  0.175  0.849-  28 2.45  52 2.55  50 2.55  29 2.70  31 2.71  30 2.72  32 2.73

  LATTYP: Found a base centered orthorhombic cell.
 ALAT       =    10.8749739061
 B/A-ratio  =     2.3644048249
 C/A-ratio  =     1.0000101723
  
  Lattice vectors:
  
 A1 = (   3.8335882400,   3.8349345400, -12.8627506400)
 A2 = (   3.8548230400,   3.8561790800,  12.8500725900)
 A3 = (   7.6911861600,  -7.6885056400,   0.0000000100)


Analysis of symmetry for initial positions (statically):
=====================================================================
 Subroutine PRICEL returns:
 Original cell was already a primitive cell.
 

 Routine SETGRP: Setting up the symmetry group for a 
 base centered orthorhombic supercell.


 Subroutine GETGRP returns: Found  1 space group operations
 (whereof  1 operations were pure point group operations)
 out of a pool of  8 trial point group operations.


The static configuration has the point symmetry C_1 .


Analysis of symmetry for dynamics (positions and initial velocities):
=====================================================================
 Subroutine PRICEL returns:
 Original cell was already a primitive cell.
 

 Routine SETGRP: Setting up the symmetry group for a 
 base centered orthorhombic supercell.


 Subroutine GETGRP returns: Found  1 space group operations
 (whereof  1 operations were pure point group operations)
 out of a pool of  8 trial point group operations.


The dynamic configuration has the point symmetry C_1 .


Analysis of structural, dynamic, and magnetic symmetry:
=====================================================================
 Subroutine PRICEL returns:
 Original cell was already a primitive cell.
 

 Routine SETGRP: Setting up the symmetry group for a 
 base centered orthorhombic supercell.


 Subroutine GETGRP returns: Found  1 space group operations
 (whereof  1 operations were pure point group operations)
 out of a pool of  8 trial point group operations.


The overall configuration has the point symmetry C_1 .


 Subroutine INISYM returns: Found  1 space group operations
 (whereof  1 operations are pure point group operations),
 and found     1 'primitive' translations


----------------------------------------------------------------------------------------

                                     Primitive cell                                     

  volume of cell :    1520.4808

  direct lattice vectors                    reciprocal lattice vectors
     7.691186160 -7.688505640  0.000000010     0.065032232 -0.065009382  0.000000006
     7.688411280  7.691113620 -0.012678050     0.065042145  0.065064822  0.038783628
    -3.833588240 -3.834934540 12.862750640     0.000064108  0.000064131  0.077782096

  length of vectors
    10.875084530 10.874973906 13.958992648     0.091953308  0.099840280  0.077782149

  position of ions in fractional coordinates (direct lattice)
     0.973591990  0.080812106  0.159072267
     0.224444607  0.330901718  0.160187302
     0.724572725  0.329518423  0.157667180
     0.973330162  0.580655433  0.158415492
     0.971391219  0.425421817  0.342235751
     0.221997043  0.670768287  0.341174452
     0.717174049  0.669447070  0.345910868
     0.972779021  0.920744114  0.341043979
     0.972781346  0.079711835  0.658955926
     0.223336313  0.331051551  0.658629356
     0.723414928  0.327722698  0.658967278
     0.971397573  0.583213394  0.657776062
     0.973576717  0.421752786  0.840921403
     0.224436392  0.670714657  0.839808518
     0.724510928  0.671815718  0.842331665
     0.973306982  0.922249283  0.841575775
     0.472845762  0.582178695  0.158619705
     0.723348343  0.830250487  0.159306366
     0.223805857  0.830042433  0.158419375
     0.473567124  0.081618961  0.159845458
     0.473604616  0.922507731  0.341011951
     0.723443126  0.168757051  0.341038716
     0.223321735  0.172420405  0.341361573
     0.482953443  0.435415283  0.346929887
     0.482927572  0.588381433  0.653067132
     0.717147584  0.823513952  0.654087307
     0.221989801  0.829611324  0.658825756
     0.473618869  0.081479699  0.658986898
     0.472843500  0.923554656  0.841383659
     0.723307158  0.170940405  0.840696751
     0.223770290  0.171608360  0.841575152
     0.473558020  0.421769219  0.840165119
     0.080788855  0.144521333  0.000908421
     0.867485397  0.856896138  0.000801103
     0.867489356  0.356076137  0.999166329
     0.080790452  0.643620940  0.999099771
     0.112910229  0.393820815  0.500017226
     0.344019073  0.617906237  0.500010182
     0.803467430  0.592791045  0.499995694
     0.610035481  0.386469127  0.499981791
     0.081323077  0.141917487  0.499990428
     0.871282078  0.851481498  0.500004815
     0.867056951  0.352926900  0.500022863
     0.079192910  0.642813005  0.499996395
     0.117247654  0.394300308  0.000290494
     0.330324585  0.607428179  0.999263898
     0.829604000  0.606498800  0.000764938
     0.616774949  0.394012122  0.000156229
     0.579600710  0.644018820  0.999019315
     0.367186579  0.358358262  0.000975494
     0.367199844  0.857372844  0.999024136
     0.579603901  0.145014520  0.001011086
     0.602386719  0.872841884  0.499994300
     0.829443381  0.102716426  0.500012983
     0.335115263  0.112593210  0.499992311
     0.117191865  0.894425842  0.500002051
     0.360918763  0.361898827  0.499964125
     0.360877497  0.862499537  0.499999989
     0.586562118  0.133827716  0.499996647
     0.616783414  0.893876811  0.999874511
     0.829600794  0.105725906  0.999226096
     0.330332481  0.108173272  0.000735252
     0.117248266  0.894008290  0.999706436
     0.221913566  0.251458258  0.499996787
     0.473914986  0.500951402  0.999650652
     0.973522185  0.500494673  0.999914682
     0.223376483  0.751304577  0.499999225
     0.223966251  0.251578488  0.000871724
     0.470910112  0.495085019  0.499992884
     0.967032896  0.501205228  0.500006364
     0.223970323  0.750706076  0.999126010
     0.729769735  0.750700992  0.499999152
     0.973521122  0.000576010  0.000078238
     0.473918750  0.001305529  0.000357408
     0.724006152  0.247195355  0.500002653
     0.723418253  0.749837513  0.000350061
     0.973553226  0.998845230  0.500000558
     0.473041998  0.997881582  0.500000833
     0.723420854  0.249490767  0.999652192
     0.973215513  0.326540848  0.152508937
     0.224192369  0.577170826  0.151477652
     0.723731448  0.576338519  0.154835908
     0.974082047  0.826143443  0.151298879
     0.973683364  0.173020267  0.348041296
     0.220575840  0.426346039  0.348978089
     0.723123552  0.416180259  0.345284330
     0.977052940  0.674219278  0.346377421
     0.973687977  0.324968436  0.651957765
     0.220589073  0.577369350  0.651021498
     0.723119455  0.570892195  0.654712646
     0.977059834  0.827840771  0.653619605
     0.974083539  0.174839586  0.848698316
     0.223536656  0.425081808  0.848176052
     0.723816883  0.423145183  0.848986248
     0.973217161  0.674031165  0.847492123
     0.473186538  0.826094381  0.150800953
     0.723819898  0.074165287  0.151018994
     0.223533355  0.076904669  0.151819026
     0.473311153  0.328289920  0.155477978
     0.472594978  0.675508316  0.347232078
     0.722637902  0.922899966  0.347697879
     0.223490115  0.925515993  0.348033328
     0.473027841  0.170284264  0.348732046
     0.472597594  0.828259025  0.652770899
     0.722631248  0.075201659  0.652305408
     0.223495528  0.077479461  0.651962874
     0.473027960  0.321574855  0.651269684
     0.473315303  0.672803542  0.844526671
     0.723730660  0.921496529  0.845164237
     0.224199547  0.925693512  0.848521344
     0.473188526  0.175296868  0.849200540

  ion indices of the primitive-cell ions
   primitive index   ion index
                 1           1
                 2           2
                 3           3
                 4           4
                 5           5
                 6           6
                 7           7
                 8           8
                 9           9
                10          10
                11          11
                12          12
                13          13
                14          14
                15          15
                16          16
                17          17
                18          18
                19          19
                20          20
                21          21
                22          22
                23          23
                24          24
                25          25
                26          26
                27          27
                28          28
                29          29
                30          30
                31          31
                32          32
                33          33
                34          34
                35          35
                36          36
                37          37
                38          38
                39          39
                40          40
                41          41
                42          42
                43          43
                44          44
                45          45
                46          46
                47          47
                48          48
                49          49
                50          50
                51          51
                52          52
                53          53
                54          54
                55          55
                56          56
                57          57
                58          58
                59          59
                60          60
                61          61
                62          62
                63          63
                64          64
                65          65
                66          66
                67          67
                68          68
                69          69
                70          70
                71          71
                72          72
                73          73
                74          74
                75          75
                76          76
                77          77
                78          78
                79          79
                80          80
                81          81
                82          82
                83          83
                84          84
                85          85
                86          86
                87          87
                88          88
                89          89
                90          90
                91          91
                92          92
                93          93
                94          94
                95          95
                96          96
                97          97
                98          98
                99          99
               100         100
               101         101
               102         102
               103         103
               104         104
               105         105
               106         106
               107         107
               108         108
               109         109
               110         110
               111         111

----------------------------------------------------------------------------------------



 KPOINTS: # No comment                            

Automatic generation of k-mesh.
 Grid dimensions read from file:
 generate k-points for:    2    2    2

 Generating k-lattice:

  Cartesian coordinates                     Fractional coordinates (reciprocal lattice)
     0.032516116 -0.032504691  0.000000003     0.500000000 -0.000000000  0.000000000
     0.032521073  0.032532411  0.019391814    -0.000000000  0.500000000 -0.000000000
     0.000032054  0.000032065  0.038891048     0.000000000 -0.000000000  0.500000000

  Length of vectors
     0.045976654  0.049920140  0.038891074

  Shift w.r.t. Gamma in fractional coordinates (k-lattice)
     0.000000000  0.000000000  0.000000000

 
 Subroutine IBZKPT returns following result:
 ===========================================
 
 Found      8 irreducible k-points:
 
 Following reciprocal coordinates:
            Coordinates               Weight
  0.000000  0.000000  0.000000      1.000000
  0.500000  0.000000  0.000000      1.000000
  0.000000  0.500000  0.000000      1.000000
  0.000000  0.500000  0.500000      1.000000
  0.500000  0.500000  0.000000      1.000000
  0.500000  0.500000  0.500000      1.000000
  0.000000  0.000000  0.500000      1.000000
  0.500000  0.000000  0.500000      1.000000
 
 Following cartesian coordinates:
            Coordinates               Weight
  0.000000  0.000000  0.000000      1.000000
  0.032516 -0.032505  0.000000      1.000000
  0.032521  0.032532  0.019392      1.000000
  0.032553  0.032564  0.058283      1.000000
  0.065037  0.000028  0.019392      1.000000
  0.065069  0.000060  0.058283      1.000000
  0.000032  0.000032  0.038891      1.000000
  0.032548 -0.032473  0.038891      1.000000
 


--------------------------------------------------------------------------------------------------------




 Dimension of arrays:
   k-points           NKPTS =      8   k-points in BZ     NKDIM =      8   number of bands    NBANDS=    600
   number of dos      NEDOS =   2000   number of ions     NIONS =    111
   non local maximal  LDIM  =      6   non local SUM 2l+1 LMDIM =     18
   total plane-waves  NPLWV = 762048
   max r-space proj   IRMAX =      1   max aug-charges    IRDMAX=  15988
   dimension x,y,z NGX =    84 NGY =   84 NGZ =  108
   dimension x,y,z NGXF=   168 NGYF=  168 NGZF=  216
   support grid    NGXF=   168 NGYF=  168 NGZF=  216
   ions per type =              32  31  16  32
   NGX,Y,Z   is equivalent  to a cutoff of  12.84, 12.84, 12.86 a.u.
   NGXF,Y,Z  is equivalent  to a cutoff of  25.68, 25.68, 25.72 a.u.

 SYSTEM =  unknown system                          
 POSCAR =  # Compound: Fe32Li31O16S32. Old comment:

 Startparameter for this run:
   NWRITE =      1    write-flag & timer
   PREC   = accura    normal or accurate (medium, high low for compatibility)
   ISTART =      0    job   : 0-new  1-cont  2-samecut
   ICHARG =      2    charge: 1-file 2-atom 10-const
   ISPIN  =      2    spin polarized calculation?
   LNONCOLLINEAR =      F non collinear calculations
   LSORBIT =      F    spin-orbit coupling
   INIWAV =      1    electr: 0-lowe 1-rand  2-diag
   LASPH  =      T    aspherical Exc in radial PAW
   METAGGA=      F    non-selfconsistent MetaGGA calc.

 Electronic Relaxation 1
   ENCUT  =  520.0 eV  38.22 Ry    6.18 a.u.  20.22 20.22 25.95*2*pi/ulx,y,z
   ENINI  =  520.0     initial cutoff
   ENAUG  =  628.9 eV  augmentation charge cutoff
   NELM   =    200;   NELMIN=  4; NELMDL= -5     # of ELM steps 
   EDIFF  = 0.1E-05   stopping-criterion for ELM
   LREAL  =      F    real-space projection
   NLSPLINE    = F    spline interpolate recip. space projectors
   LCOMPAT=      F    compatible to vasp.4.4
   GGA_COMPAT  = T    GGA compatible to vasp.4.4-vasp.4.6
   LMAXPAW     = -100 max onsite density
   LMAXMIX     =    4 max onsite mixed and CHGCAR
   VOSKOWN=      0    Vosko Wilk Nusair interpolation
   ROPT   =    0.00000   0.00000   0.00000   0.00000
 Ionic relaxation
   EDIFFG = -.2E-01   stopping-criterion for IOM
   NSW    =     60    number of steps for IOM
   NBLOCK =      1;   KBLOCK =     60    inner block; outer block 
   IBRION =      3    ionic relax: 0-MD 1-quasi-New 2-CG
   NFREE  =      0    steps in history (QN), initial steepest desc. (CG)
   ISIF   =      2    stress and relaxation
   IWAVPR =     11    prediction:  0-non 1-charg 2-wave 3-comb
   ISYM   =      2    0-nonsym 1-usesym 2-fastsym
   LCORR  =      T    Harris-Foulkes like correction to forces

   POTIM  = 0.0000    time-step for ionic-motion
   TEIN   =    0.0    initial temperature
   TEBEG  =    0.0;   TEEND  =   0.0 temperature during run
   SMASS  =  -3.00    Nose mass-parameter (am)
   estimated Nose-frequenzy (Omega)   =  0.10E-29 period in steps = 0.00E+00 mass=  -0.270E-26a.u.
   SCALEE = 1.0000    scale energy and forces
   NPACO  =    256;   APACO  = 16.0  distance and # of slots for P.C.
   PSTRESS=    0.0 pullay stress

  Mass of Ions in am
   POMASS =  55.85  7.01 16.00 32.07
  Ionic Valenz
   ZVAL   =  14.00  3.00  6.00  6.00
  Atomic Wigner-Seitz radii
   RWIGS  =  -1.00 -1.00 -1.00 -1.00
  virtual crystal weights 
   VCA    =   1.00  1.00  1.00  1.00
   NELECT =     828.0000    total number of electrons
   NUPDOWN=      -1.0000    fix difference up-down

 DOS related values:
   EMIN   =  10.00;   EMAX   =-10.00  energy-range for DOS
   EFERMI =   0.00
   ISMEAR =     0;   SIGMA  =   0.05  broadening in eV -4-tet -1-fermi 0-gaus

 Electronic relaxation 2 (details)
   IALGO  =     58    algorithm
   LDIAG  =      T    sub-space diagonalisation (order eigenvalues)
   LSUBROT=      F    optimize rotation matrix (better conditioning)
   TURBO    =      0    0=normal 1=particle mesh
   IRESTART =      0    0=no restart 2=restart with 2 vectors
   NREBOOT  =      0    no. of reboots
   NMIN     =      0    reboot dimension
   EREF     =   0.00    reference energy to select bands
   IMIX   =      4    mixing-type and parameters
     AMIX     =   0.40;   BMIX     =  1.00
     AMIX_MAG =   1.60;   BMIX_MAG =  1.00
     AMIN     =   0.10
     WC   =   100.;   INIMIX=   1;  MIXPRE=   1;  MAXMIX= -45

 Intra band minimization:
   WEIMIN = 0.0010     energy-eigenvalue tresh-hold
   EBREAK =  0.42E-09  absolut break condition
   DEPER  =   0.30     relativ break condition  

   TIME   =   0.40     timestep for ELM

  volume/ion in A,a.u.               =      13.70        92.44
  Fermi-wavevector in a.u.,A,eV,Ry     =   1.336877  2.526330 24.316861  1.787239
  Thomas-Fermi vector in A             =   2.465469

 Write flags
   LWAVE        =      T    write WAVECAR
   LDOWNSAMPLE  =      F    k-point downsampling of WAVECAR
   LCHARG       =      T    write CHGCAR
   LVTOT        =      F    write LOCPOT, total local potential
   LVHAR        =      T    write LOCPOT, Hartree potential only
   LELF         =      F    write electronic localiz. function (ELF)
   LORBIT       =     10    0 simple, 1 ext, 2 COOP (PROOUT), +10 PAW based schemes


 Dipole corrections
   LMONO  =      F    monopole corrections only (constant potential shift)
   LDIPOL =      F    correct potential (dipole corrections)
   IDIPOL =      0    1-x, 2-y, 3-z, 4-all directions 
   EPSILON=  1.0000000 bulk dielectric constant

 LDA+U is selected, type is set to LDAUTYPE =  2
   angular momentum for each species LDAUL =     2   -1   -1   -1
   U (eV)           for each species LDAUU =   4.0  0.0  0.0  0.0
   J (eV)           for each species LDAUJ =   0.0  0.0  0.0  0.0
 Exchange correlation treatment:
   GGA     =    PE    GGA type
   LEXCH   =     8    internal setting for exchange type
   VOSKOWN=      0    Vosko Wilk Nusair interpolation
   LHFCALC =     F    Hartree Fock is set to
   LHFONE  =     F    Hartree Fock one center treatment
   AEXX    =    0.0000 exact exchange contribution

 Linear response parameters
   LEPSILON=     F    determine dielectric tensor
   LRPA    =     F    only Hartree local field effects (RPA)
   LNABLA  =     F    use nabla operator in PAW spheres
   LVEL    =     F    velocity operator in full k-point grid
   LINTERFAST=   F  fast interpolation
   KINTER  =     0    interpolate to denser k-point grid
   CSHIFT  =0.1000    complex shift for real part using Kramers Kronig
   OMEGAMAX=  -1.0    maximum frequency
   DEG_THRESHOLD= 0.2000000E-02 threshold for treating states as degnerate
   RTIME   =   -0.100 relaxation time in fs
  (WPLASMAI=    0.000 imaginary part of plasma frequency in eV, 0.658/RTIME)
   DFIELD  = 0.0000000 0.0000000 0.0000000 field for delta impulse in time

 Orbital magnetization related:
   ORBITALMAG=     F  switch on orbital magnetization
   LCHIMAG   =     F  perturbation theory with respect to B field
   DQ        =  0.001000  dq finite difference perturbation B field
   LLRAUG    =     F  two centre corrections for induced B field



--------------------------------------------------------------------------------------------------------


 quickmin algorithm: (dynamic with friction)
 charge density and potential will be updated during run
 spin polarized calculation
 Conjugate gradient for all bands (Freysoldt, et al. PRB 79, 241103 (2009))
 preconditioned conjugated gradient                                        
 perform sub-space diagonalisation
    before iterative eigenvector-optimisation
 modified Broyden-mixing scheme, WC =      100.0
 initial mixing is a Kerker type mixing with AMIX =  0.4000 and BMIX =      1.0000
 Hartree-type preconditioning will be used
 using additional bands          186
 reciprocal scheme for non local part
 use partial core corrections
 no Harris-corrections to forces 
 use gradient corrections 
 use of overlap-Matrix (Vanderbilt PP)
 Gauss-broadening in eV      SIGMA  =   0.05


--------------------------------------------------------------------------------------------------------


  energy-cutoff  :      520.00
  volume of cell :     1520.48
      direct lattice vectors                 reciprocal lattice vectors
     7.691186160 -7.688505640  0.000000010     0.065032232 -0.065009382  0.000000006
     7.688411280  7.691113620 -0.012678050     0.065042145  0.065064822  0.038783628
    -3.833588240 -3.834934540 12.862750640     0.000064108  0.000064131  0.077782096

  length of vectors
    10.875084530 10.874973906 13.958992648     0.091953308  0.099840280  0.077782149



 k-points in units of 2pi/SCALE and weight: # No comment                            
   0.00000000  0.00000000  0.00000000       0.125
   0.03251612 -0.03250469  0.00000000       0.125
   0.03252107  0.03253241  0.01939181       0.125
   0.03255313  0.03256448  0.05828286       0.125
   0.06503719  0.00002772  0.01939182       0.125
   0.06506924  0.00005979  0.05828286       0.125
   0.00003205  0.00003207  0.03889105       0.125
   0.03254817 -0.03247263  0.03889105       0.125

 k-points in reciprocal lattice and weights: # No comment                            
   0.00000000  0.00000000  0.00000000       0.125
   0.50000000  0.00000000  0.00000000       0.125
   0.00000000  0.50000000  0.00000000       0.125
   0.00000000  0.50000000  0.50000000       0.125
   0.50000000  0.50000000  0.00000000       0.125
   0.50000000  0.50000000  0.50000000       0.125
   0.00000000  0.00000000  0.50000000       0.125
   0.50000000  0.00000000  0.50000000       0.125

 position of ions in fractional coordinates (direct lattice) 
   0.97359199  0.08081211  0.15907227
   0.22444461  0.33090172  0.16018730
   0.72457272  0.32951842  0.15766718
   0.97333016  0.58065543  0.15841549
   0.97139122  0.42542182  0.34223575
   0.22199704  0.67076829  0.34117445
   0.71717405  0.66944707  0.34591087
   0.97277902  0.92074411  0.34104398
   0.97278135  0.07971183  0.65895593
   0.22333631  0.33105155  0.65862936
   0.72341493  0.32772270  0.65896728
   0.97139757  0.58321339  0.65777606
   0.97357672  0.42175279  0.84092140
   0.22443639  0.67071466  0.83980852
   0.72451093  0.67181572  0.84233166
   0.97330698  0.92224928  0.84157578
   0.47284576  0.58217869  0.15861971
   0.72334834  0.83025049  0.15930637
   0.22380586  0.83004243  0.15841937
   0.47356712  0.08161896  0.15984546
   0.47360462  0.92250773  0.34101195
   0.72344313  0.16875705  0.34103872
   0.22332174  0.17242041  0.34136157
   0.48295344  0.43541528  0.34692989
   0.48292757  0.58838143  0.65306713
   0.71714758  0.82351395  0.65408731
   0.22198980  0.82961132  0.65882576
   0.47361887  0.08147970  0.65898690
   0.47284350  0.92355466  0.84138366
   0.72330716  0.17094040  0.84069675
   0.22377029  0.17160836  0.84157515
   0.47355802  0.42176922  0.84016512
   0.08078886  0.14452133  0.00090842
   0.86748540  0.85689614  0.00080110
   0.86748936  0.35607614  0.99916633
   0.08079045  0.64362094  0.99909977
   0.11291023  0.39382081  0.50001723
   0.34401907  0.61790624  0.50001018
   0.80346743  0.59279104  0.49999569
   0.61003548  0.38646913  0.49998179
   0.08132308  0.14191749  0.49999043
   0.87128208  0.85148150  0.50000481
   0.86705695  0.35292690  0.50002286
   0.07919291  0.64281301  0.49999640
   0.11724765  0.39430031  0.00029049
   0.33032458  0.60742818  0.99926390
   0.82960400  0.60649880  0.00076494
   0.61677495  0.39401212  0.00015623
   0.57960071  0.64401882  0.99901932
   0.36718658  0.35835826  0.00097549
   0.36719984  0.85737284  0.99902414
   0.57960390  0.14501452  0.00101109
   0.60238672  0.87284188  0.49999430
   0.82944338  0.10271643  0.50001298
   0.33511526  0.11259321  0.49999231
   0.11719186  0.89442584  0.50000205
   0.36091876  0.36189883  0.49996413
   0.36087750  0.86249954  0.49999999
   0.58656212  0.13382772  0.49999665
   0.61678341  0.89387681  0.99987451
   0.82960079  0.10572591  0.99922610
   0.33033248  0.10817327  0.00073525
   0.11724827  0.89400829  0.99970644
   0.22191357  0.25145826  0.49999679
   0.47391499  0.50095140  0.99965065
   0.97352218  0.50049467  0.99991468
   0.22337648  0.75130458  0.49999923
   0.22396625  0.25157849  0.00087172
   0.47091011  0.49508502  0.49999288
   0.96703290  0.50120523  0.50000636
   0.22397032  0.75070608  0.99912601
   0.72976974  0.75070099  0.49999915
   0.97352112  0.00057601  0.00007824
   0.47391875  0.00130553  0.00035741
   0.72400615  0.24719535  0.50000265
   0.72341825  0.74983751  0.00035006
   0.97355323  0.99884523  0.50000056
   0.47304200  0.99788158  0.50000083
   0.72342085  0.24949077  0.99965219
   0.97321551  0.32654085  0.15250894
   0.22419237  0.57717083  0.15147765
   0.72373145  0.57633852  0.15483591
   0.97408205  0.82614344  0.15129888
   0.97368336  0.17302027  0.34804130
   0.22057584  0.42634604  0.34897809
   0.72312355  0.41618026  0.34528433
   0.97705294  0.67421928  0.34637742
   0.97368798  0.32496844  0.65195776
   0.22058907  0.57736935  0.65102150
   0.72311945  0.57089220  0.65471265
   0.97705983  0.82784077  0.65361961
   0.97408354  0.17483959  0.84869832
   0.22353666  0.42508181  0.84817605
   0.72381688  0.42314518  0.84898625
   0.97321716  0.67403117  0.84749212
   0.47318654  0.82609438  0.15080095
   0.72381990  0.07416529  0.15101899
   0.22353336  0.07690467  0.15181903
   0.47331115  0.32828992  0.15547798
   0.47259498  0.67550832  0.34723208
   0.72263790  0.92289997  0.34769788
   0.22349012  0.92551599  0.34803333
   0.47302784  0.17028426  0.34873205
   0.47259759  0.82825903  0.65277090
   0.72263125  0.07520166  0.65230541
   0.22349553  0.07747946  0.65196287
   0.47302796  0.32157486  0.65126968
   0.47331530  0.67280354  0.84452667
   0.72373066  0.92149653  0.84516424
   0.22419955  0.92569351  0.84852134
   0.47318853  0.17529687  0.84920054

 position of ions in cartesian coordinates  (Angst):
   7.49957637 -7.47396414  2.04508237
   3.65626160  0.20505127  2.05625414
   7.50186583 -3.64116117  2.02385598
  11.34308148 -3.62508057  2.03029740
   9.42997765 -5.50903104  4.39669961
   5.55664068  2.14374790  4.37993787
   9.33682369 -1.69174878  4.44087797
  13.25346178 -1.70555073  4.37509043
   5.56853410 -9.39321493  8.47497518
   1.73806789 -1.69676788  8.46758809
   5.55737656 -5.56852362  8.47197689
   9.43354143 -5.50556338  8.45341547
   7.50682225 -7.46648002 10.81121532
   3.66343214  0.21235148 10.79374420
   7.50839120 -3.63368213 10.82618485
  11.35026199 -3.61754021 10.81328703
   7.50469138  0.23382900  2.03290483
  11.33599896  0.21315352  2.03859211
   7.49572546  4.05569014  2.02718560
   3.65703139 -3.62627967  2.05501750
   9.42790070  2.14604150  4.37465610
   5.55420736 -5.57212805  4.38455646
   1.73460832 -1.70000478  4.38866283
   5.73215028 -1.69481526  4.45695242
   5.73441383 -1.69215261  8.39278015
   9.33972812 -1.68843588  8.40292139
   5.56009128  2.14731147  8.46379356
   1.74285590 -5.54192335  8.47535115
   7.51187692  0.24105263 10.81079933
   3.65446496 -7.47044609 10.81150548
  -0.18579800 -3.62798537 10.82279567
   3.66411099 -3.61905676 10.80148722
   1.72901906  0.48690069  0.00985254
  13.25709052 -0.08225299 -0.00055938
   5.57928963 -7.76281225 12.84751299
   1.73965977  0.49752171 12.84301137
   1.97940983  0.24327637  6.42660401
   5.47979886  0.18988818  6.42367244
   8.82046133 -3.53569135  6.42380450
   5.74650573 -3.63528071  6.42624144
  -0.20016650 -1.45117998  6.42945297
  11.33092003 -2.06750196  6.42064214
   7.46526181 -5.86952632  6.42719498
   3.63451787  2.41761928  6.42317934
   3.93220283  2.13003520 -0.00126241
   3.37997922 -1.70001493 12.84558134
  11.04071856 -1.71669734  0.00214999
   7.77245928 -1.71228480 -0.00298576
   5.57946982 -3.33421509 12.84197144
   5.57556640 -0.07068293  0.00800425
   5.58619022 -0.06025828 12.83932854
   5.56889669 -3.34484215  0.01116685
   9.42706351  0.16422700  6.42023608
   5.25228569 -7.50469347  6.43024008
   1.52633213 -3.62800620  6.42984896
   5.86125619  4.06062532  6.42006213
   3.64166383 -1.90885064  6.42632571
   7.49003310  1.94150604  6.42044038
   3.62349970 -5.39795639  6.42963552
   7.78318144 -1.70168794 12.84980390
   3.36285698 -9.39720710 12.85145572
   3.36951056 -1.71060986  0.00808594
   3.94281883  2.14064664 12.84764032
   1.72331125 -1.68964462  6.42814599
   3.66423981 -3.62441871 12.85190598
   7.50228808 -7.47017676 12.85530793
   5.57757756  2.14347322  6.42184028
   3.65346318  0.20960995  0.00802325
   5.51150774 -1.73027990  6.42500708
   9.37428344 -5.49770319  6.42510288
   3.66409679  0.22018578 12.84199124
   9.46770199 -1.75457612  6.42184699
   7.49166085 -7.48079251  0.00099907
   3.65366462 -3.63505665  0.00458070
   5.55220136 -5.58279527  6.42827550
  11.32766166  0.20373773 -0.00500373
  13.25051577 -1.72040673  6.41871909
   9.39358076  2.12036409  6.41873485
   3.64989720 -7.47676420 12.85511382
   9.41110555 -5.55597199  1.95754454
   5.58112899  2.13447523  1.94110187
   9.40390375 -1.72551386  1.98430883
  13.26355932 -1.71549353  1.93564588
   7.48478396 -7.49016709  4.47457486
   3.63657525  0.24486911  4.48341290
   7.43776490 -3.68299265  4.43602989
  11.37050274 -3.65491470  4.44681862
   7.48796886 -7.48705169  8.38185020
   3.63989630  0.24798811  8.36660727
   7.44100164 -3.67969141  8.41416771
  11.37382096 -3.65170102  8.39685060
   5.58253659 -9.39923815 10.91437820
   1.73590806 -1.70201000 10.90448785
   5.56566089 -5.56641919 10.91493375
   9.41848734 -5.54861217 10.89253445
   9.41261035  2.13717660  1.92924180
   5.55830217 -5.57382768  1.94157940
   1.72849974 -1.70937094  1.95183527
   5.56831357 -1.71038826  1.99571239
   7.49725690  0.23024977  4.45779551
  11.32064664  0.20872431  4.46065055
   7.50043521  4.06525861  4.46493218
   3.61046558 -3.66456617  4.48349447
   7.50037726  0.23333133  8.38592860
   3.63540239 -7.47911846  8.38948841
  -0.18471753 -3.62267823  8.38505358
   3.61384604 -3.66118600  8.37304261
   5.57557894 -1.70318339 10.85440614
   9.41117986 -1.71822228 10.85945406
   5.58859145  2.14183069 10.90258247
   1.73165026 -5.54651300 10.92083237



--------------------------------------------------------------------------------------------------------


 k-point   1 :   0.0000 0.0000 0.0000  plane waves:   40887
 k-point   2 :   0.5000 0.0000 0.0000  plane waves:   40892
 k-point   3 :   0.0000 0.5000 0.0000  plane waves:   40934
 k-point   4 :   0.0000 0.5000 0.5000  plane waves:   40934
 k-point   5 :   0.5000 0.5000 0.0000  plane waves:   40932
 k-point   6 :   0.5000 0.5000 0.5000  plane waves:   40932
 k-point   7 :   0.0000 0.0000 0.5000  plane waves:   40952
 k-point   8 :   0.5000 0.0000 0.5000  plane waves:   40976

 maximum and minimum number of plane-waves per node :     10279    10176

 maximum number of plane-waves:     40976
 maximum index in each direction: 
   IXMAX=   20   IYMAX=   20   IZMAX=   25
   IXMIN=  -20   IYMIN=  -20   IZMIN=  -26


 parallel 3D FFT for wavefunctions:
    minimum data exchange during FFTs selected (reduces bandwidth)
 parallel 3D FFT for charge:
    minimum data exchange during FFTs selected (reduces bandwidth)


 total amount of memory used by VASP MPI-rank0   753861. kBytes
=======================================================================

   base      :      30000. kBytes
   nonl-proj :      65627. kBytes
   fftplans  :      12748. kBytes
   grid      :      36360. kBytes
   one-center:        870. kBytes
   wavefun   :     608256. kBytes

     INWAV:  cpu time    0.0000: real time    0.0000
 Broyden mixing: mesh for mixing (old mesh)
   NGX = 41   NGY = 41   NGZ = 51
  (NGX  =168   NGY  =168   NGZ  =216)
  gives a total of  85731 points

 initial charge density was supplied:
 charge density of overlapping atoms calculated
 number of electron     829.0000000 magnetization     207.4000000
 keeping initial charge density in first step


--------------------------------------------------------------------------------------------------------


 Maximum index for augmentation-charges         1425 (set IRDMAX)


--------------------------------------------------------------------------------------------------------


 First call to EWALD:  gamma=   0.154
 Maximum number of real-space cells 3x 3x 3
 Maximum number of reciprocal cells 3x 3x 3

    FEWALD:  cpu time    0.1022: real time    0.1026


--------------------------------------- Iteration      1(   1)  ---------------------------------------


    POTLOK:  cpu time    0.4519: real time    0.4523
    SETDIJ:  cpu time    0.4858: real time    0.4861
    TRIAL :  cpu time   25.6415: real time   25.6647
    CORREC:  cpu time    0.0028: real time    0.0034
    --------------------------------------------
      LOOP:  cpu time   27.0181: real time   27.0428

 eigenvalue-minimisations  : 19992
 total energy-change (2. order) : 0.1077368E+05  (-0.4173539E+05)
 number of electron     829.0000000 magnetization     207.4000000
 augmentation part      829.0000000 magnetization     207.4000000

 Free energy of the ion-electron system (eV)
  ---------------------------------------------------
  alpha Z        PSCENC =      2332.72493728
  Ewald energy   TEWEN  =    -61291.62459361
  -Hartree energ DENC   =    -32040.10142412
  -exchange      EXHF   =         0.00000000
  -V(xc)+E(xc)   XCENC  =      3557.09289993
  PAW double counting   =     78939.49469920   -81928.53671730
  entropy T*S    EENTRO =        -0.02753452
  eigenvalues    EBANDS =       505.31952456
  atomic energy  EATOM  =    100699.33914061
  ---------------------------------------------------
  free energy    TOTEN  =     10773.68093202 eV

  energy without entropy =    10773.70846653  energy(sigma->0) =    10773.69469928


--------------------------------------------------------------------------------------------------------




--------------------------------------- Iteration      1(   2)  ---------------------------------------


    TRIAL :  cpu time   25.3663: real time   25.3805
    CORREC:  cpu time    0.0029: real time    0.0029
    --------------------------------------------
      LOOP:  cpu time   25.3715: real time   25.3858

 eigenvalue-minimisations  : 19200
 total energy-change (2. order) :-0.9664128E+04  (-0.8886040E+04)
 number of electron     829.0000000 magnetization     207.4000000
 augmentation part      829.0000000 magnetization     207.4000000

 Free energy of the ion-electron system (eV)
  ---------------------------------------------------
  alpha Z        PSCENC =      2332.72493728
  Ewald energy   TEWEN  =    -61291.62459361
  -Hartree energ DENC   =    -32040.10142412
  -exchange      EXHF   =         0.00000000
  -V(xc)+E(xc)   XCENC  =      3557.09289993
  PAW double counting   =     78939.49469920   -81928.53671730
  entropy T*S    EENTRO =        -0.08110813
  eigenvalues    EBANDS =     -9158.75461833
  atomic energy  EATOM  =    100699.33914061
  ---------------------------------------------------
  free energy    TOTEN  =      1109.55321551 eV

  energy without entropy =     1109.63432364  energy(sigma->0) =     1109.59376958


--------------------------------------------------------------------------------------------------------




--------------------------------------- Iteration      1(   3)  ---------------------------------------


    TRIAL :  cpu time   26.4576: real time   26.4704
    CORREC:  cpu time    0.0031: real time    0.0031
    --------------------------------------------
      LOOP:  cpu time   26.4623: real time   26.4752

 eigenvalue-minimisations  : 20752
 total energy-change (2. order) :-0.1578771E+04  (-0.1473147E+04)
 number of electron     829.0000000 magnetization     207.4000000
 augmentation part      829.0000000 magnetization     207.4000000

 Free energy of the ion-electron system (eV)
  ---------------------------------------------------
  alpha Z        PSCENC =      2332.72493728
  Ewald energy   TEWEN  =    -61291.62459361
  -Hartree energ DENC   =    -32040.10142412
  -exchange      EXHF   =         0.00000000
  -V(xc)+E(xc)   XCENC  =      3557.09289993
  PAW double counting   =     78939.49469920   -81928.53671730
  entropy T*S    EENTRO =        -0.06123113
  eigenvalues    EBANDS =    -10737.54598080
  atomic energy  EATOM  =    100699.33914061
  ---------------------------------------------------
  free energy    TOTEN  =      -469.21826995 eV

  energy without entropy =     -469.15703882  energy(sigma->0) =     -469.18765439


--------------------------------------------------------------------------------------------------------




--------------------------------------- Iteration      1(   4)  ---------------------------------------


    TRIAL :  cpu time   30.4909: real time   30.5025
    CORREC:  cpu time    0.0028: real time    0.0028
    --------------------------------------------
      LOOP:  cpu time   30.4955: real time   30.5071

 eigenvalue-minimisations  : 25072
 total energy-change (2. order) :-0.1774965E+03  (-0.1740681E+03)
 number of electron     829.0000000 magnetization     207.4000000
 augmentation part      829.0000000 magnetization     207.4000000

 Free energy of the ion-electron system (eV)
  ---------------------------------------------------
  alpha Z        PSCENC =      2332.72493728
  Ewald energy   TEWEN  =    -61291.62459361
  -Hartree energ DENC   =    -32040.10142412
  -exchange      EXHF   =         0.00000000
  -V(xc)+E(xc)   XCENC  =      3557.09289993
  PAW double counting   =     78939.49469920   -81928.53671730
  entropy T*S    EENTRO =        -0.06481914
  eigenvalues    EBANDS =    -10915.03884311
  atomic energy  EATOM  =    100699.33914061
  ---------------------------------------------------
  free energy    TOTEN  =      -646.71472028 eV

  energy without entropy =     -646.64990114  energy(sigma->0) =     -646.68231071


--------------------------------------------------------------------------------------------------------




--------------------------------------- Iteration      1(   5)  ---------------------------------------


    TRIAL :  cpu time   38.2035: real time   38.2184
    CORREC:  cpu time    0.0032: real time    0.0032
    CHARGE:  cpu time    0.6254: real time    0.6258
    --------------------------------------------
      LOOP:  cpu time   38.8329: real time   39.1446

 eigenvalue-minimisations  : 33344
 total energy-change (2. order) :-0.2021763E+02  (-0.1984060E+02)
 number of electron     828.0000091 magnetization     149.0944411
 augmentation part      262.8470354 magnetization      92.0130409

 Free energy of the ion-electron system (eV)
  ---------------------------------------------------
  alpha Z        PSCENC =      2332.72493728
  Ewald energy   TEWEN  =    -61291.62459361
  -Hartree energ DENC   =    -32040.10142412
  -exchange      EXHF   =         0.00000000
  -V(xc)+E(xc)   XCENC  =      3557.09289993
  PAW double counting   =     78939.49469920   -81928.53671730
  entropy T*S    EENTRO =        -0.07723639
  eigenvalues    EBANDS =    -10935.24405379
  atomic energy  EATOM  =    100699.33914061
  ---------------------------------------------------
  free energy    TOTEN  =      -666.93234820 eV

  energy without entropy =     -666.85511181  energy(sigma->0) =     -666.89373001


--------------------------------------------------------------------------------------------------------




--------------------------------------- Iteration      1(   6)  ---------------------------------------


    POTLOK:  cpu time    0.4433: real time    0.4434
    SETDIJ:  cpu time    0.4830: real time    0.4831
    TRIAL :  cpu time   14.3091: real time   14.3162
    CORREC:  cpu time    3.9273: real time    3.9293
    CHARGE:  cpu time    0.6082: real time    0.6084
    --------------------------------------------
      LOOP:  cpu time   19.7727: real time   19.7820

 eigenvalue-minimisations  :     0
 total energy-change (2. order) : 0.6325459E+03  (-0.4244049E+03)
 number of electron     828.0000098 magnetization     132.4265433
 augmentation part      288.2521798 magnetization      94.0778126

 Free energy of the ion-electron system (eV)
  ---------------------------------------------------
  alpha Z        PSCENC =      2332.72493728
  Ewald energy   TEWEN  =    -61291.62459361
  -Hartree energ DENC   =    -26976.84510879
  -exchange      EXHF   =         0.00000000
  -V(xc)+E(xc)   XCENC  =      3425.68187190
  PAW double counting   =     87750.22639735   -90414.40695730
  entropy T*S    EENTRO =        -0.07451772
  eigenvalues    EBANDS =    -15559.40490020
  atomic energy  EATOM  =    100699.33914061
  ---------------------------------------------------
  free energy    TOTEN  =       -34.38644915 eV

  energy without entropy =      -34.31193143  energy(sigma->0) =      -34.34919029


--------------------------------------------------------------------------------------------------------




--------------------------------------- Iteration      1(   7)  ---------------------------------------


    POTLOK:  cpu time    0.4437: real time    0.4437
    SETDIJ:  cpu time    0.4816: real time    0.4817
    TRIAL :  cpu time   14.2755: real time   14.2811
    CORREC:  cpu time    3.9066: real time    3.9075
    CHARGE:  cpu time    0.6032: real time    0.6032
    --------------------------------------------
      LOOP:  cpu time   19.7131: real time   19.7198

 eigenvalue-minimisations  :     0
 total energy-change (2. order) :-0.4311092E+03  (-0.4913682E+02)
 number of electron     828.0000098 magnetization     131.0003064
 augmentation part      287.7648626 magnetization      93.2503701

 Free energy of the ion-electron system (eV)
  ---------------------------------------------------
  alpha Z        PSCENC =      2332.72493728
  Ewald energy   TEWEN  =    -61291.62459361
  -Hartree energ DENC   =    -30520.35567828
  -exchange      EXHF   =         0.00000000
  -V(xc)+E(xc)   XCENC  =      3531.06710447
  PAW double counting   =     97410.92957170  -100713.24040294
  entropy T*S    EENTRO =        -0.07893737
  eigenvalues    EBANDS =    -11914.26125851
  atomic energy  EATOM  =    100699.33914061
  ---------------------------------------------------
  free energy    TOTEN  =      -465.49569701 eV

  energy without entropy =     -465.41675964  energy(sigma->0) =     -465.45622832


--------------------------------------------------------------------------------------------------------




--------------------------------------- Iteration      1(   8)  ---------------------------------------


    POTLOK:  cpu time    0.4422: real time    0.4434
    SETDIJ:  cpu time    0.4841: real time    0.4842
    TRIAL :  cpu time   14.2801: real time   14.2884
    CORREC:  cpu time    3.9176: real time    3.9184
    CHARGE:  cpu time    0.6045: real time    0.6047
    --------------------------------------------
      LOOP:  cpu time   19.7313: real time   19.7420

 eigenvalue-minimisations  :     0
 total energy-change (2. order) :-0.4257038E+02  (-0.1595979E+02)
 number of electron     828.0000097 magnetization     130.7603994
 augmentation part      286.3571996 magnetization      92.6742046

 Free energy of the ion-electron system (eV)
  ---------------------------------------------------
  alpha Z        PSCENC =      2332.72493728
  Ewald energy   TEWEN  =    -61291.62459361
  -Hartree energ DENC   =    -30678.81022998
  -exchange      EXHF   =         0.00000000
  -V(xc)+E(xc)   XCENC  =      3523.00786243
  PAW double counting   =     99191.01795551  -102451.07153682
  entropy T*S    EENTRO =        -0.11316585
  eigenvalues    EBANDS =    -11832.57067006
  atomic energy  EATOM  =    100699.33914061
  ---------------------------------------------------
  free energy    TOTEN  =      -508.06607201 eV

  energy without entropy =     -507.95290616  energy(sigma->0) =     -508.00948909


--------------------------------------------------------------------------------------------------------




--------------------------------------- Iteration      1(   9)  ---------------------------------------


    POTLOK:  cpu time    0.4377: real time    0.4377
    SETDIJ:  cpu time    0.4938: real time    0.4940
    TRIAL :  cpu time   14.2456: real time   14.2524
    CORREC:  cpu time    3.9067: real time    3.9075
    CHARGE:  cpu time    0.6010: real time    0.6013
    --------------------------------------------
      LOOP:  cpu time   19.6870: real time   19.6951

 eigenvalue-minimisations  :     0
 total energy-change (2. order) :-0.2145728E+02  (-0.5792288E+01)
 number of electron     828.0000097 magnetization     130.3929315
 augmentation part      285.5077093 magnetization      92.0012585

 Free energy of the ion-electron system (eV)
  ---------------------------------------------------
  alpha Z        PSCENC =      2332.72493728
  Ewald energy   TEWEN  =    -61291.62459361
  -Hartree energ DENC   =    -30590.46893988
  -exchange      EXHF   =         0.00000000
  -V(xc)+E(xc)   XCENC  =      3513.47271858
  PAW double counting   =     99504.06824259  -102707.68436697
  entropy T*S    EENTRO =        -0.12105560
  eigenvalues    EBANDS =    -11989.23732665
  atomic energy  EATOM  =    100699.33914061
  ---------------------------------------------------
  free energy    TOTEN  =      -529.52335391 eV

  energy without entropy =     -529.40229831  energy(sigma->0) =     -529.46282611


--------------------------------------------------------------------------------------------------------




--------------------------------------- Iteration      1(  10)  ---------------------------------------


    POTLOK:  cpu time    0.4393: real time    0.4393
    SETDIJ:  cpu time    0.4780: real time    0.4781
    TRIAL :  cpu time   14.2472: real time   14.2554
    CORREC:  cpu time    3.8982: real time    3.8991
    CHARGE:  cpu time    0.5984: real time    0.5984
    --------------------------------------------
      LOOP:  cpu time   19.6636: real time   19.6728

 eigenvalue-minimisations  :     0
 total energy-change (2. order) :-0.5473292E+01  (-0.6479015E+01)
 number of electron     828.0000096 magnetization     130.0000124
 augmentation part      283.9826241 magnetization      90.6741548

 Free energy of the ion-electron system (eV)
  ---------------------------------------------------
  alpha Z        PSCENC =      2332.72493728
  Ewald energy   TEWEN  =    -61291.62459361
  -Hartree energ DENC   =    -30545.89323443
  -exchange      EXHF   =         0.00000000
  -V(xc)+E(xc)   XCENC  =      3509.17644064
  PAW double counting   =     99264.04221978  -102428.34026939
  entropy T*S    EENTRO =        -0.13024955
  eigenvalues    EBANDS =    -12074.30023087
  atomic energy  EATOM  =    100699.33914061
  ---------------------------------------------------
  free energy    TOTEN  =      -534.99664559 eV

  energy without entropy =     -534.86639604  energy(sigma->0) =     -534.93152082


--------------------------------------------------------------------------------------------------------




--------------------------------------- Iteration      1(  11)  ---------------------------------------


    POTLOK:  cpu time    0.4414: real time    0.4417
    SETDIJ:  cpu time    0.4782: real time    0.4782
    TRIAL :  cpu time   14.2509: real time   14.2598
    CORREC:  cpu time    3.9065: real time    3.9087
    CHARGE:  cpu time    0.6018: real time    0.6018
    --------------------------------------------
      LOOP:  cpu time   19.6818: real time   19.6932

 eigenvalue-minimisations  :     0
 total energy-change (2. order) :-0.5926663E+01  (-0.6470692E+01)
 number of electron     828.0000098 magnetization     130.0000064
 augmentation part      282.5364578 magnetization      89.2967312

 Free energy of the ion-electron system (eV)
  ---------------------------------------------------
  alpha Z        PSCENC =      2332.72493728
  Ewald energy   TEWEN  =    -61291.62459361
  -Hartree energ DENC   =    -30475.65633160
  -exchange      EXHF   =         0.00000000
  -V(xc)+E(xc)   XCENC  =      3502.34871912
  PAW double counting   =     98719.63149438  -101815.77827391
  entropy T*S    EENTRO =        -0.09245303
  eigenvalues    EBANDS =    -12211.77815172
  atomic energy  EATOM  =    100699.33914061
  ---------------------------------------------------
  free energy    TOTEN  =      -540.92330900 eV

  energy without entropy =     -540.83085597  energy(sigma->0) =     -540.87708248


--------------------------------------------------------------------------------------------------------




--------------------------------------- Iteration      1(  12)  ---------------------------------------


    POTLOK:  cpu time    0.4423: real time    0.4426
    SETDIJ:  cpu time    0.4767: real time    0.4767
    TRIAL :  cpu time   14.2649: real time   14.2705
    CORREC:  cpu time    3.9227: real time    3.9247
    CHARGE:  cpu time    0.6074: real time    0.6076
    --------------------------------------------
      LOOP:  cpu time   19.7172: real time   19.7255

 eigenvalue-minimisations  :     0
 total energy-change (2. order) :-0.4000791E+01  (-0.3006256E+01)
 number of electron     828.0000099 magnetization     130.0000063
 augmentation part      282.7306645 magnetization      88.5086164

 Free energy of the ion-electron system (eV)
  ---------------------------------------------------
  alpha Z        PSCENC =      2332.72493728
  Ewald energy   TEWEN  =    -61291.62459361
  -Hartree energ DENC   =    -30421.40037022
  -exchange      EXHF   =         0.00000000
  -V(xc)+E(xc)   XCENC  =      3496.54803007
  PAW double counting   =     98290.30054259  -101327.99986508
  entropy T*S    EENTRO =        -0.06452791
  eigenvalues    EBANDS =    -12322.71946889
  atomic energy  EATOM  =    100699.33914061
  ---------------------------------------------------
  free energy    TOTEN  =      -544.92410028 eV

  energy without entropy =     -544.85957237  energy(sigma->0) =     -544.89183633


--------------------------------------------------------------------------------------------------------




--------------------------------------- Iteration      1(  13)  ---------------------------------------


    POTLOK:  cpu time    0.4409: real time    0.4409
    SETDIJ:  cpu time    0.4800: real time    0.4801
    TRIAL :  cpu time   14.2438: real time   14.2499
    CORREC:  cpu time    3.8843: real time    3.8856
    CHARGE:  cpu time    0.6106: real time    0.6109
    --------------------------------------------
      LOOP:  cpu time   19.6613: real time   19.6691

 eigenvalue-minimisations  :     0
 total energy-change (2. order) :-0.2686509E+01  (-0.2332562E+01)
 number of electron     828.0000099 magnetization     130.0000063
 augmentation part      283.7175738 magnetization      88.0150101

 Free energy of the ion-electron system (eV)
  ---------------------------------------------------
  alpha Z        PSCENC =      2332.72493728
  Ewald energy   TEWEN  =    -61291.62459361
  -Hartree energ DENC   =    -30516.57968865
  -exchange      EXHF   =         0.00000000
  -V(xc)+E(xc)   XCENC  =      3498.52208128
  PAW double counting   =     98217.11044150  -101253.80752866
  entropy T*S    EENTRO =        -0.10018084
  eigenvalues    EBANDS =    -12233.23087115
  atomic energy  EATOM  =    100699.33914061
  ---------------------------------------------------
  free energy    TOTEN  =      -547.61060932 eV

  energy without entropy =     -547.51042848  energy(sigma->0) =     -547.56051890


--------------------------------------------------------------------------------------------------------




--------------------------------------- Iteration      1(  14)  ---------------------------------------


    POTLOK:  cpu time    0.4399: real time    0.4399
    SETDIJ:  cpu time    0.4817: real time    0.4817
    TRIAL :  cpu time   14.2677: real time   14.2739
    CORREC:  cpu time    3.8718: real time    3.8730
    CHARGE:  cpu time    0.5982: real time    0.5983
    --------------------------------------------
      LOOP:  cpu time   19.6625: real time   19.6699

 eigenvalue-minimisations  :     0
 total energy-change (2. order) :-0.3039988E+01  (-0.1979086E+01)
 number of electron     828.0000099 magnetization     130.0000064
 augmentation part      284.6968504 magnetization      87.6885575

 Free energy of the ion-electron system (eV)
  ---------------------------------------------------
  alpha Z        PSCENC =      2332.72493728
  Ewald energy   TEWEN  =    -61291.62459361
  -Hartree energ DENC   =    -30689.67703429
  -exchange      EXHF   =         0.00000000
  -V(xc)+E(xc)   XCENC  =      3504.30920104
  PAW double counting   =     98272.76454230  -101335.75603298
  entropy T*S    EENTRO =        -0.15014242
  eigenvalues    EBANDS =    -12042.63057715
  atomic energy  EATOM  =    100699.33914061
  ---------------------------------------------------
  free energy    TOTEN  =      -550.65059764 eV

  energy without entropy =     -550.50045523  energy(sigma->0) =     -550.57552644


--------------------------------------------------------------------------------------------------------




--------------------------------------- Iteration      1(  15)  ---------------------------------------


    POTLOK:  cpu time    0.4400: real time    0.4403
    SETDIJ:  cpu time    0.4799: real time    0.4799
    TRIAL :  cpu time   14.2554: real time   14.2639
    CORREC:  cpu time    3.8574: real time    3.8587
    CHARGE:  cpu time    0.5838: real time    0.5841
    --------------------------------------------
      LOOP:  cpu time   19.6186: real time   19.6289

 eigenvalue-minimisations  :     0
 total energy-change (2. order) :-0.1763697E+01  (-0.6606874E+00)
 number of electron     828.0000099 magnetization     130.0000064
 augmentation part      285.3873343 magnetization      87.4331617

 Free energy of the ion-electron system (eV)
  ---------------------------------------------------
  alpha Z        PSCENC =      2332.72493728
  Ewald energy   TEWEN  =    -61291.62459361
  -Hartree energ DENC   =    -30845.10349809
  -exchange      EXHF   =         0.00000000
  -V(xc)+E(xc)   XCENC  =      3509.79242255
  PAW double counting   =     98272.62813988  -101364.13917804
  entropy T*S    EENTRO =        -0.15868627
  eigenvalues    EBANDS =    -11865.88152326
  atomic energy  EATOM  =    100699.33914061
  ---------------------------------------------------
  free energy    TOTEN  =      -552.41429510 eV

  energy without entropy =     -552.25560883  energy(sigma->0) =     -552.33495196


--------------------------------------------------------------------------------------------------------




--------------------------------------- Iteration      1(  16)  ---------------------------------------


    POTLOK:  cpu time    0.4405: real time    0.4405
    SETDIJ:  cpu time    0.4805: real time    0.4806
    TRIAL :  cpu time   14.0409: real time   14.0489
    CORREC:  cpu time    3.8488: real time    3.8499
    CHARGE:  cpu time    0.5883: real time    0.5883
    --------------------------------------------
      LOOP:  cpu time   19.4012: real time   19.4104

 eigenvalue-minimisations  :     0
 total energy-change (2. order) :-0.4559152E+00  (-0.9784088E+00)
 number of electron     828.0000099 magnetization     130.0000064
 augmentation part      285.9939812 magnetization      87.1373667

 Free energy of the ion-electron system (eV)
  ---------------------------------------------------
  alpha Z        PSCENC =      2332.72493728
  Ewald energy   TEWEN  =    -61291.62459361
  -Hartree energ DENC   =    -30952.01989461
  -exchange      EXHF   =         0.00000000
  -V(xc)+E(xc)   XCENC  =      3513.61008138
  PAW double counting   =     98219.88088852  -101332.12826731
  entropy T*S    EENTRO =        -0.14672560
  eigenvalues    EBANDS =    -11742.49381624
  atomic energy  EATOM  =    100699.33914061
  ---------------------------------------------------
  free energy    TOTEN  =      -552.87021026 eV

  energy without entropy =     -552.72348466  energy(sigma->0) =     -552.79684746


--------------------------------------------------------------------------------------------------------




--------------------------------------- Iteration      1(  17)  ---------------------------------------


    POTLOK:  cpu time    0.4397: real time    0.4401
    SETDIJ:  cpu time    0.4798: real time    0.4798
    TRIAL :  cpu time   14.2089: real time   14.2156
    CORREC:  cpu time    3.8641: real time    3.8671
    CHARGE:  cpu time    0.5859: real time    0.5862
    --------------------------------------------
      LOOP:  cpu time   19.5820: real time   19.5924

 eigenvalue-minimisations  :     0
 total energy-change (2. order) :-0.3414227E+00  (-0.1703543E+01)
 number of electron     828.0000098 magnetization     130.0000065
 augmentation part      285.6077838 magnetization      87.0926865

 Free energy of the ion-electron system (eV)
  ---------------------------------------------------
  alpha Z        PSCENC =      2332.72493728
  Ewald energy   TEWEN  =    -61291.62459361
  -Hartree energ DENC   =    -31043.75773848
  -exchange      EXHF   =         0.00000000
  -V(xc)+E(xc)   XCENC  =      3516.92865487
  PAW double counting   =     98100.45270517  -101231.63906743
  entropy T*S    EENTRO =        -0.14507609
  eigenvalues    EBANDS =    -11635.48894579
  atomic energy  EATOM  =    100699.33914061
  ---------------------------------------------------
  free energy    TOTEN  =      -553.21163300 eV

  energy without entropy =     -553.06655691  energy(sigma->0) =     -553.13909495


--------------------------------------------------------------------------------------------------------




--------------------------------------- Iteration      1(  18)  ---------------------------------------


    POTLOK:  cpu time    0.4403: real time    0.4403
    SETDIJ:  cpu time    0.4807: real time    0.4809
    TRIAL :  cpu time   14.0796: real time   14.0874
    CORREC:  cpu time    3.8455: real time    3.8466
    CHARGE:  cpu time    0.5963: real time    0.5963
    --------------------------------------------
      LOOP:  cpu time   19.4441: real time   19.4532

 eigenvalue-minimisations  :     0
 total energy-change (2. order) :-0.1247809E+01  (-0.1138897E+01)
 number of electron     828.0000097 magnetization     130.0000066
 augmentation part      284.9866484 magnetization      87.0155726

 Free energy of the ion-electron system (eV)
  ---------------------------------------------------
  alpha Z        PSCENC =      2332.72493728
  Ewald energy   TEWEN  =    -61291.62459361
  -Hartree energ DENC   =    -30980.32508441
  -exchange      EXHF   =         0.00000000
  -V(xc)+E(xc)   XCENC  =      3514.66583105
  PAW double counting   =     97864.85038263  -100984.90281356
  entropy T*S    EENTRO =        -0.13478754
  eigenvalues    EBANDS =    -11709.04216592
  atomic energy  EATOM  =    100699.33914061
  ---------------------------------------------------
  free energy    TOTEN  =      -554.45944202 eV

  energy without entropy =     -554.32465447  energy(sigma->0) =     -554.39204824


--------------------------------------------------------------------------------------------------------




--------------------------------------- Iteration      1(  19)  ---------------------------------------


    POTLOK:  cpu time    0.4395: real time    0.4401
    SETDIJ:  cpu time    0.4804: real time    0.4805
    TRIAL :  cpu time   14.2227: real time   14.2309
    CORREC:  cpu time    3.8662: real time    3.8675
    CHARGE:  cpu time    0.5809: real time    0.5835
    --------------------------------------------
      LOOP:  cpu time   19.5919: real time   19.6047

 eigenvalue-minimisations  :     0
 total energy-change (2. order) :-0.8937221E+00  (-0.1365459E+01)
 number of electron     828.0000095 magnetization     130.0000067
 augmentation part      284.2179608 magnetization      86.9445291

 Free energy of the ion-electron system (eV)
  ---------------------------------------------------
  alpha Z        PSCENC =      2332.72493728
  Ewald energy   TEWEN  =    -61291.62459361
  -Hartree energ DENC   =    -30879.69584434
  -exchange      EXHF   =         0.00000000
  -V(xc)+E(xc)   XCENC  =      3511.06751652
  PAW double counting   =     97492.12825277  -100594.44128954
  entropy T*S    EENTRO =        -0.10984459
  eigenvalues    EBANDS =    -11824.71649624
  atomic energy  EATOM  =    100699.33914061
  ---------------------------------------------------
  free energy    TOTEN  =      -555.35316411 eV

  energy without entropy =     -555.24331951  energy(sigma->0) =     -555.29824181


--------------------------------------------------------------------------------------------------------




--------------------------------------- Iteration      1(  20)  ---------------------------------------


    POTLOK:  cpu time    0.4413: real time    0.4413
    SETDIJ:  cpu time    0.4822: real time    0.4824
    TRIAL :  cpu time   14.0454: real time   14.0511
    CORREC:  cpu time    3.8339: real time    3.8351
    CHARGE:  cpu time    0.5970: real time    0.5971
    --------------------------------------------
      LOOP:  cpu time   19.4037: real time   19.4107

 eigenvalue-minimisations  :     0
 total energy-change (2. order) :-0.1227972E+01  (-0.6021377E+00)
 number of electron     828.0000094 magnetization     130.0000068
 augmentation part      284.1530769 magnetization      86.9854208

 Free energy of the ion-electron system (eV)
  ---------------------------------------------------
  alpha Z        PSCENC =      2332.72493728
  Ewald energy   TEWEN  =    -61291.62459361
  -Hartree energ DENC   =    -30754.37979266
  -exchange      EXHF   =         0.00000000
  -V(xc)+E(xc)   XCENC  =      3506.61613118
  PAW double counting   =     97009.85655256  -100090.50181730
  entropy T*S    EENTRO =        -0.08762920
  eigenvalues    EBANDS =    -11968.50184913
  atomic energy  EATOM  =    100699.33914061
  ---------------------------------------------------
  free energy    TOTEN  =      -556.58113566 eV

  energy without entropy =     -556.49350647  energy(sigma->0) =     -556.53732106


--------------------------------------------------------------------------------------------------------




--------------------------------------- Iteration      1(  21)  ---------------------------------------


    POTLOK:  cpu time    0.4401: real time    0.4407
    SETDIJ:  cpu time    0.4838: real time    0.4838
    TRIAL :  cpu time   14.2163: real time   14.2226
    CORREC:  cpu time    3.8507: real time    3.8520
    CHARGE:  cpu time    0.5838: real time    0.5841
    --------------------------------------------
      LOOP:  cpu time   19.5769: real time   19.5853

 eigenvalue-minimisations  :     0
 total energy-change (2. order) :-0.4241651E+00  (-0.8108271E+00)
 number of electron     828.0000093 magnetization     130.0000070
 augmentation part      284.4431528 magnetization      87.1708610

 Free energy of the ion-electron system (eV)
  ---------------------------------------------------
  alpha Z        PSCENC =      2332.72493728
[...]
      9.41111     -5.55597      1.95754        -0.002527      0.000768     -0.009021
      5.58113      2.13448      1.94110        -0.002874      0.001021      0.001242
      9.40390     -1.72551      1.98431        -0.000623      0.003510      0.005042
     13.26356     -1.71549      1.93565        -0.001366      0.002493      0.001343
      7.48478     -7.49017      4.47457         0.003700      0.005852      0.000333
      3.63658      0.24487      4.48341        -0.010861      0.009045     -0.001850
      7.43776     -3.68299      4.43603         0.015113      0.013309      0.011474
     11.37050     -3.65491      4.44682        -0.001464     -0.000325      0.003826
      7.48797     -7.48705      8.38185         0.003996      0.005926     -0.000290
      3.63990      0.24799      8.36661        -0.011002      0.009151      0.002056
      7.44100     -3.67969      8.41417         0.015208      0.013235     -0.011259
     11.37382     -3.65170      8.39685        -0.001471     -0.000517     -0.003776
      5.58254     -9.39924     10.91438        -0.001306      0.002532     -0.001686
      1.73591     -1.70201     10.90449        -0.002872      0.001172      0.000380
      5.56566     -5.56642     10.91493         0.001783      0.004047     -0.001926
      9.41849     -5.54861     10.89253        -0.002534      0.000700      0.008948
      9.41261      2.13718      1.92924        -0.001954      0.000217      0.000745
      5.55830     -5.57383      1.94158         0.001446      0.003795      0.001969
      1.72850     -1.70937      1.95184        -0.003159      0.000860     -0.000509
      5.56831     -1.71039      1.99571        -0.002207      0.002834      0.002769
      7.49726      0.23025      4.45780        -0.003323      0.004267      0.000904
     11.32065      0.20872      4.46065         0.000157      0.002254      0.002471
      7.50044      4.06526      4.46493        -0.002914      0.001561      0.000560
      3.61047     -3.66457      4.48349        -0.001326      0.001558     -0.003278
      7.50038      0.23333      8.38593        -0.003569      0.004190     -0.000970
      3.63540     -7.47912      8.38949         0.000206      0.002178     -0.002632
     -0.18472     -3.62268      8.38505        -0.003025      0.001649     -0.000707
      3.61385     -3.66119      8.37304        -0.001357      0.001770      0.003294
      5.57558     -1.70318     10.85441        -0.002320      0.002745     -0.002871
      9.41118     -1.71822     10.85945        -0.000870      0.003163     -0.005067
      5.58859      2.14183     10.90258        -0.003244      0.000797     -0.001309
      1.73165     -5.54651     10.92083        -0.001866      0.000282     -0.000760
 -----------------------------------------------------------------------------------
    total drift:                               -0.000354     -0.003168     -0.000634


--------------------------------------------------------------------------------------------------------



  FREE ENERGIE OF THE ION-ELECTRON SYSTEM (eV)
  ---------------------------------------------------
  free  energy   TOTEN  =      -585.27142606 eV

  energy  without entropy=     -585.24265819  energy(sigma->0) =     -585.25704213



--------------------------------------------------------------------------------------------------------


    POTLOK:  cpu time    0.9095: real time    0.9178


--------------------------------------------------------------------------------------------------------


 NEB: the previous image is higher in energy: F
 NEB: the next image is higher in energy    : T
 NEB: only next energy greater

 NEB: Tangent
 ----------------------------------------------
      0.01050      0.00008      0.00713
     -0.00207      0.00162      0.00687
      0.00838      0.01270     -0.01933
      0.02068     -0.01378     -0.00918
     -0.00953      0.11044      0.04911
      0.01156     -0.01960      0.00070
      0.15540      0.04502     -0.03186
      0.02435      0.00139     -0.00127
      0.02467      0.00096      0.00120
      0.00357     -0.00064     -0.00134
      0.01614     -0.02011      0.00676
     -0.00999      0.11057     -0.04941
      0.01048      0.00011     -0.00724
     -0.00216      0.00158     -0.00688
      0.00871      0.01367      0.01941
      0.02025     -0.01324      0.00912
      0.00594     -0.00766      0.00185
      0.02380      0.00846     -0.00491
      0.00132     -0.00785     -0.00077
      0.00943     -0.00501      0.00217
     -0.00120     -0.00091     -0.00417
      0.01623     -0.01981     -0.00654
      0.00353     -0.00039      0.00138
     -0.01817      0.00019     -0.01339
     -0.01741      0.00096      0.01321
      0.15526      0.04502      0.03146
      0.01102     -0.02002     -0.00061
     -0.00071     -0.00089      0.00421
      0.00576     -0.00742     -0.00182
      0.02351      0.00876      0.00480
      0.00111     -0.00807      0.00076
      0.00956     -0.00489     -0.00225
      0.00748     -0.00172      0.00895
      0.01084     -0.01018     -0.00310
      0.01081     -0.01002      0.00303
      0.00749     -0.00168     -0.00905
      0.00903     -0.00112      0.00004
      0.08982     -0.01500     -0.00023
     -0.67260      0.52876     -0.00000
     -0.26850     -0.04941      0.00083
      0.00707     -0.02305     -0.00004
     -0.00537     -0.06695      0.00011
      0.00652      0.03272     -0.00030
     -0.00903      0.01691      0.00003
      0.01136     -0.00591     -0.00948
      0.00938     -0.00366     -0.00272
     -0.00489     -0.00876      0.00427
     -0.00605     -0.00243     -0.00631
      0.00302     -0.01569      0.01008
      0.00340      0.00096      0.00108
      0.00337      0.00097     -0.00118
      0.00299     -0.01558     -0.00998
     -0.08074      0.01907      0.00015
      0.02328     -0.02621      0.00005
      0.05983     -0.00020      0.00017
      0.00124     -0.00780      0.00001
      0.01843      0.09066      0.00021
      0.00261      0.05564      0.00044
     -0.01294     -0.10319     -0.00016
     -0.00598     -0.00233      0.00646
     -0.00483     -0.00872     -0.00433
      0.00937     -0.00367      0.00287
      0.01137     -0.00585      0.00923
      0.00927      0.00022      0.00002
      0.00346     -0.00336      0.00093
      0.01069     -0.00696     -0.00701
     -0.00062     -0.00172      0.00004
      0.00323     -0.00204      0.00344
      0.05160     -0.03232     -0.00003
      0.00040     -0.03446     -0.00002
      0.00322     -0.00202     -0.00348
      0.01129      0.05992     -0.00009
      0.01067     -0.00691      0.00693
      0.00344     -0.00338     -0.00095
     -0.01314     -0.03641      0.00013
      0.00768     -0.01151      0.00260
     -0.00500     -0.02033      0.00001
     -0.00125     -0.00110      0.00001
      0.00760     -0.01158     -0.00260
      0.01401     -0.00772      0.03579
      0.00664     -0.00487     -0.00130
      0.00439     -0.00981     -0.01510
      0.00572     -0.01016     -0.00506
     -0.01141     -0.02561      0.00061
      0.04953     -0.04369      0.00606
     -0.06357     -0.05317     -0.04652
      0.00432      0.00712     -0.01268
     -0.01131     -0.02551     -0.00062
      0.04965     -0.04381     -0.00612
     -0.06336     -0.05296      0.04676
      0.00434      0.00714      0.01264
      0.00578     -0.01016      0.00500
      0.00917     -0.00883     -0.00370
     -0.00494     -0.01575      0.01143
      0.01396     -0.00779     -0.03591
      0.00732     -0.00222     -0.00291
     -0.00488     -0.01574     -0.01134
      0.00908     -0.00879      0.00368
      0.01020     -0.01113     -0.01339
      0.01269     -0.01089     -0.00025
      0.00184     -0.00535     -0.00801
      0.00817     -0.00923      0.00208
      0.00758     -0.00498      0.01197
      0.01289     -0.01078      0.00023
      0.00180     -0.00546      0.00799
      0.00815     -0.00924     -0.00209
      0.00744     -0.00517     -0.01202
      0.01033     -0.01106      0.01324
      0.00443     -0.00975      0.01509
      0.00667     -0.00490      0.00130
      0.00729     -0.00225      0.00291

 NEB: forces: par spring, perp REAL, dneb     0.007914    0.031813    0.000000
 NEB: distance to prev, next image, angle between     0.488158    0.489740  134.651064
 NEB: projections on to tangent (spring, REAL)     0.007914   -0.246295

 stress matrix after NEB project (eV)
    -11.86906      0.11865     -0.00756
      0.11859    -11.38649     -0.00412
     -0.00752     -0.00411    -16.06462
  FORCES: max atom, RMS     0.013078    0.003112
  FORCE total and by dimension    0.032783    0.013074
  Stress total and by dimension   22.991895   16.064625
 OPT: skip step - force has converged


--------------------------------------------------------------------------------------------------------


  
 reached required accuracy - stopping structural energy minimisation
 writing wavefunctions
     LOOP+:  cpu time 4003.6028: real time 4006.7140
    4ORBIT:  cpu time    0.0000: real time    0.0000



 total charge

# of ion       s       p       d       tot
------------------------------------------
    1        0.241   6.210   5.909  12.359
    2        0.241   6.209   5.908  12.358
    3        0.243   6.214   5.912  12.370
    4        0.242   6.212   5.911  12.365
    5        0.242   6.212   5.907  12.360
    6        0.242   6.212   5.907  12.360
    7        0.242   6.211   5.905  12.358
    8        0.240   6.209   5.908  12.357
    9        0.240   6.209   5.908  12.357
   10        0.240   6.210   5.908  12.358
   11        0.241   6.211   5.908  12.360
   12        0.242   6.212   5.907  12.360
   13        0.241   6.210   5.909  12.359
   14        0.241   6.209   5.908  12.358
   15        0.243   6.214   5.912  12.370
   16        0.242   6.212   5.911  12.365
   17        0.243   6.212   5.909  12.364
   18        0.242   6.210   5.909  12.361
   19        0.240   6.209   5.908  12.357
   20        0.241   6.209   5.907  12.356
   21        0.241   6.212   5.908  12.361
   22        0.241   6.211   5.908  12.360
   23        0.240   6.210   5.908  12.358
   24        0.244   6.215   5.906  12.365
   25        0.244   6.215   5.906  12.365
   26        0.242   6.211   5.905  12.358
   27        0.242   6.212   5.907  12.360
   28        0.241   6.212   5.908  12.361
   29        0.243   6.212   5.909  12.364
   30        0.242   6.210   5.909  12.361
   31        0.240   6.209   5.908  12.357
   32        0.241   6.209   5.907  12.356
   33        2.025   0.064   0.000   2.089
   34        2.025   0.064   0.000   2.089
   35        2.025   0.064   0.000   2.089
   36        2.025   0.064   0.000   2.089
   37        2.024   0.063   0.000   2.087
   38        2.024   0.061   0.000   2.085
   39        2.027   0.067   0.000   2.093
   40        2.025   0.062   0.000   2.087
   41        2.025   0.064   0.000   2.089
   42        2.027   0.067   0.000   2.094
   43        2.026   0.065   0.000   2.091
   44        2.024   0.062   0.000   2.085
   45        2.025   0.064   0.000   2.090
   46        2.026   0.065   0.000   2.090
   47        2.025   0.064   0.000   2.090
   48        2.025   0.064   0.000   2.089
   49        2.026   0.065   0.000   2.091
   50        2.025   0.064   0.000   2.089
   51        2.025   0.064   0.000   2.089
   52        2.026   0.065   0.000   2.091
   53        2.024   0.061   0.000   2.085
   54        2.026   0.065   0.000   2.091
   55        2.024   0.063   0.000   2.087
   56        2.026   0.066   0.000   2.092
   57        2.028   0.067   0.000   2.094
   58        2.027   0.066   0.000   2.093
   59        2.026   0.064   0.000   2.090
   60        2.025   0.064   0.000   2.089
   61        2.025   0.064   0.000   2.090
   62        2.026   0.065   0.000   2.090
   63        2.025   0.064   0.000   2.090
   64        1.549   3.503   0.000   5.052
   65        1.549   3.500   0.000   5.048
   66        1.549   3.501   0.000   5.050
   67        1.549   3.499   0.000   5.048
   68        1.549   3.500   0.000   5.049
   69        1.551   3.497   0.000   5.048
   70        1.549   3.490   0.000   5.039
   71        1.549   3.500   0.000   5.049
   72        1.550   3.496   0.000   5.046
   73        1.549   3.501   0.000   5.050
   74        1.549   3.500   0.000   5.048
   75        1.549   3.500   0.000   5.049
   76        1.549   3.502   0.000   5.051
   77        1.549   3.502   0.000   5.051
   78        1.549   3.503   0.000   5.052
   79        1.549   3.502   0.000   5.051
   80        1.320   2.426   0.000   3.746
   81        1.320   2.428   0.000   3.748
   82        1.320   2.421   0.000   3.741
   83        1.320   2.429   0.000   3.749
   84        1.320   2.428   0.000   3.748
   85        1.322   2.417   0.000   3.739
   86        1.320   2.435   0.000   3.755
   87        1.321   2.426   0.000   3.748
   88        1.320   2.428   0.000   3.748
   89        1.322   2.417   0.000   3.739
   90        1.320   2.435   0.000   3.755
   91        1.321   2.426   0.000   3.748
   92        1.320   2.429   0.000   3.749
   93        1.320   2.429   0.000   3.748
   94        1.320   2.428   0.000   3.748
   95        1.320   2.426   0.000   3.746
   96        1.320   2.428   0.000   3.748
   97        1.320   2.428   0.000   3.748
   98        1.320   2.429   0.000   3.749
   99        1.320   2.419   0.000   3.740
  100        1.322   2.420   0.000   3.741
  101        1.321   2.422   0.000   3.744
  102        1.320   2.426   0.000   3.747
  103        1.321   2.421   0.000   3.742
  104        1.322   2.420   0.000   3.741
  105        1.321   2.422   0.000   3.744
  106        1.320   2.426   0.000   3.747
  107        1.321   2.421   0.000   3.742
  108        1.320   2.419   0.000   3.740
  109        1.320   2.421   0.000   3.741
  110        1.320   2.428   0.000   3.748
  111        1.320   2.428   0.000   3.748
--------------------------------------------------
tot        137.558 334.345 189.059 660.962



 magnetization (x)

# of ion       s       p       d       tot
------------------------------------------
    1        0.040   0.030   3.571   3.641
    2        0.041   0.030   3.571   3.641
    3        0.041   0.030   3.564   3.635
    4        0.041   0.030   3.567   3.637
    5        0.040   0.030   3.558   3.629
    6        0.040   0.030   3.557   3.627
    7        0.043   0.031   3.549   3.623
    8        0.040   0.030   3.572   3.642
    9        0.040   0.030   3.572   3.642
   10        0.040   0.030   3.571   3.641
   11        0.039   0.030   3.566   3.635
   12        0.040   0.030   3.558   3.629
   13        0.040   0.030   3.571   3.641
   14        0.041   0.030   3.571   3.641
   15        0.041   0.030   3.564   3.635
   16        0.041   0.030   3.567   3.637
   17        0.041   0.030   3.564   3.635
   18        0.041   0.030   3.568   3.639
   19        0.040   0.030   3.572   3.642
   20        0.041   0.030   3.569   3.640
   21        0.039   0.030   3.563   3.632
   22        0.039   0.030   3.566   3.635
   23        0.040   0.030   3.571   3.641
   24        0.042   0.032   3.545   3.619
   25        0.042   0.032   3.545   3.619
   26        0.043   0.031   3.549   3.623
   27        0.040   0.030   3.557   3.626
   28        0.039   0.030   3.563   3.632
   29        0.041   0.030   3.564   3.635
   30        0.041   0.030   3.568   3.639
   31        0.040   0.030   3.572   3.642
   32        0.041   0.030   3.569   3.640
   33        0.000   0.001   0.000   0.001
   34        0.000   0.001   0.000   0.001
   35        0.000   0.001   0.000   0.001
   36        0.000   0.001   0.000   0.001
   37        0.000   0.001   0.000   0.001
   38       -0.000   0.001   0.000   0.001
   39        0.000   0.001   0.000   0.001
   40       -0.000   0.001   0.000   0.001
   41        0.000   0.001   0.000   0.001
   42        0.000   0.001   0.000   0.001
   43        0.000   0.001   0.000   0.001
   44       -0.000   0.001   0.000   0.001
   45        0.000   0.001   0.000   0.001
   46        0.000   0.001   0.000   0.001
   47       -0.000   0.001   0.000   0.001
   48        0.000   0.001   0.000   0.001
   49        0.000   0.001   0.000   0.001
   50        0.000   0.001   0.000   0.001
   51        0.000   0.001   0.000   0.001
   52        0.000   0.001   0.000   0.001
   53       -0.000   0.001   0.000   0.001
   54        0.000   0.001   0.000   0.001
   55       -0.000   0.001   0.000   0.001
   56        0.000   0.001   0.000   0.001
   57        0.000   0.001   0.000   0.001
   58        0.000   0.001   0.000   0.001
   59       -0.000   0.001   0.000   0.001
   60        0.000   0.001   0.000   0.001
   61       -0.000   0.001   0.000   0.001
   62        0.000   0.001   0.000   0.001
   63        0.000   0.001   0.000   0.001
   64        0.009   0.099   0.000   0.108
   65        0.009   0.091   0.000   0.100
   66        0.009   0.095   0.000   0.104
   67        0.009   0.090   0.000   0.099
   68        0.009   0.095   0.000   0.104
   69        0.008   0.098   0.000   0.107
   70        0.009   0.092   0.000   0.101
   71        0.009   0.095   0.000   0.104
   72        0.008   0.098   0.000   0.106
   73        0.009   0.095   0.000   0.104
   74        0.009   0.091   0.000   0.100
   75        0.009   0.096   0.000   0.105
   76        0.009   0.094   0.000   0.103
   77        0.009   0.099   0.000   0.108
   78        0.009   0.095   0.000   0.104
   79        0.009   0.094   0.000   0.103
   80        0.016   0.061   0.000   0.076
   81        0.016   0.062   0.000   0.078
   82        0.015   0.055   0.000   0.070
   83        0.016   0.065   0.000   0.081
   84        0.016   0.065   0.000   0.081
   85        0.015   0.054   0.000   0.069
   86        0.016   0.051   0.000   0.067
   87        0.015   0.053   0.000   0.068
   88        0.016   0.065   0.000   0.081
   89        0.015   0.054   0.000   0.069
   90        0.016   0.051   0.000   0.067
   91        0.015   0.053   0.000   0.068
   92        0.016   0.065   0.000   0.081
   93        0.016   0.065   0.000   0.081
   94        0.016   0.064   0.000   0.080
   95        0.016   0.061   0.000   0.076
   96        0.016   0.062   0.000   0.078
   97        0.016   0.064   0.000   0.080
   98        0.016   0.065   0.000   0.081
   99        0.015   0.054   0.000   0.069
  100        0.015   0.046   0.000   0.062
  101        0.016   0.061   0.000   0.076
  102        0.016   0.065   0.000   0.081
  103        0.015   0.057   0.000   0.072
  104        0.015   0.046   0.000   0.062
  105        0.016   0.061   0.000   0.076
  106        0.016   0.065   0.000   0.081
  107        0.015   0.057   0.000   0.072
  108        0.015   0.054   0.000   0.069
  109        0.015   0.055   0.000   0.070
  110        0.016   0.062   0.000   0.078
  111        0.016   0.062   0.000   0.078
--------------------------------------------------
tot          1.936   4.384 114.057 120.376


 total amount of memory used by VASP MPI-rank0   753861. kBytes
=======================================================================

   base      :      30000. kBytes
   nonl-proj :      65627. kBytes
   fftplans  :      12748. kBytes
   grid      :      36360. kBytes
   one-center:        870. kBytes
   wavefun   :     608256. kBytes

  
  
 General timing and accounting informations for this job:
 ========================================================
  
                  Total CPU time used (sec):     4069.361
                            User time (sec):     4050.865
                          System time (sec):       18.496
                         Elapsed time (sec):     4086.456
  
                   Maximum memory used (kb):     1141452.
                   Average memory used (kb):          N/A
  
                          Minor page faults:      2275831
                          Major page faults:            2
                 Voluntary context switches:         3681
