  224  224    1    2
  0.1357572E+02  0.1537960E-08  0.1537962E-08  0.1395899E-08  0.5000000E-15
  1.000000000000000E-004
  CAR 
 unknown system                          
   1664      8   1208
 
  0.0000000E+00  0.0000000E+00  0.0000000E+00  0.1250000E+00
    1      -51.142110    -46.391457   1.000000   1.000000
    2      -51.141871    -46.390991   1.000000   1.000000
    3      -51.141552    -46.390896   1.000000   1.000000
    4      -51.141490    -46.390751   1.000000   1.000000
    5      -51.141402    -46.390676   1.000000   1.000000
    6      -51.141248    -46.390543   1.000000   1.000000
    7      -51.141241    -46.390443   1.000000   1.000000
    8      -51.141229    -46.390356   1.000000   1.000000
    9      -51.141184    -46.390325   1.000000   1.000000
   10      -51.141106    -46.390286   1.000000   1.000000
   11      -51.141042    -46.390196   1.000000   1.000000
   12      -51.141030    -46.390144   1.000000   1.000000
   13      -51.140984    -46.390101   1.000000   1.000000
   14      -51.140934    -46.390047   1.000000   1.000000
   15      -51.140914    -46.390012   1.000000   1.000000
   16      -51.140874    -46.389909   1.000000   1.000000
   17      -51.140845    -46.389883   1.000000   1.000000
   18      -51.140786    -46.389861   1.000000   1.000000
   19      -51.140777    -46.389821   1.000000   1.000000
   20      -51.140736    -46.389791   1.000000   1.000000
   21      -51.140676    -46.389643   1.000000   1.000000
   22      -51.140620    -46.389621   1.000000   1.000000
   23      -51.140593    -46.389610   1.000000   1.000000
   24      -51.140567    -46.389558   1.000000   1.000000
   25      -51.140532    -46.389542   1.000000   1.000000
   26      -51.140516    -46.389534   1.000000   1.000000
   27      -51.140504    -46.389509   1.000000   1.000000
   28      -51.140495    -46.389492   1.000000   1.000000
   29      -51.140473    -46.389475   1.000000   1.000000
   30      -51.140465    -46.389451   1.000000   1.000000
   31      -51.140449    -46.389256   1.000000   1.000000
   32      -51.140378    -46.389210   1.000000   1.000000
   33      -51.140292    -46.389183   1.000000   1.000000
   34      -51.140275    -46.389111   1.000000   1.000000
   35      -51.140241    -46.389051   1.000000   1.000000
   36      -51.140164    -46.388999   1.000000   1.000000
   37      -51.140137    -46.388906   1.000000   1.000000
   38      -51.140117    -46.388880   1.000000   1.000000
   39      -51.140098    -46.388873   1.000000   1.000000
   40      -51.140079    -46.388854   1.000000   1.000000
   41      -51.140067    -46.388829   1.000000   1.000000
   42      -51.140053    -46.388796   1.000000   1.000000
   43      -51.140022    -46.388783   1.000000   1.000000
   44      -51.140004    -46.388761   1.000000   1.000000
   45      -51.139988    -46.388734   1.000000   1.000000
   46      -51.139936    -46.388691   1.000000   1.000000
   47      -51.139888    -46.388615   1.000000   1.000000
   48      -51.139848    -46.388585   1.000000   1.000000
   49      -51.139825    -46.388524   1.000000   1.000000
   50      -51.139789    -46.388503   1.000000   1.000000
   51      -51.139776    -46.388485   1.000000   1.000000
   52      -51.139714    -46.388401   1.000000   1.000000
   53      -51.139678    -46.388383   1.000000   1.000000
   54      -51.139628    -46.388334   1.000000   1.000000
   55      -51.139585    -46.388200   1.000000   1.000000
   56      -51.139551    -46.388172   1.000000   1.000000
   57      -51.139504    -46.388106   1.000000   1.000000
   58      -51.139449    -46.388096   1.000000   1.000000
   59      -51.139373    -46.387995   1.000000   1.000000
   60      -51.139283    -46.387854   1.000000   1.000000
   61      -51.139113    -46.387746   1.000000   1.000000
   62      -51.139077    -46.387638   1.000000   1.000000
   63      -51.138466    -46.387261   1.000000   1.000000
   64      -51.138371    -46.386998   1.000000   1.000000
   65      -49.647872    -45.929502   1.000000   1.000000
   66      -49.647818    -45.929389   1.000000   1.000000
   67      -49.647715    -45.929365   1.000000   1.000000
   68      -49.647653    -45.929289   1.000000   1.000000
   69      -49.647601    -45.928968   1.000000   1.000000
   70      -49.647575    -45.928930   1.000000   1.000000
   71      -49.647526    -45.928910   1.000000   1.000000
   72      -49.647460    -45.928837   1.000000   1.000000
   73      -49.647406    -45.928792   1.000000   1.000000
   74      -49.647377    -45.928741   1.000000   1.000000
   75      -49.647365    -45.928709   1.000000   1.000000
   76      -49.647322    -45.928695   1.000000   1.000000
   77      -49.647276    -45.928673   1.000000   1.000000
   78      -49.647255    -45.928651   1.000000   1.000000
   79      -49.647250    -45.928634   1.000000   1.000000
   80      -49.647232    -45.928606   1.000000   1.000000
   81      -49.647209    -45.928577   1.000000   1.000000
   82      -49.647188    -45.928539   1.000000   1.000000
   83      -49.647137    -45.928522   1.000000   1.000000
   84      -49.647105    -45.928465   1.000000   1.000000
   85      -49.647099    -45.928439   1.000000   1.000000
   86      -49.647089    -45.928399   1.000000   1.000000
   87      -49.647079    -45.928369   1.000000   1.000000
   88      -49.647053    -45.928366   1.000000   1.000000
   89      -49.646959    -45.928356   1.000000   1.000000
   90      -49.646945    -45.928318   1.000000   1.000000
   91      -49.646897    -45.928264   1.000000   1.000000
   92      -49.646824    -45.928248   1.000000   1.000000
   93      -49.646783    -45.928234   1.000000   1.000000
   94      -49.646770    -45.928217   1.000000   1.000000
   95      -49.646735    -45.928169   1.000000   1.000000
   96      -49.646720    -45.928145   1.000000   1.000000
   97      -49.646696    -45.928102   1.000000   1.000000
   98      -49.646662    -45.928081   1.000000   1.000000
   99      -49.646585    -45.928054   1.000000   1.000000
  100      -49.646569    -45.928024   1.000000   1.000000
  101      -49.646520    -45.927962   1.000000   1.000000
  102      -49.646514    -45.927943   1.000000   1.000000
  103      -49.646450    -45.927932   1.000000   1.000000
  104      -49.646405    -45.927883   1.000000   1.000000
  105      -49.646349    -45.927825   1.000000   1.000000
  106      -49.646328    -45.927807   1.000000   1.000000
  107      -49.646280    -45.927763   1.000000   1.000000
  108      -49.646245    -45.927714   1.000000   1.000000
  109      -49.646204    -45.927679   1.000000   1.000000
  110      -49.646177    -45.927645   1.000000   1.000000
  111      -49.646115    -45.927616   1.000000   1.000000
  112      -49.646110    -45.927589   1.000000   1.000000
  113      -49.646101    -45.927543   1.000000   1.000000
  114      -49.646050    -45.927480   1.000000   1.000000
  115      -49.646027    -45.927450   1.000000   1.000000
  116      -49.646022    -45.927446   1.000000   1.000000
  117      -49.645972    -45.927371   1.000000   1.000000
  118      -49.645925    -45.927353   1.000000   1.000000
  119      -49.645908    -45.927325   1.000000   1.000000
  120      -49.645887    -45.927299   1.000000   1.000000
  121      -49.645790    -45.927266   1.000000   1.000000
  122      -49.645751    -45.927198   1.000000   1.000000
  123      -49.645741    -45.927191   1.000000   1.000000
  124      -49.645716    -45.927168   1.000000   1.000000
  125      -49.645682    -45.927152   1.000000   1.000000
  126      -49.645651    -45.927143   1.000000   1.000000
  127      -49.645582    -45.927120   1.000000   1.000000
  128      -49.645570    -45.927112   1.000000   1.000000
  129      -49.645559    -45.927099   1.000000   1.000000
  130      -49.645547    -45.927092   1.000000   1.000000
  131      -49.645455    -45.927075   1.000000   1.000000
  132      -49.645426    -45.927038   1.000000   1.000000
  133      -49.645395    -45.927028   1.000000   1.000000
  134      -49.645386    -45.927011   1.000000   1.000000
  135      -49.645364    -45.926977   1.000000   1.000000
  136      -49.645351    -45.926963   1.000000   1.000000
  137      -49.645347    -45.926934   1.000000   1.000000
  138      -49.645333    -45.926915   1.000000   1.000000
  139      -49.645302    -45.926882   1.000000   1.000000
  140      -49.645291    -45.926874   1.000000   1.000000
  141      -49.645261    -45.926860   1.000000   1.000000
  142      -49.645247    -45.926843   1.000000   1.000000
  143      -49.645236    -45.926784   1.000000   1.000000
  144      -49.645218    -45.926772   1.000000   1.000000
  145      -49.645193    -45.926759   1.000000   1.000000
  146      -49.645166    -45.926711   1.000000   1.000000
  147      -49.645147    -45.926666   1.000000   1.000000
  148      -49.645096    -45.926660   1.000000   1.000000
  149      -49.645051    -45.926631   1.000000   1.000000
  150      -49.644997    -45.926609   1.000000   1.000000
  151      -49.644934    -45.926589   1.000000   1.000000
  152      -49.644915    -45.926579   1.000000   1.000000
  153      -49.644909    -45.926566   1.000000   1.000000
  154      -49.644881    -45.926544   1.000000   1.000000
  155      -49.644844    -45.926516   1.000000   1.000000
  156      -49.644829    -45.926477   1.000000   1.000000
  157      -49.644824    -45.926457   1.000000   1.000000
  158      -49.644817    -45.926442   1.000000   1.000000
  159      -49.644741    -45.926425   1.000000   1.000000
  160      -49.644694    -45.926412   1.000000   1.000000
  161      -49.644636    -45.926401   1.000000   1.000000
  162      -49.644626    -45.926376   1.000000   1.000000
  163      -49.644577    -45.926335   1.000000   1.000000
  164      -49.644516    -45.926332   1.000000   1.000000
  165      -49.644487    -45.926300   1.000000   1.000000
  166      -49.644468    -45.926292   1.000000   1.000000
  167      -49.644452    -45.926248   1.000000   1.000000
  168      -49.644406    -45.926212   1.000000   1.000000
  169      -49.644348    -45.926144   1.000000   1.000000
  170      -49.644307    -45.926115   1.000000   1.000000
  171      -49.644292    -45.926112   1.000000   1.000000
  172      -49.644271    -45.926099   1.000000   1.000000
  173      -49.644196    -45.926077   1.000000   1.000000
  174      -49.644181    -45.926051   1.000000   1.000000
  175      -49.644175    -45.926047   1.000000   1.000000
  176      -49.644066    -45.926008   1.000000   1.000000
  177      -49.644053    -45.925923   1.000000   1.000000
  178      -49.644035    -45.925909   1.000000   1.000000
  179      -49.643996    -45.925878   1.000000   1.000000
  180      -49.643974    -45.925841   1.000000   1.000000
  181      -49.643948    -45.925785   1.000000   1.000000
  182      -49.643841    -45.925732   1.000000   1.000000
  183      -49.643770    -45.925642   1.000000   1.000000
  184      -49.643756    -45.925603   1.000000   1.000000
  185      -49.643653    -45.925572   1.000000   1.000000
  186      -49.643631    -45.925564   1.000000   1.000000
  187      -49.643553    -45.925496   1.000000   1.000000
  188      -49.643507    -45.925470   1.000000   1.000000
  189      -49.643333    -45.925192   1.000000   1.000000
  190      -49.643191    -45.925087   1.000000   1.000000
  191      -49.642759    -45.925084   1.000000   1.000000
  192      -49.642718    -45.925012   1.000000   1.000000
  193      -39.641195    -39.640278   1.000000   1.000000
  194      -39.641024    -39.640107   1.000000   1.000000
  195      -39.634138    -39.633267   1.000000   1.000000
  196      -39.633521    -39.632649   1.000000   1.000000
  197      -39.633431    -39.632559   1.000000   1.000000
  198      -39.633429    -39.632557   1.000000   1.000000
  199      -39.633423    -39.632551   1.000000   1.000000
  200      -39.633320    -39.632448   1.000000   1.000000
  201      -39.633318    -39.632446   1.000000   1.000000
  202      -39.632969    -39.632098   1.000000   1.000000
  203      -39.628134    -39.627297   1.000000   1.000000
  204      -39.628068    -39.627230   1.000000   1.000000
  205      -39.627780    -39.626943   1.000000   1.000000
  206      -39.627747    -39.626909   1.000000   1.000000
  207      -39.627739    -39.626902   1.000000   1.000000
  208      -39.627674    -39.626836   1.000000   1.000000
  209      -39.627610    -39.626773   1.000000   1.000000
  210      -39.627492    -39.626655   1.000000   1.000000
  211      -39.616836    -39.616062   1.000000   1.000000
  212      -39.616203    -39.615428   1.000000   1.000000
  213      -39.616102    -39.615328   1.000000   1.000000
  214      -39.616029    -39.615252   1.000000   1.000000
  215      -39.615968    -39.615191   1.000000   1.000000
  216      -39.615611    -39.614831   1.000000   1.000000
  217      -39.615599    -39.614825   1.000000   1.000000
  218      -39.615499    -39.614718   1.000000   1.000000
  219      -39.615411    -39.614639   1.000000   1.000000
  220      -39.615402    -39.614634   1.000000   1.000000
  221      -39.615315    -39.614548   1.000000   1.000000
  222      -39.615218    -39.614451   1.000000   1.000000
  223      -39.615215    -39.614447   1.000000   1.000000
  224      -39.615184    -39.614416   1.000000   1.000000
  225      -39.615137    -39.614370   1.000000   1.000000
  226      -39.615135    -39.614368   1.000000   1.000000
  227      -39.615026    -39.614259   1.000000   1.000000
  228      -39.614997    -39.614230   1.000000   1.000000
  229      -39.614960    -39.614191   1.000000   1.000000
  230      -39.614933    -39.614164   1.000000   1.000000
  231      -39.614885    -39.614117   1.000000   1.000000
  232      -39.614882    -39.614114   1.000000   1.000000
  233      -39.614707    -39.613942   1.000000   1.000000
  234      -39.614678    -39.613912   1.000000   1.000000
  235      -39.614332    -39.613574   1.000000   1.000000
  236      -39.614266    -39.613509   1.000000   1.000000
  237      -39.614063    -39.613304   1.000000   1.000000
  238      -39.613879    -39.613115   1.000000   1.000000
  239      -39.604142    -39.603424   1.000000   1.000000
  240      -39.604080    -39.603363   1.000000   1.000000
  241      -39.603856    -39.603137   1.000000   1.000000
  242      -39.603783    -39.603064   1.000000   1.000000
  243      -39.603776    -39.603057   1.000000   1.000000
  244      -39.603752    -39.603032   1.000000   1.000000
  245      -39.603671    -39.602953   1.000000   1.000000
  246      -39.603628    -39.602909   1.000000   1.000000
  247      -39.600050    -39.599346   1.000000   1.000000
  248      -39.599598    -39.598892   1.000000   1.000000
  249      -39.599591    -39.598886   1.000000   1.000000
  250      -39.599583    -39.598877   1.000000   1.000000
  251      -39.599573    -39.598867   1.000000   1.000000
  252      -39.599483    -39.598778   1.000000   1.000000
  253      -39.599479    -39.598773   1.000000   1.000000
  254      -39.599073    -39.598369   1.000000   1.000000
  255      -39.593305    -39.592623   1.000000   1.000000
  256      -39.593240    -39.592558   1.000000   1.000000
  257      -12.747376    -12.467915   1.000000   1.000000
  258      -12.747169    -12.467700   1.000000   1.000000
  259      -12.719924    -12.440198   1.000000   1.000000
  260      -12.719512    -12.439762   1.000000   1.000000
  261      -12.719452    -12.439707   1.000000   1.000000
  262      -12.719385    -12.439625   1.000000   1.000000
  263      -12.719375    -12.439615   1.000000   1.000000
  264      -12.719230    -12.439486   1.000000   1.000000
  265      -12.719215    -12.439471   1.000000   1.000000
  266      -12.719066    -12.439313   1.000000   1.000000
  267      -12.697274    -12.417106   1.000000   1.000000
  268      -12.697227    -12.417064   1.000000   1.000000
  269      -12.694948    -12.415345   1.000000   1.000000
  270      -12.694879    -12.415278   1.000000   1.000000
  271      -12.694789    -12.415173   1.000000   1.000000
  272      -12.694676    -12.415076   1.000000   1.000000
  273      -12.692440    -12.413383   1.000000   1.000000
  274      -12.692415    -12.413356   1.000000   1.000000
  275      -12.691353    -12.411341   1.000000   1.000000
  276      -12.691330    -12.411317   1.000000   1.000000
  277      -12.691281    -12.411239   1.000000   1.000000
  278      -12.691167    -12.411142   1.000000   1.000000
  279      -12.672921    -12.392915   1.000000   1.000000
  280      -12.672787    -12.392770   1.000000   1.000000
  281      -12.672711    -12.392704   1.000000   1.000000
  282      -12.672489    -12.392477   1.000000   1.000000
  283      -12.667835    -12.388947   1.000000   1.000000
  284      -12.667718    -12.388826   1.000000   1.000000
  285      -12.667636    -12.388753   1.000000   1.000000
  286      -12.667418    -12.388530   1.000000   1.000000
  287      -12.654581    -12.374631   1.000000   1.000000
  288      -12.643801    -12.366080   1.000000   1.000000
  289       -7.800001     -7.599001   1.000000   1.000000
  290       -7.748212     -7.551489   1.000000   1.000000
  291       -7.505734     -7.319480   1.000000   1.000000
  292       -7.505408     -7.319155   1.000000   1.000000
  293       -7.505290     -7.319032   1.000000   1.000000
  294       -7.504939     -7.318671   1.000000   1.000000
  295       -7.501273     -7.309144   1.000000   1.000000
  296       -7.500993     -7.308852   1.000000   1.000000
  297       -7.500844     -7.308707   1.000000   1.000000
  298       -7.500513     -7.308361   1.000000   1.000000
  299       -7.315337     -7.117884   1.000000   1.000000
  300       -7.314931     -7.117474   1.000000   1.000000
  301       -7.297034     -7.093748   1.000000   1.000000
  302       -7.296937     -7.093661   1.000000   1.000000
  303       -7.296640     -7.093346   1.000000   1.000000
  304       -7.296542     -7.093260   1.000000   1.000000
  305       -7.269410     -7.062112   1.000000   1.000000
  306       -7.269000     -7.061698   1.000000   1.000000
  307       -7.088630     -6.894238   1.000000   1.000000
  308       -7.085027     -6.893827   1.000000   1.000000
  309       -7.084639     -6.893812   1.000000   1.000000
  310       -7.084612     -6.893396   1.000000   1.000000
  311       -7.084200     -6.796709   1.000000   1.000000
  312       -7.046541     -6.783770   1.000000   1.000000
  313       -7.000602     -6.768285   1.000000   1.000000
  314       -6.999836     -6.767890   1.000000   1.000000
  315       -6.999825     -6.767878   1.000000   1.000000
  316       -6.999784     -6.767436   1.000000   1.000000
  317       -6.999761     -6.766898   1.000000   1.000000
  318       -6.999667     -6.766150   1.000000   1.000000
  319       -6.999656     -6.766140   1.000000   1.000000
  320       -6.998958     -6.766098   1.000000   1.000000
  321       -6.994480     -6.766079   1.000000   1.000000
  322       -6.994228     -6.765975   1.000000   1.000000
  323       -6.994077     -6.765974   1.000000   1.000000
  324       -6.993654     -6.765175   1.000000   1.000000
  325       -6.956142     -6.745232   1.000000   1.000000
  326       -6.955750     -6.744934   1.000000   1.000000
  327       -6.955721     -6.744783   1.000000   1.000000
  328       -6.955309     -6.744404   1.000000   1.000000
  329       -6.948510     -6.697646   1.000000   1.000000
  330       -6.948077     -6.697206   1.000000   1.000000
  331       -6.928986     -6.689453   1.000000   1.000000
  332       -6.928658     -6.689117   1.000000   1.000000
  333       -6.928535     -6.688987   1.000000   1.000000
  334       -6.928147     -6.688595   1.000000   1.000000
  335       -6.911296     -6.639957   1.000000   1.000000
  336       -6.911268     -6.639098   1.000000   1.000000
  337       -6.885886     -6.639091   1.000000   1.000000
  338       -6.885775     -6.639054   1.000000   1.000000
  339       -6.885448     -6.639018   1.000000   1.000000
  340       -6.885382     -6.638931   1.000000   1.000000
  341       -6.877523     -6.638922   1.000000   1.000000
  342       -6.876882     -6.638653   1.000000   1.000000
  343       -6.876870     -6.638519   1.000000   1.000000
  344       -6.876827     -6.638421   1.000000   1.000000
  345       -6.876804     -6.638175   1.000000   1.000000
  346       -6.876711     -6.637454   1.000000   1.000000
  347       -6.876700     -6.628054   1.000000   1.000000
  348       -6.875823     -6.628021   1.000000   1.000000
  349       -6.832780     -6.586820   1.000000   1.000000
  350       -6.832341     -6.586373   1.000000   1.000000
  351       -6.794250     -6.499068   1.000000   1.000000
  352       -6.794205     -6.499025   1.000000   1.000000
  353       -1.525535     -0.414633   1.000000   1.000000
  354       -1.467876     -0.414614   1.000000   1.000000
  355       -1.467788     -0.414528   1.000000   1.000000
  356       -1.467613     -0.414358   1.000000   1.000000
  357       -1.467457      0.026166   1.000000   1.000000
  358       -1.460437      0.026240   1.000000   1.000000
  359       -1.460376      0.026359   1.000000   1.000000
  360       -1.460237      0.026565   1.000000   1.000000
  361       -1.460030      0.037733   1.000000   1.000000
  362       -1.421485      0.037872   1.000000   1.000000
  363       -1.421276      0.037935   1.000000   1.000000
  364       -1.382943      0.037977   1.000000   1.000000
  365       -1.382863      0.038021   1.000000   1.000000
  366       -1.382809      0.038147   1.000000   1.000000
  367       -1.382543      0.038265   1.000000   1.000000
  368       -1.332799      0.038304   1.000000   1.000000
  369       -1.332646      0.102845   1.000000   1.000000
  370       -1.332612      0.102884   1.000000   1.000000
  371       -1.332599      0.207386   1.000000   1.000000
  372       -1.332582      0.207436   1.000000   1.000000
  373       -1.332333      0.207537   1.000000   1.000000
  374       -1.332285      0.207694   1.000000   1.000000
  375       -1.332258      0.304119   1.000000   1.000000
  376       -1.292663      0.392402   1.000000   1.000000
  377       -1.292600      0.392463   1.000000   1.000000
  378       -1.292426      0.392571   1.000000   1.000000
  379       -1.292274      0.392789   1.000000   1.000000
  380       -1.256860      0.490839   1.000000   1.000000
  381       -1.256754      0.490875   1.000000   1.000000
  382       -1.232290      0.497353   1.000000   1.000000
  383       -1.232077      0.497679   1.000000   1.000000
  384       -1.220401      0.497752   1.000000   1.000000
  385       -0.822810      0.497988   1.000000   1.000000
  386       -0.822743      0.510660   1.000000   1.000000
  387       -0.822646      0.510777   1.000000   1.000000
  388       -0.822570      0.531161   1.000000   1.000000
  389       -0.722663      0.531176   1.000000   1.000000
  390       -0.722641      0.531319   1.000000   1.000000
  391       -0.699255      0.531406   1.000000   1.000000
  392       -0.699129      0.574142   1.000000   1.000000
  393       -0.698901      0.574283   1.000000   1.000000
  394       -0.698874      0.574304   1.000000   1.000000
  395       -0.688467      0.574348   1.000000   1.000000
  396       -0.688425      0.574380   1.000000   1.000000
  397       -0.688195      0.574454   1.000000   1.000000
  398       -0.688118      0.574493   1.000000   1.000000
  399       -0.666687      0.574746   1.000000   1.000000
  400       -0.666647      0.638571   1.000000   1.000000
  401       -0.666431      0.666133   1.000000   1.000000
  402       -0.666378      0.666501   1.000000   1.000000
  403       -0.652013      0.732970   1.000000   1.000000
  404       -0.651978      0.733123   1.000000   1.000000
  405       -0.651760      0.931417   1.000000   1.000000
  406       -0.651699      0.932610   1.000000   1.000000
  407       -0.589437      0.935453   1.000000   1.000000
  408       -0.589392      0.935787   1.000000   1.000000
  409       -0.576674      0.948760   1.000000   1.000000
  410       -0.576648      0.948907   1.000000   1.000000
  411       -0.576460      0.949034   1.000000   1.000000
  412       -0.576388      0.949156   1.000000   1.000000
  413       -0.553417      0.986115   1.000000   1.000000
  414       -0.553322      0.986206   1.000000   1.000000
  415       -0.553083      0.986242   1.000000   1.000000
  416       -0.553042      0.986299   1.000000   1.000000
  417       -0.497604      0.992790   1.000000   1.000000
  418       -0.496847      0.992985   1.000000   1.000000
  419       -0.472890      1.008661   1.000000   1.000000
  420       -0.472652      1.008919   1.000000   1.000000
  421       -0.461569      1.008949   1.000000   1.000000
  422       -0.461458      1.009139   1.000000   1.000000
  423       -0.461219      1.018516   1.000000   1.000000
  424       -0.461213      1.048982   1.000000   1.000000
  425       -0.459791      1.049212   1.000000   1.000000
  426       -0.459684      1.051559   1.000000   1.000000
  427       -0.459404      1.051647   1.000000   1.000000
  428       -0.459401      1.051809   1.000000   1.000000
  429       -0.410155      1.051884   1.000000   1.000000
  430       -0.409861      1.078571   1.000000   1.000000
  431       -0.407651      1.078659   1.000000   1.000000
  432       -0.407537      1.078902   1.000000   1.000000
  433       -0.407516      1.078974   1.000000   1.000000
  434       -0.407462      1.079712   1.000000   1.000000
  435       -0.407361      1.079841   1.000000   1.000000
  436       -0.407226      1.079892   1.000000   1.000000
  437       -0.383318      1.079958   1.000000   1.000000
  438       -0.383247      1.192656   1.000000   1.000000
  439       -0.378152      1.193002   1.000000   1.000000
  440       -0.368811      1.376347   1.000000   1.000000
  441       -0.368804      1.390260   1.000000   1.000000
  442       -0.368788      1.391158   1.000000   1.000000
  443       -0.368672      1.391196   1.000000   1.000000
  444       -0.368649      1.391335   1.000000   1.000000
  445       -0.368631      1.391367   1.000000   1.000000
  446       -0.368609      1.437159   1.000000   1.000000
  447       -0.368529      1.450051   1.000000   1.000000
  448       -0.353566      1.525917   1.000000   1.000000
  449       -0.353491      1.526293   1.000000   1.000000
  450       -0.349071      1.526452   1.000000   1.000000
  451       -0.341809      1.526526   1.000000   1.000000
  452       -0.335839      1.528638   1.000000   1.000000
  453       -0.335758      1.528859   1.000000   1.000000
  454       -0.335425      1.529005   1.000000   1.000000
  455       -0.335335      1.529093   1.000000   1.000000
  456       -0.334321      1.558222   1.000000   1.000000
  457       -0.334239      1.558286   1.000000   1.000000
  458       -0.333960      1.558435   1.000000   1.000000
  459       -0.333941      1.558466   1.000000   1.000000
  460       -0.324252      1.566625   1.000000   1.000000
  461       -0.324246      1.566678   1.000000   1.000000
  462       -0.323992      1.566871   1.000000   1.000000
  463       -0.323833      1.567015   1.000000   1.000000
  464       -0.321650      1.568138   1.000000   1.000000
  465       -0.321639      1.568198   1.000000   1.000000
  466       -0.321298      1.568455   1.000000   1.000000
  467       -0.321156      1.568572   1.000000   1.000000
  468       -0.303869      1.586500   1.000000   1.000000
  469       -0.295948      1.586753   1.000000   1.000000
  470       -0.288007      1.695602   1.000000   1.000000
  471       -0.287937      1.695919   1.000000   1.000000
  472       -0.287771      1.740877   1.000000   1.000000
  473       -0.287643      1.741055   1.000000   1.000000
  474       -0.280423      1.741173   1.000000   1.000000
  475       -0.280330      1.741481   1.000000   1.000000
  476       -0.275162      1.746212   1.000000   1.000000
  477       -0.275051      1.746882   1.000000   1.000000
  478       -0.274806      1.746921   1.000000   1.000000
  479       -0.274677      1.747104   1.000000   1.000000
  480       -0.241661      1.779086   1.000000   1.000000
  481       -0.241632      1.780606   1.000000   1.000000
  482       -0.241591      1.780645   1.000000   1.000000
  483       -0.241567      1.836807   1.000000   1.000000
  484       -0.241377      1.836903   1.000000   1.000000
  485       -0.241330      1.837414   1.000000   1.000000
  486       -0.241290      1.837452   1.000000   1.000000
  487       -0.241262      1.837762   1.000000   1.000000
  488       -0.207389      1.837764   1.000000   1.000000
  489       -0.207383      1.838382   1.000000   1.000000
  490       -0.199732      1.838465   1.000000   1.000000
  491       -0.199625      1.866239   1.000000   1.000000
  492       -0.199474      1.866443   1.000000   1.000000
  493       -0.199360      1.912986   1.000000   1.000000
  494       -0.194103      1.913467   1.000000   1.000000
  495       -0.193905      1.913520   1.000000   1.000000
  496       -0.163961      1.913540   1.000000   1.000000
  497       -0.163923      1.913637   1.000000   1.000000
  498       -0.163754      1.913664   1.000000   1.000000
  499       -0.163738      1.913742   1.000000   1.000000
  500       -0.156698      1.913804   1.000000   1.000000
  501       -0.156580      1.926795   1.000000   1.000000
  502       -0.156186      1.926902   1.000000   1.000000
  503       -0.156143      1.927103   1.000000   1.000000
  504       -0.139073      1.927260   1.000000   1.000000
  505       -0.139034      2.133189   1.000000   1.000000
  506       -0.138820      2.133259   1.000000   1.000000
  507       -0.138760      2.191270   1.000000   1.000000
  508       -0.091094      2.193200   1.000000   1.000000
  509       -0.090805      2.300580   1.000000   1.000000
  510       -0.082560      2.300749   1.000000   1.000000
  511       -0.082524      2.301205   1.000000   1.000000
  512       -0.082460      2.301271   1.000000   1.000000