  99  99   0   0
  0.1430410E+02  0.1177748E-08  0.1177748E-08  0.1058004E-08  0.5000000E-15
  1.000000000000000E-004
  CAR 
 unknown system                          
     17.93731600    -54.33564610  301      5.22932017      1.00000000
    -54.336  0.0000E+00  0.0000E+00  0.0000E+00  0.0000E+00
    -54.095  0.0000E+00  0.0000E+00  0.0000E+00  0.0000E+00
    -53.854  0.0000E+00  0.0000E+00  0.0000E+00  0.0000E+00
    -53.613  0.0000E+00  0.0000E+00  0.0000E+00  0.0000E+00
    -53.372  0.0000E+00  0.0000E+00  0.0000E+00  0.0000E+00
    -53.131  0.0000E+00  0.0000E+00  0.0000E+00  0.0000E+00
    -52.890  0.0000E+00  0.0000E+00  0.0000E+00  0.0000E+00
    -52.649  0.0000E+00  0.0000E+00  0.0000E+00  0.0000E+00
    -52.408  0.0000E+00  0.0000E+00  0.0000E+00  0.0000E+00
    -52.167  0.0000E+00  0.0000E+00  0.0000E+00  0.0000E+00
    -51.927  0.0000E+00  0.0000E+00  0.0000E+00  0.0000E+00
    -51.686  0.0000E+00  0.0000E+00  0.0000E+00  0.0000E+00
    -51.445  0.0000E+00  0.0000E+00  0.0000E+00  0.0000E+00
    -51.204  0.5027E-03  0.0000E+00  0.1211E-03  0.0000E+00
    -50.963  0.1475E+03  0.0000E+00  0.3552E+02  0.0000E+00
    -50.722  0.1972E+01  0.0000E+00  0.3600E+02  0.0000E+00
    -50.481  0.0000E+00  0.0000E+00  0.3600E+02  0.0000E+00
    -50.240  0.0000E+00  0.0000E+00  0.3600E+02  0.0000E+00
    -49.999  0.0000E+00  0.0000E+00  0.3600E+02  0.0000E+00
    -49.758  0.1996E+01  0.0000E+00  0.3648E+02  0.0000E+00
    -49.517  0.2716E+03  0.0000E+00  0.1019E+03  0.0000E+00
    -49.277  0.2529E+02  0.0000E+00  0.1080E+03  0.0000E+00
    -49.036  0.0000E+00  0.0000E+00  0.1080E+03  0.0000E+00
    -48.795  0.0000E+00  0.0000E+00  0.1080E+03  0.0000E+00
    -48.554  0.0000E+00  0.0000E+00  0.1080E+03  0.0000E+00
    -48.313  0.0000E+00  0.0000E+00  0.1080E+03  0.0000E+00
    -48.072  0.0000E+00  0.0000E+00  0.1080E+03  0.0000E+00
    -47.831  0.0000E+00  0.0000E+00  0.1080E+03  0.0000E+00
    -47.590  0.0000E+00  0.0000E+00  0.1080E+03  0.0000E+00
    -47.349  0.0000E+00  0.0000E+00  0.1080E+03  0.0000E+00
    -47.108  0.0000E+00  0.0000E+00  0.1080E+03  0.0000E+00
    -46.867  0.0000E+00  0.0000E+00  0.1080E+03  0.0000E+00
    -46.627  0.0000E+00  0.0000E+00  0.1080E+03  0.0000E+00
    -46.386  0.0000E+00  0.3624E+00  0.1080E+03  0.8730E-01
    -46.145  0.0000E+00  0.1490E+03  0.1080E+03  0.3599E+02
    -45.904  0.0000E+00  0.7044E+02  0.1080E+03  0.5296E+02
    -45.663  0.0000E+00  0.2285E+03  0.1080E+03  0.1080E+03
    -45.422  0.0000E+00  0.0000E+00  0.1080E+03  0.1080E+03
    -45.181  0.0000E+00  0.0000E+00  0.1080E+03  0.1080E+03
    -44.940  0.0000E+00  0.0000E+00  0.1080E+03  0.1080E+03
    -44.699  0.0000E+00  0.0000E+00  0.1080E+03  0.1080E+03
    -44.458  0.0000E+00  0.0000E+00  0.1080E+03  0.1080E+03
    -44.217  0.0000E+00  0.0000E+00  0.1080E+03  0.1080E+03
    -43.977  0.0000E+00  0.0000E+00  0.1080E+03  0.1080E+03
    -43.736  0.0000E+00  0.0000E+00  0.1080E+03  0.1080E+03
    -43.495  0.0000E+00  0.0000E+00  0.1080E+03  0.1080E+03
    -43.254  0.0000E+00  0.0000E+00  0.1080E+03  0.1080E+03
    -43.013  0.0000E+00  0.0000E+00  0.1080E+03  0.1080E+03
    -42.772  0.0000E+00  0.0000E+00  0.1080E+03  0.1080E+03
    -42.531  0.0000E+00  0.0000E+00  0.1080E+03  0.1080E+03
    -42.290  0.0000E+00  0.0000E+00  0.1080E+03  0.1080E+03
    -42.049  0.0000E+00  0.0000E+00  0.1080E+03  0.1080E+03
    -41.808  0.0000E+00  0.0000E+00  0.1080E+03  0.1080E+03
    -41.567  0.0000E+00  0.0000E+00  0.1080E+03  0.1080E+03
    -41.327  0.0000E+00  0.0000E+00  0.1080E+03  0.1080E+03
    -41.086  0.0000E+00  0.0000E+00  0.1080E+03  0.1080E+03
    -40.845  0.0000E+00  0.0000E+00  0.1080E+03  0.1080E+03
    -40.604  0.0000E+00  0.0000E+00  0.1080E+03  0.1080E+03
    -40.363  0.0000E+00  0.0000E+00  0.1080E+03  0.1080E+03
    -40.122  0.9198E-11  0.5925E-11  0.1080E+03  0.1080E+03
    -39.881  0.2275E+02  0.2123E+02  0.1135E+03  0.1131E+03
    -39.640  0.5197E+02  0.5348E+02  0.1260E+03  0.1260E+03
    -39.399  0.0000E+00  0.0000E+00  0.1260E+03  0.1260E+03
    -39.158  0.0000E+00  0.0000E+00  0.1260E+03  0.1260E+03
    -38.917  0.0000E+00  0.0000E+00  0.1260E+03  0.1260E+03
    -38.677  0.0000E+00  0.0000E+00  0.1260E+03  0.1260E+03
    -38.436  0.0000E+00  0.0000E+00  0.1260E+03  0.1260E+03
    -38.195  0.0000E+00  0.0000E+00  0.1260E+03  0.1260E+03
    -37.954  0.0000E+00  0.0000E+00  0.1260E+03  0.1260E+03
    -37.713  0.0000E+00  0.0000E+00  0.1260E+03  0.1260E+03
    -37.472  0.0000E+00  0.0000E+00  0.1260E+03  0.1260E+03
    -37.231  0.0000E+00  0.0000E+00  0.1260E+03  0.1260E+03
    -36.990  0.0000E+00  0.0000E+00  0.1260E+03  0.1260E+03
    -36.749  0.0000E+00  0.0000E+00  0.1260E+03  0.1260E+03
    -36.508  0.0000E+00  0.0000E+00  0.1260E+03  0.1260E+03
    -36.267  0.0000E+00  0.0000E+00  0.1260E+03  0.1260E+03
    -36.026  0.0000E+00  0.0000E+00  0.1260E+03  0.1260E+03
    -35.786  0.0000E+00  0.0000E+00  0.1260E+03  0.1260E+03
    -35.545  0.0000E+00  0.0000E+00  0.1260E+03  0.1260E+03
    -35.304  0.0000E+00  0.0000E+00  0.1260E+03  0.1260E+03
    -35.063  0.0000E+00  0.0000E+00  0.1260E+03  0.1260E+03
    -34.822  0.0000E+00  0.0000E+00  0.1260E+03  0.1260E+03
    -34.581  0.0000E+00  0.0000E+00  0.1260E+03  0.1260E+03
    -34.340  0.0000E+00  0.0000E+00  0.1260E+03  0.1260E+03
    -34.099  0.0000E+00  0.0000E+00  0.1260E+03  0.1260E+03
    -33.858  0.0000E+00  0.0000E+00  0.1260E+03  0.1260E+03
    -33.617  0.0000E+00  0.0000E+00  0.1260E+03  0.1260E+03
    -33.376  0.0000E+00  0.0000E+00  0.1260E+03  0.1260E+03
    -33.136  0.0000E+00  0.0000E+00  0.1260E+03  0.1260E+03
    -32.895  0.0000E+00  0.0000E+00  0.1260E+03  0.1260E+03
    -32.654  0.0000E+00  0.0000E+00  0.1260E+03  0.1260E+03
    -32.413  0.0000E+00  0.0000E+00  0.1260E+03  0.1260E+03
    -32.172  0.0000E+00  0.0000E+00  0.1260E+03  0.1260E+03
    -31.931  0.0000E+00  0.0000E+00  0.1260E+03  0.1260E+03
    -31.690  0.0000E+00  0.0000E+00  0.1260E+03  0.1260E+03
    -31.449  0.0000E+00  0.0000E+00  0.1260E+03  0.1260E+03
    -31.208  0.0000E+00  0.0000E+00  0.1260E+03  0.1260E+03
    -30.967  0.0000E+00  0.0000E+00  0.1260E+03  0.1260E+03
    -30.726  0.0000E+00  0.0000E+00  0.1260E+03  0.1260E+03
    -30.486  0.0000E+00  0.0000E+00  0.1260E+03  0.1260E+03
    -30.245  0.0000E+00  0.0000E+00  0.1260E+03  0.1260E+03
    -30.004  0.0000E+00  0.0000E+00  0.1260E+03  0.1260E+03
    -29.763  0.0000E+00  0.0000E+00  0.1260E+03  0.1260E+03
    -29.522  0.0000E+00  0.0000E+00  0.1260E+03  0.1260E+03
    -29.281  0.0000E+00  0.0000E+00  0.1260E+03  0.1260E+03
    -29.040  0.0000E+00  0.0000E+00  0.1260E+03  0.1260E+03
    -28.799  0.0000E+00  0.0000E+00  0.1260E+03  0.1260E+03
    -28.558  0.0000E+00  0.0000E+00  0.1260E+03  0.1260E+03
    -28.317  0.0000E+00  0.0000E+00  0.1260E+03  0.1260E+03
    -28.076  0.0000E+00  0.0000E+00  0.1260E+03  0.1260E+03
    -27.836  0.0000E+00  0.0000E+00  0.1260E+03  0.1260E+03
    -27.595  0.0000E+00  0.0000E+00  0.1260E+03  0.1260E+03
    -27.354  0.0000E+00  0.0000E+00  0.1260E+03  0.1260E+03
    -27.113  0.0000E+00  0.0000E+00  0.1260E+03  0.1260E+03
    -26.872  0.0000E+00  0.0000E+00  0.1260E+03  0.1260E+03
    -26.631  0.0000E+00  0.0000E+00  0.1260E+03  0.1260E+03
    -26.390  0.0000E+00  0.0000E+00  0.1260E+03  0.1260E+03
    -26.149  0.0000E+00  0.0000E+00  0.1260E+03  0.1260E+03
    -25.908  0.0000E+00  0.0000E+00  0.1260E+03  0.1260E+03
    -25.667  0.0000E+00  0.0000E+00  0.1260E+03  0.1260E+03
    -25.426  0.0000E+00  0.0000E+00  0.1260E+03  0.1260E+03
    -25.186  0.0000E+00  0.0000E+00  0.1260E+03  0.1260E+03
    -24.945  0.0000E+00  0.0000E+00  0.1260E+03  0.1260E+03
    -24.704  0.0000E+00  0.0000E+00  0.1260E+03  0.1260E+03
    -24.463  0.0000E+00  0.0000E+00  0.1260E+03  0.1260E+03
    -24.222  0.0000E+00  0.0000E+00  0.1260E+03  0.1260E+03
    -23.981  0.0000E+00  0.0000E+00  0.1260E+03  0.1260E+03
    -23.740  0.0000E+00  0.0000E+00  0.1260E+03  0.1260E+03
    -23.499  0.0000E+00  0.0000E+00  0.1260E+03  0.1260E+03
    -23.258  0.0000E+00  0.0000E+00  0.1260E+03  0.1260E+03
    -23.017  0.0000E+00  0.0000E+00  0.1260E+03  0.1260E+03
    -22.776  0.0000E+00  0.0000E+00  0.1260E+03  0.1260E+03
    -22.536  0.0000E+00  0.0000E+00  0.1260E+03  0.1260E+03
    -22.295  0.0000E+00  0.0000E+00  0.1260E+03  0.1260E+03
    -22.054  0.0000E+00  0.0000E+00  0.1260E+03  0.1260E+03
    -21.813  0.0000E+00  0.0000E+00  0.1260E+03  0.1260E+03
    -21.572  0.0000E+00  0.0000E+00  0.1260E+03  0.1260E+03
    -21.331  0.0000E+00  0.0000E+00  0.1260E+03  0.1260E+03
    -21.090  0.0000E+00  0.0000E+00  0.1260E+03  0.1260E+03
    -20.849  0.0000E+00  0.0000E+00  0.1260E+03  0.1260E+03
    -20.608  0.0000E+00  0.0000E+00  0.1260E+03  0.1260E+03
    -20.367  0.0000E+00  0.0000E+00  0.1260E+03  0.1260E+03
    -20.126  0.0000E+00  0.0000E+00  0.1260E+03  0.1260E+03
    -19.886  0.0000E+00  0.0000E+00  0.1260E+03  0.1260E+03
    -19.645  0.0000E+00  0.0000E+00  0.1260E+03  0.1260E+03
    -19.404  0.0000E+00  0.0000E+00  0.1260E+03  0.1260E+03
    -19.163  0.0000E+00  0.0000E+00  0.1260E+03  0.1260E+03
    -18.922  0.0000E+00  0.0000E+00  0.1260E+03  0.1260E+03
    -18.681  0.0000E+00  0.0000E+00  0.1260E+03  0.1260E+03
    -18.440  0.0000E+00  0.0000E+00  0.1260E+03  0.1260E+03
    -18.199  0.0000E+00  0.0000E+00  0.1260E+03  0.1260E+03
    -17.958  0.0000E+00  0.0000E+00  0.1260E+03  0.1260E+03
    -17.717  0.0000E+00  0.0000E+00  0.1260E+03  0.1260E+03
    -17.476  0.0000E+00  0.0000E+00  0.1260E+03  0.1260E+03
    -17.236  0.0000E+00  0.0000E+00  0.1260E+03  0.1260E+03
    -16.995  0.0000E+00  0.0000E+00  0.1260E+03  0.1260E+03
    -16.754  0.0000E+00  0.0000E+00  0.1260E+03  0.1260E+03
    -16.513  0.0000E+00  0.0000E+00  0.1260E+03  0.1260E+03
    -16.272  0.0000E+00  0.0000E+00  0.1260E+03  0.1260E+03
    -16.031  0.0000E+00  0.0000E+00  0.1260E+03  0.1260E+03
    -15.790  0.0000E+00  0.0000E+00  0.1260E+03  0.1260E+03
    -15.549  0.0000E+00  0.0000E+00  0.1260E+03  0.1260E+03
    -15.308  0.0000E+00  0.0000E+00  0.1260E+03  0.1260E+03
    -15.067  0.0000E+00  0.0000E+00  0.1260E+03  0.1260E+03
    -14.826  0.0000E+00  0.0000E+00  0.1260E+03  0.1260E+03
    -14.586  0.0000E+00  0.0000E+00  0.1260E+03  0.1260E+03
    -14.345  0.0000E+00  0.0000E+00  0.1260E+03  0.1260E+03
    -14.104  0.0000E+00  0.0000E+00  0.1260E+03  0.1260E+03
    -13.863  0.0000E+00  0.0000E+00  0.1260E+03  0.1260E+03
    -13.622  0.0000E+00  0.0000E+00  0.1260E+03  0.1260E+03
    -13.381  0.1207E-03  0.0000E+00  0.1260E+03  0.1260E+03
    -13.140  0.2948E+02  0.0000E+00  0.1331E+03  0.1260E+03
    -12.899  0.4494E+02  0.1746E+00  0.1439E+03  0.1260E+03
    -12.658  0.2935E+00  0.5734E+02  0.1440E+03  0.1399E+03
    -12.417  0.0000E+00  0.1720E+02  0.1440E+03  0.1440E+03
    -12.176  0.0000E+00  0.0000E+00  0.1440E+03  0.1440E+03
    -11.936  0.0000E+00  0.0000E+00  0.1440E+03  0.1440E+03
    -11.695  0.0000E+00  0.0000E+00  0.1440E+03  0.1440E+03
    -11.454  0.0000E+00  0.0000E+00  0.1440E+03  0.1440E+03
    -11.213  0.0000E+00  0.0000E+00  0.1440E+03  0.1440E+03
    -10.972  0.0000E+00  0.0000E+00  0.1440E+03  0.1440E+03
    -10.731  0.0000E+00  0.0000E+00  0.1440E+03  0.1440E+03
    -10.490  0.0000E+00  0.0000E+00  0.1440E+03  0.1440E+03
    -10.249  0.0000E+00  0.0000E+00  0.1440E+03  0.1440E+03
    -10.008  0.0000E+00  0.0000E+00  0.1440E+03  0.1440E+03
     -9.767  0.0000E+00  0.0000E+00  0.1440E+03  0.1440E+03
     -9.526  0.0000E+00  0.0000E+00  0.1440E+03  0.1440E+03
     -9.285  0.0000E+00  0.0000E+00  0.1440E+03  0.1440E+03
     -9.045  0.0000E+00  0.0000E+00  0.1440E+03  0.1440E+03
     -8.804  0.0000E+00  0.0000E+00  0.1440E+03  0.1440E+03
     -8.563  0.0000E+00  0.0000E+00  0.1440E+03  0.1440E+03
     -8.322  0.0000E+00  0.0000E+00  0.1440E+03  0.1440E+03
     -8.081  0.0000E+00  0.0000E+00  0.1440E+03  0.1440E+03
     -7.840  0.1378E-10  0.0000E+00  0.1440E+03  0.1440E+03
     -7.599  0.4793E+00  0.1612E-11  0.1441E+03  0.1440E+03
     -7.358  0.1672E+02  0.3916E+00  0.1481E+03  0.1441E+03
     -7.117  0.3244E+02  0.1854E+02  0.1560E+03  0.1486E+03
     -6.876  0.3256E+02  0.3118E+02  0.1638E+03  0.1561E+03
     -6.635  0.2988E+02  0.2413E+02  0.1710E+03  0.1619E+03
     -6.395  0.1913E-03  0.3767E+02  0.1710E+03  0.1710E+03
     -6.154  0.0000E+00  0.1580E+00  0.1710E+03  0.1710E+03
     -5.913  0.0000E+00  0.0000E+00  0.1710E+03  0.1710E+03
     -5.672  0.0000E+00  0.0000E+00  0.1710E+03  0.1710E+03
     -5.431  0.0000E+00  0.0000E+00  0.1710E+03  0.1710E+03
     -5.190  0.0000E+00  0.0000E+00  0.1710E+03  0.1710E+03
     -4.949  0.0000E+00  0.0000E+00  0.1710E+03  0.1710E+03
     -4.708  0.0000E+00  0.0000E+00  0.1710E+03  0.1710E+03
     -4.467  0.0000E+00  0.0000E+00  0.1710E+03  0.1710E+03
     -4.226  0.0000E+00  0.0000E+00  0.1710E+03  0.1710E+03
     -3.985  0.0000E+00  0.0000E+00  0.1710E+03  0.1710E+03
     -3.745  0.0000E+00  0.0000E+00  0.1710E+03  0.1710E+03
     -3.504  0.0000E+00  0.0000E+00  0.1710E+03  0.1710E+03
     -3.263  0.0000E+00  0.0000E+00  0.1710E+03  0.1710E+03
     -3.022  0.0000E+00  0.0000E+00  0.1710E+03  0.1710E+03
     -2.781  0.0000E+00  0.0000E+00  0.1710E+03  0.1710E+03
     -2.540  0.0000E+00  0.0000E+00  0.1710E+03  0.1710E+03
     -2.299  0.0000E+00  0.0000E+00  0.1710E+03  0.1710E+03
     -2.058  0.3744E-02  0.0000E+00  0.1710E+03  0.1710E+03
     -1.817  0.2276E+02  0.0000E+00  0.1765E+03  0.1710E+03
     -1.576  0.1896E+02  0.0000E+00  0.1811E+03  0.1710E+03
     -1.335  0.1469E+02  0.0000E+00  0.1846E+03  0.1710E+03
     -1.095  0.2304E+02  0.0000E+00  0.1901E+03  0.1710E+03
     -0.854  0.5570E+02  0.0000E+00  0.2036E+03  0.1710E+03
     -0.613  0.6259E+02  0.8874E-04  0.2186E+03  0.1710E+03
     -0.372  0.3925E+02  0.8171E+01  0.2281E+03  0.1730E+03
     -0.131  0.8152E+02  0.2194E+02  0.2477E+03  0.1783E+03
      0.110  0.8844E+02  0.1295E+02  0.2690E+03  0.1814E+03
      0.351  0.8409E+02  0.2333E+02  0.2893E+03  0.1870E+03
      0.592  0.7245E+02  0.3015E+02  0.3068E+03  0.1943E+03
      0.833  0.6312E+02  0.4825E+02  0.3220E+03  0.2059E+03
      1.074  0.4012E+02  0.4073E+02  0.3316E+03  0.2157E+03
      1.315  0.3450E+02  0.3393E+02  0.3399E+03  0.2239E+03
      1.555  0.5116E+02  0.2379E+02  0.3523E+03  0.2296E+03
      1.796  0.5098E+02  0.3303E+02  0.3645E+03  0.2376E+03
      2.037  0.7486E+02  0.4072E+02  0.3826E+03  0.2474E+03
      2.278  0.6748E+02  0.2930E+02  0.3988E+03  0.2544E+03
      2.519  0.3105E+02  0.2913E+02  0.4063E+03  0.2614E+03
      2.760  0.5043E+02  0.3750E+02  0.4185E+03  0.2705E+03
      3.001  0.2655E+02  0.4591E+02  0.4249E+03  0.2815E+03
      3.242  0.9025E+01  0.4892E+02  0.4270E+03  0.2933E+03
      3.483  0.3841E+02  0.4269E+02  0.4363E+03  0.3036E+03
      3.724  0.2598E+02  0.7817E+01  0.4425E+03  0.3055E+03
      3.965  0.3606E+02  0.2046E+02  0.4512E+03  0.3104E+03
      4.205  0.3964E+02  0.7135E+02  0.4608E+03  0.3276E+03
      4.446  0.3795E+02  0.4779E+02  0.4699E+03  0.3391E+03
      4.687  0.3641E+02  0.1196E+02  0.4787E+03  0.3420E+03
      4.928  0.2604E+02  0.2605E-04  0.4850E+03  0.3420E+03
      5.169  0.4282E+01  0.0000E+00  0.4860E+03  0.3420E+03
      5.410  0.0000E+00  0.0000E+00  0.4860E+03  0.3420E+03
      5.651  0.0000E+00  0.0000E+00  0.4860E+03  0.3420E+03
      5.892  0.0000E+00  0.0000E+00  0.4860E+03  0.3420E+03
      6.133  0.0000E+00  0.8720E-10  0.4860E+03  0.3420E+03
      6.374  0.0000E+00  0.1071E+01  0.4860E+03  0.3423E+03
      6.615  0.0000E+00  0.5103E+01  0.4860E+03  0.3435E+03
      6.855  0.0000E+00  0.9078E+01  0.4860E+03  0.3457E+03
      7.096  0.2526E-14  0.1988E+02  0.4860E+03  0.3505E+03
      7.337  0.3380E-01  0.5917E+02  0.4860E+03  0.3647E+03
      7.578  0.1199E+00  0.6037E+02  0.4860E+03  0.3793E+03
      7.819  0.5557E+00  0.6335E+02  0.4862E+03  0.3945E+03
      8.060  0.5235E+00  0.7430E+02  0.4863E+03  0.4124E+03
      8.301  0.2359E+01  0.7868E+02  0.4869E+03  0.4314E+03
      8.542  0.4471E+01  0.7077E+02  0.4879E+03  0.4484E+03
      8.783  0.9328E+01  0.6679E+02  0.4902E+03  0.4645E+03
      9.024  0.1508E+02  0.4794E+02  0.4938E+03  0.4761E+03
      9.265  0.1572E+02  0.3362E+02  0.4976E+03  0.4842E+03
      9.505  0.1963E+02  0.9286E+01  0.5023E+03  0.4864E+03
      9.746  0.1551E+02  0.5458E+01  0.5061E+03  0.4877E+03
      9.987  0.2388E+02  0.1128E+02  0.5118E+03  0.4904E+03
     10.228  0.1721E+02  0.1583E+02  0.5160E+03  0.4943E+03
     10.469  0.2158E+02  0.2460E+02  0.5212E+03  0.5002E+03
     10.710  0.1506E+02  0.2153E+02  0.5248E+03  0.5054E+03
     10.951  0.1493E+02  0.2167E+02  0.5284E+03  0.5106E+03
     11.192  0.2168E+02  0.3212E+02  0.5336E+03  0.5183E+03
     11.433  0.3197E+02  0.2026E+02  0.5413E+03  0.5232E+03
     11.674  0.2915E+02  0.1872E+02  0.5483E+03  0.5277E+03
     11.915  0.3253E+02  0.1192E+02  0.5562E+03  0.5306E+03
     12.155  0.3664E+02  0.2346E+02  0.5650E+03  0.5362E+03
     12.396  0.2220E+02  0.4441E+02  0.5704E+03  0.5469E+03
     12.637  0.2010E+02  0.3580E+02  0.5752E+03  0.5556E+03
     12.878  0.2576E+02  0.3360E+02  0.5814E+03  0.5637E+03
     13.119  0.2506E+02  0.2047E+02  0.5874E+03  0.5686E+03
     13.360  0.2835E+02  0.2340E+02  0.5943E+03  0.5742E+03
     13.601  0.2549E+02  0.3312E+02  0.6004E+03  0.5822E+03
     13.842  0.1861E+02  0.2661E+02  0.6049E+03  0.5886E+03
     14.083  0.4568E+01  0.2691E+02  0.6060E+03  0.5951E+03
     14.324  0.9855E-03  0.2216E+02  0.6060E+03  0.6004E+03
     14.565  0.0000E+00  0.2043E+02  0.6060E+03  0.6054E+03
     14.805  0.0000E+00  0.2695E+01  0.6060E+03  0.6060E+03
     15.046  0.0000E+00  0.2229E-05  0.6060E+03  0.6060E+03
     15.287  0.0000E+00  0.0000E+00  0.6060E+03  0.6060E+03
     15.528  0.0000E+00  0.0000E+00  0.6060E+03  0.6060E+03
     15.769  0.0000E+00  0.0000E+00  0.6060E+03  0.6060E+03
     16.010  0.0000E+00  0.0000E+00  0.6060E+03  0.6060E+03
     16.251  0.0000E+00  0.0000E+00  0.6060E+03  0.6060E+03
     16.492  0.0000E+00  0.0000E+00  0.6060E+03  0.6060E+03
     16.733  0.0000E+00  0.0000E+00  0.6060E+03  0.6060E+03
     16.974  0.0000E+00  0.0000E+00  0.6060E+03  0.6060E+03
     17.215  0.0000E+00  0.0000E+00  0.6060E+03  0.6060E+03
     17.455  0.0000E+00  0.0000E+00  0.6060E+03  0.6060E+03
     17.696  0.0000E+00  0.0000E+00  0.6060E+03  0.6060E+03
     17.937  0.0000E+00  0.0000E+00  0.6060E+03  0.6060E+03
