<?xml version="1.0" encoding="ISO-8859-1"?>
<modeling>
 <generator>
  <i name="program" type="string">vasp </i>
  <i name="version" type="string">5.4.4.18Apr17-6-g9f103f2a35  </i>
  <i name="subversion" type="string">(build Oct 25 2017 14:42:18) complex            parallel </i>
  <i name="platform" type="string">LinuxIFC </i>
  <i name="date" type="string">2021 05 28 </i>
  <i name="time" type="string">05:30:57 </i>
 </generator>
 <incar>
  <i type="string" name="PREC">accurate</i>
  <i type="string" name="ALGO"> normal</i>
  <i type="logical" name="ADDGRID"> T  </i>
  <i type="int" name="ISPIN">     2</i>
  <i type="int" name="ICHARG">     1</i>
  <i type="int" name="NELM">   200</i>
  <i type="int" name="NELMIN">     8</i>
  <i name="EDIFF">      0.00000100</i>
  <i type="int" name="ISYM">     0</i>
  <i name="ENCUT">    650.00000000</i>
  <v name="MAGMOM">      0.60000000      0.60000000      0.60000000      0.60000000      0.60000000      0.60000000      0.60000000      0.60000000      0.60000000      0.60000000      0.60000000      0.60000000      0.60000000      0.60000000      0.60000000      0.60000000      0.60000000      0.60000000      0.60000000      0.60000000
      0.60000000      0.60000000      0.60000000      0.60000000      0.60000000      0.60000000      0.60000000      0.60000000      0.60000000      0.60000000      0.60000000      0.60000000      0.60000000      0.60000000      0.60000000      0.60000000      0.60000000      0.60000000      0.60000000      0.60000000
      0.60000000      0.60000000      0.60000000      0.60000000      0.60000000      0.60000000      0.60000000      0.60000000      0.60000000      0.60000000      0.60000000      0.60000000      0.60000000      0.60000000      0.60000000      0.60000000      0.60000000      0.60000000      0.60000000      0.60000000
      0.60000000      0.60000000      0.60000000      5.00000000      5.00000000      5.00000000      5.00000000      5.00000000      5.00000000      5.00000000      5.00000000      5.00000000      5.00000000      5.00000000      5.00000000      5.00000000      5.00000000      5.00000000      5.00000000      5.00000000
      5.00000000      5.00000000      5.00000000      5.00000000      5.00000000      5.00000000      5.00000000      5.00000000      5.00000000      5.00000000      5.00000000      5.00000000      5.00000000      5.00000000      5.00000000      5.00000000      5.00000000      5.00000000      5.00000000</v>
  <i type="logical" name="LREAL"> F  </i>
  <i type="int" name="ISMEAR">     0</i>
  <i name="SIGMA">      0.05000000</i>
  <i type="int" name="NWRITE">     1</i>
  <i type="int" name="LMAXMIX">     4</i>
  <i type="logical" name="LWAVE"> F  </i>
  <i type="logical" name="LASPH"> T  </i>
  <v type="int" name="KPOINT_BSE">    -1     0     0     0</v>
  <i type="int" name="NELM">   200</i>
  <i type="string" name="GGA"> pe</i>
  <i type="logical" name="LDAU"> T  </i>
  <v type="int" name="LDAUTYPE">     2</v>
  <v type="int" name="LDAUL">    -1    -1    -1     2</v>
  <v name="LDAUU">      0.00000000      0.00000000      0.00000000      4.00000000</v>
  <v name="LDAUJ">      0.00000000      0.00000000      0.00000000      0.00000000</v>
  <i type="logical" name="LASPH"> T  </i>
 </incar>
 <structure name="primitive_cell" >
  <crystal>
   <varray name="basis" >
    <v>      11.77726974       0.00848871       0.06923316 </v>
    <v>      -0.03028248      11.77723386       0.06923316 </v>
    <v>      -2.02000231      -2.02666320      10.18574622 </v>
   </varray>
   <i name="volume">   1416.10551572 </i>
   <varray name="rec_basis" >
    <v>       0.08481023       0.00011906       0.01684296 </v>
    <v>      -0.00016014       0.08481016       0.01684296 </v>
    <v>      -0.00057537      -0.00057727       0.09794744 </v>
   </varray>
  </crystal>
  <varray name="positions" >
   <v>       0.20224939       0.24206952      -0.16816581 </v>
   <v>       0.19734517       0.40355659      -0.19686089 </v>
   <v>       0.19734517       0.07022326      -0.19686089 </v>
   <v>       0.39684232       0.26982435       0.00000000 </v>
   <v>       0.06350899       0.26982435       0.00000000 </v>
   <v>       0.37094724       0.41064640      -0.15457223 </v>
   <v>       0.03761391       0.41064640      -0.15457223 </v>
   <v>       0.37094724       0.07731307      -0.15457223 </v>
   <v>       0.03761391       0.07731307      -0.15362705 </v>
   <v>       0.00253935       0.20657296      -0.37079665 </v>
   <v>       0.33587268       0.20657296      -0.37079665 </v>
   <v>       0.16118393       0.04306059      -0.39352170 </v>
   <v>       0.16118393       0.37639393      -0.39352170 </v>
   <v>       0.25602027       0.29571943       0.15457223 </v>
   <v>       0.20224939      -0.42459715      -0.16816581 </v>
   <v>       0.20224939      -0.09126381      -0.16816581 </v>
   <v>      -0.13108394       0.24206952      -0.16816581 </v>
   <v>      -0.46441728       0.24206952      -0.16816581 </v>
   <v>       0.26311007       0.46932149       0.19686089 </v>
   <v>       0.26311007       0.13598816       0.19686089 </v>
   <v>      -0.46932149       0.40355659      -0.19686089 </v>
   <v>      -0.13598816       0.07022326      -0.19686089 </v>
   <v>      -0.13598816       0.40355659      -0.19686089 </v>
   <v>      -0.46932149       0.07022326      -0.19686089 </v>
   <v>       0.42459715       0.46441728       0.16816581 </v>
   <v>       0.42459715       0.13108394       0.16816581 </v>
   <v>       0.09126381       0.46441728       0.16816581 </v>
   <v>       0.09126381       0.13108394       0.16816581 </v>
   <v>       0.39684232      -0.39684232       0.00000000 </v>
   <v>       0.06350899      -0.39684232       0.00000000 </v>
   <v>       0.06350899      -0.06350899       0.00000000 </v>
   <v>       0.39684232      -0.06350899       0.00000000 </v>
   <v>       0.00253935      -0.46009370      -0.37079665 </v>
   <v>       0.33587268      -0.46009370      -0.37079665 </v>
   <v>       0.29027274       0.17214940       0.39352170 </v>
   <v>       0.00253935      -0.12676037      -0.37079665 </v>
   <v>       0.33587268      -0.12676037      -0.37079665 </v>
   <v>       0.49451727       0.04306059      -0.39352170 </v>
   <v>      -0.04306059       0.17214940       0.39352170 </v>
   <v>       0.49451727       0.37639393      -0.39352170 </v>
   <v>      -0.17214940       0.04306059      -0.39352170 </v>
   <v>      -0.17214940       0.37639393      -0.39352170 </v>
   <v>       0.12676037       0.33079399       0.37079665 </v>
   <v>       0.12676037      -0.00253935       0.37079665 </v>
   <v>       0.25602027      -0.37094724       0.15457223 </v>
   <v>      -0.41064640       0.29571943       0.15457223 </v>
   <v>      -0.07731307       0.29571943       0.15457223 </v>
   <v>       0.25602027      -0.03761391       0.15457223 </v>
   <v>      -0.46441728      -0.42459715      -0.16816581 </v>
   <v>      -0.13108394      -0.09126381      -0.16816581 </v>
   <v>      -0.13108394      -0.42459715      -0.16816581 </v>
   <v>      -0.46441728      -0.09126381      -0.16816581 </v>
   <v>      -0.40355659       0.46932149       0.19686089 </v>
   <v>      -0.07022326       0.13598816       0.19686089 </v>
   <v>      -0.07022326       0.46932149       0.19686089 </v>
   <v>      -0.40355659       0.13598816       0.19686089 </v>
   <v>       0.46009370       0.33079399       0.37079665 </v>
   <v>       0.19734517      -0.26311007      -0.19686089 </v>
   <v>       0.29027274      -0.49451727       0.39352170 </v>
   <v>      -0.26982435       0.26982435       0.00000000 </v>
   <v>       0.37094724      -0.25602027      -0.15457223 </v>
   <v>      -0.29571943       0.41064640      -0.15457223 </v>
   <v>       0.03761391      -0.25602027      -0.15457223 </v>
   <v>      -0.29571943       0.07731307      -0.15457223 </v>
   <v>       0.29027274      -0.16118393       0.39352170 </v>
   <v>      -0.33079399       0.20657296      -0.37079665 </v>
   <v>      -0.04306059      -0.16118393       0.39352170 </v>
   <v>       0.16118393      -0.29027274      -0.39352170 </v>
   <v>      -0.04306059      -0.49451727       0.39352170 </v>
   <v>      -0.20657296       0.33079399       0.37079665 </v>
   <v>      -0.20657296      -0.00253935       0.37079665 </v>
   <v>      -0.41064640      -0.37094724       0.15457223 </v>
   <v>       0.46009370      -0.00253935       0.37079665 </v>
   <v>      -0.07731307      -0.03761391       0.15457223 </v>
   <v>      -0.07731307      -0.37094724       0.15457223 </v>
   <v>      -0.41064640      -0.03761391       0.15457223 </v>
   <v>       0.26311007      -0.19734517       0.19686089 </v>
   <v>       0.12676037      -0.33587268       0.37079665 </v>
   <v>       0.46009370      -0.33587268       0.37079665 </v>
   <v>      -0.46932149      -0.26311007      -0.19686089 </v>
   <v>      -0.13598816      -0.26311007      -0.19686089 </v>
   <v>       0.42459715      -0.20224939       0.16816581 </v>
   <v>      -0.24206952       0.46441728       0.16816581 </v>
   <v>       0.09126381      -0.20224939       0.16816581 </v>
   <v>      -0.24206952       0.13108394       0.16816581 </v>
   <v>      -0.37639393       0.17214940       0.39352170 </v>
   <v>      -0.37639393      -0.49451727       0.39352170 </v>
   <v>      -0.26982435      -0.39684232       0.00000000 </v>
   <v>      -0.26982435      -0.06350899       0.00000000 </v>
   <v>      -0.33079399      -0.46009370      -0.37079665 </v>
   <v>      -0.33079399      -0.12676037      -0.37079665 </v>
   <v>       0.49451727      -0.29027274      -0.39352170 </v>
   <v>      -0.17214940      -0.29027274      -0.39352170 </v>
   <v>      -0.07022326      -0.19734517       0.19686089 </v>
   <v>      -0.40355659      -0.19734517       0.19686089 </v>
   <v>      -0.37639393      -0.16118393       0.39352170 </v>
   <v>      -0.29571943      -0.25602027      -0.15457223 </v>
   <v>      -0.20657296      -0.33587268       0.37079665 </v>
   <v>      -0.24206952      -0.20224939       0.16816581 </v>
  </varray>
 </structure>
 <varray name="primitive_index" >
  <v type="int" >        1 </v>
  <v type="int" >       31 </v>
  <v type="int" >       28 </v>
  <v type="int" >       56 </v>
  <v type="int" >       55 </v>
  <v type="int" >       86 </v>
  <v type="int" >       85 </v>
  <v type="int" >       83 </v>
  <v type="int" >       82 </v>
  <v type="int" >       37 </v>
  <v type="int" >       38 </v>
  <v type="int" >       73 </v>
  <v type="int" >       76 </v>
  <v type="int" >       91 </v>
  <v type="int" >        4 </v>
  <v type="int" >        7 </v>
  <v type="int" >        3 </v>
  <v type="int" >        2 </v>
  <v type="int" >       22 </v>
  <v type="int" >       19 </v>
  <v type="int" >       32 </v>
  <v type="int" >       30 </v>
  <v type="int" >       33 </v>
  <v type="int" >       29 </v>
  <v type="int" >       14 </v>
  <v type="int" >       11 </v>
  <v type="int" >       13 </v>
  <v type="int" >       10 </v>
  <v type="int" >       59 </v>
  <v type="int" >       58 </v>
  <v type="int" >       61 </v>
  <v type="int" >       62 </v>
  <v type="int" >       40 </v>
  <v type="int" >       41 </v>
  <v type="int" >       64 </v>
  <v type="int" >       43 </v>
  <v type="int" >       44 </v>
  <v type="int" >       74 </v>
  <v type="int" >       66 </v>
  <v type="int" >       77 </v>
  <v type="int" >       75 </v>
  <v type="int" >       78 </v>
  <v type="int" >       46 </v>
  <v type="int" >       52 </v>
  <v type="int" >       94 </v>
  <v type="int" >       92 </v>
  <v type="int" >       93 </v>
  <v type="int" >       97 </v>
  <v type="int" >        5 </v>
  <v type="int" >        9 </v>
  <v type="int" >        6 </v>
  <v type="int" >        8 </v>
  <v type="int" >       23 </v>
  <v type="int" >       21 </v>
  <v type="int" >       24 </v>
  <v type="int" >       20 </v>
  <v type="int" >       47 </v>
  <v type="int" >       34 </v>
  <v type="int" >       67 </v>
  <v type="int" >       57 </v>
  <v type="int" >       89 </v>
  <v type="int" >       87 </v>
  <v type="int" >       88 </v>
  <v type="int" >       84 </v>
  <v type="int" >       70 </v>
  <v type="int" >       39 </v>
  <v type="int" >       72 </v>
  <v type="int" >       79 </v>
  <v type="int" >       69 </v>
  <v type="int" >       48 </v>
  <v type="int" >       54 </v>
  <v type="int" >       95 </v>
  <v type="int" >       53 </v>
  <v type="int" >       99 </v>
  <v type="int" >       96 </v>
  <v type="int" >       98 </v>
  <v type="int" >       25 </v>
  <v type="int" >       49 </v>
  <v type="int" >       50 </v>
  <v type="int" >       35 </v>
  <v type="int" >       36 </v>
  <v type="int" >       17 </v>
  <v type="int" >       15 </v>
  <v type="int" >       16 </v>
  <v type="int" >       12 </v>
  <v type="int" >       65 </v>
  <v type="int" >       68 </v>
  <v type="int" >       60 </v>
  <v type="int" >       63 </v>
  <v type="int" >       42 </v>
  <v type="int" >       45 </v>
  <v type="int" >       80 </v>
  <v type="int" >       81 </v>
  <v type="int" >       27 </v>
  <v type="int" >       26 </v>
  <v type="int" >       71 </v>
  <v type="int" >       90 </v>
  <v type="int" >       51 </v>
  <v type="int" >       18 </v>
 </varray>
 <kpoints>
  <generation param="Gamma">
   <v type="int" name="divisions">       3        3        3 </v>
   <v name="usershift">      0.00000000       0.00000000       0.00000000 </v>
   <v name="genvec1">      0.33333333       0.00000000       0.00000000 </v>
   <v name="genvec2">      0.00000000       0.33333333       0.00000000 </v>
   <v name="genvec3">      0.00000000       0.00000000       0.33333333 </v>
   <v name="shift">      0.00000000       0.00000000       0.00000000 </v>
  </generation>
  <varray name="kpointlist" >
   <v>       0.00000000       0.00000000       0.00000000 </v>
   <v>       0.33333333      -0.00000000      -0.00000000 </v>
   <v>       0.00000000       0.33333333       0.00000000 </v>
   <v>       0.33333333       0.33333333       0.00000000 </v>
   <v>      -0.33333333       0.33333333       0.00000000 </v>
   <v>      -0.00000000      -0.00000000       0.33333333 </v>
   <v>       0.33333333      -0.00000000       0.33333333 </v>
   <v>      -0.33333333      -0.00000000       0.33333333 </v>
   <v>      -0.00000000       0.33333333       0.33333333 </v>
   <v>       0.33333333       0.33333333       0.33333333 </v>
   <v>      -0.33333333       0.33333333       0.33333333 </v>
   <v>      -0.00000000      -0.33333333       0.33333333 </v>
   <v>       0.33333333      -0.33333333       0.33333333 </v>
   <v>      -0.33333333      -0.33333333       0.33333333 </v>
  </varray>
  <varray name="weights" >
   <v>       0.03703704 </v>
   <v>       0.07407407 </v>
   <v>       0.07407407 </v>
   <v>       0.07407407 </v>
   <v>       0.07407407 </v>
   <v>       0.07407407 </v>
   <v>       0.07407407 </v>
   <v>       0.07407407 </v>
   <v>       0.07407407 </v>
   <v>       0.07407407 </v>
   <v>       0.07407407 </v>
   <v>       0.07407407 </v>
   <v>       0.07407407 </v>
   <v>       0.07407407 </v>
  </varray>
 </kpoints>
 <parameters>
  <separator name="general" >
   <i type="string" name="SYSTEM">unknown system</i>
   <i type="logical" name="LCOMPAT"> F  </i>
  </separator>
  <separator name="electronic" >
   <i type="string" name="PREC">accura</i>
   <i name="ENMAX">    650.00000000</i>
   <i name="ENAUG">    628.94500000</i>
   <i name="EDIFF">      0.00000100</i>
   <i type="int" name="IALGO">    38</i>
   <i type="int" name="IWAVPR">    10</i>
   <i type="int" name="NBANDS">   606</i>
   <i name="NELECT">    828.00000000</i>
   <i type="int" name="TURBO">     0</i>
   <i type="int" name="IRESTART">     0</i>
   <i type="int" name="NREBOOT">     0</i>
   <i type="int" name="NMIN">     0</i>
   <i name="EREF">      0.00000000</i>
   <separator name="electronic smearing" >
    <i type="int" name="ISMEAR">     0</i>
    <i name="SIGMA">      0.05000000</i>
    <i name="KSPACING">      0.50000000</i>
    <i type="logical" name="KGAMMA"> T  </i>
   </separator>
   <separator name="electronic projectors" >
    <i type="logical" name="LREAL"> F  </i>
    <v name="ROPT">      0.00000000      0.00000000      0.00000000      0.00000000</v>
    <i type="int" name="LMAXPAW">  -100</i>
    <i type="int" name="LMAXMIX">     4</i>
    <i type="logical" name="NLSPLINE"> F  </i>
   </separator>
   <separator name="electronic startup" >
    <i type="int" name="ISTART">     0</i>
    <i type="int" name="ICHARG">     1</i>
    <i type="int" name="INIWAV">     1</i>
   </separator>
   <separator name="electronic spin" >
    <i type="int" name="ISPIN">     2</i>
    <i type="logical" name="LNONCOLLINEAR"> F  </i>
    <v name="MAGMOM">      0.60000000      0.60000000      0.60000000      0.60000000      0.60000000      0.60000000      0.60000000      0.60000000      0.60000000      0.60000000      0.60000000      0.60000000      0.60000000      0.60000000      0.60000000      0.60000000      0.60000000      0.60000000      0.60000000      0.60000000
      0.60000000      0.60000000      0.60000000      0.60000000      0.60000000      0.60000000      0.60000000      0.60000000      0.60000000      0.60000000      0.60000000      0.60000000      0.60000000      0.60000000      0.60000000      0.60000000      0.60000000      0.60000000      0.60000000      0.60000000
      0.60000000      0.60000000      0.60000000      0.60000000      0.60000000      0.60000000      0.60000000      0.60000000      0.60000000      0.60000000      0.60000000      0.60000000      0.60000000      0.60000000      0.60000000      0.60000000      0.60000000      0.60000000      0.60000000      0.60000000
      0.60000000      0.60000000      0.60000000      5.00000000      5.00000000      5.00000000      5.00000000      5.00000000      5.00000000      5.00000000      5.00000000      5.00000000      5.00000000      5.00000000      5.00000000      5.00000000      5.00000000      5.00000000      5.00000000      5.00000000
      5.00000000      5.00000000      5.00000000      5.00000000      5.00000000      5.00000000      5.00000000      5.00000000      5.00000000      5.00000000      5.00000000      5.00000000      5.00000000      5.00000000      5.00000000      5.00000000      5.00000000      5.00000000      5.00000000</v>
    <i name="NUPDOWN">     -1.00000000</i>
    <i type="logical" name="LSORBIT"> F  </i>
    <v name="SAXIS">      0.00000000      0.00000000      1.00000000</v>
    <i type="logical" name="LSPIRAL"> F  </i>
    <v name="QSPIRAL">      0.00000000      0.00000000      0.00000000</v>
    <i type="logical" name="LZEROZ"> F  </i>
   </separator>
   <separator name="electronic exchange-correlation" >
    <i type="logical" name="LASPH"> T  </i>
    <i type="logical" name="LMETAGGA"> F  </i>
   </separator>
   <separator name="electronic convergence" >
    <i type="int" name="NELM">   200</i>
    <i type="int" name="NELMDL">     0</i>
    <i type="int" name="NELMIN">     8</i>
    <i name="ENINI">    650.00000000</i>
    <separator name="electronic convergence detail" >
     <i type="logical" name="LDIAG"> T  </i>
     <i type="logical" name="LSUBROT"> F  </i>
     <i name="WEIMIN">      0.00000000</i>
     <i name="EBREAK">      0.00000000</i>
     <i name="DEPER">      0.30000000</i>
     <i type="int" name="NRMM">     4</i>
     <i name="TIME">      0.40000000</i>
    </separator>
   </separator>
   <separator name="electronic mixer" >
    <i name="AMIX">      0.40000000</i>
    <i name="BMIX">      1.00000000</i>
    <i name="AMIN">      0.10000000</i>
    <i name="AMIX_MAG">      1.60000000</i>
    <i name="BMIX_MAG">      1.00000000</i>
    <separator name="electronic mixer details" >
     <i type="int" name="IMIX">     4</i>
     <i type="logical" name="MIXFIRST"> F  </i>
     <i type="int" name="MAXMIX">   -45</i>
     <i name="WC">    100.00000000</i>
     <i type="int" name="INIMIX">     1</i>
     <i type="int" name="MIXPRE">     1</i>
     <i type="int" name="MREMOVE">     5</i>
    </separator>
   </separator>
   <separator name="electronic dipolcorrection" >
    <i type="logical" name="LDIPOL"> F  </i>
    <i type="logical" name="LMONO"> F  </i>
    <i type="int" name="IDIPOL">     0</i>
    <i name="EPSILON">      1.00000000</i>
    <v name="DIPOL">   -100.00000000   -100.00000000   -100.00000000</v>
    <i name="EFIELD">      0.00000000</i>
   </separator>
  </separator>
  <separator name="grids" >
   <i type="int" name="NGX">    98</i>
   <i type="int" name="NGY">    98</i>
   <i type="int" name="NGZ">    90</i>
   <i type="int" name="NGXF">   196</i>
   <i type="int" name="NGYF">   196</i>
   <i type="int" name="NGZF">   180</i>
   <i type="logical" name="ADDGRID"> T  </i>
  </separator>
  <separator name="ionic" >
   <i type="int" name="NSW">     0</i>
   <i type="int" name="IBRION">    -1</i>
   <i type="int" name="MDALGO">     0</i>
   <i type="int" name="ISIF">     2</i>
   <i name="PSTRESS">      0.00000000</i>
   <i name="EDIFFG">      0.00001000</i>
   <i type="int" name="NFREE">     0</i>
   <i name="POTIM">      0.50000000</i>
   <i name="SMASS">     -3.00000000</i>
   <i name="SCALEE">      1.00000000</i>
  </separator>
  <separator name="ionic md" >
   <i name="TEBEG">      0.00010000</i>
   <i name="TEEND">      0.00010000</i>
   <i type="int" name="NBLOCK">     1</i>
   <i type="int" name="KBLOCK">     1</i>
   <i type="int" name="NPACO">   256</i>
   <i name="APACO">     16.00000000</i>
  </separator>
  <separator name="symmetry" >
   <i type="int" name="ISYM">     0</i>
   <i name="SYMPREC">      0.00001000</i>
  </separator>
  <separator name="dos" >
   <i type="int" name="LORBIT">     0</i>
   <v name="RWIGS">     -1.00000000     -1.00000000     -1.00000000     -1.00000000</v>
   <i type="int" name="NEDOS">   301</i>
   <i name="EMIN">     10.00000000</i>
   <i name="EMAX">    -10.00000000</i>
   <i name="EFERMI">      0.00000000</i>
  </separator>
  <separator name="writing" >
   <i type="int" name="NWRITE">     1</i>
   <i type="logical" name="LWAVE"> F  </i>
   <i type="logical" name="LDOWNSAMPLE"> F  </i>
   <i type="logical" name="LCHARG"> T  </i>
   <i type="logical" name="LPARD"> F  </i>
   <i type="logical" name="LVTOT"> F  </i>
   <i type="logical" name="LVHAR"> F  </i>
   <i type="logical" name="LELF"> F  </i>
   <i type="logical" name="LOPTICS"> F  </i>
   <v name="STM">      0.00000000      0.00000000      0.00000000      0.00000000      0.00000000      0.00000000      0.00000000</v>
  </separator>
  <separator name="performance" >
   <i type="int" name="NPAR">     2</i>
   <i type="int" name="NSIM">     4</i>
   <i type="int" name="NBLK">    -1</i>
   <i type="logical" name="LPLANE"> T  </i>
   <i type="logical" name="LSCALAPACK"> T  </i>
   <i type="logical" name="LSCAAWARE"> F  </i>
   <i type="logical" name="LSCALU"> F  </i>
   <i type="logical" name="LASYNC"> F  </i>
   <i type="logical" name="LORBITALREAL"> F  </i>
  </separator>
  <separator name="miscellaneous" >
   <i type="int" name="IDIOT">     3</i>
   <i type="int" name="ISPECIAL">     0</i>
   <i type="logical" name="LMUSIC"> F  </i>
   <v name="POMASS">      7.01000000     16.00000000     32.06600000     55.84700000</v>
   <v name="DARWINR">      0.00000000      0.00000000      0.00000000      0.00000000</v>
   <v name="DARWINV">      1.00000000      1.00000000      1.00000000      1.00000000</v>
   <i type="logical" name="LCORR"> T  </i>
  </separator>
  <i type="logical" name="GGA_COMPAT"> T  </i>
  <i type="logical" name="LBERRY"> F  </i>
  <i type="int" name="ICORELEVEL">     0</i>
  <i type="logical" name="LDAU"> T  </i>
  <v type="int" name="LDAUTYPE">     2</v>
  <v type="int" name="LDAUL">    -1</v>
  <v name="LDAUU">      0.00000000</v>
  <v name="LDAUJ">      0.00000000</v>
  <i type="int" name="LDAUPRINT">     0</i>
  <i type="int" name="I_CONSTRAINED_M">     0</i>
  <separator name="electronic exchange-correlation" >
   <i type="string" name="GGA">PE</i>
   <i type="int" name="VOSKOWN">     0</i>
   <i type="logical" name="LHFCALC"> F  </i>
   <i type="string" name="PRECFOCK"></i>
   <i type="logical" name="LSYMGRAD"> F  </i>
   <i type="logical" name="LHFONE"> F  </i>
   <i type="logical" name="LRHFCALC"> F  </i>
   <i type="logical" name="LTHOMAS"> F  </i>
   <i type="logical" name="LMODELHF"> F  </i>
   <i name="ENCUT4O">     -1.00000000</i>
   <i type="int" name="EXXOEP">     0</i>
   <i type="int" name="FOURORBIT">     0</i>
   <i name="AEXX">      0.00000000</i>
   <i name="HFALPHA">      0.00000000</i>
   <i name="MCALPHA">      0.00000000</i>
   <i name="ALDAX">      1.00000000</i>
   <i name="AGGAX">      1.00000000</i>
   <i name="ALDAC">      1.00000000</i>
   <i name="AGGAC">      1.00000000</i>
   <i type="int" name="NKREDX">     1</i>
   <i type="int" name="NKREDY">     1</i>
   <i type="int" name="NKREDZ">     1</i>
   <i type="logical" name="SHIFTRED"> F  </i>
   <i type="logical" name="ODDONLY"> F  </i>
   <i type="logical" name="EVENONLY"> F  </i>
   <i type="int" name="LMAXFOCK">     0</i>
   <i type="int" name="NMAXFOCKAE">     0</i>
   <i type="logical" name="LFOCKAEDFT"> F  </i>
   <i name="HFSCREEN">      0.00000000</i>
   <i name="HFSCREENC">      0.00000000</i>
   <i type="int" name="NBANDSGWLOW">     0</i>
  </separator>
  <separator name="vdW DFT" >
   <i type="logical" name="LUSE_VDW"> F  </i>
   <i name="Zab_VDW">     -0.84910000</i>
   <i name="PARAM1">      0.12340000</i>
   <i name="PARAM2">      1.00000000</i>
   <i name="PARAM3">      0.00000000</i>
  </separator>
  <separator name="model GW" >
   <i type="int" name="MODEL_GW">     0</i>
   <i name="MODEL_EPS0">      8.58245767</i>
   <i name="MODEL_ALPHA">      1.00000000</i>
  </separator>
  <separator name="linear response parameters" >
   <i type="logical" name="LEPSILON"> F  </i>
   <i type="logical" name="LRPA"> F  </i>
   <i type="logical" name="LNABLA"> F  </i>
   <i type="logical" name="LVEL"> F  </i>
   <i type="int" name="KINTER">     0</i>
   <i name="CSHIFT">      0.10000000</i>
   <i name="OMEGAMAX">     -1.00000000</i>
   <i name="DEG_THRESHOLD">      0.00200000</i>
   <i name="RTIME">     -0.10000000</i>
   <i name="WPLASMAI">      0.00000000</i>
   <v name="DFIELD">      0.00000000      0.00000000      0.00000000</v>
   <v name="WPLASMA">      0.00000000      0.00000000      0.00000000      0.00000000      0.00000000      0.00000000      0.00000000      0.00000000      0.00000000</v>
  </separator>
  <separator name="orbital magnetization" >
   <i type="logical" name="NUCIND"> F  </i>
   <v name="MAGPOS">      0.00000000      0.00000000      0.00000000</v>
   <i type="logical" name="LNICSALL"> T  </i>
   <i type="logical" name="ORBITALMAG"> F  </i>
   <i type="logical" name="LMAGBLOCH"> F  </i>
   <i type="logical" name="LCHIMAG"> F  </i>
   <i type="logical" name="LGAUGE"> T  </i>
   <i type="int" name="MAGATOM">     0</i>
   <v name="MAGDIPOL">      0.00000000      0.00000000      0.00000000</v>
   <v name="AVECCONST">      0.00000000      0.00000000      0.00000000</v>
  </separator>
  <separator name="response functions" >
   <i type="logical" name="LADDER"> F  </i>
   <i type="logical" name="LRPAFORCE"> F  </i>
   <i type="logical" name="LFXC"> F  </i>
   <i type="logical" name="LHARTREE"> T  </i>
   <i type="int" name="IBSE">     0</i>
   <v type="int" name="KPOINT">    -1     0     0     0</v>
   <i type="logical" name="LTCTE"> F  </i>
   <i type="logical" name="LTETE"> F  </i>
   <i type="logical" name="LTRIPLET"> F  </i>
   <i type="logical" name="LFXCEPS"> F  </i>
   <i type="logical" name="LFXHEG"> F  </i>
   <i type="int" name="NATURALO">     2</i>
   <i type="logical" name="L2ORDER"> F  </i>
   <i type="logical" name="LMP2LT"> F  </i>
   <i type="logical" name="LUSEW"> F  </i>
   <i name="ENCUTGW">     -2.00000000</i>
   <i name="ENCUTGWSOFT">     -2.00000000</i>
   <i name="ENCUTLF">     -1.00000000</i>
   <i type="int" name="LMAXMP2">    -1</i>
   <i name="SCISSOR">      0.00000000</i>
   <i type="int" name="NOMEGA">     0</i>
   <i type="int" name="NOMEGAR">     0</i>
   <i type="int" name="NBANDSGW">    -1</i>
   <i type="int" name="NBANDSO">    -1</i>
   <i type="int" name="NBANDSV">    -1</i>
   <i type="int" name="NELM">   200</i>
   <i type="int" name="NELMHF">     1</i>
   <i type="int" name="DIM">     3</i>
   <i type="int" name="ANTIRES">     0</i>
   <i name="OMEGAMAX">    -30.00000000</i>
   <i name="OMEGAMIN">    -30.00000000</i>
   <i name="OMEGATL">   -200.00000000</i>
   <i type="int" name="OMEGAGRID">   140</i>
   <i name="CSHIFT">     -0.10000000</i>
   <i type="logical" name="SELFENERGY"> F  </i>
   <i type="logical" name="LSPECTRAL"> F  </i>
   <i type="logical" name="LSPECTRALGW"> F  </i>
   <i type="logical" name="LSINGLES"> F  </i>
   <i type="logical" name="LFERMIGW"> F  </i>
   <i type="logical" name="ODDONLYGW"> F  </i>
   <i type="logical" name="EVENONLYGW"> F  </i>
   <i type="int" name="NKREDLFX">     1</i>
   <i type="int" name="NKREDLFY">     1</i>
   <i type="int" name="NKREDLFZ">     1</i>
   <i type="int" name="MAXMEM">  2800</i>
   <i type="int" name="TELESCOPE">     0</i>
   <i type="int" name="TAUPAR">     1</i>
   <i type="int" name="OMEGAPAR">    -1</i>
   <i name="LAMBDA">      1.00000000</i>
  </separator>
  <separator name="External order field" >
   <i name="OFIELD_KAPPA">      0.00000000</i>
   <v name="OFIELD_K">      0.00000000      0.00000000      0.00000000</v>
   <i name="OFIELD_Q6_NEAR">      0.00000000</i>
   <i name="OFIELD_Q6_FAR">      0.00000000</i>
   <i name="OFIELD_A">      0.00000000</i>
  </separator>
 </parameters>
 <atominfo>
  <atoms>      99 </atoms>
  <types>       4 </types>
  <array name="atoms" >
   <dimension dim="1">ion</dimension>
   <field type="string">element</field>
   <field type="int">atomtype</field>
   <set>
    <rc><c>Li</c><c>   1</c></rc>
    <rc><c>Li</c><c>   1</c></rc>
    <rc><c>Li</c><c>   1</c></rc>
    <rc><c>Li</c><c>   1</c></rc>
    <rc><c>Li</c><c>   1</c></rc>
    <rc><c>Li</c><c>   1</c></rc>
    <rc><c>Li</c><c>   1</c></rc>
    <rc><c>Li</c><c>   1</c></rc>
    <rc><c>Li</c><c>   1</c></rc>
    <rc><c>Li</c><c>   1</c></rc>
    <rc><c>Li</c><c>   1</c></rc>
    <rc><c>Li</c><c>   1</c></rc>
    <rc><c>Li</c><c>   1</c></rc>
    <rc><c>Li</c><c>   1</c></rc>
    <rc><c>Li</c><c>   1</c></rc>
    <rc><c>Li</c><c>   1</c></rc>
    <rc><c>Li</c><c>   1</c></rc>
    <rc><c>Li</c><c>   1</c></rc>
    <rc><c>O </c><c>   2</c></rc>
    <rc><c>O </c><c>   2</c></rc>
    <rc><c>O </c><c>   2</c></rc>
    <rc><c>O </c><c>   2</c></rc>
    <rc><c>O </c><c>   2</c></rc>
    <rc><c>O </c><c>   2</c></rc>
    <rc><c>O </c><c>   2</c></rc>
    <rc><c>O </c><c>   2</c></rc>
    <rc><c>O </c><c>   2</c></rc>
    <rc><c>O </c><c>   2</c></rc>
    <rc><c>O </c><c>   2</c></rc>
    <rc><c>O </c><c>   2</c></rc>
    <rc><c>O </c><c>   2</c></rc>
    <rc><c>O </c><c>   2</c></rc>
    <rc><c>O </c><c>   2</c></rc>
    <rc><c>O </c><c>   2</c></rc>
    <rc><c>O </c><c>   2</c></rc>
    <rc><c>O </c><c>   2</c></rc>
    <rc><c>S </c><c>   3</c></rc>
    <rc><c>S </c><c>   3</c></rc>
    <rc><c>S </c><c>   3</c></rc>
    <rc><c>S </c><c>   3</c></rc>
    <rc><c>S </c><c>   3</c></rc>
    <rc><c>S </c><c>   3</c></rc>
    <rc><c>S </c><c>   3</c></rc>
    <rc><c>S </c><c>   3</c></rc>
    <rc><c>S </c><c>   3</c></rc>
    <rc><c>S </c><c>   3</c></rc>
    <rc><c>S </c><c>   3</c></rc>
    <rc><c>S </c><c>   3</c></rc>
    <rc><c>S </c><c>   3</c></rc>
    <rc><c>S </c><c>   3</c></rc>
    <rc><c>S </c><c>   3</c></rc>
    <rc><c>S </c><c>   3</c></rc>
    <rc><c>S </c><c>   3</c></rc>
    <rc><c>S </c><c>   3</c></rc>
    <rc><c>S </c><c>   3</c></rc>
    <rc><c>S </c><c>   3</c></rc>
    <rc><c>S </c><c>   3</c></rc>
    <rc><c>S </c><c>   3</c></rc>
    <rc><c>S </c><c>   3</c></rc>
    <rc><c>S </c><c>   3</c></rc>
    <rc><c>S </c><c>   3</c></rc>
    <rc><c>S </c><c>   3</c></rc>
    <rc><c>S </c><c>   3</c></rc>
    <rc><c>Fe</c><c>   4</c></rc>
    <rc><c>Fe</c><c>   4</c></rc>
    <rc><c>Fe</c><c>   4</c></rc>
    <rc><c>Fe</c><c>   4</c></rc>
    <rc><c>Fe</c><c>   4</c></rc>
    <rc><c>Fe</c><c>   4</c></rc>
    <rc><c>Fe</c><c>   4</c></rc>
    <rc><c>Fe</c><c>   4</c></rc>
    <rc><c>Fe</c><c>   4</c></rc>
    <rc><c>Fe</c><c>   4</c></rc>
    <rc><c>Fe</c><c>   4</c></rc>
    <rc><c>Fe</c><c>   4</c></rc>
    <rc><c>Fe</c><c>   4</c></rc>
    <rc><c>Fe</c><c>   4</c></rc>
    <rc><c>Fe</c><c>   4</c></rc>
    <rc><c>Fe</c><c>   4</c></rc>
    <rc><c>Fe</c><c>   4</c></rc>
    <rc><c>Fe</c><c>   4</c></rc>
    <rc><c>Fe</c><c>   4</c></rc>
    <rc><c>Fe</c><c>   4</c></rc>
    <rc><c>Fe</c><c>   4</c></rc>
    <rc><c>Fe</c><c>   4</c></rc>
    <rc><c>Fe</c><c>   4</c></rc>
    <rc><c>Fe</c><c>   4</c></rc>
    <rc><c>Fe</c><c>   4</c></rc>
    <rc><c>Fe</c><c>   4</c></rc>
    <rc><c>Fe</c><c>   4</c></rc>
    <rc><c>Fe</c><c>   4</c></rc>
    <rc><c>Fe</c><c>   4</c></rc>
    <rc><c>Fe</c><c>   4</c></rc>
    <rc><c>Fe</c><c>   4</c></rc>
    <rc><c>Fe</c><c>   4</c></rc>
    <rc><c>Fe</c><c>   4</c></rc>
    <rc><c>Fe</c><c>   4</c></rc>
    <rc><c>Fe</c><c>   4</c></rc>
    <rc><c>Fe</c><c>   4</c></rc>
   </set>
  </array>
  <array name="atomtypes" >
   <dimension dim="1">type</dimension>
   <field type="int">atomspertype</field>
   <field type="string">element</field>
   <field>mass</field>
   <field>valence</field>
   <field type="string">pseudopotential</field>
   <set>
    <rc><c>  18</c><c>Li</c><c>      7.01000000</c><c>      3.00000000</c><c>  PAW_PBE Li_sv 10Sep2004               </c></rc>
    <rc><c>  18</c><c>O </c><c>     16.00000000</c><c>      6.00000000</c><c>  PAW_PBE O 08Apr2002                   </c></rc>
    <rc><c>  27</c><c>S </c><c>     32.06600000</c><c>      6.00000000</c><c>  PAW_PBE S 06Sep2000                   </c></rc>
    <rc><c>  36</c><c>Fe</c><c>     55.84700000</c><c>     14.00000000</c><c>  PAW_PBE Fe_pv 02Aug2007               </c></rc>
   </set>
  </array>
 </atominfo>
 <structure name="initialpos" >
  <crystal>
   <varray name="basis" >
    <v>      11.77726974       0.00848871       0.06923316 </v>
    <v>      -0.03028248      11.77723386       0.06923316 </v>
    <v>      -2.02000231      -2.02666320      10.18574622 </v>
   </varray>
   <i name="volume">   1416.10551572 </i>
   <varray name="rec_basis" >
    <v>       0.08481023       0.00011906       0.01684296 </v>
    <v>      -0.00016014       0.08481016       0.01684296 </v>
    <v>      -0.00057537      -0.00057727       0.09794744 </v>
   </varray>
  </crystal>
  <varray name="positions" >
   <v>       0.20224939       0.24206952       0.83183419 </v>
   <v>       0.53558272       0.24206952       0.83183419 </v>
   <v>       0.86891606       0.24206952       0.83183419 </v>
   <v>       0.20224939       0.57540285       0.83183419 </v>
   <v>       0.53558272       0.57540285       0.83183419 </v>
   <v>       0.86891606       0.57540285       0.83183419 </v>
   <v>       0.20224939       0.90873619       0.83183419 </v>
   <v>       0.53558272       0.90873619       0.83183419 </v>
   <v>       0.86891606       0.90873619       0.83183419 </v>
   <v>       0.09126381       0.13108394       0.16816581 </v>
   <v>       0.42459715       0.13108394       0.16816581 </v>
   <v>       0.75793048       0.13108394       0.16816581 </v>
   <v>       0.09126381       0.46441728       0.16816581 </v>
   <v>       0.42459715       0.46441728       0.16816581 </v>
   <v>       0.75793048       0.46441728       0.16816581 </v>
   <v>       0.09126381       0.79775061       0.16816581 </v>
   <v>       0.42459715       0.79775061       0.16816581 </v>
   <v>       0.75793048       0.79775061       0.16816581 </v>
   <v>       0.26311007       0.13598816       0.19686089 </v>
   <v>       0.59644341       0.13598816       0.19686089 </v>
   <v>       0.92977674       0.13598816       0.19686089 </v>
   <v>       0.26311007       0.46932149       0.19686089 </v>
   <v>       0.59644341       0.46932149       0.19686089 </v>
   <v>       0.92977674       0.46932149       0.19686089 </v>
   <v>       0.26311007       0.80265483       0.19686089 </v>
   <v>       0.59644341       0.80265483       0.19686089 </v>
   <v>       0.92977674       0.80265483       0.19686089 </v>
   <v>       0.19734517       0.07022326       0.80313911 </v>
   <v>       0.53067851       0.07022326       0.80313911 </v>
   <v>       0.86401184       0.07022326       0.80313911 </v>
   <v>       0.19734517       0.40355659       0.80313911 </v>
   <v>       0.53067851       0.40355659       0.80313911 </v>
   <v>       0.86401184       0.40355659       0.80313911 </v>
   <v>       0.19734517       0.73688993       0.80313911 </v>
   <v>       0.53067851       0.73688993       0.80313911 </v>
   <v>       0.86401184       0.73688993       0.80313911 </v>
   <v>       0.00253935       0.20657296       0.62920335 </v>
   <v>       0.33587268       0.20657296       0.62920335 </v>
   <v>       0.66920601       0.20657296       0.62920335 </v>
   <v>       0.00253935       0.53990630       0.62920335 </v>
   <v>       0.33587268       0.53990630       0.62920335 </v>
   <v>       0.66920601       0.53990630       0.62920335 </v>
   <v>       0.00253935       0.87323963       0.62920335 </v>
   <v>       0.33587268       0.87323963       0.62920335 </v>
   <v>       0.66920601       0.87323963       0.62920335 </v>
   <v>       0.12676037       0.33079399       0.37079665 </v>
   <v>       0.46009370       0.33079399       0.37079665 </v>
   <v>       0.79342704       0.33079399       0.37079665 </v>
   <v>       0.12676037       0.66412732       0.37079665 </v>
   <v>       0.46009370       0.66412732       0.37079665 </v>
   <v>       0.79342704       0.66412732       0.37079665 </v>
   <v>       0.12676037       0.99746065       0.37079665 </v>
   <v>       0.46009370       0.99746065       0.37079665 </v>
   <v>       0.79342704       0.99746065       0.37079665 </v>
   <v>       0.06350899       0.26982435       0.00000000 </v>
   <v>       0.39684232       0.26982435       0.00000000 </v>
   <v>       0.73017565       0.26982435       0.00000000 </v>
   <v>       0.06350899       0.60315768       0.00000000 </v>
   <v>       0.39684232       0.60315768       0.00000000 </v>
   <v>       0.73017565       0.60315768       0.00000000 </v>
   <v>       0.06350899       0.93649101       0.00000000 </v>
   <v>       0.39684232       0.93649101       0.00000000 </v>
   <v>       0.73017565       0.93649101       0.00000000 </v>
   <v>       0.29027274       0.17214940       0.39352170 </v>
   <v>       0.62360607       0.17214940       0.39352170 </v>
   <v>       0.95693941       0.17214940       0.39352170 </v>
   <v>       0.29027274       0.50548273       0.39352170 </v>
   <v>       0.62360607       0.50548273       0.39352170 </v>
   <v>       0.95693941       0.50548273       0.39352170 </v>
   <v>       0.29027274       0.83881607       0.39352170 </v>
   <v>       0.62360607       0.83881607       0.39352170 </v>
   <v>       0.95693941       0.83881607       0.39352170 </v>
   <v>       0.16118393       0.04306059       0.60647830 </v>
   <v>       0.49451727       0.04306059       0.60647830 </v>
   <v>       0.82785060       0.04306059       0.60647830 </v>
   <v>       0.16118393       0.37639393       0.60647830 </v>
   <v>       0.49451727       0.37639393       0.60647830 </v>
   <v>       0.82785060       0.37639393       0.60647830 </v>
   <v>       0.16118393       0.70972726       0.60647830 </v>
   <v>       0.49451727       0.70972726       0.60647830 </v>
   <v>       0.82785060       0.70972726       0.60647830 </v>
   <v>       0.03761391       0.07731307       0.84637295 </v>
   <v>       0.37094724       0.07731307       0.84542777 </v>
   <v>       0.70428057       0.07731307       0.84542777 </v>
   <v>       0.03761391       0.41064640       0.84542777 </v>
   <v>       0.37094724       0.41064640       0.84542777 </v>
   <v>       0.70428057       0.41064640       0.84542777 </v>
   <v>       0.03761391       0.74397973       0.84542777 </v>
   <v>       0.37094724       0.74397973       0.84542777 </v>
   <v>       0.70428057       0.74397973       0.84542777 </v>
   <v>       0.25602027       0.29571943       0.15457223 </v>
   <v>       0.58935360       0.29571943       0.15457223 </v>
   <v>       0.92268693       0.29571943       0.15457223 </v>
   <v>       0.25602027       0.62905276       0.15457223 </v>
   <v>       0.58935360       0.62905276       0.15457223 </v>
   <v>       0.92268693       0.62905276       0.15457223 </v>
   <v>       0.25602027       0.96238609       0.15457223 </v>
   <v>       0.58935360       0.96238609       0.15457223 </v>
   <v>       0.92268693       0.96238609       0.15457223 </v>
  </varray>
 </structure>
 <calculation>
  <scstep>
   <time name="dav">  430.57  436.73</time>
   <time name="total">  434.29  440.47</time>
   <energy>
    <i name="alphaZ">   2606.24521607 </i>
    <i name="ewald"> -65009.67152830 </i>
    <i name="hartreedc"> -34080.00318639 </i>
    <i name="XCdc">   3632.83602578 </i>
    <i name="pawpsdc"> 104149.30743192 </i>
    <i name="pawaedc">-107360.85880398 </i>
    <i name="eentropy">     -0.01719251 </i>
    <i name="bandstr">    394.22522112 </i>
    <i name="atom"> 107373.91467324 </i>
    <i name="e_fr_energy">  11705.97785696 </i>
    <i name="e_wo_entrp">  11705.99504946 </i>
    <i name="e_0_energy">  11705.98645321 </i>
   </energy>
  </scstep>
  <scstep>
   <time name="dav">  421.40  425.87</time>
   <time name="total">  421.41  425.88</time>
   <energy>
    <i name="e_fr_energy">   1328.68325392 </i>
    <i name="e_wo_entrp">   1328.75039484 </i>
    <i name="e_0_energy">   1328.71682438 </i>
   </energy>
  </scstep>
  <scstep>
   <time name="dav">  444.94  449.33</time>
   <time name="total">  444.95  449.34</time>
   <energy>
    <i name="e_fr_energy">   -345.47650696 </i>
    <i name="e_wo_entrp">   -345.47650696 </i>
    <i name="e_0_energy">   -345.47650696 </i>
   </energy>
  </scstep>
  <scstep>
   <time name="dav">  476.58  480.99</time>
   <time name="total">  476.58  480.99</time>
   <energy>
    <i name="e_fr_energy">   -535.88238456 </i>
    <i name="e_wo_entrp">   -535.88238456 </i>
    <i name="e_0_energy">   -535.88238456 </i>
   </energy>
  </scstep>
  <scstep>
   <time name="dav">  625.49  631.76</time>
   <time name="total">  637.45  643.79</time>
   <energy>
    <i name="e_fr_energy">   -549.79084652 </i>
    <i name="e_wo_entrp">   -549.79084652 </i>
    <i name="e_0_energy">   -549.79084652 </i>
   </energy>
  </scstep>
  <scstep>
   <time name="dav">  560.13  565.52</time>
   <time name="total">  576.03  581.62</time>
   <energy>
    <i name="e_fr_energy">   -550.32195920 </i>
    <i name="e_wo_entrp">   -550.32195920 </i>
    <i name="e_0_energy">   -550.32195920 </i>
   </energy>
  </scstep>
  <scstep>
   <time name="dav">  585.68  591.22</time>
   <time name="total">  601.74  607.38</time>
   <energy>
    <i name="e_fr_energy">   -550.34114015 </i>
    <i name="e_wo_entrp">   -550.34114015 </i>
    <i name="e_0_energy">   -550.34114015 </i>
   </energy>
  </scstep>
  <scstep>
   <time name="dav">  565.47  571.17</time>
   <time name="total">  581.50  587.39</time>
   <energy>
    <i name="e_fr_energy">   -550.34073827 </i>
    <i name="e_wo_entrp">   -550.34073827 </i>
    <i name="e_0_energy">   -550.34073827 </i>
   </energy>
  </scstep>
  <scstep>
   <time name="dav">  610.97  617.07</time>
   <time name="total">  627.00  633.27</time>
   <energy>
    <i name="e_fr_energy">   -550.34004587 </i>
    <i name="e_wo_entrp">   -550.34004587 </i>
    <i name="e_0_energy">   -550.34004587 </i>
   </energy>
  </scstep>
  <scstep>
   <time name="dav">  621.68  627.34</time>
   <time name="total">  637.67  643.47</time>
   <energy>
    <i name="e_fr_energy">   -550.33900009 </i>
    <i name="e_wo_entrp">   -550.33900009 </i>
    <i name="e_0_energy">   -550.33900009 </i>
   </energy>
  </scstep>
  <scstep>
   <time name="dav">  498.37  503.27</time>
   <time name="total">  514.19  519.17</time>
   <energy>
    <i name="e_fr_energy">   -550.33908177 </i>
    <i name="e_wo_entrp">   -550.33908177 </i>
    <i name="e_0_energy">   -550.33908177 </i>
   </energy>
  </scstep>
  <scstep>
   <time name="dav">  548.04  554.14</time>
   <time name="total">  563.81  569.93</time>
   <energy>
    <i name="e_fr_energy">   -550.33907358 </i>
    <i name="e_wo_entrp">   -550.33907358 </i>
    <i name="e_0_energy">   -550.33907358 </i>
   </energy>
  </scstep>
  <scstep>
   <time name="dav">  480.16  485.50</time>
   <time name="total">  496.17  501.61</time>
   <energy>
    <i name="e_fr_energy">   -550.33905522 </i>
    <i name="e_wo_entrp">   -550.33905522 </i>
    <i name="e_0_energy">   -550.33905522 </i>
   </energy>
  </scstep>
  <scstep>
   <time name="dav">  441.38  445.75</time>
   <time name="total">  457.14  461.75</time>
   <energy>
    <i name="e_fr_energy">   -550.33906075 </i>
    <i name="e_wo_entrp">   -550.33906075 </i>
    <i name="e_0_energy">   -550.33906075 </i>
   </energy>
  </scstep>
  <scstep>
   <time name="dav">  435.61  439.33</time>
   <time name="total">  451.43  455.36</time>
   <energy>
    <i name="e_fr_energy">   -550.33905918 </i>
    <i name="e_wo_entrp">   -550.33905918 </i>
    <i name="e_0_energy">   -550.33905918 </i>
   </energy>
  </scstep>
  <scstep>
   <time name="dav">  307.90  310.93</time>
   <time name="total">  311.56  314.66</time>
   <energy>
    <i name="alphaZ">   2606.24521607 </i>
    <i name="ewald"> -65009.67152830 </i>
    <i name="hartreedc"> -34080.00924245 </i>
    <i name="XCdc">   3632.83580409 </i>
    <i name="pawpsdc"> 104149.09510255 </i>
    <i name="pawaedc">-107360.64488917 </i>
    <i name="eentropy">     -0.00000000 </i>
    <i name="bandstr"> -11862.10419516 </i>
    <i name="atom"> 107373.91467324 </i>
    <i name="e_fr_energy">   -550.33905913 </i>
    <i name="e_wo_entrp">   -550.33905913 </i>
    <i name="e_0_energy">   -550.33905913 </i>
   </energy>
  </scstep>
  <structure>
   <crystal>
    <varray name="basis" >
     <v>      11.77726974       0.00848871       0.06923316 </v>
     <v>      -0.03028248      11.77723386       0.06923316 </v>
     <v>      -2.02000231      -2.02666320      10.18574622 </v>
    </varray>
    <i name="volume">   1416.10551572 </i>
    <varray name="rec_basis" >
     <v>       0.08481023       0.00011906       0.01684296 </v>
     <v>      -0.00016014       0.08481016       0.01684296 </v>
     <v>      -0.00057537      -0.00057727       0.09794744 </v>
    </varray>
   </crystal>
   <varray name="positions" >
    <v>       0.20224939       0.24206952       0.83183419 </v>
    <v>       0.53558272       0.24206952       0.83183419 </v>
    <v>       0.86891606       0.24206952       0.83183419 </v>
    <v>       0.20224939       0.57540285       0.83183419 </v>
    <v>       0.53558272       0.57540285       0.83183419 </v>
    <v>       0.86891606       0.57540285       0.83183419 </v>
    <v>       0.20224939       0.90873619       0.83183419 </v>
    <v>       0.53558272       0.90873619       0.83183419 </v>
    <v>       0.86891606       0.90873619       0.83183419 </v>
    <v>       0.09126381       0.13108394       0.16816581 </v>
    <v>       0.42459715       0.13108394       0.16816581 </v>
    <v>       0.75793048       0.13108394       0.16816581 </v>
    <v>       0.09126381       0.46441728       0.16816581 </v>
    <v>       0.42459715       0.46441728       0.16816581 </v>
    <v>       0.75793048       0.46441728       0.16816581 </v>
    <v>       0.09126381       0.79775061       0.16816581 </v>
    <v>       0.42459715       0.79775061       0.16816581 </v>
    <v>       0.75793048       0.79775061       0.16816581 </v>
    <v>       0.26311007       0.13598816       0.19686089 </v>
    <v>       0.59644341       0.13598816       0.19686089 </v>
    <v>       0.92977674       0.13598816       0.19686089 </v>
    <v>       0.26311007       0.46932149       0.19686089 </v>
    <v>       0.59644341       0.46932149       0.19686089 </v>
    <v>       0.92977674       0.46932149       0.19686089 </v>
    <v>       0.26311007       0.80265483       0.19686089 </v>
    <v>       0.59644341       0.80265483       0.19686089 </v>
    <v>       0.92977674       0.80265483       0.19686089 </v>
    <v>       0.19734517       0.07022326       0.80313911 </v>
    <v>       0.53067851       0.07022326       0.80313911 </v>
    <v>       0.86401184       0.07022326       0.80313911 </v>
    <v>       0.19734517       0.40355659       0.80313911 </v>
    <v>       0.53067851       0.40355659       0.80313911 </v>
    <v>       0.86401184       0.40355659       0.80313911 </v>
    <v>       0.19734517       0.73688993       0.80313911 </v>
    <v>       0.53067851       0.73688993       0.80313911 </v>
    <v>       0.86401184       0.73688993       0.80313911 </v>
    <v>       0.00253935       0.20657296       0.62920335 </v>
    <v>       0.33587268       0.20657296       0.62920335 </v>
    <v>       0.66920601       0.20657296       0.62920335 </v>
    <v>       0.00253935       0.53990630       0.62920335 </v>
    <v>       0.33587268       0.53990630       0.62920335 </v>
    <v>       0.66920601       0.53990630       0.62920335 </v>
    <v>       0.00253935       0.87323963       0.62920335 </v>
    <v>       0.33587268       0.87323963       0.62920335 </v>
    <v>       0.66920601       0.87323963       0.62920335 </v>
    <v>       0.12676037       0.33079399       0.37079665 </v>
    <v>       0.46009370       0.33079399       0.37079665 </v>
    <v>       0.79342704       0.33079399       0.37079665 </v>
    <v>       0.12676037       0.66412732       0.37079665 </v>
    <v>       0.46009370       0.66412732       0.37079665 </v>
    <v>       0.79342704       0.66412732       0.37079665 </v>
    <v>       0.12676037       0.99746065       0.37079665 </v>
    <v>       0.46009370       0.99746065       0.37079665 </v>
    <v>       0.79342704       0.99746065       0.37079665 </v>
    <v>       0.06350899       0.26982435       0.00000000 </v>
    <v>       0.39684232       0.26982435       0.00000000 </v>
    <v>       0.73017565       0.26982435       0.00000000 </v>
    <v>       0.06350899       0.60315768       0.00000000 </v>
    <v>       0.39684232       0.60315768       0.00000000 </v>
    <v>       0.73017565       0.60315768       0.00000000 </v>
    <v>       0.06350899       0.93649101       0.00000000 </v>
    <v>       0.39684232       0.93649101       0.00000000 </v>
    <v>       0.73017565       0.93649101       0.00000000 </v>
    <v>       0.29027274       0.17214940       0.39352170 </v>
    <v>       0.62360607       0.17214940       0.39352170 </v>
    <v>       0.95693941       0.17214940       0.39352170 </v>
    <v>       0.29027274       0.50548273       0.39352170 </v>
    <v>       0.62360607       0.50548273       0.39352170 </v>
    <v>       0.95693941       0.50548273       0.39352170 </v>
    <v>       0.29027274       0.83881607       0.39352170 </v>
    <v>       0.62360607       0.83881607       0.39352170 </v>
    <v>       0.95693941       0.83881607       0.39352170 </v>
    <v>       0.16118393       0.04306059       0.60647830 </v>
    <v>       0.49451727       0.04306059       0.60647830 </v>
    <v>       0.82785060       0.04306059       0.60647830 </v>
    <v>       0.16118393       0.37639393       0.60647830 </v>
    <v>       0.49451727       0.37639393       0.60647830 </v>
    <v>       0.82785060       0.37639393       0.60647830 </v>
    <v>       0.16118393       0.70972726       0.60647830 </v>
    <v>       0.49451727       0.70972726       0.60647830 </v>
    <v>       0.82785060       0.70972726       0.60647830 </v>
    <v>       0.03761391       0.07731307       0.84637295 </v>
    <v>       0.37094724       0.07731307       0.84542777 </v>
    <v>       0.70428057       0.07731307       0.84542777 </v>
    <v>       0.03761391       0.41064640       0.84542777 </v>
    <v>       0.37094724       0.41064640       0.84542777 </v>
    <v>       0.70428057       0.41064640       0.84542777 </v>
    <v>       0.03761391       0.74397973       0.84542777 </v>
    <v>       0.37094724       0.74397973       0.84542777 </v>
    <v>       0.70428057       0.74397973       0.84542777 </v>
    <v>       0.25602027       0.29571943       0.15457223 </v>
    <v>       0.58935360       0.29571943       0.15457223 </v>
    <v>       0.92268693       0.29571943       0.15457223 </v>
    <v>       0.25602027       0.62905276       0.15457223 </v>
    <v>       0.58935360       0.62905276       0.15457223 </v>
    <v>       0.92268693       0.62905276       0.15457223 </v>
    <v>       0.25602027       0.96238609       0.15457223 </v>
    <v>       0.58935360       0.96238609       0.15457223 </v>
    <v>       0.92268693       0.96238609       0.15457223 </v>
   </varray>
  </structure>
  <varray name="forces" >
   <v>      -0.00145624      -0.00302540      -0.00288515 </v>
   <v>      -0.00011077       0.00041084      -0.00021612 </v>
   <v>       0.00008270       0.00072839      -0.00288622 </v>
   <v>       0.00031783      -0.00070441      -0.00035751 </v>
   <v>       0.00004886      -0.00060889      -0.00018457 </v>
   <v>      -0.00032104      -0.00070847      -0.00037351 </v>
   <v>       0.00147351       0.00213548      -0.00328268 </v>
   <v>      -0.00011611       0.00053108      -0.00031930 </v>
   <v>      -0.00291297      -0.00168930      -0.00341055 </v>
   <v>      -0.00035374       0.00050243       0.00385351 </v>
   <v>       0.00101003       0.00015048       0.00008507 </v>
   <v>      -0.00092153       0.00012232       0.00024714 </v>
   <v>      -0.00042632       0.00070294       0.00160673 </v>
   <v>       0.00085531      -0.00010548       0.00010274 </v>
   <v>      -0.00076039      -0.00003116       0.00020848 </v>
   <v>      -0.00048277      -0.00146229       0.00204392 </v>
   <v>       0.00093358      -0.00008298       0.00011071 </v>
   <v>      -0.00077102      -0.00014624       0.00017049 </v>
   <v>      -0.00127696      -0.00049638      -0.00215331 </v>
   <v>      -0.00016606      -0.00010243      -0.00032725 </v>
   <v>       0.00089980      -0.00046714      -0.00301095 </v>
   <v>      -0.00080612      -0.00071293      -0.00134675 </v>
   <v>      -0.00025107       0.00005758      -0.00028692 </v>
   <v>       0.00040217      -0.00066560      -0.00126791 </v>
   <v>      -0.00116133       0.00121413      -0.00178233 </v>
   <v>      -0.00018230       0.00001567      -0.00024824 </v>
   <v>       0.00071251       0.00117460      -0.00200786 </v>
   <v>      -0.01904964      -0.00093548       0.00816522 </v>
   <v>       0.00100766       0.00029871       0.00031787 </v>
   <v>       0.00095957      -0.00099234       0.00727195 </v>
   <v>      -0.00034564       0.00059863       0.00158561 </v>
   <v>       0.00020563       0.00025805       0.00036992 </v>
   <v>       0.00025826       0.00033775       0.00169300 </v>
   <v>      -0.00086819       0.00026111       0.00178447 </v>
   <v>       0.00021244       0.00021724       0.00045772 </v>
   <v>       0.00078100       0.00051061       0.00189701 </v>
   <v>      -0.00063972       0.00250660      -0.00311559 </v>
   <v>       0.00085860       0.00066221      -0.00061925 </v>
   <v>      -0.00021475      -0.00004335       0.00017088 </v>
   <v>       0.00003937       0.00029643       0.00043433 </v>
   <v>       0.00006801       0.00016498       0.00004531 </v>
   <v>      -0.00010003       0.00016887       0.00014240 </v>
   <v>      -0.00063549      -0.00249112      -0.00106055 </v>
   <v>       0.00076390      -0.00057498      -0.00052319 </v>
   <v>      -0.00012600       0.00008868       0.00019171 </v>
   <v>       0.00068138       0.00052663      -0.00154583 </v>
   <v>      -0.00014398       0.00002425      -0.00035052 </v>
   <v>      -0.00043358       0.00057377      -0.00114987 </v>
   <v>       0.00043225      -0.00027826      -0.00100997 </v>
   <v>      -0.00012101       0.00003333      -0.00033204 </v>
   <v>      -0.00023025      -0.00030511      -0.00082148 </v>
   <v>       0.00064539      -0.00007453      -0.00248113 </v>
   <v>      -0.00017292       0.00007333      -0.00049774 </v>
   <v>      -0.00031335      -0.00008071      -0.00118904 </v>
   <v>      -0.00083518       0.00532319       0.00639383 </v>
   <v>      -0.00020041       0.00041276       0.00088599 </v>
   <v>       0.00065806      -0.00004649       0.00021884 </v>
   <v>       0.00001245       0.00027934       0.00002175 </v>
   <v>      -0.00018354       0.00006767       0.00012392 </v>
   <v>       0.00021396       0.00006058       0.00004767 </v>
   <v>      -0.00078124      -0.01099312       0.00883485 </v>
   <v>      -0.00047874      -0.00053389       0.00090216 </v>
   <v>       0.00093289      -0.00006135       0.00023753 </v>
   <v>      -0.00007088      -0.00010232       0.00137149 </v>
   <v>       0.00035029      -0.00010026       0.00008728 </v>
   <v>      -0.00018416       0.00054724       0.00453075 </v>
   <v>      -0.00011318      -0.00010542       0.00041421 </v>
   <v>       0.00040704      -0.00013414      -0.00017029 </v>
   <v>      -0.00020756      -0.00011179       0.00048399 </v>
   <v>      -0.00006125       0.00001097       0.00105870 </v>
   <v>       0.00032356       0.00003513       0.00000234 </v>
   <v>      -0.00017946      -0.00048584       0.00283411 </v>
   <v>      -0.00750212       0.00024868       0.01055964 </v>
   <v>      -0.00029784      -0.00003924       0.00050998 </v>
   <v>       0.00616999       0.00046271       0.00329790 </v>
   <v>      -0.00164575      -0.00179885      -0.00013747 </v>
   <v>      -0.00023717      -0.00060710       0.00015397 </v>
   <v>       0.00166734      -0.00168469      -0.00044671 </v>
   <v>      -0.00133954       0.00080088      -0.00038535 </v>
   <v>      -0.00026350       0.00002370       0.00007639 </v>
   <v>       0.00143629       0.00074166      -0.00065252 </v>
   <v>       0.02785458       0.01231933      -0.03495768 </v>
   <v>      -0.00422990       0.00001559      -0.00116422 </v>
   <v>      -0.00073343       0.00001752      -0.00045535 </v>
   <v>       0.00027973      -0.00041836      -0.00395603 </v>
   <v>       0.00010813      -0.00019364      -0.00030060 </v>
   <v>       0.00012369       0.00003905      -0.00030865 </v>
   <v>       0.00027577      -0.00119772      -0.00413894 </v>
   <v>       0.00033662      -0.00004495      -0.00033347 </v>
   <v>      -0.00011192      -0.00026909      -0.00035974 </v>
   <v>       0.00227761       0.00023815       0.00212843 </v>
   <v>      -0.00002269      -0.00004081       0.00021380 </v>
   <v>      -0.00197104       0.00043359       0.00235270 </v>
   <v>       0.00048014      -0.00033480       0.00030607 </v>
   <v>       0.00012753      -0.00020902       0.00018851 </v>
   <v>      -0.00041414      -0.00024312       0.00037632 </v>
   <v>       0.00331081      -0.00020342       0.00329632 </v>
   <v>      -0.00005330      -0.00016815       0.00042527 </v>
   <v>      -0.00300699      -0.00051232       0.00351942 </v>
  </varray>
  <varray name="stress" >
   <v>      -0.25254067      -0.00203167       0.00338086 </v>
   <v>      -0.00156121      -0.11892224      -0.01559621 </v>
   <v>       0.01302240      -0.00565239      -0.12734954 </v>
  </varray>
  <energy>
   <i name="e_fr_energy">   -550.33905913 </i>
   <i name="e_wo_entrp">   -550.33905913 </i>
   <i name="e_0_energy">     -0.00000000 </i>
  </energy>
  <time name="totalsc"> 8963.54 9057.17</time>
  <eigenvalues>
   <array>
    <dimension dim="1">band</dimension>
    <dimension dim="2">kpoint</dimension>
    <dimension dim="3">spin</dimension>
    <field>eigene</field>
    <field>occ</field>
    <set>
     <set comment="spin 1">
      <set comment="kpoint 1">
       <r>  -51.0500    1.0000 </r>
       <r>  -51.0498    1.0000 </r>
       <r>  -51.0496    1.0000 </r>
       <r>  -51.0496    1.0000 </r>
       <r>  -51.0495    1.0000 </r>
       <r>  -51.0493    1.0000 </r>
       <r>  -51.0492    1.0000 </r>
       <r>  -51.0492    1.0000 </r>
       <r>  -51.0491    1.0000 </r>
       <r>  -51.0489    1.0000 </r>
       <r>  -51.0489    1.0000 </r>
       <r>  -51.0484    1.0000 </r>
       <r>  -51.0478    1.0000 </r>
       <r>  -51.0470    1.0000 </r>
       <r>  -51.0465    1.0000 </r>
       <r>  -51.0465    1.0000 </r>
       <r>  -51.0459    1.0000 </r>
       <r>  -51.0451    1.0000 </r>
       <r>  -51.0395    1.0000 </r>
       <r>  -51.0386    1.0000 </r>
       <r>  -51.0385    1.0000 </r>
       <r>  -51.0379    1.0000 </r>
       <r>  -51.0374    1.0000 </r>
       <r>  -51.0372    1.0000 </r>
       <r>  -51.0369    1.0000 </r>
       <r>  -51.0369    1.0000 </r>
       <r>  -51.0365    1.0000 </r>
       <r>  -51.0364    1.0000 </r>
       <r>  -51.0363    1.0000 </r>
       <r>  -51.0360    1.0000 </r>
       <r>  -51.0358    1.0000 </r>
       <r>  -51.0358    1.0000 </r>
       <r>  -51.0358    1.0000 </r>
       <r>  -51.0357    1.0000 </r>
       <r>  -51.0356    1.0000 </r>
       <r>  -51.0338    1.0000 </r>
       <r>  -49.6965    1.0000 </r>
       <r>  -49.6915    1.0000 </r>
       <r>  -49.6911    1.0000 </r>
       <r>  -49.6911    1.0000 </r>
       <r>  -49.6907    1.0000 </r>
       <r>  -49.6903    1.0000 </r>
       <r>  -49.6903    1.0000 </r>
       <r>  -49.6898    1.0000 </r>
       <r>  -49.6895    1.0000 </r>
       <r>  -49.6894    1.0000 </r>
       <r>  -49.6892    1.0000 </r>
       <r>  -49.6892    1.0000 </r>
       <r>  -49.6891    1.0000 </r>
       <r>  -49.6889    1.0000 </r>
       <r>  -49.6888    1.0000 </r>
       <r>  -49.6887    1.0000 </r>
       <r>  -49.6885    1.0000 </r>
       <r>  -49.6869    1.0000 </r>
       <r>  -49.5905    1.0000 </r>
       <r>  -49.5905    1.0000 </r>
       <r>  -49.5901    1.0000 </r>
       <r>  -49.5897    1.0000 </r>
       <r>  -49.5896    1.0000 </r>
       <r>  -49.5896    1.0000 </r>
       <r>  -49.5893    1.0000 </r>
       <r>  -49.5887    1.0000 </r>
       <r>  -49.5886    1.0000 </r>
       <r>  -49.5884    1.0000 </r>
       <r>  -49.5883    1.0000 </r>
       <r>  -49.5881    1.0000 </r>
       <r>  -49.5881    1.0000 </r>
       <r>  -49.5880    1.0000 </r>
       <r>  -49.5879    1.0000 </r>
       <r>  -49.5876    1.0000 </r>
       <r>  -49.5871    1.0000 </r>
       <r>  -49.5864    1.0000 </r>
       <r>  -49.5614    1.0000 </r>
       <r>  -49.5613    1.0000 </r>
       <r>  -49.5611    1.0000 </r>
       <r>  -49.5610    1.0000 </r>
       <r>  -49.5609    1.0000 </r>
       <r>  -49.5605    1.0000 </r>
       <r>  -49.5590    1.0000 </r>
       <r>  -49.5589    1.0000 </r>
       <r>  -49.5588    1.0000 </r>
       <r>  -49.5587    1.0000 </r>
       <r>  -49.5587    1.0000 </r>
       <r>  -49.5585    1.0000 </r>
       <r>  -49.5585    1.0000 </r>
       <r>  -49.5581    1.0000 </r>
       <r>  -49.5577    1.0000 </r>
       <r>  -49.5566    1.0000 </r>
       <r>  -49.5565    1.0000 </r>
       <r>  -49.5554    1.0000 </r>
       <r>  -49.5500    1.0000 </r>
       <r>  -49.5499    1.0000 </r>
       <r>  -49.5493    1.0000 </r>
       <r>  -49.5488    1.0000 </r>
       <r>  -49.5484    1.0000 </r>
       <r>  -49.5483    1.0000 </r>
       <r>  -49.5482    1.0000 </r>
       <r>  -49.5479    1.0000 </r>
       <r>  -49.5476    1.0000 </r>
       <r>  -49.5475    1.0000 </r>
       <r>  -49.5473    1.0000 </r>
       <r>  -49.5470    1.0000 </r>
       <r>  -49.5469    1.0000 </r>
       <r>  -49.5468    1.0000 </r>
       <r>  -49.5466    1.0000 </r>
       <r>  -49.5465    1.0000 </r>
       <r>  -49.5465    1.0000 </r>
       <r>  -49.5452    1.0000 </r>
       <r>  -39.8657    1.0000 </r>
       <r>  -39.8651    1.0000 </r>
       <r>  -39.8647    1.0000 </r>
       <r>  -39.8644    1.0000 </r>
       <r>  -39.8631    1.0000 </r>
       <r>  -39.8631    1.0000 </r>
       <r>  -39.8628    1.0000 </r>
       <r>  -39.8628    1.0000 </r>
       <r>  -39.8627    1.0000 </r>
       <r>  -39.8627    1.0000 </r>
       <r>  -39.8626    1.0000 </r>
       <r>  -39.8625    1.0000 </r>
       <r>  -39.8623    1.0000 </r>
       <r>  -39.8622    1.0000 </r>
       <r>  -39.8621    1.0000 </r>
       <r>  -39.8621    1.0000 </r>
       <r>  -39.8620    1.0000 </r>
       <r>  -39.8602    1.0000 </r>
       <r>  -13.2357    1.0000 </r>
       <r>  -13.2350    1.0000 </r>
       <r>  -13.2348    1.0000 </r>
       <r>  -13.2322    1.0000 </r>
       <r>  -13.2251    1.0000 </r>
       <r>  -13.1980    1.0000 </r>
       <r>  -13.0555    1.0000 </r>
       <r>  -13.0552    1.0000 </r>
       <r>  -13.0544    1.0000 </r>
       <r>  -13.0532    1.0000 </r>
       <r>  -13.0424    1.0000 </r>
       <r>  -13.0418    1.0000 </r>
       <r>  -13.0413    1.0000 </r>
       <r>  -13.0392    1.0000 </r>
       <r>  -13.0192    1.0000 </r>
       <r>  -13.0189    1.0000 </r>
       <r>  -13.0184    1.0000 </r>
       <r>  -13.0157    1.0000 </r>
       <r>   -7.6145    1.0000 </r>
       <r>   -7.4134    1.0000 </r>
       <r>   -7.3786    1.0000 </r>
       <r>   -7.3769    1.0000 </r>
       <r>   -7.3753    1.0000 </r>
       <r>   -7.3749    1.0000 </r>
       <r>   -7.1846    1.0000 </r>
       <r>   -7.1824    1.0000 </r>
       <r>   -7.1738    1.0000 </r>
       <r>   -7.1727    1.0000 </r>
       <r>   -7.1515    1.0000 </r>
       <r>   -7.1513    1.0000 </r>
       <r>   -7.1505    1.0000 </r>
       <r>   -7.1503    1.0000 </r>
       <r>   -6.9835    1.0000 </r>
       <r>   -6.9644    1.0000 </r>
       <r>   -6.9638    1.0000 </r>
       <r>   -6.9300    1.0000 </r>
       <r>   -6.9297    1.0000 </r>
       <r>   -6.8710    1.0000 </r>
       <r>   -6.8709    1.0000 </r>
       <r>   -6.8702    1.0000 </r>
       <r>   -6.8695    1.0000 </r>
       <r>   -6.8064    1.0000 </r>
       <r>   -6.8059    1.0000 </r>
       <r>   -6.7798    1.0000 </r>
       <r>   -6.7794    1.0000 </r>
       <r>   -1.8373    1.0000 </r>
       <r>   -1.8371    1.0000 </r>
       <r>   -1.8360    1.0000 </r>
       <r>   -1.8343    1.0000 </r>
       <r>   -1.8161    1.0000 </r>
       <r>   -1.8151    1.0000 </r>
       <r>   -1.8035    1.0000 </r>
       <r>   -1.8021    1.0000 </r>
       <r>   -1.7663    1.0000 </r>
       <r>   -1.7649    1.0000 </r>
       <r>   -1.7535    1.0000 </r>
       <r>   -1.7518    1.0000 </r>
       <r>   -1.2809    1.0000 </r>
       <r>   -1.1977    1.0000 </r>
       <r>   -1.1972    1.0000 </r>
       <r>   -1.1970    1.0000 </r>
       <r>   -1.1967    1.0000 </r>
       <r>   -1.0047    1.0000 </r>
       <r>   -1.0043    1.0000 </r>
       <r>   -0.9739    1.0000 </r>
       <r>   -0.9735    1.0000 </r>
       <r>   -0.9588    1.0000 </r>
       <r>   -0.9585    1.0000 </r>
       <r>   -0.9470    1.0000 </r>
       <r>   -0.9386    1.0000 </r>
       <r>   -0.9313    1.0000 </r>
       <r>   -0.9284    1.0000 </r>
       <r>   -0.9278    1.0000 </r>
       <r>   -0.8851    1.0000 </r>
       <r>   -0.8846    1.0000 </r>
       <r>   -0.8844    1.0000 </r>
       <r>   -0.8842    1.0000 </r>
       <r>   -0.8714    1.0000 </r>
       <r>   -0.8710    1.0000 </r>
       <r>   -0.8675    1.0000 </r>
       <r>   -0.8670    1.0000 </r>
       <r>   -0.8665    1.0000 </r>
       <r>   -0.8659    1.0000 </r>
       <r>   -0.8590    1.0000 </r>
       <r>   -0.8588    1.0000 </r>
       <r>   -0.7008    1.0000 </r>
       <r>   -0.7004    1.0000 </r>
       <r>   -0.7001    1.0000 </r>
       <r>   -0.6987    1.0000 </r>
       <r>   -0.6707    1.0000 </r>
       <r>   -0.6705    1.0000 </r>
       <r>   -0.6225    1.0000 </r>
       <r>   -0.6223    1.0000 </r>
       <r>   -0.6223    1.0000 </r>
       <r>   -0.6217    1.0000 </r>
       <r>   -0.6214    1.0000 </r>
       <r>   -0.6211    1.0000 </r>
       <r>   -0.3528    1.0000 </r>
       <r>   -0.3526    1.0000 </r>
       <r>   -0.3520    1.0000 </r>
       <r>   -0.3515    1.0000 </r>
       <r>   -0.3219    1.0000 </r>
       <r>   -0.3214    1.0000 </r>
       <r>   -0.2910    1.0000 </r>
       <r>   -0.2908    1.0000 </r>
       <r>   -0.2643    1.0000 </r>
       <r>   -0.2638    1.0000 </r>
       <r>   -0.2637    1.0000 </r>
       <r>   -0.2634    1.0000 </r>
       <r>   -0.2601    1.0000 </r>
       <r>   -0.2599    1.0000 </r>
       <r>   -0.2580    1.0000 </r>
       <r>   -0.2479    1.0000 </r>
       <r>   -0.2478    1.0000 </r>
       <r>   -0.2421    1.0000 </r>
       <r>   -0.2211    1.0000 </r>
       <r>   -0.1407    1.0000 </r>
       <r>   -0.1401    1.0000 </r>
       <r>   -0.1398    1.0000 </r>
       <r>   -0.1397    1.0000 </r>
       <r>   -0.1390    1.0000 </r>
       <r>   -0.1386    1.0000 </r>
       <r>   -0.1246    1.0000 </r>
       <r>   -0.1239    1.0000 </r>
       <r>   -0.1231    1.0000 </r>
       <r>   -0.1228    1.0000 </r>
       <r>   -0.1197    1.0000 </r>
       <r>   -0.1197    1.0000 </r>
       <r>   -0.0775    1.0000 </r>
       <r>   -0.0774    1.0000 </r>
       <r>   -0.0591    1.0000 </r>
       <r>   -0.0116    1.0000 </r>
       <r>   -0.0113    1.0000 </r>
       <r>    0.0152    1.0000 </r>
       <r>    0.0155    1.0000 </r>
       <r>    0.0261    1.0000 </r>
       <r>    0.0265    1.0000 </r>
       <r>    0.0433    1.0000 </r>
       <r>    0.0434    1.0000 </r>
       <r>    0.0436    1.0000 </r>
       <r>    0.0438    1.0000 </r>
       <r>    0.0606    1.0000 </r>
       <r>    0.0611    1.0000 </r>
       <r>    0.1500    1.0000 </r>
       <r>    0.1503    1.0000 </r>
       <r>    0.1504    1.0000 </r>
       <r>    0.1506    1.0000 </r>
       <r>    0.1577    1.0000 </r>
       <r>    0.1628    1.0000 </r>
       <r>    0.1647    1.0000 </r>
       <r>    0.1824    1.0000 </r>
       <r>    0.1833    1.0000 </r>
       <r>    0.1918    1.0000 </r>
       <r>    0.1968    1.0000 </r>
       <r>    0.1973    1.0000 </r>
       <r>    0.2080    1.0000 </r>
       <r>    0.2082    1.0000 </r>
       <r>    0.2565    1.0000 </r>
       <r>    0.2580    1.0000 </r>
       <r>    0.2585    1.0000 </r>
       <r>    0.2588    1.0000 </r>
       <r>    0.2782    1.0000 </r>
       <r>    0.2785    1.0000 </r>
       <r>    0.3389    1.0000 </r>
       <r>    0.3392    1.0000 </r>
       <r>    0.3584    1.0000 </r>
       <r>    0.3596    1.0000 </r>
       <r>    0.3600    1.0000 </r>
       <r>    0.3601    1.0000 </r>
       <r>    0.3803    1.0000 </r>
       <r>    0.3834    1.0000 </r>
       <r>    0.4890    1.0000 </r>
       <r>    0.4892    1.0000 </r>
       <r>    0.4896    1.0000 </r>
       <r>    0.4902    1.0000 </r>
       <r>    0.5173    1.0000 </r>
       <r>    0.5174    1.0000 </r>
       <r>    0.5177    1.0000 </r>
       <r>    0.5180    1.0000 </r>
       <r>    0.5586    1.0000 </r>
       <r>    0.5587    1.0000 </r>
       <r>    0.6084    1.0000 </r>
       <r>    0.6087    1.0000 </r>
       <r>    0.6156    1.0000 </r>
       <r>    0.6312    1.0000 </r>
       <r>    0.6313    1.0000 </r>
       <r>    0.6314    1.0000 </r>
       <r>    0.6315    1.0000 </r>
       <r>    0.7524    1.0000 </r>
       <r>    0.7526    1.0000 </r>
       <r>    0.7617    1.0000 </r>
       <r>    0.7620    1.0000 </r>
       <r>    0.7622    1.0000 </r>
       <r>    0.7624    1.0000 </r>
       <r>    0.7912    1.0000 </r>
       <r>    0.7913    1.0000 </r>
       <r>    0.7940    1.0000 </r>
       <r>    0.8454    1.0000 </r>
       <r>    0.8458    1.0000 </r>
       <r>    0.8550    1.0000 </r>
       <r>    0.8551    1.0000 </r>
       <r>    0.9685    1.0000 </r>
       <r>    0.9691    1.0000 </r>
       <r>    0.9694    1.0000 </r>
       <r>    0.9698    1.0000 </r>
       <r>    0.9789    1.0000 </r>
       <r>    1.2395    1.0000 </r>
       <r>    1.2396    1.0000 </r>
       <r>    1.2398    1.0000 </r>
       <r>    1.2402    1.0000 </r>
       <r>    1.2644    1.0000 </r>
       <r>    1.2922    1.0000 </r>
       <r>    1.2924    1.0000 </r>
       <r>    1.3304    1.0000 </r>
       <r>    1.3307    1.0000 </r>
       <r>    1.3584    1.0000 </r>
       <r>    1.3586    1.0000 </r>
       <r>    1.3592    1.0000 </r>
       <r>    1.3594    1.0000 </r>
       <r>    1.4368    1.0000 </r>
       <r>    1.4370    1.0000 </r>
       <r>    1.4643    1.0000 </r>
       <r>    1.4757    1.0000 </r>
       <r>    1.4877    1.0000 </r>
       <r>    1.4878    1.0000 </r>
       <r>    1.5479    1.0000 </r>
       <r>    1.6795    1.0000 </r>
       <r>    1.6796    1.0000 </r>
       <r>    1.6799    1.0000 </r>
       <r>    1.7230    1.0000 </r>
       <r>    1.7236    1.0000 </r>
       <r>    1.7240    1.0000 </r>
       <r>    1.7244    1.0000 </r>
       <r>    1.7650    1.0000 </r>
       <r>    1.7655    1.0000 </r>
       <r>    1.8141    1.0000 </r>
       <r>    1.8146    1.0000 </r>
       <r>    1.8148    1.0000 </r>
       <r>    1.8150    1.0000 </r>
       <r>    1.8275    1.0000 </r>
       <r>    1.8277    1.0000 </r>
       <r>    1.8281    1.0000 </r>
       <r>    1.8285    1.0000 </r>
       <r>    1.8395    1.0000 </r>
       <r>    1.8767    1.0000 </r>
       <r>    1.8874    1.0000 </r>
       <r>    1.9019    1.0000 </r>
       <r>    1.9030    1.0000 </r>
       <r>    1.9170    1.0000 </r>
       <r>    1.9176    1.0000 </r>
       <r>    1.9631    1.0000 </r>
       <r>    1.9634    1.0000 </r>
       <r>    1.9899    1.0000 </r>
       <r>    1.9900    1.0000 </r>
       <r>    1.9993    1.0000 </r>
       <r>    1.9994    1.0000 </r>
       <r>    2.0000    1.0000 </r>
       <r>    2.0003    1.0000 </r>
       <r>    2.0708    1.0000 </r>
       <r>    2.0717    1.0000 </r>
       <r>    2.0807    1.0000 </r>
       <r>    2.0814    1.0000 </r>
       <r>    2.0815    1.0000 </r>
       <r>    2.0864    1.0000 </r>
       <r>    2.0945    1.0000 </r>
       <r>    2.0952    1.0000 </r>
       <r>    2.1166    1.0000 </r>
       <r>    2.1167    1.0000 </r>
       <r>    2.1168    1.0000 </r>
       <r>    2.1174    1.0000 </r>
       <r>    2.1957    1.0000 </r>
       <r>    2.1960    1.0000 </r>
       <r>    2.2881    1.0000 </r>
       <r>    2.2884    1.0000 </r>
       <r>    2.4162    1.0000 </r>
       <r>    2.4168    1.0000 </r>
       <r>    2.4401    1.0000 </r>
       <r>    2.4406    1.0000 </r>
       <r>    2.4407    1.0000 </r>
       <r>    2.4415    1.0000 </r>
       <r>    2.4997    1.0000 </r>
       <r>    2.5157    1.0000 </r>
       <r>    2.5165    1.0000 </r>
       <r>    2.5168    1.0000 </r>
       <r>    2.5171    1.0000 </r>
       <r>    2.5594    1.0000 </r>
       <r>    2.5599    1.0000 </r>
       <r>    2.5658    1.0000 </r>
       <r>    2.7177    1.0000 </r>
       <r>    2.7184    1.0000 </r>
       <r>    2.7189    1.0000 </r>
       <r>    2.7196    1.0000 </r>
       <r>    2.7328    1.0000 </r>
       <r>    2.7336    1.0000 </r>
       <r>    2.8001    1.0000 </r>
       <r>    2.8006    1.0000 </r>
       <r>    3.0026    1.0000 </r>
       <r>    3.0028    1.0000 </r>
       <r>    3.0066    1.0000 </r>
       <r>    3.0067    1.0000 </r>
       <r>    3.1708    1.0000 </r>
       <r>    3.2192    1.0000 </r>
       <r>    3.2195    1.0000 </r>
       <r>    3.2219    1.0000 </r>
       <r>    3.2223    1.0000 </r>
       <r>    3.3588    1.0000 </r>
       <r>    3.3597    1.0000 </r>
       <r>    3.3599    1.0000 </r>
       <r>    3.3609    1.0000 </r>
       <r>    3.3939    1.0000 </r>
       <r>    3.4027    1.0000 </r>
       <r>    3.5010    1.0000 </r>
       <r>    3.5022    1.0000 </r>
       <r>    3.5866    1.0000 </r>
       <r>    3.5874    1.0000 </r>
       <r>    3.8159    1.0000 </r>
       <r>    3.8159    1.0000 </r>
       <r>    3.8297    1.0000 </r>
       <r>    3.8305    1.0000 </r>
       <r>    4.0021    1.0000 </r>
       <r>    4.0026    1.0000 </r>
       <r>    4.0030    1.0000 </r>
       <r>    4.0034    1.0000 </r>
       <r>    4.0307    1.0000 </r>
       <r>    4.0313    1.0000 </r>
       <r>    4.0314    1.0000 </r>
       <r>    4.0318    1.0000 </r>
       <r>    4.1067    1.0000 </r>
       <r>    4.1175    1.0000 </r>
       <r>    4.1228    1.0000 </r>
       <r>    4.1592    1.0000 </r>
       <r>    4.1603    1.0000 </r>
       <r>    4.2582    1.0000 </r>
       <r>    4.2593    1.0000 </r>
       <r>    4.2760    1.0000 </r>
       <r>    4.2772    1.0000 </r>
       <r>    4.3303    1.0000 </r>
       <r>    4.3309    1.0000 </r>
       <r>    4.3587    1.0000 </r>
       <r>    4.3591    1.0000 </r>
       <r>    4.3592    1.0000 </r>
       <r>    4.3600    1.0000 </r>
       <r>    4.4110    1.0000 </r>
       <r>    4.4119    1.0000 </r>
       <r>    4.4331    1.0000 </r>
       <r>    4.4337    1.0000 </r>
       <r>    4.5235    1.0000 </r>
       <r>    4.5236    1.0000 </r>
       <r>    4.5237    1.0000 </r>
       <r>    4.5248    1.0000 </r>
       <r>    4.5507    1.0000 </r>
       <r>    4.5511    1.0000 </r>
       <r>    4.8121    1.0000 </r>
       <r>    4.8124    1.0000 </r>
       <r>    4.8126    1.0000 </r>
       <r>    4.8129    1.0000 </r>
       <r>    4.8747    1.0000 </r>
       <r>    4.8754    1.0000 </r>
       <r>    4.8756    1.0000 </r>
       <r>    4.8758    1.0000 </r>
       <r>    7.3646    0.0000 </r>
       <r>    8.4311    0.0000 </r>
       <r>    8.6654    0.0000 </r>
       <r>    8.6660    0.0000 </r>
       <r>    8.8417    0.0000 </r>
       <r>    8.8420    0.0000 </r>
       <r>    8.8421    0.0000 </r>
       <r>    8.8427    0.0000 </r>
       <r>    8.9868    0.0000 </r>
       <r>    8.9873    0.0000 </r>
       <r>    9.3115    0.0000 </r>
       <r>    9.3117    0.0000 </r>
       <r>    9.3119    0.0000 </r>
       <r>    9.3122    0.0000 </r>
       <r>    9.3220    0.0000 </r>
       <r>    9.3224    0.0000 </r>
       <r>    9.4456    0.0000 </r>
       <r>    9.4460    0.0000 </r>
       <r>    9.5159    0.0000 </r>
       <r>    9.5161    0.0000 </r>
       <r>    9.5162    0.0000 </r>
       <r>    9.5166    0.0000 </r>
       <r>    9.8715    0.0000 </r>
       <r>    9.8774    0.0000 </r>
       <r>    9.9158    0.0000 </r>
       <r>    9.9176    0.0000 </r>
       <r>    9.9185    0.0000 </r>
       <r>    9.9193    0.0000 </r>
       <r>    9.9665    0.0000 </r>
       <r>    9.9674    0.0000 </r>
       <r>   10.0696    0.0000 </r>
       <r>   10.0699    0.0000 </r>
       <r>   10.4893    0.0000 </r>
       <r>   10.5018    0.0000 </r>
       <r>   10.5023    0.0000 </r>
       <r>   10.5189    0.0000 </r>
       <r>   10.5193    0.0000 </r>
       <r>   10.7999    0.0000 </r>
       <r>   10.8013    0.0000 </r>
       <r>   10.8017    0.0000 </r>
       <r>   10.8022    0.0000 </r>
       <r>   10.8755    0.0000 </r>
       <r>   10.8758    0.0000 </r>
       <r>   11.0180    0.0000 </r>
       <r>   11.0185    0.0000 </r>
       <r>   11.0509    0.0000 </r>
       <r>   11.2663    0.0000 </r>
       <r>   11.2667    0.0000 </r>
       <r>   11.3733    0.0000 </r>
       <r>   11.3735    0.0000 </r>
       <r>   11.3738    0.0000 </r>
       <r>   11.3743    0.0000 </r>
       <r>   11.3860    0.0000 </r>
       <r>   11.3874    0.0000 </r>
       <r>   11.3941    0.0000 </r>
       <r>   11.3945    0.0000 </r>
       <r>   11.3947    0.0000 </r>
       <r>   11.3951    0.0000 </r>
       <r>   11.4482    0.0000 </r>
       <r>   11.6168    0.0000 </r>
       <r>   11.6176    0.0000 </r>
       <r>   11.8016    0.0000 </r>
       <r>   11.8018    0.0000 </r>
[...]
       <r>   -45.9038    70.4358    52.9617 </r>
       <r>   -45.6629   228.4599   108.0000 </r>
       <r>   -45.4220     0.0000   108.0000 </r>
       <r>   -45.1811     0.0000   108.0000 </r>
       <r>   -44.9402     0.0000   108.0000 </r>
       <r>   -44.6993     0.0000   108.0000 </r>
       <r>   -44.4583     0.0000   108.0000 </r>
       <r>   -44.2174     0.0000   108.0000 </r>
       <r>   -43.9765     0.0000   108.0000 </r>
       <r>   -43.7356     0.0000   108.0000 </r>
       <r>   -43.4947     0.0000   108.0000 </r>
       <r>   -43.2538     0.0000   108.0000 </r>
       <r>   -43.0129     0.0000   108.0000 </r>
       <r>   -42.7720     0.0000   108.0000 </r>
       <r>   -42.5311     0.0000   108.0000 </r>
       <r>   -42.2902     0.0000   108.0000 </r>
       <r>   -42.0492     0.0000   108.0000 </r>
       <r>   -41.8083     0.0000   108.0000 </r>
       <r>   -41.5674     0.0000   108.0000 </r>
       <r>   -41.3265     0.0000   108.0000 </r>
       <r>   -41.0856     0.0000   108.0000 </r>
       <r>   -40.8447     0.0000   108.0000 </r>
       <r>   -40.6038     0.0000   108.0000 </r>
       <r>   -40.3629     0.0000   108.0000 </r>
       <r>   -40.1220     0.0000   108.0000 </r>
       <r>   -39.8811    21.2342   113.1155 </r>
       <r>   -39.6401    53.4825   126.0000 </r>
       <r>   -39.3992     0.0000   126.0000 </r>
       <r>   -39.1583     0.0000   126.0000 </r>
       <r>   -38.9174     0.0000   126.0000 </r>
       <r>   -38.6765     0.0000   126.0000 </r>
       <r>   -38.4356     0.0000   126.0000 </r>
       <r>   -38.1947     0.0000   126.0000 </r>
       <r>   -37.9538     0.0000   126.0000 </r>
       <r>   -37.7129     0.0000   126.0000 </r>
       <r>   -37.4720     0.0000   126.0000 </r>
       <r>   -37.2310     0.0000   126.0000 </r>
       <r>   -36.9901     0.0000   126.0000 </r>
       <r>   -36.7492     0.0000   126.0000 </r>
       <r>   -36.5083     0.0000   126.0000 </r>
       <r>   -36.2674     0.0000   126.0000 </r>
       <r>   -36.0265     0.0000   126.0000 </r>
       <r>   -35.7856     0.0000   126.0000 </r>
       <r>   -35.5447     0.0000   126.0000 </r>
       <r>   -35.3038     0.0000   126.0000 </r>
       <r>   -35.0629     0.0000   126.0000 </r>
       <r>   -34.8219     0.0000   126.0000 </r>
       <r>   -34.5810     0.0000   126.0000 </r>
       <r>   -34.3401     0.0000   126.0000 </r>
       <r>   -34.0992     0.0000   126.0000 </r>
       <r>   -33.8583     0.0000   126.0000 </r>
       <r>   -33.6174     0.0000   126.0000 </r>
       <r>   -33.3765     0.0000   126.0000 </r>
       <r>   -33.1356     0.0000   126.0000 </r>
       <r>   -32.8947     0.0000   126.0000 </r>
       <r>   -32.6538     0.0000   126.0000 </r>
       <r>   -32.4128     0.0000   126.0000 </r>
       <r>   -32.1719     0.0000   126.0000 </r>
       <r>   -31.9310     0.0000   126.0000 </r>
       <r>   -31.6901     0.0000   126.0000 </r>
       <r>   -31.4492     0.0000   126.0000 </r>
       <r>   -31.2083     0.0000   126.0000 </r>
       <r>   -30.9674     0.0000   126.0000 </r>
       <r>   -30.7265     0.0000   126.0000 </r>
       <r>   -30.4856     0.0000   126.0000 </r>
       <r>   -30.2447     0.0000   126.0000 </r>
       <r>   -30.0037     0.0000   126.0000 </r>
       <r>   -29.7628     0.0000   126.0000 </r>
       <r>   -29.5219     0.0000   126.0000 </r>
       <r>   -29.2810     0.0000   126.0000 </r>
       <r>   -29.0401     0.0000   126.0000 </r>
       <r>   -28.7992     0.0000   126.0000 </r>
       <r>   -28.5583     0.0000   126.0000 </r>
       <r>   -28.3174     0.0000   126.0000 </r>
       <r>   -28.0765     0.0000   126.0000 </r>
       <r>   -27.8356     0.0000   126.0000 </r>
       <r>   -27.5947     0.0000   126.0000 </r>
       <r>   -27.3537     0.0000   126.0000 </r>
       <r>   -27.1128     0.0000   126.0000 </r>
       <r>   -26.8719     0.0000   126.0000 </r>
       <r>   -26.6310     0.0000   126.0000 </r>
       <r>   -26.3901     0.0000   126.0000 </r>
       <r>   -26.1492     0.0000   126.0000 </r>
       <r>   -25.9083     0.0000   126.0000 </r>
       <r>   -25.6674     0.0000   126.0000 </r>
       <r>   -25.4265     0.0000   126.0000 </r>
       <r>   -25.1856     0.0000   126.0000 </r>
       <r>   -24.9446     0.0000   126.0000 </r>
       <r>   -24.7037     0.0000   126.0000 </r>
       <r>   -24.4628     0.0000   126.0000 </r>
       <r>   -24.2219     0.0000   126.0000 </r>
       <r>   -23.9810     0.0000   126.0000 </r>
       <r>   -23.7401     0.0000   126.0000 </r>
       <r>   -23.4992     0.0000   126.0000 </r>
       <r>   -23.2583     0.0000   126.0000 </r>
       <r>   -23.0174     0.0000   126.0000 </r>
       <r>   -22.7765     0.0000   126.0000 </r>
       <r>   -22.5355     0.0000   126.0000 </r>
       <r>   -22.2946     0.0000   126.0000 </r>
       <r>   -22.0537     0.0000   126.0000 </r>
       <r>   -21.8128     0.0000   126.0000 </r>
       <r>   -21.5719     0.0000   126.0000 </r>
       <r>   -21.3310     0.0000   126.0000 </r>
       <r>   -21.0901     0.0000   126.0000 </r>
       <r>   -20.8492     0.0000   126.0000 </r>
       <r>   -20.6083     0.0000   126.0000 </r>
       <r>   -20.3674     0.0000   126.0000 </r>
       <r>   -20.1264     0.0000   126.0000 </r>
       <r>   -19.8855     0.0000   126.0000 </r>
       <r>   -19.6446     0.0000   126.0000 </r>
       <r>   -19.4037     0.0000   126.0000 </r>
       <r>   -19.1628     0.0000   126.0000 </r>
       <r>   -18.9219     0.0000   126.0000 </r>
       <r>   -18.6810     0.0000   126.0000 </r>
       <r>   -18.4401     0.0000   126.0000 </r>
       <r>   -18.1992     0.0000   126.0000 </r>
       <r>   -17.9583     0.0000   126.0000 </r>
       <r>   -17.7173     0.0000   126.0000 </r>
       <r>   -17.4764     0.0000   126.0000 </r>
       <r>   -17.2355     0.0000   126.0000 </r>
       <r>   -16.9946     0.0000   126.0000 </r>
       <r>   -16.7537     0.0000   126.0000 </r>
       <r>   -16.5128     0.0000   126.0000 </r>
       <r>   -16.2719     0.0000   126.0000 </r>
       <r>   -16.0310     0.0000   126.0000 </r>
       <r>   -15.7901     0.0000   126.0000 </r>
       <r>   -15.5492     0.0000   126.0000 </r>
       <r>   -15.3082     0.0000   126.0000 </r>
       <r>   -15.0673     0.0000   126.0000 </r>
       <r>   -14.8264     0.0000   126.0000 </r>
       <r>   -14.5855     0.0000   126.0000 </r>
       <r>   -14.3446     0.0000   126.0000 </r>
       <r>   -14.1037     0.0000   126.0000 </r>
       <r>   -13.8628     0.0000   126.0000 </r>
       <r>   -13.6219     0.0000   126.0000 </r>
       <r>   -13.3810     0.0000   126.0000 </r>
       <r>   -13.1401     0.0000   126.0000 </r>
       <r>   -12.8991     0.1746   126.0421 </r>
       <r>   -12.6582    57.3402   139.8559 </r>
       <r>   -12.4173    17.2019   144.0000 </r>
       <r>   -12.1764     0.0000   144.0000 </r>
       <r>   -11.9355     0.0000   144.0000 </r>
       <r>   -11.6946     0.0000   144.0000 </r>
       <r>   -11.4537     0.0000   144.0000 </r>
       <r>   -11.2128     0.0000   144.0000 </r>
       <r>   -10.9719     0.0000   144.0000 </r>
       <r>   -10.7310     0.0000   144.0000 </r>
       <r>   -10.4900     0.0000   144.0000 </r>
       <r>   -10.2491     0.0000   144.0000 </r>
       <r>   -10.0082     0.0000   144.0000 </r>
       <r>    -9.7673     0.0000   144.0000 </r>
       <r>    -9.5264     0.0000   144.0000 </r>
       <r>    -9.2855     0.0000   144.0000 </r>
       <r>    -9.0446     0.0000   144.0000 </r>
       <r>    -8.8037     0.0000   144.0000 </r>
       <r>    -8.5628     0.0000   144.0000 </r>
       <r>    -8.3219     0.0000   144.0000 </r>
       <r>    -8.0810     0.0000   144.0000 </r>
       <r>    -7.8400     0.0000   144.0000 </r>
       <r>    -7.5991     0.0000   144.0000 </r>
       <r>    -7.3582     0.3916   144.0943 </r>
       <r>    -7.1173    18.5444   148.5619 </r>
       <r>    -6.8764    31.1815   156.0738 </r>
       <r>    -6.6355    24.1328   161.8876 </r>
       <r>    -6.3946    37.6668   170.9619 </r>
       <r>    -6.1537     0.1580   171.0000 </r>
       <r>    -5.9128     0.0000   171.0000 </r>
       <r>    -5.6719     0.0000   171.0000 </r>
       <r>    -5.4309     0.0000   171.0000 </r>
       <r>    -5.1900     0.0000   171.0000 </r>
       <r>    -4.9491     0.0000   171.0000 </r>
       <r>    -4.7082     0.0000   171.0000 </r>
       <r>    -4.4673     0.0000   171.0000 </r>
       <r>    -4.2264     0.0000   171.0000 </r>
       <r>    -3.9855     0.0000   171.0000 </r>
       <r>    -3.7446     0.0000   171.0000 </r>
       <r>    -3.5037     0.0000   171.0000 </r>
       <r>    -3.2628     0.0000   171.0000 </r>
       <r>    -3.0218     0.0000   171.0000 </r>
       <r>    -2.7809     0.0000   171.0000 </r>
       <r>    -2.5400     0.0000   171.0000 </r>
       <r>    -2.2991     0.0000   171.0000 </r>
       <r>    -2.0582     0.0000   171.0000 </r>
       <r>    -1.8173     0.0000   171.0000 </r>
       <r>    -1.5764     0.0000   171.0000 </r>
       <r>    -1.3355     0.0000   171.0000 </r>
       <r>    -1.0946     0.0000   171.0000 </r>
       <r>    -0.8537     0.0000   171.0000 </r>
       <r>    -0.6127     0.0001   171.0000 </r>
       <r>    -0.3718     8.1707   172.9684 </r>
       <r>    -0.1309    21.9354   178.2529 </r>
       <r>     0.1100    12.9455   181.3716 </r>
       <r>     0.3509    23.3289   186.9917 </r>
       <r>     0.5918    30.1545   194.2563 </r>
       <r>     0.8327    48.2494   205.8800 </r>
       <r>     1.0736    40.7284   215.6919 </r>
       <r>     1.3145    33.9306   223.8661 </r>
       <r>     1.5554    23.7921   229.5979 </r>
       <r>     1.7964    33.0305   237.5552 </r>
       <r>     2.0373    40.7245   247.3662 </r>
       <r>     2.2782    29.2969   254.4241 </r>
       <r>     2.5191    29.1312   261.4421 </r>
       <r>     2.7600    37.4956   270.4751 </r>
       <r>     3.0009    45.9104   281.5354 </r>
       <r>     3.2418    48.9223   293.3213 </r>
       <r>     3.4827    42.6904   303.6058 </r>
       <r>     3.7236     7.8172   305.4891 </r>
       <r>     3.9645    20.4618   310.4185 </r>
       <r>     4.2055    71.3471   327.6067 </r>
       <r>     4.4464    47.7903   339.1199 </r>
       <r>     4.6873    11.9550   342.0000 </r>
       <r>     4.9282     0.0000   342.0000 </r>
       <r>     5.1691     0.0000   342.0000 </r>
       <r>     5.4100     0.0000   342.0000 </r>
       <r>     5.6509     0.0000   342.0000 </r>
       <r>     5.8918     0.0000   342.0000 </r>
       <r>     6.1327     0.0000   342.0000 </r>
       <r>     6.3736     1.0708   342.2580 </r>
       <r>     6.6146     5.1028   343.4873 </r>
       <r>     6.8555     9.0778   345.6742 </r>
       <r>     7.0964    19.8793   350.4634 </r>
       <r>     7.3373    59.1713   364.7183 </r>
       <r>     7.5782    60.3691   379.2618 </r>
       <r>     7.8191    63.3529   394.5241 </r>
       <r>     8.0600    74.2994   412.4236 </r>
       <r>     8.3009    78.6764   431.3775 </r>
       <r>     8.5418    70.7739   448.4277 </r>
       <r>     8.7827    66.7937   464.5189 </r>
       <r>     9.0237    47.9378   476.0676 </r>
       <r>     9.2646    33.6238   484.1679 </r>
       <r>     9.5055     9.2859   486.4050 </r>
       <r>     9.7464     5.4580   487.7199 </r>
       <r>     9.9873    11.2758   490.4363 </r>
       <r>    10.2282    15.8338   494.2508 </r>
       <r>    10.4691    24.5965   500.1764 </r>
       <r>    10.7100    21.5265   505.3623 </r>
       <r>    10.9509    21.6688   510.5826 </r>
       <r>    11.1918    32.1229   518.3213 </r>
       <r>    11.4327    20.2572   523.2014 </r>
       <r>    11.6737    18.7201   527.7113 </r>
       <r>    11.9146    11.9166   530.5821 </r>
       <r>    12.1555    23.4610   536.2341 </r>
       <r>    12.3964    44.4088   546.9326 </r>
       <r>    12.6373    35.8001   555.5572 </r>
       <r>    12.8782    33.5954   563.6507 </r>
       <r>    13.1191    20.4679   568.5816 </r>
       <r>    13.3600    23.4044   574.2199 </r>
       <r>    13.6009    33.1189   582.1986 </r>
       <r>    13.8418    26.6081   588.6087 </r>
       <r>    14.0828    26.9085   595.0913 </r>
       <r>    14.3237    22.1564   600.4289 </r>
       <r>    14.5646    20.4303   605.3508 </r>
       <r>    14.8055     2.6947   606.0000 </r>
       <r>    15.0464     0.0000   606.0000 </r>
       <r>    15.2873     0.0000   606.0000 </r>
       <r>    15.5282     0.0000   606.0000 </r>
       <r>    15.7691     0.0000   606.0000 </r>
       <r>    16.0100     0.0000   606.0000 </r>
       <r>    16.2509     0.0000   606.0000 </r>
       <r>    16.4919     0.0000   606.0000 </r>
       <r>    16.7328     0.0000   606.0000 </r>
       <r>    16.9737     0.0000   606.0000 </r>
       <r>    17.2146     0.0000   606.0000 </r>
       <r>    17.4555     0.0000   606.0000 </r>
       <r>    17.6964     0.0000   606.0000 </r>
       <r>    17.9373     0.0000   606.0000 </r>
      </set>
     </set>
    </array>
   </total>
  </dos>
 </calculation>
 <structure name="finalpos" >
  <crystal>
   <varray name="basis" >
    <v>      11.77726974       0.00848871       0.06923316 </v>
    <v>      -0.03028248      11.77723386       0.06923316 </v>
    <v>      -2.02000231      -2.02666320      10.18574622 </v>
   </varray>
   <i name="volume">   1416.10551572 </i>
   <varray name="rec_basis" >
    <v>       0.08481023       0.00011906       0.01684296 </v>
    <v>      -0.00016014       0.08481016       0.01684296 </v>
    <v>      -0.00057537      -0.00057727       0.09794744 </v>
   </varray>
  </crystal>
  <varray name="positions" >
   <v>       0.20224939       0.24206952       0.83183419 </v>
   <v>       0.53558272       0.24206952       0.83183419 </v>
   <v>       0.86891606       0.24206952       0.83183419 </v>
   <v>       0.20224939       0.57540285       0.83183419 </v>
   <v>       0.53558272       0.57540285       0.83183419 </v>
   <v>       0.86891606       0.57540285       0.83183419 </v>
   <v>       0.20224939       0.90873619       0.83183419 </v>
   <v>       0.53558272       0.90873619       0.83183419 </v>
   <v>       0.86891606       0.90873619       0.83183419 </v>
   <v>       0.09126381       0.13108394       0.16816581 </v>
   <v>       0.42459715       0.13108394       0.16816581 </v>
   <v>       0.75793048       0.13108394       0.16816581 </v>
   <v>       0.09126381       0.46441728       0.16816581 </v>
   <v>       0.42459715       0.46441728       0.16816581 </v>
   <v>       0.75793048       0.46441728       0.16816581 </v>
   <v>       0.09126381       0.79775061       0.16816581 </v>
   <v>       0.42459715       0.79775061       0.16816581 </v>
   <v>       0.75793048       0.79775061       0.16816581 </v>
   <v>       0.26311007       0.13598816       0.19686089 </v>
   <v>       0.59644341       0.13598816       0.19686089 </v>
   <v>       0.92977674       0.13598816       0.19686089 </v>
   <v>       0.26311007       0.46932149       0.19686089 </v>
   <v>       0.59644341       0.46932149       0.19686089 </v>
   <v>       0.92977674       0.46932149       0.19686089 </v>
   <v>       0.26311007       0.80265483       0.19686089 </v>
   <v>       0.59644341       0.80265483       0.19686089 </v>
   <v>       0.92977674       0.80265483       0.19686089 </v>
   <v>       0.19734517       0.07022326       0.80313911 </v>
   <v>       0.53067851       0.07022326       0.80313911 </v>
   <v>       0.86401184       0.07022326       0.80313911 </v>
   <v>       0.19734517       0.40355659       0.80313911 </v>
   <v>       0.53067851       0.40355659       0.80313911 </v>
   <v>       0.86401184       0.40355659       0.80313911 </v>
   <v>       0.19734517       0.73688993       0.80313911 </v>
   <v>       0.53067851       0.73688993       0.80313911 </v>
   <v>       0.86401184       0.73688993       0.80313911 </v>
   <v>       0.00253935       0.20657296       0.62920335 </v>
   <v>       0.33587268       0.20657296       0.62920335 </v>
   <v>       0.66920601       0.20657296       0.62920335 </v>
   <v>       0.00253935       0.53990630       0.62920335 </v>
   <v>       0.33587268       0.53990630       0.62920335 </v>
   <v>       0.66920601       0.53990630       0.62920335 </v>
   <v>       0.00253935       0.87323963       0.62920335 </v>
   <v>       0.33587268       0.87323963       0.62920335 </v>
   <v>       0.66920601       0.87323963       0.62920335 </v>
   <v>       0.12676037       0.33079399       0.37079665 </v>
   <v>       0.46009370       0.33079399       0.37079665 </v>
   <v>       0.79342704       0.33079399       0.37079665 </v>
   <v>       0.12676037       0.66412732       0.37079665 </v>
   <v>       0.46009370       0.66412732       0.37079665 </v>
   <v>       0.79342704       0.66412732       0.37079665 </v>
   <v>       0.12676037       0.99746065       0.37079665 </v>
   <v>       0.46009370       0.99746065       0.37079665 </v>
   <v>       0.79342704       0.99746065       0.37079665 </v>
   <v>       0.06350899       0.26982435       0.00000000 </v>
   <v>       0.39684232       0.26982435       0.00000000 </v>
   <v>       0.73017565       0.26982435       0.00000000 </v>
   <v>       0.06350899       0.60315768       0.00000000 </v>
   <v>       0.39684232       0.60315768       0.00000000 </v>
   <v>       0.73017565       0.60315768       0.00000000 </v>
   <v>       0.06350899       0.93649101       0.00000000 </v>
   <v>       0.39684232       0.93649101       0.00000000 </v>
   <v>       0.73017565       0.93649101       0.00000000 </v>
   <v>       0.29027274       0.17214940       0.39352170 </v>
   <v>       0.62360607       0.17214940       0.39352170 </v>
   <v>       0.95693941       0.17214940       0.39352170 </v>
   <v>       0.29027274       0.50548273       0.39352170 </v>
   <v>       0.62360607       0.50548273       0.39352170 </v>
   <v>       0.95693941       0.50548273       0.39352170 </v>
   <v>       0.29027274       0.83881607       0.39352170 </v>
   <v>       0.62360607       0.83881607       0.39352170 </v>
   <v>       0.95693941       0.83881607       0.39352170 </v>
   <v>       0.16118393       0.04306059       0.60647830 </v>
   <v>       0.49451727       0.04306059       0.60647830 </v>
   <v>       0.82785060       0.04306059       0.60647830 </v>
   <v>       0.16118393       0.37639393       0.60647830 </v>
   <v>       0.49451727       0.37639393       0.60647830 </v>
   <v>       0.82785060       0.37639393       0.60647830 </v>
   <v>       0.16118393       0.70972726       0.60647830 </v>
   <v>       0.49451727       0.70972726       0.60647830 </v>
   <v>       0.82785060       0.70972726       0.60647830 </v>
   <v>       0.03761391       0.07731307       0.84637295 </v>
   <v>       0.37094724       0.07731307       0.84542777 </v>
   <v>       0.70428057       0.07731307       0.84542777 </v>
   <v>       0.03761391       0.41064640       0.84542777 </v>
   <v>       0.37094724       0.41064640       0.84542777 </v>
   <v>       0.70428057       0.41064640       0.84542777 </v>
   <v>       0.03761391       0.74397973       0.84542777 </v>
   <v>       0.37094724       0.74397973       0.84542777 </v>
   <v>       0.70428057       0.74397973       0.84542777 </v>
   <v>       0.25602027       0.29571943       0.15457223 </v>
   <v>       0.58935360       0.29571943       0.15457223 </v>
   <v>       0.92268693       0.29571943       0.15457223 </v>
   <v>       0.25602027       0.62905276       0.15457223 </v>
   <v>       0.58935360       0.62905276       0.15457223 </v>
   <v>       0.92268693       0.62905276       0.15457223 </v>
   <v>       0.25602027       0.96238609       0.15457223 </v>
   <v>       0.58935360       0.96238609       0.15457223 </v>
   <v>       0.92268693       0.96238609       0.15457223 </v>
  </varray>
 </structure>
</modeling>
