 120 120   0   0
  0.1228332E+02  0.1173587E-08  0.1121847E-08  0.1119562E-08  0.5000000E-15
  1.000000000000000E-004
  CAR 
 unknown system                          
     16.73552309    -54.73146668  301      4.40746736      1.00000000
    -54.731  0.0000E+00  0.0000E+00  0.0000E+00  0.0000E+00
    -54.493  0.0000E+00  0.0000E+00  0.0000E+00  0.0000E+00
    -54.255  0.0000E+00  0.0000E+00  0.0000E+00  0.0000E+00
    -54.017  0.0000E+00  0.0000E+00  0.0000E+00  0.0000E+00
    -53.779  0.0000E+00  0.0000E+00  0.0000E+00  0.0000E+00
    -53.540  0.0000E+00  0.0000E+00  0.0000E+00  0.0000E+00
    -53.302  0.0000E+00  0.0000E+00  0.0000E+00  0.0000E+00
    -53.064  0.0000E+00  0.0000E+00  0.0000E+00  0.0000E+00
    -52.826  0.0000E+00  0.0000E+00  0.0000E+00  0.0000E+00
    -52.587  0.0000E+00  0.0000E+00  0.0000E+00  0.0000E+00
    -52.349  0.0000E+00  0.0000E+00  0.0000E+00  0.0000E+00
    -52.111  0.0000E+00  0.0000E+00  0.0000E+00  0.0000E+00
    -51.873  0.0000E+00  0.0000E+00  0.0000E+00  0.0000E+00
    -51.635  0.2351E-03  0.0000E+00  0.5600E-04  0.0000E+00
    -51.396  0.9773E+02  0.0000E+00  0.2328E+02  0.0000E+00
    -51.158  0.3017E+01  0.0000E+00  0.2400E+02  0.0000E+00
    -50.920  0.0000E+00  0.0000E+00  0.2400E+02  0.0000E+00
    -50.682  0.0000E+00  0.0000E+00  0.2400E+02  0.0000E+00
    -50.443  0.2284E-09  0.0000E+00  0.2400E+02  0.0000E+00
    -50.205  0.4261E+02  0.0000E+00  0.3415E+02  0.0000E+00
    -49.967  0.1319E+03  0.0000E+00  0.6557E+02  0.0000E+00
    -49.729  0.2698E+02  0.0000E+00  0.7200E+02  0.0000E+00
    -49.491  0.0000E+00  0.0000E+00  0.7200E+02  0.0000E+00
    -49.252  0.0000E+00  0.0000E+00  0.7200E+02  0.0000E+00
    -49.014  0.0000E+00  0.0000E+00  0.7200E+02  0.0000E+00
    -48.776  0.0000E+00  0.0000E+00  0.7200E+02  0.0000E+00
    -48.538  0.0000E+00  0.0000E+00  0.7200E+02  0.0000E+00
    -48.299  0.0000E+00  0.0000E+00  0.7200E+02  0.0000E+00
    -48.061  0.0000E+00  0.0000E+00  0.7200E+02  0.0000E+00
    -47.823  0.0000E+00  0.0000E+00  0.7200E+02  0.0000E+00
    -47.585  0.0000E+00  0.0000E+00  0.7200E+02  0.0000E+00
    -47.347  0.0000E+00  0.0000E+00  0.7200E+02  0.0000E+00
    -47.108  0.0000E+00  0.0000E+00  0.7200E+02  0.0000E+00
    -46.870  0.0000E+00  0.6061E-01  0.7200E+02  0.1444E-01
    -46.632  0.0000E+00  0.1006E+03  0.7200E+02  0.2397E+02
    -46.394  0.0000E+00  0.9530E+02  0.7200E+02  0.4668E+02
    -46.155  0.0000E+00  0.1063E+03  0.7200E+02  0.7200E+02
    -45.917  0.0000E+00  0.0000E+00  0.7200E+02  0.7200E+02
    -45.679  0.0000E+00  0.0000E+00  0.7200E+02  0.7200E+02
    -45.441  0.0000E+00  0.0000E+00  0.7200E+02  0.7200E+02
    -45.203  0.0000E+00  0.0000E+00  0.7200E+02  0.7200E+02
    -44.964  0.0000E+00  0.0000E+00  0.7200E+02  0.7200E+02
    -44.726  0.0000E+00  0.0000E+00  0.7200E+02  0.7200E+02
    -44.488  0.0000E+00  0.0000E+00  0.7200E+02  0.7200E+02
    -44.250  0.0000E+00  0.0000E+00  0.7200E+02  0.7200E+02
    -44.011  0.0000E+00  0.0000E+00  0.7200E+02  0.7200E+02
    -43.773  0.0000E+00  0.0000E+00  0.7200E+02  0.7200E+02
    -43.535  0.0000E+00  0.0000E+00  0.7200E+02  0.7200E+02
    -43.297  0.0000E+00  0.0000E+00  0.7200E+02  0.7200E+02
    -43.059  0.0000E+00  0.0000E+00  0.7200E+02  0.7200E+02
    -42.820  0.0000E+00  0.0000E+00  0.7200E+02  0.7200E+02
    -42.582  0.0000E+00  0.0000E+00  0.7200E+02  0.7200E+02
    -42.344  0.0000E+00  0.0000E+00  0.7200E+02  0.7200E+02
    -42.106  0.0000E+00  0.0000E+00  0.7200E+02  0.7200E+02
    -41.867  0.0000E+00  0.0000E+00  0.7200E+02  0.7200E+02
    -41.629  0.0000E+00  0.0000E+00  0.7200E+02  0.7200E+02
    -41.391  0.0000E+00  0.0000E+00  0.7200E+02  0.7200E+02
    -41.153  0.0000E+00  0.0000E+00  0.7200E+02  0.7200E+02
    -40.915  0.0000E+00  0.0000E+00  0.7200E+02  0.7200E+02
    -40.676  0.2697E-03  0.8204E-04  0.7200E+02  0.7200E+02
    -40.438  0.9888E+02  0.9744E+02  0.9555E+02  0.9521E+02
    -40.200  0.1025E+03  0.1039E+03  0.1200E+03  0.1200E+03
    -39.962  0.1616E+00  0.1615E+00  0.1200E+03  0.1200E+03
    -39.723  0.0000E+00  0.0000E+00  0.1200E+03  0.1200E+03
    -39.485  0.0000E+00  0.0000E+00  0.1200E+03  0.1200E+03
    -39.247  0.0000E+00  0.0000E+00  0.1200E+03  0.1200E+03
    -39.009  0.0000E+00  0.0000E+00  0.1200E+03  0.1200E+03
    -38.771  0.0000E+00  0.0000E+00  0.1200E+03  0.1200E+03
    -38.532  0.0000E+00  0.0000E+00  0.1200E+03  0.1200E+03
    -38.294  0.0000E+00  0.0000E+00  0.1200E+03  0.1200E+03
    -38.056  0.0000E+00  0.0000E+00  0.1200E+03  0.1200E+03
    -37.818  0.0000E+00  0.0000E+00  0.1200E+03  0.1200E+03
    -37.579  0.0000E+00  0.0000E+00  0.1200E+03  0.1200E+03
    -37.341  0.0000E+00  0.0000E+00  0.1200E+03  0.1200E+03
    -37.103  0.0000E+00  0.0000E+00  0.1200E+03  0.1200E+03
    -36.865  0.0000E+00  0.0000E+00  0.1200E+03  0.1200E+03
    -36.626  0.0000E+00  0.0000E+00  0.1200E+03  0.1200E+03
    -36.388  0.0000E+00  0.0000E+00  0.1200E+03  0.1200E+03
    -36.150  0.0000E+00  0.0000E+00  0.1200E+03  0.1200E+03
    -35.912  0.0000E+00  0.0000E+00  0.1200E+03  0.1200E+03
    -35.674  0.0000E+00  0.0000E+00  0.1200E+03  0.1200E+03
    -35.435  0.0000E+00  0.0000E+00  0.1200E+03  0.1200E+03
    -35.197  0.0000E+00  0.0000E+00  0.1200E+03  0.1200E+03
    -34.959  0.0000E+00  0.0000E+00  0.1200E+03  0.1200E+03
    -34.721  0.0000E+00  0.0000E+00  0.1200E+03  0.1200E+03
    -34.482  0.0000E+00  0.0000E+00  0.1200E+03  0.1200E+03
    -34.244  0.0000E+00  0.0000E+00  0.1200E+03  0.1200E+03
    -34.006  0.0000E+00  0.0000E+00  0.1200E+03  0.1200E+03
    -33.768  0.0000E+00  0.0000E+00  0.1200E+03  0.1200E+03
    -33.530  0.0000E+00  0.0000E+00  0.1200E+03  0.1200E+03
    -33.291  0.0000E+00  0.0000E+00  0.1200E+03  0.1200E+03
    -33.053  0.0000E+00  0.0000E+00  0.1200E+03  0.1200E+03
    -32.815  0.0000E+00  0.0000E+00  0.1200E+03  0.1200E+03
    -32.577  0.0000E+00  0.0000E+00  0.1200E+03  0.1200E+03
    -32.338  0.0000E+00  0.0000E+00  0.1200E+03  0.1200E+03
    -32.100  0.0000E+00  0.0000E+00  0.1200E+03  0.1200E+03
    -31.862  0.0000E+00  0.0000E+00  0.1200E+03  0.1200E+03
    -31.624  0.0000E+00  0.0000E+00  0.1200E+03  0.1200E+03
    -31.386  0.0000E+00  0.0000E+00  0.1200E+03  0.1200E+03
    -31.147  0.0000E+00  0.0000E+00  0.1200E+03  0.1200E+03
    -30.909  0.0000E+00  0.0000E+00  0.1200E+03  0.1200E+03
    -30.671  0.0000E+00  0.0000E+00  0.1200E+03  0.1200E+03
    -30.433  0.0000E+00  0.0000E+00  0.1200E+03  0.1200E+03
    -30.194  0.0000E+00  0.0000E+00  0.1200E+03  0.1200E+03
    -29.956  0.0000E+00  0.0000E+00  0.1200E+03  0.1200E+03
    -29.718  0.0000E+00  0.0000E+00  0.1200E+03  0.1200E+03
    -29.480  0.0000E+00  0.0000E+00  0.1200E+03  0.1200E+03
    -29.242  0.0000E+00  0.0000E+00  0.1200E+03  0.1200E+03
    -29.003  0.0000E+00  0.0000E+00  0.1200E+03  0.1200E+03
    -28.765  0.0000E+00  0.0000E+00  0.1200E+03  0.1200E+03
    -28.527  0.0000E+00  0.0000E+00  0.1200E+03  0.1200E+03
    -28.289  0.0000E+00  0.0000E+00  0.1200E+03  0.1200E+03
    -28.050  0.0000E+00  0.0000E+00  0.1200E+03  0.1200E+03
    -27.812  0.0000E+00  0.0000E+00  0.1200E+03  0.1200E+03
    -27.574  0.0000E+00  0.0000E+00  0.1200E+03  0.1200E+03
    -27.336  0.0000E+00  0.0000E+00  0.1200E+03  0.1200E+03
    -27.098  0.0000E+00  0.0000E+00  0.1200E+03  0.1200E+03
    -26.859  0.0000E+00  0.0000E+00  0.1200E+03  0.1200E+03
    -26.621  0.0000E+00  0.0000E+00  0.1200E+03  0.1200E+03
    -26.383  0.0000E+00  0.0000E+00  0.1200E+03  0.1200E+03
    -26.145  0.0000E+00  0.0000E+00  0.1200E+03  0.1200E+03
    -25.906  0.0000E+00  0.0000E+00  0.1200E+03  0.1200E+03
    -25.668  0.0000E+00  0.0000E+00  0.1200E+03  0.1200E+03
    -25.430  0.0000E+00  0.0000E+00  0.1200E+03  0.1200E+03
    -25.192  0.0000E+00  0.0000E+00  0.1200E+03  0.1200E+03
    -24.954  0.0000E+00  0.0000E+00  0.1200E+03  0.1200E+03
    -24.715  0.0000E+00  0.0000E+00  0.1200E+03  0.1200E+03
    -24.477  0.0000E+00  0.0000E+00  0.1200E+03  0.1200E+03
    -24.239  0.0000E+00  0.0000E+00  0.1200E+03  0.1200E+03
    -24.001  0.0000E+00  0.0000E+00  0.1200E+03  0.1200E+03
    -23.762  0.0000E+00  0.0000E+00  0.1200E+03  0.1200E+03
    -23.524  0.0000E+00  0.0000E+00  0.1200E+03  0.1200E+03
    -23.286  0.0000E+00  0.0000E+00  0.1200E+03  0.1200E+03
    -23.048  0.0000E+00  0.0000E+00  0.1200E+03  0.1200E+03
    -22.810  0.0000E+00  0.0000E+00  0.1200E+03  0.1200E+03
    -22.571  0.0000E+00  0.0000E+00  0.1200E+03  0.1200E+03
    -22.333  0.0000E+00  0.0000E+00  0.1200E+03  0.1200E+03
    -22.095  0.0000E+00  0.0000E+00  0.1200E+03  0.1200E+03
    -21.857  0.0000E+00  0.0000E+00  0.1200E+03  0.1200E+03
    -21.618  0.0000E+00  0.0000E+00  0.1200E+03  0.1200E+03
    -21.380  0.0000E+00  0.0000E+00  0.1200E+03  0.1200E+03
    -21.142  0.0000E+00  0.0000E+00  0.1200E+03  0.1200E+03
    -20.904  0.0000E+00  0.0000E+00  0.1200E+03  0.1200E+03
    -20.666  0.0000E+00  0.0000E+00  0.1200E+03  0.1200E+03
    -20.427  0.0000E+00  0.0000E+00  0.1200E+03  0.1200E+03
    -20.189  0.0000E+00  0.0000E+00  0.1200E+03  0.1200E+03
    -19.951  0.0000E+00  0.0000E+00  0.1200E+03  0.1200E+03
    -19.713  0.0000E+00  0.0000E+00  0.1200E+03  0.1200E+03
    -19.474  0.0000E+00  0.0000E+00  0.1200E+03  0.1200E+03
    -19.236  0.0000E+00  0.0000E+00  0.1200E+03  0.1200E+03
    -18.998  0.0000E+00  0.0000E+00  0.1200E+03  0.1200E+03
    -18.760  0.0000E+00  0.0000E+00  0.1200E+03  0.1200E+03
    -18.522  0.0000E+00  0.0000E+00  0.1200E+03  0.1200E+03
    -18.283  0.0000E+00  0.0000E+00  0.1200E+03  0.1200E+03
    -18.045  0.0000E+00  0.0000E+00  0.1200E+03  0.1200E+03
    -17.807  0.0000E+00  0.0000E+00  0.1200E+03  0.1200E+03
    -17.569  0.0000E+00  0.0000E+00  0.1200E+03  0.1200E+03
    -17.330  0.0000E+00  0.0000E+00  0.1200E+03  0.1200E+03
    -17.092  0.0000E+00  0.0000E+00  0.1200E+03  0.1200E+03
    -16.854  0.0000E+00  0.0000E+00  0.1200E+03  0.1200E+03
    -16.616  0.0000E+00  0.0000E+00  0.1200E+03  0.1200E+03
    -16.378  0.0000E+00  0.0000E+00  0.1200E+03  0.1200E+03
    -16.139  0.0000E+00  0.0000E+00  0.1200E+03  0.1200E+03
    -15.901  0.0000E+00  0.0000E+00  0.1200E+03  0.1200E+03
    -15.663  0.0000E+00  0.0000E+00  0.1200E+03  0.1200E+03
    -15.425  0.0000E+00  0.0000E+00  0.1200E+03  0.1200E+03
    -15.186  0.0000E+00  0.0000E+00  0.1200E+03  0.1200E+03
    -14.948  0.0000E+00  0.0000E+00  0.1200E+03  0.1200E+03
    -14.710  0.0000E+00  0.0000E+00  0.1200E+03  0.1200E+03
    -14.472  0.0000E+00  0.0000E+00  0.1200E+03  0.1200E+03
    -14.234  0.0000E+00  0.0000E+00  0.1200E+03  0.1200E+03
    -13.995  0.0000E+00  0.0000E+00  0.1200E+03  0.1200E+03
    -13.757  0.1914E-08  0.0000E+00  0.1200E+03  0.1200E+03
    -13.519  0.9401E+01  0.3797E-15  0.1222E+03  0.1200E+03
    -13.281  0.6002E+02  0.3741E+00  0.1365E+03  0.1201E+03
    -13.042  0.3133E+02  0.6790E+02  0.1440E+03  0.1363E+03
    -12.804  0.2094E-03  0.3248E+02  0.1440E+03  0.1440E+03
    -12.566  0.0000E+00  0.2242E-04  0.1440E+03  0.1440E+03
    -12.328  0.0000E+00  0.0000E+00  0.1440E+03  0.1440E+03
    -12.089  0.0000E+00  0.0000E+00  0.1440E+03  0.1440E+03
    -11.851  0.0000E+00  0.0000E+00  0.1440E+03  0.1440E+03
    -11.613  0.0000E+00  0.0000E+00  0.1440E+03  0.1440E+03
    -11.375  0.0000E+00  0.0000E+00  0.1440E+03  0.1440E+03
    -11.137  0.0000E+00  0.0000E+00  0.1440E+03  0.1440E+03
    -10.898  0.0000E+00  0.0000E+00  0.1440E+03  0.1440E+03
    -10.660  0.0000E+00  0.0000E+00  0.1440E+03  0.1440E+03
    -10.422  0.0000E+00  0.0000E+00  0.1440E+03  0.1440E+03
    -10.184  0.0000E+00  0.0000E+00  0.1440E+03  0.1440E+03
     -9.945  0.0000E+00  0.0000E+00  0.1440E+03  0.1440E+03
     -9.707  0.0000E+00  0.0000E+00  0.1440E+03  0.1440E+03
     -9.469  0.0000E+00  0.0000E+00  0.1440E+03  0.1440E+03
     -9.231  0.0000E+00  0.0000E+00  0.1440E+03  0.1440E+03
     -8.993  0.0000E+00  0.0000E+00  0.1440E+03  0.1440E+03
     -8.754  0.0000E+00  0.0000E+00  0.1440E+03  0.1440E+03
     -8.516  0.0000E+00  0.0000E+00  0.1440E+03  0.1440E+03
     -8.278  0.0000E+00  0.0000E+00  0.1440E+03  0.1440E+03
     -8.040  0.0000E+00  0.0000E+00  0.1440E+03  0.1440E+03
     -7.801  0.1481E-01  0.4747E-15  0.1440E+03  0.1440E+03
     -7.563  0.1882E+02  0.1580E+00  0.1485E+03  0.1440E+03
     -7.325  0.4838E+02  0.2946E+02  0.1600E+03  0.1511E+03
     -7.087  0.3275E+02  0.4933E+02  0.1678E+03  0.1628E+03
     -6.849  0.7786E+00  0.2121E+02  0.1680E+03  0.1679E+03
     -6.610  0.0000E+00  0.5988E+00  0.1680E+03  0.1680E+03
     -6.372  0.0000E+00  0.0000E+00  0.1680E+03  0.1680E+03
     -6.134  0.0000E+00  0.0000E+00  0.1680E+03  0.1680E+03
     -5.896  0.0000E+00  0.0000E+00  0.1680E+03  0.1680E+03
     -5.657  0.0000E+00  0.0000E+00  0.1680E+03  0.1680E+03
     -5.419  0.0000E+00  0.0000E+00  0.1680E+03  0.1680E+03
     -5.181  0.0000E+00  0.0000E+00  0.1680E+03  0.1680E+03
     -4.943  0.0000E+00  0.0000E+00  0.1680E+03  0.1680E+03
     -4.705  0.0000E+00  0.0000E+00  0.1680E+03  0.1680E+03
     -4.466  0.0000E+00  0.0000E+00  0.1680E+03  0.1680E+03
     -4.228  0.0000E+00  0.0000E+00  0.1680E+03  0.1680E+03
     -3.990  0.0000E+00  0.0000E+00  0.1680E+03  0.1680E+03
     -3.752  0.0000E+00  0.0000E+00  0.1680E+03  0.1680E+03
     -3.513  0.0000E+00  0.0000E+00  0.1680E+03  0.1680E+03
     -3.275  0.0000E+00  0.0000E+00  0.1680E+03  0.1680E+03
     -3.037  0.0000E+00  0.0000E+00  0.1680E+03  0.1680E+03
     -2.799  0.0000E+00  0.0000E+00  0.1680E+03  0.1680E+03
     -2.561  0.0000E+00  0.0000E+00  0.1680E+03  0.1680E+03
     -2.322  0.0000E+00  0.0000E+00  0.1680E+03  0.1680E+03
     -2.084  0.3406E-05  0.0000E+00  0.1680E+03  0.1680E+03
     -1.846  0.8465E+01  0.0000E+00  0.1700E+03  0.1680E+03
     -1.608  0.5867E+02  0.0000E+00  0.1840E+03  0.1680E+03
     -1.369  0.4091E+02  0.0000E+00  0.1937E+03  0.1680E+03
     -1.131  0.3269E+02  0.0000E+00  0.2015E+03  0.1680E+03
     -0.893  0.5425E+02  0.4063E-08  0.2145E+03  0.1680E+03
     -0.655  0.5322E+02  0.1921E+01  0.2271E+03  0.1685E+03
     -0.417  0.6722E+02  0.1751E+02  0.2431E+03  0.1726E+03
     -0.178  0.5392E+02  0.3882E+02  0.2560E+03  0.1819E+03
      0.060  0.3451E+02  0.3483E+02  0.2642E+03  0.1902E+03
      0.298  0.5525E+02  0.2320E+02  0.2774E+03  0.1957E+03
      0.536  0.4751E+02  0.4868E+02  0.2887E+03  0.2073E+03
      0.775  0.3243E+02  0.4866E+02  0.2964E+03  0.2189E+03
      1.013  0.4996E+02  0.6848E+02  0.3083E+03  0.2352E+03
      1.251  0.4927E+02  0.2557E+02  0.3201E+03  0.2413E+03
      1.489  0.5422E+02  0.2322E+02  0.3330E+03  0.2468E+03
      1.727  0.6187E+02  0.3833E+02  0.3477E+03  0.2560E+03
      1.966  0.3382E+02  0.4593E+02  0.3558E+03  0.2669E+03
      2.204  0.2406E+02  0.2933E+02  0.3615E+03  0.2739E+03
      2.442  0.1380E+02  0.3573E+02  0.3648E+03  0.2824E+03
      2.680  0.3760E+02  0.2540E+02  0.3737E+03  0.2884E+03
      2.919  0.3870E+02  0.4570E+02  0.3830E+03  0.2993E+03
      3.157  0.3043E+02  0.4175E+02  0.3902E+03  0.3093E+03
      3.395  0.4389E+02  0.1425E+02  0.4007E+03  0.3127E+03
      3.633  0.5357E+02  0.3105E+02  0.4134E+03  0.3201E+03
      3.871  0.4708E+02  0.5680E+02  0.4246E+03  0.3336E+03
      4.110  0.2895E+02  0.1005E+02  0.4315E+03  0.3360E+03
      4.348  0.1922E+01  0.6230E-05  0.4320E+03  0.3360E+03
      4.586  0.0000E+00  0.0000E+00  0.4320E+03  0.3360E+03
      4.824  0.0000E+00  0.0000E+00  0.4320E+03  0.3360E+03
      5.063  0.0000E+00  0.0000E+00  0.4320E+03  0.3360E+03
      5.301  0.0000E+00  0.0000E+00  0.4320E+03  0.3360E+03
      5.539  0.0000E+00  0.0000E+00  0.4320E+03  0.3360E+03
      5.777  0.0000E+00  0.0000E+00  0.4320E+03  0.3360E+03
      6.015  0.0000E+00  0.4726E-02  0.4320E+03  0.3360E+03
      6.254  0.0000E+00  0.1944E+01  0.4320E+03  0.3365E+03
      6.492  0.0000E+00  0.1367E+02  0.4320E+03  0.3397E+03
      6.730  0.0000E+00  0.2696E+02  0.4320E+03  0.3461E+03
      6.968  0.0000E+00  0.2524E+02  0.4320E+03  0.3522E+03
      7.207  0.1187E-04  0.5804E+02  0.4320E+03  0.3660E+03
      7.445  0.1552E+00  0.7531E+02  0.4320E+03  0.3839E+03
      7.683  0.7506E+00  0.2932E+02  0.4322E+03  0.3909E+03
      7.921  0.1521E+01  0.4132E+02  0.4326E+03  0.4008E+03
      8.159  0.4825E+01  0.7826E+02  0.4337E+03  0.4194E+03
      8.398  0.7151E+01  0.4965E+02  0.4354E+03  0.4312E+03
      8.636  0.1572E+02  0.3675E+01  0.4392E+03  0.4321E+03
      8.874  0.2398E+02  0.1172E+01  0.4449E+03  0.4324E+03
      9.112  0.1981E+02  0.4507E+01  0.4496E+03  0.4335E+03
      9.351  0.1939E+02  0.1080E+02  0.4542E+03  0.4360E+03
      9.589  0.1983E+02  0.2110E+02  0.4589E+03  0.4411E+03
      9.827  0.2447E+02  0.2883E+02  0.4648E+03  0.4479E+03
     10.065  0.2200E+02  0.3015E+02  0.4700E+03  0.4551E+03
     10.303  0.1792E+02  0.3003E+02  0.4743E+03  0.4623E+03
     10.542  0.2474E+02  0.2579E+02  0.4802E+03  0.4684E+03
     10.780  0.1493E+02  0.2587E+02  0.4837E+03  0.4746E+03
     11.018  0.2757E+02  0.2425E+02  0.4903E+03  0.4803E+03
     11.256  0.4552E+02  0.1032E+02  0.5012E+03  0.4828E+03
     11.495  0.4861E+02  0.2590E+02  0.5127E+03  0.4890E+03
     11.733  0.3514E+02  0.3058E+02  0.5211E+03  0.4962E+03
     11.971  0.2035E+02  0.5647E+02  0.5259E+03  0.5097E+03
     12.209  0.2076E+02  0.4439E+02  0.5309E+03  0.5203E+03
     12.448  0.3025E+02  0.2675E+02  0.5381E+03  0.5267E+03
     12.686  0.3229E+02  0.2380E+02  0.5458E+03  0.5323E+03
     12.924  0.1855E+02  0.2748E+02  0.5502E+03  0.5389E+03
     13.162  0.7426E+01  0.3310E+02  0.5520E+03  0.5468E+03
     13.400  0.7971E-01  0.1812E+02  0.5520E+03  0.5511E+03
     13.639  0.0000E+00  0.3907E+01  0.5520E+03  0.5520E+03
     13.877  0.0000E+00  0.3701E-05  0.5520E+03  0.5520E+03
     14.115  0.0000E+00  0.0000E+00  0.5520E+03  0.5520E+03
     14.353  0.0000E+00  0.0000E+00  0.5520E+03  0.5520E+03
     14.592  0.0000E+00  0.0000E+00  0.5520E+03  0.5520E+03
     14.830  0.0000E+00  0.0000E+00  0.5520E+03  0.5520E+03
     15.068  0.0000E+00  0.0000E+00  0.5520E+03  0.5520E+03
     15.306  0.0000E+00  0.0000E+00  0.5520E+03  0.5520E+03
     15.544  0.0000E+00  0.0000E+00  0.5520E+03  0.5520E+03
     15.783  0.0000E+00  0.0000E+00  0.5520E+03  0.5520E+03
     16.021  0.0000E+00  0.0000E+00  0.5520E+03  0.5520E+03
     16.259  0.0000E+00  0.0000E+00  0.5520E+03  0.5520E+03
     16.497  0.0000E+00  0.0000E+00  0.5520E+03  0.5520E+03
     16.736  0.0000E+00  0.0000E+00  0.5520E+03  0.5520E+03
