  99  99   0   0
  0.1430410E+02  0.1177748E-08  0.1177748E-08  0.1058004E-08  0.5000000E-15
  1.000000000000000E-004
  CAR 
 unknown system                          
     17.94202346    -54.33948505  301      5.23252488      1.00000000
    -54.339  0.0000E+00  0.0000E+00  0.0000E+00  0.0000E+00
    -54.099  0.0000E+00  0.0000E+00  0.0000E+00  0.0000E+00
    -53.858  0.0000E+00  0.0000E+00  0.0000E+00  0.0000E+00
    -53.617  0.0000E+00  0.0000E+00  0.0000E+00  0.0000E+00
    -53.376  0.0000E+00  0.0000E+00  0.0000E+00  0.0000E+00
    -53.135  0.0000E+00  0.0000E+00  0.0000E+00  0.0000E+00
    -52.894  0.0000E+00  0.0000E+00  0.0000E+00  0.0000E+00
    -52.653  0.0000E+00  0.0000E+00  0.0000E+00  0.0000E+00
    -52.412  0.0000E+00  0.0000E+00  0.0000E+00  0.0000E+00
    -52.171  0.0000E+00  0.0000E+00  0.0000E+00  0.0000E+00
    -51.930  0.0000E+00  0.0000E+00  0.0000E+00  0.0000E+00
    -51.689  0.0000E+00  0.0000E+00  0.0000E+00  0.0000E+00
    -51.448  0.0000E+00  0.0000E+00  0.0000E+00  0.0000E+00
    -51.207  0.3431E-03  0.0000E+00  0.8266E-04  0.0000E+00
    -50.966  0.1469E+03  0.0000E+00  0.3539E+02  0.0000E+00
    -50.725  0.2536E+01  0.0000E+00  0.3600E+02  0.0000E+00
    -50.484  0.0000E+00  0.0000E+00  0.3600E+02  0.0000E+00
    -50.244  0.0000E+00  0.0000E+00  0.3600E+02  0.0000E+00
    -50.003  0.0000E+00  0.0000E+00  0.3600E+02  0.0000E+00
    -49.762  0.1513E+01  0.0000E+00  0.3636E+02  0.0000E+00
    -49.521  0.2684E+03  0.0000E+00  0.1010E+03  0.0000E+00
    -49.280  0.2895E+02  0.0000E+00  0.1080E+03  0.0000E+00
    -49.039  0.0000E+00  0.0000E+00  0.1080E+03  0.0000E+00
    -48.798  0.0000E+00  0.0000E+00  0.1080E+03  0.0000E+00
    -48.557  0.0000E+00  0.0000E+00  0.1080E+03  0.0000E+00
    -48.316  0.0000E+00  0.0000E+00  0.1080E+03  0.0000E+00
    -48.075  0.0000E+00  0.0000E+00  0.1080E+03  0.0000E+00
    -47.834  0.0000E+00  0.0000E+00  0.1080E+03  0.0000E+00
    -47.593  0.0000E+00  0.0000E+00  0.1080E+03  0.0000E+00
    -47.352  0.0000E+00  0.0000E+00  0.1080E+03  0.0000E+00
    -47.111  0.0000E+00  0.0000E+00  0.1080E+03  0.0000E+00
    -46.870  0.0000E+00  0.0000E+00  0.1080E+03  0.0000E+00
    -46.629  0.0000E+00  0.0000E+00  0.1080E+03  0.0000E+00
    -46.389  0.0000E+00  0.3029E+00  0.1080E+03  0.7297E-01
    -46.148  0.0000E+00  0.1491E+03  0.1080E+03  0.3599E+02
    -45.907  0.0000E+00  0.6659E+02  0.1080E+03  0.5203E+02
    -45.666  0.0000E+00  0.2323E+03  0.1080E+03  0.1080E+03
    -45.425  0.0000E+00  0.0000E+00  0.1080E+03  0.1080E+03
    -45.184  0.0000E+00  0.0000E+00  0.1080E+03  0.1080E+03
    -44.943  0.0000E+00  0.0000E+00  0.1080E+03  0.1080E+03
    -44.702  0.0000E+00  0.0000E+00  0.1080E+03  0.1080E+03
    -44.461  0.0000E+00  0.0000E+00  0.1080E+03  0.1080E+03
    -44.220  0.0000E+00  0.0000E+00  0.1080E+03  0.1080E+03
    -43.979  0.0000E+00  0.0000E+00  0.1080E+03  0.1080E+03
    -43.738  0.0000E+00  0.0000E+00  0.1080E+03  0.1080E+03
    -43.497  0.0000E+00  0.0000E+00  0.1080E+03  0.1080E+03
    -43.256  0.0000E+00  0.0000E+00  0.1080E+03  0.1080E+03
    -43.015  0.0000E+00  0.0000E+00  0.1080E+03  0.1080E+03
    -42.774  0.0000E+00  0.0000E+00  0.1080E+03  0.1080E+03
    -42.534  0.0000E+00  0.0000E+00  0.1080E+03  0.1080E+03
    -42.293  0.0000E+00  0.0000E+00  0.1080E+03  0.1080E+03
    -42.052  0.0000E+00  0.0000E+00  0.1080E+03  0.1080E+03
    -41.811  0.0000E+00  0.0000E+00  0.1080E+03  0.1080E+03
    -41.570  0.0000E+00  0.0000E+00  0.1080E+03  0.1080E+03
    -41.329  0.0000E+00  0.0000E+00  0.1080E+03  0.1080E+03
    -41.088  0.0000E+00  0.0000E+00  0.1080E+03  0.1080E+03
    -40.847  0.0000E+00  0.0000E+00  0.1080E+03  0.1080E+03
    -40.606  0.0000E+00  0.0000E+00  0.1080E+03  0.1080E+03
    -40.365  0.0000E+00  0.0000E+00  0.1080E+03  0.1080E+03
    -40.124  0.5552E-11  0.3561E-11  0.1080E+03  0.1080E+03
    -39.883  0.2111E+02  0.1965E+02  0.1131E+03  0.1127E+03
    -39.642  0.5360E+02  0.5506E+02  0.1260E+03  0.1260E+03
    -39.401  0.0000E+00  0.0000E+00  0.1260E+03  0.1260E+03
    -39.160  0.0000E+00  0.0000E+00  0.1260E+03  0.1260E+03
    -38.919  0.0000E+00  0.0000E+00  0.1260E+03  0.1260E+03
    -38.678  0.0000E+00  0.0000E+00  0.1260E+03  0.1260E+03
    -38.438  0.0000E+00  0.0000E+00  0.1260E+03  0.1260E+03
    -38.197  0.0000E+00  0.0000E+00  0.1260E+03  0.1260E+03
    -37.956  0.0000E+00  0.0000E+00  0.1260E+03  0.1260E+03
    -37.715  0.0000E+00  0.0000E+00  0.1260E+03  0.1260E+03
    -37.474  0.0000E+00  0.0000E+00  0.1260E+03  0.1260E+03
    -37.233  0.0000E+00  0.0000E+00  0.1260E+03  0.1260E+03
    -36.992  0.0000E+00  0.0000E+00  0.1260E+03  0.1260E+03
    -36.751  0.0000E+00  0.0000E+00  0.1260E+03  0.1260E+03
    -36.510  0.0000E+00  0.0000E+00  0.1260E+03  0.1260E+03
    -36.269  0.0000E+00  0.0000E+00  0.1260E+03  0.1260E+03
    -36.028  0.0000E+00  0.0000E+00  0.1260E+03  0.1260E+03
    -35.787  0.0000E+00  0.0000E+00  0.1260E+03  0.1260E+03
    -35.546  0.0000E+00  0.0000E+00  0.1260E+03  0.1260E+03
    -35.305  0.0000E+00  0.0000E+00  0.1260E+03  0.1260E+03
    -35.064  0.0000E+00  0.0000E+00  0.1260E+03  0.1260E+03
    -34.823  0.0000E+00  0.0000E+00  0.1260E+03  0.1260E+03
    -34.583  0.0000E+00  0.0000E+00  0.1260E+03  0.1260E+03
    -34.342  0.0000E+00  0.0000E+00  0.1260E+03  0.1260E+03
    -34.101  0.0000E+00  0.0000E+00  0.1260E+03  0.1260E+03
    -33.860  0.0000E+00  0.0000E+00  0.1260E+03  0.1260E+03
    -33.619  0.0000E+00  0.0000E+00  0.1260E+03  0.1260E+03
    -33.378  0.0000E+00  0.0000E+00  0.1260E+03  0.1260E+03
    -33.137  0.0000E+00  0.0000E+00  0.1260E+03  0.1260E+03
    -32.896  0.0000E+00  0.0000E+00  0.1260E+03  0.1260E+03
    -32.655  0.0000E+00  0.0000E+00  0.1260E+03  0.1260E+03
    -32.414  0.0000E+00  0.0000E+00  0.1260E+03  0.1260E+03
    -32.173  0.0000E+00  0.0000E+00  0.1260E+03  0.1260E+03
    -31.932  0.0000E+00  0.0000E+00  0.1260E+03  0.1260E+03
    -31.691  0.0000E+00  0.0000E+00  0.1260E+03  0.1260E+03
    -31.450  0.0000E+00  0.0000E+00  0.1260E+03  0.1260E+03
    -31.209  0.0000E+00  0.0000E+00  0.1260E+03  0.1260E+03
    -30.968  0.0000E+00  0.0000E+00  0.1260E+03  0.1260E+03
    -30.728  0.0000E+00  0.0000E+00  0.1260E+03  0.1260E+03
    -30.487  0.0000E+00  0.0000E+00  0.1260E+03  0.1260E+03
    -30.246  0.0000E+00  0.0000E+00  0.1260E+03  0.1260E+03
    -30.005  0.0000E+00  0.0000E+00  0.1260E+03  0.1260E+03
    -29.764  0.0000E+00  0.0000E+00  0.1260E+03  0.1260E+03
    -29.523  0.0000E+00  0.0000E+00  0.1260E+03  0.1260E+03
    -29.282  0.0000E+00  0.0000E+00  0.1260E+03  0.1260E+03
    -29.041  0.0000E+00  0.0000E+00  0.1260E+03  0.1260E+03
    -28.800  0.0000E+00  0.0000E+00  0.1260E+03  0.1260E+03
    -28.559  0.0000E+00  0.0000E+00  0.1260E+03  0.1260E+03
    -28.318  0.0000E+00  0.0000E+00  0.1260E+03  0.1260E+03
    -28.077  0.0000E+00  0.0000E+00  0.1260E+03  0.1260E+03
    -27.836  0.0000E+00  0.0000E+00  0.1260E+03  0.1260E+03
    -27.595  0.0000E+00  0.0000E+00  0.1260E+03  0.1260E+03
    -27.354  0.0000E+00  0.0000E+00  0.1260E+03  0.1260E+03
    -27.113  0.0000E+00  0.0000E+00  0.1260E+03  0.1260E+03
    -26.873  0.0000E+00  0.0000E+00  0.1260E+03  0.1260E+03
    -26.632  0.0000E+00  0.0000E+00  0.1260E+03  0.1260E+03
    -26.391  0.0000E+00  0.0000E+00  0.1260E+03  0.1260E+03
    -26.150  0.0000E+00  0.0000E+00  0.1260E+03  0.1260E+03
    -25.909  0.0000E+00  0.0000E+00  0.1260E+03  0.1260E+03
    -25.668  0.0000E+00  0.0000E+00  0.1260E+03  0.1260E+03
    -25.427  0.0000E+00  0.0000E+00  0.1260E+03  0.1260E+03
    -25.186  0.0000E+00  0.0000E+00  0.1260E+03  0.1260E+03
    -24.945  0.0000E+00  0.0000E+00  0.1260E+03  0.1260E+03
    -24.704  0.0000E+00  0.0000E+00  0.1260E+03  0.1260E+03
    -24.463  0.0000E+00  0.0000E+00  0.1260E+03  0.1260E+03
    -24.222  0.0000E+00  0.0000E+00  0.1260E+03  0.1260E+03
    -23.981  0.0000E+00  0.0000E+00  0.1260E+03  0.1260E+03
    -23.740  0.0000E+00  0.0000E+00  0.1260E+03  0.1260E+03
    -23.499  0.0000E+00  0.0000E+00  0.1260E+03  0.1260E+03
    -23.258  0.0000E+00  0.0000E+00  0.1260E+03  0.1260E+03
    -23.017  0.0000E+00  0.0000E+00  0.1260E+03  0.1260E+03
    -22.777  0.0000E+00  0.0000E+00  0.1260E+03  0.1260E+03
    -22.536  0.0000E+00  0.0000E+00  0.1260E+03  0.1260E+03
    -22.295  0.0000E+00  0.0000E+00  0.1260E+03  0.1260E+03
    -22.054  0.0000E+00  0.0000E+00  0.1260E+03  0.1260E+03
    -21.813  0.0000E+00  0.0000E+00  0.1260E+03  0.1260E+03
    -21.572  0.0000E+00  0.0000E+00  0.1260E+03  0.1260E+03
    -21.331  0.0000E+00  0.0000E+00  0.1260E+03  0.1260E+03
    -21.090  0.0000E+00  0.0000E+00  0.1260E+03  0.1260E+03
    -20.849  0.0000E+00  0.0000E+00  0.1260E+03  0.1260E+03
    -20.608  0.0000E+00  0.0000E+00  0.1260E+03  0.1260E+03
    -20.367  0.0000E+00  0.0000E+00  0.1260E+03  0.1260E+03
    -20.126  0.0000E+00  0.0000E+00  0.1260E+03  0.1260E+03
    -19.885  0.0000E+00  0.0000E+00  0.1260E+03  0.1260E+03
    -19.644  0.0000E+00  0.0000E+00  0.1260E+03  0.1260E+03
    -19.403  0.0000E+00  0.0000E+00  0.1260E+03  0.1260E+03
    -19.162  0.0000E+00  0.0000E+00  0.1260E+03  0.1260E+03
    -18.922  0.0000E+00  0.0000E+00  0.1260E+03  0.1260E+03
    -18.681  0.0000E+00  0.0000E+00  0.1260E+03  0.1260E+03
    -18.440  0.0000E+00  0.0000E+00  0.1260E+03  0.1260E+03
    -18.199  0.0000E+00  0.0000E+00  0.1260E+03  0.1260E+03
    -17.958  0.0000E+00  0.0000E+00  0.1260E+03  0.1260E+03
    -17.717  0.0000E+00  0.0000E+00  0.1260E+03  0.1260E+03
    -17.476  0.0000E+00  0.0000E+00  0.1260E+03  0.1260E+03
    -17.235  0.0000E+00  0.0000E+00  0.1260E+03  0.1260E+03
    -16.994  0.0000E+00  0.0000E+00  0.1260E+03  0.1260E+03
    -16.753  0.0000E+00  0.0000E+00  0.1260E+03  0.1260E+03
    -16.512  0.0000E+00  0.0000E+00  0.1260E+03  0.1260E+03
    -16.271  0.0000E+00  0.0000E+00  0.1260E+03  0.1260E+03
    -16.030  0.0000E+00  0.0000E+00  0.1260E+03  0.1260E+03
    -15.789  0.0000E+00  0.0000E+00  0.1260E+03  0.1260E+03
    -15.548  0.0000E+00  0.0000E+00  0.1260E+03  0.1260E+03
    -15.307  0.0000E+00  0.0000E+00  0.1260E+03  0.1260E+03
    -15.067  0.0000E+00  0.0000E+00  0.1260E+03  0.1260E+03
    -14.826  0.0000E+00  0.0000E+00  0.1260E+03  0.1260E+03
    -14.585  0.0000E+00  0.0000E+00  0.1260E+03  0.1260E+03
    -14.344  0.0000E+00  0.0000E+00  0.1260E+03  0.1260E+03
    -14.103  0.0000E+00  0.0000E+00  0.1260E+03  0.1260E+03
    -13.862  0.0000E+00  0.0000E+00  0.1260E+03  0.1260E+03
    -13.621  0.0000E+00  0.0000E+00  0.1260E+03  0.1260E+03
    -13.380  0.1441E-03  0.0000E+00  0.1260E+03  0.1260E+03
    -13.139  0.2982E+02  0.0000E+00  0.1332E+03  0.1260E+03
    -12.898  0.4462E+02  0.1941E+00  0.1439E+03  0.1260E+03
    -12.657  0.2664E+00  0.5777E+02  0.1440E+03  0.1400E+03
    -12.416  0.0000E+00  0.1675E+02  0.1440E+03  0.1440E+03
    -12.175  0.0000E+00  0.0000E+00  0.1440E+03  0.1440E+03
    -11.934  0.0000E+00  0.0000E+00  0.1440E+03  0.1440E+03
    -11.693  0.0000E+00  0.0000E+00  0.1440E+03  0.1440E+03
    -11.452  0.0000E+00  0.0000E+00  0.1440E+03  0.1440E+03
    -11.212  0.0000E+00  0.0000E+00  0.1440E+03  0.1440E+03
    -10.971  0.0000E+00  0.0000E+00  0.1440E+03  0.1440E+03
    -10.730  0.0000E+00  0.0000E+00  0.1440E+03  0.1440E+03
    -10.489  0.0000E+00  0.0000E+00  0.1440E+03  0.1440E+03
    -10.248  0.0000E+00  0.0000E+00  0.1440E+03  0.1440E+03
    -10.007  0.0000E+00  0.0000E+00  0.1440E+03  0.1440E+03
     -9.766  0.0000E+00  0.0000E+00  0.1440E+03  0.1440E+03
     -9.525  0.0000E+00  0.0000E+00  0.1440E+03  0.1440E+03
     -9.284  0.0000E+00  0.0000E+00  0.1440E+03  0.1440E+03
     -9.043  0.0000E+00  0.0000E+00  0.1440E+03  0.1440E+03
     -8.802  0.0000E+00  0.0000E+00  0.1440E+03  0.1440E+03
     -8.561  0.0000E+00  0.0000E+00  0.1440E+03  0.1440E+03
     -8.320  0.0000E+00  0.0000E+00  0.1440E+03  0.1440E+03
     -8.079  0.0000E+00  0.0000E+00  0.1440E+03  0.1440E+03
     -7.838  0.2013E-10  0.0000E+00  0.1440E+03  0.1440E+03
     -7.597  0.5146E+00  0.2451E-11  0.1441E+03  0.1440E+03
     -7.357  0.1675E+02  0.4249E+00  0.1482E+03  0.1441E+03
     -7.116  0.3249E+02  0.1859E+02  0.1560E+03  0.1486E+03
     -6.875  0.3319E+02  0.3121E+02  0.1640E+03  0.1561E+03
     -6.634  0.2911E+02  0.2462E+02  0.1710E+03  0.1620E+03
     -6.393  0.1402E-03  0.3709E+02  0.1710E+03  0.1710E+03
     -6.152  0.0000E+00  0.1351E+00  0.1710E+03  0.1710E+03
     -5.911  0.0000E+00  0.0000E+00  0.1710E+03  0.1710E+03
     -5.670  0.0000E+00  0.0000E+00  0.1710E+03  0.1710E+03
     -5.429  0.0000E+00  0.0000E+00  0.1710E+03  0.1710E+03
     -5.188  0.0000E+00  0.0000E+00  0.1710E+03  0.1710E+03
     -4.947  0.0000E+00  0.0000E+00  0.1710E+03  0.1710E+03
     -4.706  0.0000E+00  0.0000E+00  0.1710E+03  0.1710E+03
     -4.465  0.0000E+00  0.0000E+00  0.1710E+03  0.1710E+03
     -4.224  0.0000E+00  0.0000E+00  0.1710E+03  0.1710E+03
     -3.983  0.0000E+00  0.0000E+00  0.1710E+03  0.1710E+03
     -3.742  0.0000E+00  0.0000E+00  0.1710E+03  0.1710E+03
     -3.501  0.0000E+00  0.0000E+00  0.1710E+03  0.1710E+03
     -3.261  0.0000E+00  0.0000E+00  0.1710E+03  0.1710E+03
     -3.020  0.0000E+00  0.0000E+00  0.1710E+03  0.1710E+03
     -2.779  0.0000E+00  0.0000E+00  0.1710E+03  0.1710E+03
     -2.538  0.0000E+00  0.0000E+00  0.1710E+03  0.1710E+03
     -2.297  0.0000E+00  0.0000E+00  0.1710E+03  0.1710E+03
     -2.056  0.5095E-02  0.0000E+00  0.1710E+03  0.1710E+03
     -1.815  0.2319E+02  0.0000E+00  0.1766E+03  0.1710E+03
     -1.574  0.1888E+02  0.0000E+00  0.1811E+03  0.1710E+03
     -1.333  0.1465E+02  0.0000E+00  0.1847E+03  0.1710E+03
     -1.092  0.2318E+02  0.0000E+00  0.1903E+03  0.1710E+03
     -0.851  0.5594E+02  0.0000E+00  0.2037E+03  0.1710E+03
     -0.610  0.6255E+02  0.1230E-03  0.2188E+03  0.1710E+03
     -0.369  0.3931E+02  0.8489E+01  0.2283E+03  0.1730E+03
     -0.128  0.8169E+02  0.2181E+02  0.2480E+03  0.1783E+03
      0.113  0.8858E+02  0.1295E+02  0.2693E+03  0.1814E+03
      0.354  0.8388E+02  0.2345E+02  0.2895E+03  0.1871E+03
      0.594  0.7264E+02  0.3041E+02  0.3070E+03  0.1944E+03
      0.835  0.6263E+02  0.4810E+02  0.3221E+03  0.2060E+03
      1.076  0.3988E+02  0.4074E+02  0.3317E+03  0.2158E+03
      1.317  0.3471E+02  0.3383E+02  0.3401E+03  0.2240E+03
      1.558  0.5102E+02  0.2391E+02  0.3524E+03  0.2297E+03
      1.799  0.5148E+02  0.3301E+02  0.3648E+03  0.2377E+03
      2.040  0.7513E+02  0.4080E+02  0.3829E+03  0.2475E+03
      2.281  0.6663E+02  0.2892E+02  0.3989E+03  0.2545E+03
      2.522  0.3115E+02  0.2920E+02  0.4064E+03  0.2615E+03
      2.763  0.5055E+02  0.3802E+02  0.4186E+03  0.2707E+03
      3.004  0.2603E+02  0.4579E+02  0.4249E+03  0.2817E+03
      3.245  0.9233E+01  0.4890E+02  0.4271E+03  0.2935E+03
      3.486  0.3850E+02  0.4236E+02  0.4364E+03  0.3037E+03
      3.727  0.2590E+02  0.7606E+01  0.4426E+03  0.3055E+03
      3.968  0.3630E+02  0.2088E+02  0.4514E+03  0.3105E+03
      4.209  0.3953E+02  0.7209E+02  0.4609E+03  0.3279E+03
      4.449  0.3805E+02  0.4677E+02  0.4701E+03  0.3392E+03
      4.690  0.3639E+02  0.1171E+02  0.4788E+03  0.3420E+03
      4.931  0.2577E+02  0.1245E-04  0.4850E+03  0.3420E+03
      5.172  0.4012E+01  0.0000E+00  0.4860E+03  0.3420E+03
      5.413  0.0000E+00  0.0000E+00  0.4860E+03  0.3420E+03
      5.654  0.0000E+00  0.0000E+00  0.4860E+03  0.3420E+03
      5.895  0.0000E+00  0.0000E+00  0.4860E+03  0.3420E+03
      6.136  0.0000E+00  0.1784E-09  0.4860E+03  0.3420E+03
      6.377  0.0000E+00  0.1152E+01  0.4860E+03  0.3423E+03
      6.618  0.0000E+00  0.5094E+01  0.4860E+03  0.3435E+03
      6.859  0.0000E+00  0.9411E+01  0.4860E+03  0.3458E+03
      7.100  0.5410E-14  0.1998E+02  0.4860E+03  0.3506E+03
      7.341  0.3854E-01  0.5958E+02  0.4860E+03  0.3649E+03
      7.582  0.1152E+00  0.6051E+02  0.4860E+03  0.3795E+03
      7.823  0.5659E+00  0.6318E+02  0.4862E+03  0.3947E+03
      8.064  0.5398E+00  0.7453E+02  0.4863E+03  0.4127E+03
      8.304  0.2387E+01  0.7899E+02  0.4869E+03  0.4317E+03
      8.545  0.4511E+01  0.7029E+02  0.4880E+03  0.4487E+03
      8.786  0.9414E+01  0.6668E+02  0.4902E+03  0.4647E+03
      9.027  0.1505E+02  0.4750E+02  0.4939E+03  0.4762E+03
      9.268  0.1584E+02  0.3340E+02  0.4977E+03  0.4842E+03
      9.509  0.1965E+02  0.9155E+01  0.5024E+03  0.4864E+03
      9.750  0.1561E+02  0.5506E+01  0.5062E+03  0.4878E+03
      9.991  0.2399E+02  0.1136E+02  0.5120E+03  0.4905E+03
     10.232  0.1699E+02  0.1605E+02  0.5160E+03  0.4944E+03
     10.473  0.2171E+02  0.2434E+02  0.5213E+03  0.5002E+03
     10.714  0.1481E+02  0.2166E+02  0.5248E+03  0.5054E+03
     10.955  0.1499E+02  0.2183E+02  0.5285E+03  0.5107E+03
     11.196  0.2181E+02  0.3201E+02  0.5337E+03  0.5184E+03
     11.437  0.3215E+02  0.2017E+02  0.5415E+03  0.5233E+03
     11.678  0.2898E+02  0.1862E+02  0.5484E+03  0.5278E+03
     11.919  0.3272E+02  0.1185E+02  0.5563E+03  0.5306E+03
     12.160  0.3655E+02  0.2389E+02  0.5651E+03  0.5364E+03
     12.400  0.2213E+02  0.4456E+02  0.5705E+03  0.5471E+03
     12.641  0.2000E+02  0.3563E+02  0.5753E+03  0.5557E+03
     12.882  0.2563E+02  0.3333E+02  0.5815E+03  0.5637E+03
     13.123  0.2529E+02  0.2049E+02  0.5875E+03  0.5687E+03
     13.364  0.2837E+02  0.2357E+02  0.5944E+03  0.5743E+03
     13.605  0.2537E+02  0.3311E+02  0.6005E+03  0.5823E+03
     13.846  0.1872E+02  0.2653E+02  0.6050E+03  0.5887E+03
     14.087  0.4122E+01  0.2670E+02  0.6060E+03  0.5952E+03
     14.328  0.6735E-03  0.2246E+02  0.6060E+03  0.6006E+03
     14.569  0.0000E+00  0.2006E+02  0.6060E+03  0.6054E+03
     14.810  0.0000E+00  0.2506E+01  0.6060E+03  0.6060E+03
     15.051  0.0000E+00  0.2224E-05  0.6060E+03  0.6060E+03
     15.292  0.0000E+00  0.0000E+00  0.6060E+03  0.6060E+03
     15.533  0.0000E+00  0.0000E+00  0.6060E+03  0.6060E+03
     15.774  0.0000E+00  0.0000E+00  0.6060E+03  0.6060E+03
     16.015  0.0000E+00  0.0000E+00  0.6060E+03  0.6060E+03
     16.255  0.0000E+00  0.0000E+00  0.6060E+03  0.6060E+03
     16.496  0.0000E+00  0.0000E+00  0.6060E+03  0.6060E+03
     16.737  0.0000E+00  0.0000E+00  0.6060E+03  0.6060E+03
     16.978  0.0000E+00  0.0000E+00  0.6060E+03  0.6060E+03
     17.219  0.0000E+00  0.0000E+00  0.6060E+03  0.6060E+03
     17.460  0.0000E+00  0.0000E+00  0.6060E+03  0.6060E+03
     17.701  0.0000E+00  0.0000E+00  0.6060E+03  0.6060E+03
     17.942  0.0000E+00  0.0000E+00  0.6060E+03  0.6060E+03
