   10   10    1    2
  0.1194201E+02  0.3887665E-09  0.5545537E-09  0.5539176E-09  0.5000000E-15
  1.000000000000000E-004
  CAR 
 unknown system                          
     64     42     45
 
  0.0000000E+00  0.0000000E+00  0.0000000E+00  0.1041667E-01
    1      -56.219482    -49.670078   1.000000   1.000000
    2      -56.181242    -49.646026   1.000000   1.000000
    3      -54.897580    -49.636351   1.000000   1.000000
    4      -54.891363    -49.615858   1.000000   1.000000
    5      -54.668451    -49.608055   1.000000   1.000000
    6      -54.630231    -49.557484   1.000000   1.000000
    7      -43.970410    -43.959331   1.000000   1.000000
    8      -43.948553    -43.937561   1.000000   1.000000
    9      -43.733189    -43.734931   1.000000   1.000000
   10      -43.731016    -43.732710   1.000000   1.000000
   11      -16.100193    -15.714017   1.000000   1.000000
   12      -15.810961    -15.439720   1.000000   1.000000
   13       -9.490347     -9.209032   1.000000   1.000000
   14       -8.916503     -8.671390   1.000000   1.000000
   15       -2.935003     -1.873858   1.000000   1.000000
   16       -2.916619     -1.801097   1.000000   1.000000
   17       -2.041142     -0.592723   1.000000   1.000000
   18       -1.486273     -0.566335   1.000000   1.000000
   19       -1.230855     -0.404315   1.000000   1.000000
   20       -1.218185     -0.143642   1.000000   1.000000
   21       -0.988227      1.123744   1.000000   1.000000
   22       -0.914018      1.193946   1.000000   1.000000
   23       -0.787984      1.893034   1.000000   1.000000
   24       -0.604006      2.590003   1.000000   1.000000
   25       -0.424892      2.655651   1.000000   1.000000
   26       -0.216122      2.880364   1.000000   1.000000
   27        0.065755      3.231069   1.000000   1.000000
   28        0.881090      3.983294   1.000000   1.000000
   29        1.341218      7.433914   1.000000   0.000000
   30        1.647491      7.642372   1.000000   0.000000
   31        2.823771      7.958146   1.000000   0.000000
   32        2.835651      8.014811   1.000000   0.000000
   33        2.876961      8.196402   1.000000   0.000000
   34        3.628293      8.827597   1.000000   0.000000
   35        3.687542      9.044205   1.000000   0.000000
   36        3.860362      9.305316   1.000000   0.000000
   37        8.296180      9.456814   0.000000   0.000000
   38        8.407617      9.945673   0.000000   0.000000
   39        9.969594     10.132708   0.000000   0.000000
   40       10.151117     11.072427   0.000000   0.000000
   41       10.876194     11.475189   0.000000   0.000000
   42       11.452657     11.822608   0.000000   0.000000
   43       11.471869     11.878997   0.000000   0.000000
   44       14.786085     15.202739   0.000000   0.000000
   45       14.814537     15.386449   0.000000   0.000000
 
  0.1666667E+00  0.1424455E-18  0.0000000E+00  0.2083333E-01
    1      -56.219454    -49.669956   1.000000   1.000000
    2      -56.181192    -49.646197   1.000000   1.000000
    3      -54.897802    -49.636738   1.000000   1.000000
    4      -54.891551    -49.615732   1.000000   1.000000
    5      -54.668411    -49.607965   1.000000   1.000000
    6      -54.630203    -49.557434   1.000000   1.000000
    7      -43.969393    -43.958268   1.000000   1.000000
    8      -43.948367    -43.937366   1.000000   1.000000
    9      -43.732977    -43.734743   1.000000   1.000000
   10      -43.731663    -43.733373   1.000000   1.000000
   11      -16.107923    -15.721214   1.000000   1.000000
   12      -15.825408    -15.454340   1.000000   1.000000
   13       -9.421935     -9.149555   1.000000   1.000000
   14       -8.866136     -8.606073   1.000000   1.000000
   15       -2.866080     -1.704379   1.000000   1.000000
   16       -2.856128     -1.646094   1.000000   1.000000
   17       -2.101402     -0.535256   1.000000   1.000000
   18       -1.382441     -0.507498   1.000000   1.000000
   19       -1.326593     -0.382682   1.000000   1.000000
   20       -1.141379     -0.102763   1.000000   1.000000
   21       -1.030151      1.045043   1.000000   1.000000
   22       -0.827424      1.111318   1.000000   1.000000
   23       -0.699833      1.372942   1.000000   1.000000
   24       -0.592409      1.593549   1.000000   1.000000
   25       -0.372882      2.756983   1.000000   1.000000
   26       -0.129300      2.788078   1.000000   1.000000
   27        0.109062      3.396273   1.000000   1.000000
   28        0.733950      3.919370   1.000000   1.000000
   29        1.369240      7.258143   1.000000   0.000000
   30        1.623487      7.675155   1.000000   0.000000
   31        2.215701      7.843095   1.000000   0.000000
   32        2.550130      8.012900   1.000000   0.000000
   33        3.073038      8.674466   1.000000   0.000000
   34        3.076841      8.687686   1.000000   0.000000
   35        3.334631      8.816597   1.000000   0.000000
   36        3.455126      9.303978   1.000000   0.000000
   37        8.952239      9.884683   0.000000   0.000000
   38        9.496114     10.605553   0.000000   0.000000
   39       10.350308     10.643524   0.000000   0.000000
   40       10.467592     11.108908   0.000000   0.000000
   41       11.304255     12.041450   0.000000   0.000000
   42       11.551077     12.223470   0.000000   0.000000
   43       11.718674     12.243332   0.000000   0.000000
   44       14.011743     14.575428   0.000000   0.000000
   45       14.011833     14.673109   0.000000   0.000000
 
  0.3333333E+00  0.6161543E-18  0.0000000E+00  0.2083333E-01
    1      -56.219418    -49.669721   1.000000   1.000000
    2      -56.181114    -49.646517   1.000000   1.000000
    3      -54.898226    -49.637545   1.000000   1.000000
    4      -54.891960    -49.615490   1.000000   1.000000
    5      -54.668333    -49.607790   1.000000   1.000000
    6      -54.630156    -49.557339   1.000000   1.000000
    7      -43.967323    -43.956104   1.000000   1.000000
    8      -43.948041    -43.937022   1.000000   1.000000
    9      -43.732966    -43.734713   1.000000   1.000000
   10      -43.732560    -43.734374   1.000000   1.000000
   11      -16.123501    -15.735747   1.000000   1.000000
   12      -15.854325    -15.483611   1.000000   1.000000
   13       -9.273946     -9.021657   1.000000   1.000000
   14       -8.761943     -8.468195   1.000000   1.000000
   15       -2.748499     -1.283298   1.000000   1.000000
   16       -2.742241     -1.269599   1.000000   1.000000
   17       -2.185574     -0.606508   1.000000   1.000000
   18       -1.770896     -0.344838   1.000000   1.000000
   19       -1.025362     -0.215440   1.000000   1.000000
   20       -0.936196     -0.068117   1.000000   1.000000
   21       -0.773379      0.546050   1.000000   1.000000
   22       -0.718488      0.643611   1.000000   1.000000
   23       -0.669662      0.788386   1.000000   1.000000
   24       -0.407096      0.900630   1.000000   1.000000
   25       -0.274125      2.403933   1.000000   1.000000
   26        0.122159      2.490924   1.000000   1.000000
   27        0.207521      3.463256   1.000000   1.000000
   28        0.474175      3.854638   1.000000   1.000000
   29        0.988102      7.039018   1.000000   0.000000
   30        1.407233      7.180764   1.000000   0.000000
   31        1.493997      8.033730   1.000000   0.000000
   32        1.623708      8.255334   1.000000   0.000000
   33        2.360055      8.565708   1.000000   0.000000
   34        2.994724      8.890071   1.000000   0.000000
   35        3.181424      8.932116   1.000000   0.000000
   36        3.212950      9.326234   1.000000   0.000000
   37        9.947540     10.554508   0.000000   0.000000
   38       10.045417     10.571694   0.000000   0.000000
   39       11.372808     11.813622   0.000000   0.000000
   40       11.401091     12.593118   0.000000   0.000000
   41       11.439021     12.626635   0.000000   0.000000
   42       12.462318     13.060393   0.000000   0.000000
   43       12.650078     13.116692   0.000000   0.000000
   44       13.077743     13.661923   0.000000   0.000000
   45       13.354743     13.784478   0.000000   0.000000
 
  0.5000000E+00  0.1363928E-18  0.0000000E+00  0.1041667E-01
    1      -56.219398    -49.669597   1.000000   1.000000
    2      -56.181079    -49.646702   1.000000   1.000000
    3      -54.898456    -49.637972   1.000000   1.000000
    4      -54.892182    -49.615374   1.000000   1.000000
    5      -54.668294    -49.607697   1.000000   1.000000
    6      -54.630142    -49.557296   1.000000   1.000000
    7      -43.966317    -43.955048   1.000000   1.000000
    8      -43.947908    -43.936881   1.000000   1.000000
    9      -43.733668    -43.735435   1.000000   1.000000
   10      -43.732408    -43.734245   1.000000   1.000000
   11      -16.131441    -15.743193   1.000000   1.000000
   12      -15.868892    -15.498358   1.000000   1.000000
   13       -9.193500     -8.952650   1.000000   1.000000
   14       -8.707957     -8.395134   1.000000   1.000000
   15       -2.702103     -1.072927   1.000000   1.000000
   16       -2.701532     -0.992375   1.000000   1.000000
   17       -2.216772     -0.672242   1.000000   1.000000
   18       -1.964393     -0.174175   1.000000   1.000000
   19       -1.023367     -0.167237   1.000000   1.000000
   20       -0.741058     -0.058548   1.000000   1.000000
   21       -0.656258      0.237200   1.000000   1.000000
   22       -0.425725      0.302606   1.000000   1.000000
   23       -0.378989      0.549770   1.000000   1.000000
   24       -0.355636      0.721412   1.000000   1.000000
   25       -0.057851      2.204899   1.000000   1.000000
   26        0.058194      2.320378   1.000000   1.000000
   27        0.126804      3.462868   1.000000   1.000000
   28        0.358268      3.846542   1.000000   1.000000
   29        0.667735      6.953308   1.000000   0.000000
   30        0.835688      6.983511   1.000000   0.000000
   31        1.117245      8.059151   1.000000   0.000000
   32        1.551351      8.266308   1.000000   0.000000
   33        2.083682      8.823281   1.000000   0.000000
   34        2.816850      8.882022   1.000000   0.000000
   35        3.192489      9.060704   1.000000   0.000000
   36        3.262241      9.217995   1.000000   0.000000
   37       10.055596     10.398050   0.000000   0.000000
   38       10.830859     11.249391   0.000000   0.000000
   39       11.171777     12.489017   0.000000   0.000000
   40       11.202190     12.598360   0.000000   0.000000
   41       12.339388     12.835823   0.000000   0.000000
   42       12.459896     13.024890   0.000000   0.000000
   43       12.509192     13.195448   0.000000   0.000000
   44       13.566573     13.993032   0.000000   0.000000
   45       13.907306     14.601959   0.000000   0.000000
 
  0.9398907E-19  0.2500000E+00  0.0000000E+00  0.2083333E-01
    1      -56.213826    -49.658723   1.000000   1.000000
    2      -56.186786    -49.644638   1.000000   1.000000
    3      -54.896677    -49.637786   1.000000   1.000000
    4      -54.892272    -49.620189   1.000000   1.000000
    5      -54.662939    -49.604127   1.000000   1.000000
    6      -54.635915    -49.568568   1.000000   1.000000
    7      -43.967245    -43.956181   1.000000   1.000000
    8      -43.951794    -43.940791   1.000000   1.000000
    9      -43.732875    -43.734606   1.000000   1.000000
   10      -43.731309    -43.733007   1.000000   1.000000
   11      -16.056105    -15.671537   1.000000   1.000000
   12      -15.851246    -15.477213   1.000000   1.000000
   13       -9.438112     -9.164599   1.000000   1.000000
   14       -9.041245     -8.793244   1.000000   1.000000
   15       -2.779936     -1.659846   1.000000   1.000000
   16       -2.669392     -1.464125   1.000000   1.000000
   17       -1.942441     -0.710256   1.000000   1.000000
   18       -1.685640     -0.493041   1.000000   1.000000
   19       -1.684838     -0.336500   1.000000   1.000000
   20       -1.209872     -0.143481   1.000000   1.000000
   21       -1.117648      0.910965   1.000000   1.000000
   22       -0.927888      1.270223   1.000000   1.000000
   23       -0.604433      1.921033   1.000000   1.000000
   24       -0.580798      2.276164   1.000000   1.000000
   25       -0.081498      2.454483   1.000000   1.000000
   26        0.128047      2.685981   1.000000   1.000000
   27        0.317013      3.103508   1.000000   1.000000
   28        0.976415      3.807667   1.000000   1.000000
   29        1.176796      7.612594   1.000000   0.000000
   30        1.427205      7.827910   1.000000   0.000000
   31        2.329384      7.953934   1.000000   0.000000
   32        2.571942      8.004664   1.000000   0.000000
   33        2.917156      8.505615   1.000000   0.000000
   34        3.415403      8.675768   1.000000   0.000000
   35        3.528671      8.701356   1.000000   0.000000
   36        3.620924      9.240791   1.000000   0.000000
   37        8.874614      9.941332   0.000000   0.000000
   38        8.913331     10.191281   0.000000   0.000000
   39       10.447924     10.679572   0.000000   0.000000
   40       10.868390     11.453211   0.000000   0.000000
   41       11.018984     11.596494   0.000000   0.000000
   42       11.814323     12.317340   0.000000   0.000000
   43       12.100662     12.587371   0.000000   0.000000
   44       13.799469     14.215090   0.000000   0.000000
   45       13.891886     14.254881   0.000000   0.000000
 
  0.1666667E+00  0.2500000E+00  0.0000000E+00  0.2083333E-01
    1      -56.213802    -49.658618   1.000000   1.000000
    2      -56.186748    -49.644828   1.000000   1.000000
    3      -54.896889    -49.638143   1.000000   1.000000
    4      -54.892476    -49.620074   1.000000   1.000000
    5      -54.662905    -49.604034   1.000000   1.000000
    6      -54.635890    -49.568507   1.000000   1.000000
    7      -43.966345    -43.955241   1.000000   1.000000
    8      -43.951498    -43.940482   1.000000   1.000000
    9      -43.732812    -43.734568   1.000000   1.000000
   10      -43.731862    -43.733579   1.000000   1.000000
   11      -16.065147    -15.680203   1.000000   1.000000
   12      -15.865212    -15.491311   1.000000   1.000000
   13       -9.366153     -9.097939   1.000000   1.000000
   14       -8.979764     -8.720590   1.000000   1.000000
   15       -2.726415     -1.523760   1.000000   1.000000
   16       -2.649483     -1.389140   1.000000   1.000000
   17       -2.032114     -0.654160   1.000000   1.000000
   18       -1.637057     -0.609291   1.000000   1.000000
   19       -1.612976     -0.224418   1.000000   1.000000
   20       -1.288219     -0.135910   1.000000   1.000000
   21       -1.076543      1.023130   1.000000   1.000000
   22       -0.861852      1.180859   1.000000   1.000000
   23       -0.671622      1.445213   1.000000   1.000000
   24       -0.452273      1.466329   1.000000   1.000000
   25       -0.113597      2.396484   1.000000   1.000000
   26        0.267855      2.532623   1.000000   1.000000
   27        0.345564      3.527048   1.000000   1.000000
   28        0.850192      3.817234   1.000000   1.000000
   29        1.150960      7.424207   1.000000   0.000000
   30        1.349933      7.814250   1.000000   0.000000
   31        2.172369      7.858816   1.000000   0.000000
   32        2.230522      8.045008   1.000000   0.000000
   33        2.816965      8.611198   1.000000   0.000000
   34        3.075149      8.616116   1.000000   0.000000
   35        3.345056      8.900769   1.000000   0.000000
   36        3.422657      9.143347   1.000000   0.000000
   37        9.512964     10.410080   0.000000   0.000000
   38        9.940617     10.701570   0.000000   0.000000
   39       10.342001     10.898809   0.000000   0.000000
   40       11.029947     11.557127   0.000000   0.000000
   41       11.417812     11.984408   0.000000   0.000000
   42       11.863885     12.437549   0.000000   0.000000
   43       12.154350     12.834157   0.000000   0.000000
   44       13.206504     13.745287   0.000000   0.000000
   45       13.225221     13.832063   0.000000   0.000000
 
  0.1666667E+00 -0.2500000E+00  0.0000000E+00  0.2083333E-01
    1      -56.213801    -49.658616   1.000000   1.000000
    2      -56.186747    -49.644828   1.000000   1.000000
    3      -54.896888    -49.638141   1.000000   1.000000
    4      -54.892475    -49.620072   1.000000   1.000000
    5      -54.662903    -49.604032   1.000000   1.000000
    6      -54.635888    -49.568506   1.000000   1.000000
    7      -43.966341    -43.955238   1.000000   1.000000
    8      -43.951495    -43.940480   1.000000   1.000000
    9      -43.732809    -43.734565   1.000000   1.000000
   10      -43.731859    -43.733576   1.000000   1.000000
   11      -16.065146    -15.680202   1.000000   1.000000
   12      -15.865212    -15.491311   1.000000   1.000000
   13       -9.366156     -9.097947   1.000000   1.000000
   14       -8.979721     -8.720536   1.000000   1.000000
   15       -2.726354     -1.523913   1.000000   1.000000
   16       -2.649662     -1.389479   1.000000   1.000000
   17       -2.031826     -0.653426   1.000000   1.000000
   18       -1.636610     -0.608671   1.000000   1.000000
   19       -1.613661     -0.225194   1.000000   1.000000
   20       -1.289181     -0.137376   1.000000   1.000000
   21       -1.075749      1.021836   1.000000   1.000000
   22       -0.863695      1.179291   1.000000   1.000000
   23       -0.672117      1.447806   1.000000   1.000000
   24       -0.450634      1.469039   1.000000   1.000000
   25       -0.114940      2.395841   1.000000   1.000000
   26        0.271319      2.533057   1.000000   1.000000
   27        0.347075      3.528939   1.000000   1.000000
   28        0.848722      3.814890   1.000000   1.000000
   29        1.149905      7.428242   1.000000   0.000000
   30        1.349503      7.809848   1.000000   0.000000
   31        2.172094      7.854668   1.000000   0.000000
   32        2.232130      8.049055   1.000000   0.000000
   33        2.815419      8.612130   1.000000   0.000000
   34        3.071675      8.613395   1.000000   0.000000
   35        3.345916      8.902619   1.000000   0.000000
   36        3.426532      9.143240   1.000000   0.000000
   37        9.510663     10.411690   0.000000   0.000000
   38        9.944372     10.704936   0.000000   0.000000
   39       10.348136     10.903774   0.000000   0.000000
   40       11.035481     11.566002   0.000000   0.000000
   41       11.411033     11.984710   0.000000   0.000000
   42       11.875075     12.450929   0.000000   0.000000
   43       12.160179     12.843740   0.000000   0.000000
   44       13.246632     13.834980   0.000000   0.000000
   45       13.278693     13.893425   0.000000   0.000000
 
  0.3333333E+00  0.2500000E+00  0.0000000E+00  0.2083333E-01
    1      -56.213755    -49.658397   1.000000   1.000000
    2      -56.186671    -49.645215   1.000000   1.000000
    3      -54.897317    -49.638868   1.000000   1.000000
    4      -54.892884    -49.619837   1.000000   1.000000
    5      -54.662833    -49.603849   1.000000   1.000000
    6      -54.635839    -49.568387   1.000000   1.000000
    7      -43.964530    -43.953346   1.000000   1.000000
    8      -43.950880    -43.939838   1.000000   1.000000
    9      -43.732948    -43.734704   1.000000   1.000000
   10      -43.732665    -43.734468   1.000000   1.000000
   11      -16.083345    -15.697673   1.000000   1.000000
   12      -15.892971    -15.519337   1.000000   1.000000
   13       -9.210876     -8.954615   1.000000   1.000000
   14       -8.850962     -8.565980   1.000000   1.000000
   15       -2.635861     -1.279218   1.000000   1.000000
   16       -2.612782     -1.271313   1.000000   1.000000
   17       -2.130477     -0.767506   1.000000   1.000000
   18       -1.579642     -0.451652   1.000000   1.000000
   19       -1.484801     -0.308039   1.000000   1.000000
   20       -1.459980      0.070907   1.000000   1.000000
   21       -1.217034      0.431705   1.000000   1.000000
   22       -0.935898      0.682070   1.000000   1.000000
   23       -0.382943      1.060855   1.000000   1.000000
   24       -0.160392      1.294942   1.000000   1.000000
   25        0.034482      2.202408   1.000000   1.000000
   26        0.294015      2.480254   1.000000   1.000000
   27        0.515135      3.601061   1.000000   1.000000
   28        0.674414      3.813261   1.000000   1.000000
   29        0.708022      7.191495   1.000000   0.000000
   30        1.216194      7.402288   1.000000   0.000000
   31        1.699861      7.849414   1.000000   0.000000
   32        1.803271      8.118565   1.000000   0.000000
   33        2.768346      8.598133   1.000000   0.000000
   34        2.918183      8.751009   1.000000   0.000000
   35        2.930592      8.939222   1.000000   0.000000
   36        3.085134      9.062164   1.000000   0.000000
   37       10.157034     10.929595   0.000000   0.000000
   38       10.172269     11.147840   0.000000   0.000000
   39       10.807936     11.244284   0.000000   0.000000
   40       11.292330     12.055092   0.000000   0.000000
   41       11.947169     12.720529   0.000000   0.000000
   42       12.125137     12.857120   0.000000   0.000000
   43       12.563472     13.310275   0.000000   0.000000
   44       13.202834     13.575514   0.000000   0.000000
   45       13.790959     14.211964   0.000000   0.000000
 
  0.3333333E+00 -0.2500000E+00  0.0000000E+00  0.2083333E-01
    1      -56.213753    -49.658395   1.000000   1.000000
    2      -56.186670    -49.645214   1.000000   1.000000
    3      -54.897315    -49.638866   1.000000   1.000000
    4      -54.892882    -49.619835   1.000000   1.000000
    5      -54.662831    -49.603848   1.000000   1.000000
    6      -54.635837    -49.568385   1.000000   1.000000
    7      -43.964527    -43.953343   1.000000   1.000000
    8      -43.950877    -43.939835   1.000000   1.000000
    9      -43.732945    -43.734701   1.000000   1.000000
   10      -43.732662    -43.734465   1.000000   1.000000
   11      -16.083344    -15.697671   1.000000   1.000000
   12      -15.892971    -15.519336   1.000000   1.000000
   13       -9.210880     -8.954625   1.000000   1.000000
   14       -8.850915     -8.565921   1.000000   1.000000
   15       -2.635707     -1.279053   1.000000   1.000000
   16       -2.612993     -1.271858   1.000000   1.000000
   17       -2.130355     -0.767972   1.000000   1.000000
   18       -1.579176     -0.449682   1.000000   1.000000
   19       -1.486649     -0.310043   1.000000   1.000000
   20       -1.460273      0.069452   1.000000   1.000000
   21       -1.216607      0.433287   1.000000   1.000000
   22       -0.935220      0.681833   1.000000   1.000000
   23       -0.382411      1.060571   1.000000   1.000000
   24       -0.162616      1.296143   1.000000   1.000000
   25        0.034174      2.202867   1.000000   1.000000
   26        0.298040      2.481326   1.000000   1.000000
   27        0.518204      3.601301   1.000000   1.000000
   28        0.671426      3.811738   1.000000   1.000000
   29        0.706567      7.195153   1.000000   0.000000
   30        1.214417      7.401616   1.000000   0.000000
   31        1.701113      7.846837   1.000000   0.000000
   32        1.804370      8.119815   1.000000   0.000000
   33        2.768870      8.600249   1.000000   0.000000
   34        2.917316      8.749721   1.000000   0.000000
   35        2.930421      8.940409   1.000000   0.000000
   36        3.085392      9.061688   1.000000   0.000000
   37       10.150815     10.922138   0.000000   0.000000
   38       10.180405     11.149890   0.000000   0.000000
   39       10.806122     11.247764   0.000000   0.000000
   40       11.328114     12.114837   0.000000   0.000000
   41       11.958916     12.711571   0.000000   0.000000
   42       12.333812     12.957654   0.000000   0.000000
   43       12.564982     13.326843   0.000000   0.000000
   44       13.248534     13.586689   0.000000   0.000000
   45       13.634021     14.070318   0.000000   0.000000
 
  0.5000000E+00  0.2500000E+00  0.0000000E+00  0.2083333E-01
    1      -56.213737    -49.658289   1.000000   1.000000
    2      -56.186638    -49.645424   1.000000   1.000000
    3      -54.897537    -49.639242   1.000000   1.000000
    4      -54.893094    -49.619720   1.000000   1.000000
    5      -54.662800    -49.603758   1.000000   1.000000
    6      -54.635818    -49.568331   1.000000   1.000000
    7      -43.963612    -43.952386   1.000000   1.000000
    8      -43.950569    -43.939514   1.000000   1.000000
    9      -43.733505    -43.735283   1.000000   1.000000
   10      -43.732589    -43.734415   1.000000   1.000000
   11      -16.092507    -15.706489   1.000000   1.000000
   12      -15.906861    -15.533361   1.000000   1.000000
   13       -9.126676     -8.877249   1.000000   1.000000
   14       -8.783346     -8.483347   1.000000   1.000000
   15       -2.610073     -1.302219   1.000000   1.000000
   16       -2.595822     -1.267284   1.000000   1.000000
   17       -2.161662     -0.610930   1.000000   1.000000
   18       -1.744774     -0.498429   1.000000   1.000000
   19       -1.433567     -0.162202   1.000000   1.000000
   20       -1.343363     -0.039149   1.000000   1.000000
   21       -1.322663      0.310605   1.000000   1.000000
   22       -0.654976      0.455304   1.000000   1.000000
   23       -0.559493      0.825220   1.000000   1.000000
   24       -0.425356      1.278453   1.000000   1.000000
   25        0.317498      2.106921   1.000000   1.000000
   26        0.523798      2.578904   1.000000   1.000000
   27        0.601648      3.528886   1.000000   1.000000
   28        0.725699      3.800977   1.000000   1.000000
   29        0.885895      7.108410   1.000000   0.000000
   30        1.019585      7.121062   1.000000   0.000000
   31        1.075509      7.852486   1.000000   0.000000
   32        1.696309      8.092719   1.000000   0.000000
   33        2.406811      8.750083   1.000000   0.000000
   34        2.826198      8.802399   1.000000   0.000000
   35        2.857812      8.966117   1.000000   0.000000
   36        3.194102      8.975289   1.000000   0.000000
   37       10.224025     11.156629   0.000000   0.000000
   38       10.449575     11.336597   0.000000   0.000000
   39       10.801963     11.550994   0.000000   0.000000
   40       10.862606     11.640514   0.000000   0.000000
   41       12.123573     12.743040   0.000000   0.000000
   42       12.298935     13.333760   0.000000   0.000000
   43       13.087264     13.614563   0.000000   0.000000
   44       13.963366     14.414002   0.000000   0.000000
   45       14.004838     14.422730   0.000000   0.000000
 
  0.1879781E-18  0.5000000E+00  0.0000000E+00  0.1041667E-01
    1      -56.200231    -49.641237   1.000000   1.000000
    2      -56.200231    -49.641237   1.000000   1.000000
    3      -54.894476    -49.635395   1.000000   1.000000
    4      -54.894475    -49.635394   1.000000   1.000000
    5      -54.649510    -49.590462   1.000000   1.000000
    6      -54.649509    -49.590462   1.000000   1.000000
    7      -43.959533    -43.948502   1.000000   1.000000
    8      -43.959527    -43.948495   1.000000   1.000000
    9      -43.732068    -43.733779   1.000000   1.000000
   10      -43.732066    -43.733778   1.000000   1.000000
   11      -15.951729    -15.571837   1.000000   1.000000
   12      -15.951728    -15.571836   1.000000   1.000000
   13       -9.274463     -9.016165   1.000000   1.000000
   14       -9.274462     -9.016164   1.000000   1.000000
   15       -2.474866     -1.319851   1.000000   1.000000
   16       -2.474866     -1.319851   1.000000   1.000000
   17       -1.945623     -0.464599   1.000000   1.000000
   18       -1.945623     -0.464599   1.000000   1.000000
   19       -1.653106     -0.205322   1.000000   1.000000
   20       -1.653106     -0.205321   1.000000   1.000000
   21       -0.843482      0.798375   1.000000   1.000000
   22       -0.843481      0.798376   1.000000   1.000000
   23       -0.698524      2.103089   1.000000   1.000000
   24       -0.698524      2.103089   1.000000   1.000000
   25        0.548130      2.253968   1.000000   1.000000
   26        0.548131      2.253968   1.000000   1.000000
   27        0.719264      3.404436   1.000000   1.000000
   28        0.719264      3.404437   1.000000   1.000000
   29        1.089612      7.942370   1.000000   0.000000
   30        1.089612      7.942370   1.000000   0.000000
   31        1.949579      7.982182   1.000000   0.000000
   32        1.949579      7.982182   1.000000   0.000000
   33        3.201577      8.495818   1.000000   0.000000
   34        3.201577      8.495818   1.000000   0.000000
   35        3.337793      8.838186   1.000000   0.000000
   36        3.337793      8.838186   1.000000   0.000000
   37        9.383320     10.459885   0.000000   0.000000
   38        9.383320     10.459886   0.000000   0.000000
   39       11.755803     11.972922   0.000000   0.000000
   40       11.756126     11.973018   0.000000   0.000000
   41       12.246473     12.500657   0.000000   0.000000
   42       12.251836     12.501660   0.000000   0.000000
   43       12.501188     13.185541   0.000000   0.000000
   44       12.516898     13.237951   0.000000   0.000000
   45       12.720284     13.328427   0.000000   0.000000
 
  0.1666667E+00  0.5000000E+00  0.0000000E+00  0.2083333E-01
    1      -56.200203    -49.641514   1.000000   1.000000
    2      -56.200203    -49.641508   1.000000   1.000000
    3      -54.894687    -49.635296   1.000000   1.000000
    4      -54.894686    -49.635291   1.000000   1.000000
    5      -54.649481    -49.590374   1.000000   1.000000