 144 144   0   0
  0.1325381E+02  0.1546422E-08  0.1214491E-08  0.1054520E-08  0.5000000E-15
  1.000000000000000E-004
  CAR 
 unknown system                          
     17.00459754    -54.88292685  301      5.08324975      1.00000000
    -54.883  0.0000E+00  0.0000E+00  0.0000E+00  0.0000E+00
    -54.643  0.0000E+00  0.0000E+00  0.0000E+00  0.0000E+00
    -54.404  0.0000E+00  0.0000E+00  0.0000E+00  0.0000E+00
    -54.164  0.0000E+00  0.0000E+00  0.0000E+00  0.0000E+00
    -53.924  0.0000E+00  0.0000E+00  0.0000E+00  0.0000E+00
    -53.685  0.0000E+00  0.0000E+00  0.0000E+00  0.0000E+00
    -53.445  0.0000E+00  0.0000E+00  0.0000E+00  0.0000E+00
    -53.206  0.0000E+00  0.0000E+00  0.0000E+00  0.0000E+00
    -52.966  0.0000E+00  0.0000E+00  0.0000E+00  0.0000E+00
    -52.726  0.0000E+00  0.0000E+00  0.0000E+00  0.0000E+00
    -52.487  0.0000E+00  0.0000E+00  0.0000E+00  0.0000E+00
    -52.247  0.0000E+00  0.0000E+00  0.0000E+00  0.0000E+00
    -52.007  0.0000E+00  0.0000E+00  0.0000E+00  0.0000E+00
    -51.768  0.1059E-03  0.0000E+00  0.2538E-04  0.0000E+00
    -51.528  0.4930E+02  0.0000E+00  0.1181E+02  0.0000E+00
    -51.289  0.8092E+02  0.0000E+00  0.3120E+02  0.0000E+00
    -51.049  0.2001E+02  0.0000E+00  0.3600E+02  0.0000E+00
    -50.809  0.0000E+00  0.0000E+00  0.3600E+02  0.0000E+00
    -50.570  0.0000E+00  0.0000E+00  0.3600E+02  0.0000E+00
    -50.330  0.3491E-04  0.0000E+00  0.3600E+02  0.0000E+00
    -50.090  0.6143E+02  0.0000E+00  0.5072E+02  0.0000E+00
    -49.851  0.2046E+03  0.0000E+00  0.9974E+02  0.0000E+00
    -49.611  0.3446E+02  0.0000E+00  0.1080E+03  0.0000E+00
    -49.372  0.0000E+00  0.0000E+00  0.1080E+03  0.0000E+00
    -49.132  0.0000E+00  0.0000E+00  0.1080E+03  0.0000E+00
    -48.892  0.0000E+00  0.0000E+00  0.1080E+03  0.0000E+00
    -48.653  0.0000E+00  0.0000E+00  0.1080E+03  0.0000E+00
    -48.413  0.0000E+00  0.0000E+00  0.1080E+03  0.0000E+00
    -48.173  0.0000E+00  0.0000E+00  0.1080E+03  0.0000E+00
    -47.934  0.0000E+00  0.0000E+00  0.1080E+03  0.0000E+00
    -47.694  0.0000E+00  0.0000E+00  0.1080E+03  0.0000E+00
    -47.455  0.0000E+00  0.0000E+00  0.1080E+03  0.0000E+00
    -47.215  0.0000E+00  0.0000E+00  0.1080E+03  0.0000E+00
    -46.975  0.0000E+00  0.2708E-01  0.1080E+03  0.6489E-02
    -46.736  0.0000E+00  0.5043E+02  0.1080E+03  0.1209E+02
    -46.496  0.0000E+00  0.9280E+02  0.1080E+03  0.3433E+02
    -46.256  0.0000E+00  0.1370E+03  0.1080E+03  0.6715E+02
    -46.017  0.0000E+00  0.1705E+03  0.1080E+03  0.1080E+03
    -45.777  0.0000E+00  0.1546E-01  0.1080E+03  0.1080E+03
    -45.538  0.0000E+00  0.0000E+00  0.1080E+03  0.1080E+03
    -45.298  0.0000E+00  0.0000E+00  0.1080E+03  0.1080E+03
    -45.058  0.0000E+00  0.0000E+00  0.1080E+03  0.1080E+03
    -44.819  0.0000E+00  0.0000E+00  0.1080E+03  0.1080E+03
    -44.579  0.0000E+00  0.0000E+00  0.1080E+03  0.1080E+03
    -44.339  0.0000E+00  0.0000E+00  0.1080E+03  0.1080E+03
    -44.100  0.0000E+00  0.0000E+00  0.1080E+03  0.1080E+03
    -43.860  0.0000E+00  0.0000E+00  0.1080E+03  0.1080E+03
    -43.621  0.0000E+00  0.0000E+00  0.1080E+03  0.1080E+03
    -43.381  0.0000E+00  0.0000E+00  0.1080E+03  0.1080E+03
    -43.141  0.0000E+00  0.0000E+00  0.1080E+03  0.1080E+03
    -42.902  0.0000E+00  0.0000E+00  0.1080E+03  0.1080E+03
    -42.662  0.0000E+00  0.0000E+00  0.1080E+03  0.1080E+03
    -42.422  0.0000E+00  0.0000E+00  0.1080E+03  0.1080E+03
    -42.183  0.0000E+00  0.0000E+00  0.1080E+03  0.1080E+03
    -41.943  0.0000E+00  0.0000E+00  0.1080E+03  0.1080E+03
    -41.704  0.0000E+00  0.0000E+00  0.1080E+03  0.1080E+03
    -41.464  0.0000E+00  0.0000E+00  0.1080E+03  0.1080E+03
    -41.224  0.0000E+00  0.0000E+00  0.1080E+03  0.1080E+03
    -40.985  0.0000E+00  0.0000E+00  0.1080E+03  0.1080E+03
    -40.745  0.1847E-09  0.5732E-10  0.1080E+03  0.1080E+03
    -40.505  0.2348E+02  0.2023E+02  0.1136E+03  0.1128E+03
    -40.266  0.4488E+02  0.4837E+02  0.1244E+03  0.1244E+03
    -40.026  0.9949E+02  0.9970E+02  0.1482E+03  0.1483E+03
    -39.787  0.3246E+02  0.3202E+02  0.1560E+03  0.1560E+03
    -39.547  0.0000E+00  0.0000E+00  0.1560E+03  0.1560E+03
    -39.307  0.0000E+00  0.0000E+00  0.1560E+03  0.1560E+03
    -39.068  0.0000E+00  0.0000E+00  0.1560E+03  0.1560E+03
    -38.828  0.0000E+00  0.0000E+00  0.1560E+03  0.1560E+03
    -38.588  0.0000E+00  0.0000E+00  0.1560E+03  0.1560E+03
    -38.349  0.0000E+00  0.0000E+00  0.1560E+03  0.1560E+03
    -38.109  0.0000E+00  0.0000E+00  0.1560E+03  0.1560E+03
    -37.870  0.0000E+00  0.0000E+00  0.1560E+03  0.1560E+03
    -37.630  0.0000E+00  0.0000E+00  0.1560E+03  0.1560E+03
    -37.390  0.0000E+00  0.0000E+00  0.1560E+03  0.1560E+03
    -37.151  0.0000E+00  0.0000E+00  0.1560E+03  0.1560E+03
    -36.911  0.0000E+00  0.0000E+00  0.1560E+03  0.1560E+03
    -36.671  0.0000E+00  0.0000E+00  0.1560E+03  0.1560E+03
    -36.432  0.0000E+00  0.0000E+00  0.1560E+03  0.1560E+03
    -36.192  0.0000E+00  0.0000E+00  0.1560E+03  0.1560E+03
    -35.953  0.0000E+00  0.0000E+00  0.1560E+03  0.1560E+03
    -35.713  0.0000E+00  0.0000E+00  0.1560E+03  0.1560E+03
    -35.473  0.0000E+00  0.0000E+00  0.1560E+03  0.1560E+03
    -35.234  0.0000E+00  0.0000E+00  0.1560E+03  0.1560E+03
    -34.994  0.0000E+00  0.0000E+00  0.1560E+03  0.1560E+03
    -34.754  0.0000E+00  0.0000E+00  0.1560E+03  0.1560E+03
    -34.515  0.0000E+00  0.0000E+00  0.1560E+03  0.1560E+03
    -34.275  0.0000E+00  0.0000E+00  0.1560E+03  0.1560E+03
    -34.036  0.0000E+00  0.0000E+00  0.1560E+03  0.1560E+03
    -33.796  0.0000E+00  0.0000E+00  0.1560E+03  0.1560E+03
    -33.556  0.0000E+00  0.0000E+00  0.1560E+03  0.1560E+03
    -33.317  0.0000E+00  0.0000E+00  0.1560E+03  0.1560E+03
    -33.077  0.0000E+00  0.0000E+00  0.1560E+03  0.1560E+03
    -32.837  0.0000E+00  0.0000E+00  0.1560E+03  0.1560E+03
    -32.598  0.0000E+00  0.0000E+00  0.1560E+03  0.1560E+03
    -32.358  0.0000E+00  0.0000E+00  0.1560E+03  0.1560E+03
    -32.119  0.0000E+00  0.0000E+00  0.1560E+03  0.1560E+03
    -31.879  0.0000E+00  0.0000E+00  0.1560E+03  0.1560E+03
    -31.639  0.0000E+00  0.0000E+00  0.1560E+03  0.1560E+03
    -31.400  0.0000E+00  0.0000E+00  0.1560E+03  0.1560E+03
    -31.160  0.0000E+00  0.0000E+00  0.1560E+03  0.1560E+03
    -30.920  0.0000E+00  0.0000E+00  0.1560E+03  0.1560E+03
    -30.681  0.0000E+00  0.0000E+00  0.1560E+03  0.1560E+03
    -30.441  0.0000E+00  0.0000E+00  0.1560E+03  0.1560E+03
    -30.202  0.0000E+00  0.0000E+00  0.1560E+03  0.1560E+03
    -29.962  0.0000E+00  0.0000E+00  0.1560E+03  0.1560E+03
    -29.722  0.0000E+00  0.0000E+00  0.1560E+03  0.1560E+03
    -29.483  0.0000E+00  0.0000E+00  0.1560E+03  0.1560E+03
    -29.243  0.0000E+00  0.0000E+00  0.1560E+03  0.1560E+03
    -29.003  0.0000E+00  0.0000E+00  0.1560E+03  0.1560E+03
    -28.764  0.0000E+00  0.0000E+00  0.1560E+03  0.1560E+03
    -28.524  0.0000E+00  0.0000E+00  0.1560E+03  0.1560E+03
    -28.285  0.0000E+00  0.0000E+00  0.1560E+03  0.1560E+03
    -28.045  0.0000E+00  0.0000E+00  0.1560E+03  0.1560E+03
    -27.805  0.0000E+00  0.0000E+00  0.1560E+03  0.1560E+03
    -27.566  0.0000E+00  0.0000E+00  0.1560E+03  0.1560E+03
    -27.326  0.0000E+00  0.0000E+00  0.1560E+03  0.1560E+03
    -27.086  0.0000E+00  0.0000E+00  0.1560E+03  0.1560E+03
    -26.847  0.0000E+00  0.0000E+00  0.1560E+03  0.1560E+03
    -26.607  0.0000E+00  0.0000E+00  0.1560E+03  0.1560E+03
    -26.368  0.0000E+00  0.0000E+00  0.1560E+03  0.1560E+03
    -26.128  0.0000E+00  0.0000E+00  0.1560E+03  0.1560E+03
    -25.888  0.0000E+00  0.0000E+00  0.1560E+03  0.1560E+03
    -25.649  0.0000E+00  0.0000E+00  0.1560E+03  0.1560E+03
    -25.409  0.0000E+00  0.0000E+00  0.1560E+03  0.1560E+03
    -25.169  0.0000E+00  0.0000E+00  0.1560E+03  0.1560E+03
    -24.930  0.0000E+00  0.0000E+00  0.1560E+03  0.1560E+03
    -24.690  0.0000E+00  0.0000E+00  0.1560E+03  0.1560E+03
    -24.451  0.0000E+00  0.0000E+00  0.1560E+03  0.1560E+03
    -24.211  0.0000E+00  0.0000E+00  0.1560E+03  0.1560E+03
    -23.971  0.0000E+00  0.0000E+00  0.1560E+03  0.1560E+03
    -23.732  0.0000E+00  0.0000E+00  0.1560E+03  0.1560E+03
    -23.492  0.0000E+00  0.0000E+00  0.1560E+03  0.1560E+03
    -23.252  0.0000E+00  0.0000E+00  0.1560E+03  0.1560E+03
    -23.013  0.0000E+00  0.0000E+00  0.1560E+03  0.1560E+03
    -22.773  0.0000E+00  0.0000E+00  0.1560E+03  0.1560E+03
    -22.534  0.0000E+00  0.0000E+00  0.1560E+03  0.1560E+03
    -22.294  0.0000E+00  0.0000E+00  0.1560E+03  0.1560E+03
    -22.054  0.0000E+00  0.0000E+00  0.1560E+03  0.1560E+03
    -21.815  0.0000E+00  0.0000E+00  0.1560E+03  0.1560E+03
    -21.575  0.0000E+00  0.0000E+00  0.1560E+03  0.1560E+03
    -21.335  0.0000E+00  0.0000E+00  0.1560E+03  0.1560E+03
    -21.096  0.0000E+00  0.0000E+00  0.1560E+03  0.1560E+03
    -20.856  0.0000E+00  0.0000E+00  0.1560E+03  0.1560E+03
    -20.617  0.0000E+00  0.0000E+00  0.1560E+03  0.1560E+03
    -20.377  0.0000E+00  0.0000E+00  0.1560E+03  0.1560E+03
    -20.137  0.0000E+00  0.0000E+00  0.1560E+03  0.1560E+03
    -19.898  0.0000E+00  0.0000E+00  0.1560E+03  0.1560E+03
    -19.658  0.0000E+00  0.0000E+00  0.1560E+03  0.1560E+03
    -19.418  0.0000E+00  0.0000E+00  0.1560E+03  0.1560E+03
    -19.179  0.0000E+00  0.0000E+00  0.1560E+03  0.1560E+03
    -18.939  0.0000E+00  0.0000E+00  0.1560E+03  0.1560E+03
    -18.700  0.0000E+00  0.0000E+00  0.1560E+03  0.1560E+03
    -18.460  0.0000E+00  0.0000E+00  0.1560E+03  0.1560E+03
    -18.220  0.0000E+00  0.0000E+00  0.1560E+03  0.1560E+03
    -17.981  0.0000E+00  0.0000E+00  0.1560E+03  0.1560E+03
    -17.741  0.0000E+00  0.0000E+00  0.1560E+03  0.1560E+03
    -17.501  0.0000E+00  0.0000E+00  0.1560E+03  0.1560E+03
    -17.262  0.0000E+00  0.0000E+00  0.1560E+03  0.1560E+03
    -17.022  0.0000E+00  0.0000E+00  0.1560E+03  0.1560E+03
    -16.783  0.0000E+00  0.0000E+00  0.1560E+03  0.1560E+03
    -16.543  0.0000E+00  0.0000E+00  0.1560E+03  0.1560E+03
    -16.303  0.0000E+00  0.0000E+00  0.1560E+03  0.1560E+03
    -16.064  0.0000E+00  0.0000E+00  0.1560E+03  0.1560E+03
    -15.824  0.0000E+00  0.0000E+00  0.1560E+03  0.1560E+03
    -15.584  0.0000E+00  0.0000E+00  0.1560E+03  0.1560E+03
    -15.345  0.0000E+00  0.0000E+00  0.1560E+03  0.1560E+03
    -15.105  0.0000E+00  0.0000E+00  0.1560E+03  0.1560E+03
    -14.866  0.0000E+00  0.0000E+00  0.1560E+03  0.1560E+03
    -14.626  0.0000E+00  0.0000E+00  0.1560E+03  0.1560E+03
    -14.386  0.0000E+00  0.0000E+00  0.1560E+03  0.1560E+03
    -14.147  0.0000E+00  0.0000E+00  0.1560E+03  0.1560E+03
    -13.907  0.4762E-03  0.0000E+00  0.1560E+03  0.1560E+03
    -13.667  0.2097E+02  0.8391E-14  0.1610E+03  0.1560E+03
    -13.428  0.2877E+02  0.1173E+01  0.1679E+03  0.1563E+03
    -13.188  0.7760E+01  0.4377E+02  0.1698E+03  0.1668E+03
    -12.949  0.3161E+02  0.5587E+01  0.1774E+03  0.1681E+03
    -12.709  0.1104E+02  0.4087E+02  0.1800E+03  0.1779E+03
    -12.469  0.0000E+00  0.8762E+01  0.1800E+03  0.1800E+03
    -12.230  0.0000E+00  0.0000E+00  0.1800E+03  0.1800E+03
    -11.990  0.0000E+00  0.0000E+00  0.1800E+03  0.1800E+03
    -11.750  0.0000E+00  0.0000E+00  0.1800E+03  0.1800E+03
    -11.511  0.0000E+00  0.0000E+00  0.1800E+03  0.1800E+03
    -11.271  0.0000E+00  0.0000E+00  0.1800E+03  0.1800E+03
    -11.032  0.0000E+00  0.0000E+00  0.1800E+03  0.1800E+03
    -10.792  0.0000E+00  0.0000E+00  0.1800E+03  0.1800E+03
    -10.552  0.0000E+00  0.0000E+00  0.1800E+03  0.1800E+03
    -10.313  0.0000E+00  0.0000E+00  0.1800E+03  0.1800E+03
    -10.073  0.0000E+00  0.0000E+00  0.1800E+03  0.1800E+03
     -9.833  0.0000E+00  0.0000E+00  0.1800E+03  0.1800E+03
     -9.594  0.0000E+00  0.0000E+00  0.1800E+03  0.1800E+03
     -9.354  0.0000E+00  0.0000E+00  0.1800E+03  0.1800E+03
     -9.115  0.0000E+00  0.0000E+00  0.1800E+03  0.1800E+03
     -8.875  0.0000E+00  0.0000E+00  0.1800E+03  0.1800E+03
     -8.635  0.0000E+00  0.0000E+00  0.1800E+03  0.1800E+03
     -8.396  0.0000E+00  0.0000E+00  0.1800E+03  0.1800E+03
     -8.156  0.0000E+00  0.0000E+00  0.1800E+03  0.1800E+03
     -7.916  0.1309E-02  0.0000E+00  0.1800E+03  0.1800E+03
     -7.677  0.8946E+01  0.1073E-01  0.1821E+03  0.1800E+03
     -7.437  0.2260E+02  0.1150E+02  0.1876E+03  0.1828E+03
     -7.198  0.5454E+02  0.2764E+02  0.2006E+03  0.1894E+03
     -6.958  0.5948E+02  0.5920E+02  0.2149E+03  0.2036E+03
     -6.718  0.4660E+01  0.4802E+02  0.2160E+03  0.2151E+03
     -6.479  0.0000E+00  0.3862E+01  0.2160E+03  0.2160E+03
     -6.239  0.0000E+00  0.0000E+00  0.2160E+03  0.2160E+03
     -5.999  0.0000E+00  0.0000E+00  0.2160E+03  0.2160E+03
     -5.760  0.0000E+00  0.0000E+00  0.2160E+03  0.2160E+03
     -5.520  0.0000E+00  0.0000E+00  0.2160E+03  0.2160E+03
     -5.281  0.0000E+00  0.0000E+00  0.2160E+03  0.2160E+03
     -5.041  0.0000E+00  0.0000E+00  0.2160E+03  0.2160E+03
     -4.801  0.0000E+00  0.0000E+00  0.2160E+03  0.2160E+03
     -4.562  0.0000E+00  0.0000E+00  0.2160E+03  0.2160E+03
     -4.322  0.0000E+00  0.0000E+00  0.2160E+03  0.2160E+03
     -4.082  0.0000E+00  0.0000E+00  0.2160E+03  0.2160E+03
     -3.843  0.0000E+00  0.0000E+00  0.2160E+03  0.2160E+03
     -3.603  0.0000E+00  0.0000E+00  0.2160E+03  0.2160E+03
     -3.364  0.0000E+00  0.0000E+00  0.2160E+03  0.2160E+03
     -3.124  0.0000E+00  0.0000E+00  0.2160E+03  0.2160E+03
     -2.884  0.3449E-14  0.0000E+00  0.2160E+03  0.2160E+03
     -2.645  0.5860E+00  0.0000E+00  0.2161E+03  0.2160E+03
     -2.405  0.1054E+02  0.0000E+00  0.2187E+03  0.2160E+03
     -2.165  0.1993E+02  0.0000E+00  0.2234E+03  0.2160E+03
     -1.926  0.2372E+01  0.0000E+00  0.2240E+03  0.2160E+03
     -1.686  0.3385E+02  0.0000E+00  0.2321E+03  0.2160E+03
     -1.447  0.1894E+02  0.1030E-15  0.2367E+03  0.2160E+03
     -1.207  0.4453E+02  0.6034E-01  0.2473E+03  0.2160E+03
     -0.967  0.4894E+02  0.4355E+01  0.2591E+03  0.2171E+03
     -0.728  0.7467E+02  0.1380E+02  0.2770E+03  0.2204E+03
     -0.488  0.1025E+03  0.1514E+02  0.3015E+03  0.2240E+03
     -0.248  0.8550E+02  0.1905E+02  0.3220E+03  0.2286E+03
     -0.009  0.1105E+03  0.4137E+02  0.3485E+03  0.2385E+03
      0.231  0.7095E+02  0.3398E+02  0.3655E+03  0.2466E+03
      0.470  0.3880E+02  0.4163E+02  0.3748E+03  0.2566E+03
      0.710  0.4565E+02  0.3419E+02  0.3857E+03  0.2648E+03
      0.950  0.4868E+02  0.5215E+02  0.3974E+03  0.2773E+03
      1.189  0.5514E+02  0.6095E+02  0.4106E+03  0.2919E+03
      1.429  0.6366E+02  0.4441E+02  0.4259E+03  0.3025E+03
      1.669  0.1007E+03  0.4043E+02  0.4500E+03  0.3122E+03
      1.908  0.5395E+02  0.3830E+02  0.4629E+03  0.3214E+03
      2.148  0.3830E+02  0.3754E+02  0.4721E+03  0.3304E+03
      2.387  0.4657E+02  0.3816E+02  0.4833E+03  0.3395E+03
      2.627  0.4774E+02  0.4869E+02  0.4947E+03  0.3512E+03
      2.867  0.4376E+02  0.6320E+02  0.5052E+03  0.3663E+03
      3.106  0.4019E+02  0.5869E+02  0.5148E+03  0.3804E+03
      3.346  0.4684E+02  0.4872E+02  0.5260E+03  0.3921E+03
      3.586  0.5280E+02  0.2945E+02  0.5387E+03  0.3991E+03
      3.825  0.4578E+02  0.6037E+02  0.5497E+03  0.4136E+03
      4.065  0.3184E+02  0.7520E+02  0.5573E+03  0.4316E+03
      4.304  0.4260E+02  0.1549E+01  0.5675E+03  0.4320E+03
      4.544  0.2391E+02  0.0000E+00  0.5732E+03  0.4320E+03
      4.784  0.1052E+02  0.0000E+00  0.5757E+03  0.4320E+03
      5.023  0.1045E+01  0.0000E+00  0.5760E+03  0.4320E+03
      5.263  0.0000E+00  0.0000E+00  0.5760E+03  0.4320E+03
      5.503  0.0000E+00  0.0000E+00  0.5760E+03  0.4320E+03
      5.742  0.0000E+00  0.0000E+00  0.5760E+03  0.4320E+03
      5.982  0.0000E+00  0.2099E-11  0.5760E+03  0.4320E+03
      6.221  0.0000E+00  0.1291E+00  0.5760E+03  0.4320E+03
      6.461  0.0000E+00  0.7911E+01  0.5760E+03  0.4339E+03
      6.701  0.0000E+00  0.2989E+02  0.5760E+03  0.4411E+03
      6.940  0.2615E-12  0.4289E+02  0.5760E+03  0.4514E+03
      7.180  0.9393E-01  0.7251E+02  0.5760E+03  0.4687E+03
      7.420  0.1422E+00  0.8105E+02  0.5761E+03  0.4882E+03
      7.659  0.8455E+00  0.6532E+02  0.5763E+03  0.5038E+03
      7.899  0.3446E+01  0.8789E+02  0.5771E+03  0.5249E+03
      8.138  0.4276E+01  0.7178E+02  0.5781E+03  0.5421E+03
      8.378  0.6923E+01  0.5476E+02  0.5798E+03  0.5552E+03
      8.618  0.1616E+02  0.3705E+02  0.5836E+03  0.5641E+03
      8.857  0.2539E+02  0.3964E+02  0.5897E+03  0.5736E+03
      9.097  0.1927E+02  0.1966E+02  0.5943E+03  0.5783E+03
      9.337  0.2505E+02  0.1364E+02  0.6003E+03  0.5816E+03
      9.576  0.3105E+02  0.2058E+02  0.6078E+03  0.5865E+03
      9.816  0.2677E+02  0.2986E+02  0.6142E+03  0.5936E+03
     10.055  0.2978E+02  0.2654E+02  0.6213E+03  0.6000E+03
     10.295  0.2275E+02  0.3431E+02  0.6268E+03  0.6082E+03
     10.535  0.2046E+02  0.3589E+02  0.6317E+03  0.6168E+03
     10.774  0.2819E+02  0.2780E+02  0.6384E+03  0.6235E+03
     11.014  0.3903E+02  0.2273E+02  0.6478E+03  0.6289E+03
     11.254  0.3930E+02  0.2135E+02  0.6572E+03  0.6340E+03
     11.493  0.3746E+02  0.3221E+02  0.6662E+03  0.6418E+03
     11.733  0.4453E+02  0.3881E+02  0.6769E+03  0.6511E+03
     11.972  0.3873E+02  0.4240E+02  0.6861E+03  0.6612E+03
     12.212  0.3843E+02  0.5179E+02  0.6953E+03  0.6736E+03
     12.452  0.3983E+02  0.4704E+02  0.7049E+03  0.6849E+03
     12.691  0.3672E+02  0.3601E+02  0.7137E+03  0.6935E+03
     12.931  0.3462E+02  0.4121E+02  0.7220E+03  0.7034E+03
     13.171  0.2334E+02  0.4001E+02  0.7276E+03  0.7130E+03
     13.410  0.1744E+01  0.3413E+02  0.7280E+03  0.7212E+03
     13.650  0.0000E+00  0.2467E+02  0.7280E+03  0.7271E+03
     13.889  0.0000E+00  0.3812E+01  0.7280E+03  0.7280E+03
     14.129  0.0000E+00  0.3733E-05  0.7280E+03  0.7280E+03
     14.369  0.0000E+00  0.0000E+00  0.7280E+03  0.7280E+03
     14.608  0.0000E+00  0.0000E+00  0.7280E+03  0.7280E+03
     14.848  0.0000E+00  0.0000E+00  0.7280E+03  0.7280E+03
     15.088  0.0000E+00  0.0000E+00  0.7280E+03  0.7280E+03
     15.327  0.0000E+00  0.0000E+00  0.7280E+03  0.7280E+03
     15.567  0.0000E+00  0.0000E+00  0.7280E+03  0.7280E+03
     15.806  0.0000E+00  0.0000E+00  0.7280E+03  0.7280E+03
     16.046  0.0000E+00  0.0000E+00  0.7280E+03  0.7280E+03
     16.286  0.0000E+00  0.0000E+00  0.7280E+03  0.7280E+03
     16.525  0.0000E+00  0.0000E+00  0.7280E+03  0.7280E+03
     16.765  0.0000E+00  0.0000E+00  0.7280E+03  0.7280E+03
     17.005  0.0000E+00  0.0000E+00  0.7280E+03  0.7280E+03
