 144 144   0   0
  0.1325381E+02  0.1546422E-08  0.1214491E-08  0.1054520E-08  0.5000000E-15
  1.000000000000000E-004
  CAR 
 unknown system                          
     17.00992202    -54.87185728  301      5.08952695      1.00000000
    -54.872  0.0000E+00  0.0000E+00  0.0000E+00  0.0000E+00
    -54.632  0.0000E+00  0.0000E+00  0.0000E+00  0.0000E+00
    -54.393  0.0000E+00  0.0000E+00  0.0000E+00  0.0000E+00
    -54.153  0.0000E+00  0.0000E+00  0.0000E+00  0.0000E+00
    -53.913  0.0000E+00  0.0000E+00  0.0000E+00  0.0000E+00
    -53.674  0.0000E+00  0.0000E+00  0.0000E+00  0.0000E+00
    -53.434  0.0000E+00  0.0000E+00  0.0000E+00  0.0000E+00
    -53.195  0.0000E+00  0.0000E+00  0.0000E+00  0.0000E+00
    -52.955  0.0000E+00  0.0000E+00  0.0000E+00  0.0000E+00
    -52.715  0.0000E+00  0.0000E+00  0.0000E+00  0.0000E+00
    -52.476  0.0000E+00  0.0000E+00  0.0000E+00  0.0000E+00
    -52.236  0.0000E+00  0.0000E+00  0.0000E+00  0.0000E+00
    -51.997  0.0000E+00  0.0000E+00  0.0000E+00  0.0000E+00
    -51.757  0.3235E-03  0.0000E+00  0.7752E-04  0.0000E+00
    -51.517  0.4981E+02  0.0000E+00  0.1194E+02  0.0000E+00
    -51.278  0.8583E+02  0.0000E+00  0.3250E+02  0.0000E+00
    -51.038  0.1460E+02  0.0000E+00  0.3600E+02  0.0000E+00
    -50.799  0.0000E+00  0.0000E+00  0.3600E+02  0.0000E+00
    -50.559  0.0000E+00  0.0000E+00  0.3600E+02  0.0000E+00
    -50.319  0.1164E-03  0.0000E+00  0.3600E+02  0.0000E+00
    -50.080  0.6680E+02  0.0000E+00  0.5201E+02  0.0000E+00
    -49.840  0.2079E+03  0.0000E+00  0.1018E+03  0.0000E+00
    -49.601  0.2575E+02  0.0000E+00  0.1080E+03  0.0000E+00
    -49.361  0.0000E+00  0.0000E+00  0.1080E+03  0.0000E+00
    -49.121  0.0000E+00  0.0000E+00  0.1080E+03  0.0000E+00
    -48.882  0.0000E+00  0.0000E+00  0.1080E+03  0.0000E+00
    -48.642  0.0000E+00  0.0000E+00  0.1080E+03  0.0000E+00
    -48.402  0.0000E+00  0.0000E+00  0.1080E+03  0.0000E+00
    -48.163  0.0000E+00  0.0000E+00  0.1080E+03  0.0000E+00
    -47.923  0.0000E+00  0.0000E+00  0.1080E+03  0.0000E+00
    -47.684  0.0000E+00  0.0000E+00  0.1080E+03  0.0000E+00
    -47.444  0.0000E+00  0.0000E+00  0.1080E+03  0.0000E+00
    -47.204  0.0000E+00  0.0000E+00  0.1080E+03  0.0000E+00
    -46.965  0.0000E+00  0.6201E-01  0.1080E+03  0.1486E-01
    -46.725  0.0000E+00  0.5092E+02  0.1080E+03  0.1222E+02
    -46.486  0.0000E+00  0.9523E+02  0.1080E+03  0.3503E+02
    -46.246  0.0000E+00  0.1459E+03  0.1080E+03  0.7000E+02
    -46.006  0.0000E+00  0.1586E+03  0.1080E+03  0.1080E+03
    -45.767  0.0000E+00  0.5117E-02  0.1080E+03  0.1080E+03
    -45.527  0.0000E+00  0.0000E+00  0.1080E+03  0.1080E+03
    -45.288  0.0000E+00  0.0000E+00  0.1080E+03  0.1080E+03
    -45.048  0.0000E+00  0.0000E+00  0.1080E+03  0.1080E+03
    -44.808  0.0000E+00  0.0000E+00  0.1080E+03  0.1080E+03
    -44.569  0.0000E+00  0.0000E+00  0.1080E+03  0.1080E+03
    -44.329  0.0000E+00  0.0000E+00  0.1080E+03  0.1080E+03
    -44.090  0.0000E+00  0.0000E+00  0.1080E+03  0.1080E+03
    -43.850  0.0000E+00  0.0000E+00  0.1080E+03  0.1080E+03
    -43.610  0.0000E+00  0.0000E+00  0.1080E+03  0.1080E+03
    -43.371  0.0000E+00  0.0000E+00  0.1080E+03  0.1080E+03
    -43.131  0.0000E+00  0.0000E+00  0.1080E+03  0.1080E+03
    -42.892  0.0000E+00  0.0000E+00  0.1080E+03  0.1080E+03
    -42.652  0.0000E+00  0.0000E+00  0.1080E+03  0.1080E+03
    -42.412  0.0000E+00  0.0000E+00  0.1080E+03  0.1080E+03
    -42.173  0.0000E+00  0.0000E+00  0.1080E+03  0.1080E+03
    -41.933  0.0000E+00  0.0000E+00  0.1080E+03  0.1080E+03
    -41.694  0.0000E+00  0.0000E+00  0.1080E+03  0.1080E+03
    -41.454  0.0000E+00  0.0000E+00  0.1080E+03  0.1080E+03
    -41.214  0.0000E+00  0.0000E+00  0.1080E+03  0.1080E+03
    -40.975  0.0000E+00  0.0000E+00  0.1080E+03  0.1080E+03
    -40.735  0.1387E-08  0.4552E-09  0.1080E+03  0.1080E+03
    -40.496  0.2933E+02  0.2608E+02  0.1150E+03  0.1142E+03
    -40.256  0.4654E+02  0.5021E+02  0.1262E+03  0.1263E+03
    -40.016  0.9996E+02  0.9989E+02  0.1501E+03  0.1502E+03
    -39.777  0.2450E+02  0.2415E+02  0.1560E+03  0.1560E+03
    -39.537  0.0000E+00  0.0000E+00  0.1560E+03  0.1560E+03
    -39.297  0.0000E+00  0.0000E+00  0.1560E+03  0.1560E+03
    -39.058  0.0000E+00  0.0000E+00  0.1560E+03  0.1560E+03
    -38.818  0.0000E+00  0.0000E+00  0.1560E+03  0.1560E+03
    -38.579  0.0000E+00  0.0000E+00  0.1560E+03  0.1560E+03
    -38.339  0.0000E+00  0.0000E+00  0.1560E+03  0.1560E+03
    -38.099  0.0000E+00  0.0000E+00  0.1560E+03  0.1560E+03
    -37.860  0.0000E+00  0.0000E+00  0.1560E+03  0.1560E+03
    -37.620  0.0000E+00  0.0000E+00  0.1560E+03  0.1560E+03
    -37.381  0.0000E+00  0.0000E+00  0.1560E+03  0.1560E+03
    -37.141  0.0000E+00  0.0000E+00  0.1560E+03  0.1560E+03
    -36.901  0.0000E+00  0.0000E+00  0.1560E+03  0.1560E+03
    -36.662  0.0000E+00  0.0000E+00  0.1560E+03  0.1560E+03
    -36.422  0.0000E+00  0.0000E+00  0.1560E+03  0.1560E+03
    -36.183  0.0000E+00  0.0000E+00  0.1560E+03  0.1560E+03
    -35.943  0.0000E+00  0.0000E+00  0.1560E+03  0.1560E+03
    -35.703  0.0000E+00  0.0000E+00  0.1560E+03  0.1560E+03
    -35.464  0.0000E+00  0.0000E+00  0.1560E+03  0.1560E+03
    -35.224  0.0000E+00  0.0000E+00  0.1560E+03  0.1560E+03
    -34.985  0.0000E+00  0.0000E+00  0.1560E+03  0.1560E+03
    -34.745  0.0000E+00  0.0000E+00  0.1560E+03  0.1560E+03
    -34.505  0.0000E+00  0.0000E+00  0.1560E+03  0.1560E+03
    -34.266  0.0000E+00  0.0000E+00  0.1560E+03  0.1560E+03
    -34.026  0.0000E+00  0.0000E+00  0.1560E+03  0.1560E+03
    -33.787  0.0000E+00  0.0000E+00  0.1560E+03  0.1560E+03
    -33.547  0.0000E+00  0.0000E+00  0.1560E+03  0.1560E+03
    -33.307  0.0000E+00  0.0000E+00  0.1560E+03  0.1560E+03
    -33.068  0.0000E+00  0.0000E+00  0.1560E+03  0.1560E+03
    -32.828  0.0000E+00  0.0000E+00  0.1560E+03  0.1560E+03
    -32.589  0.0000E+00  0.0000E+00  0.1560E+03  0.1560E+03
    -32.349  0.0000E+00  0.0000E+00  0.1560E+03  0.1560E+03
    -32.109  0.0000E+00  0.0000E+00  0.1560E+03  0.1560E+03
    -31.870  0.0000E+00  0.0000E+00  0.1560E+03  0.1560E+03
    -31.630  0.0000E+00  0.0000E+00  0.1560E+03  0.1560E+03
    -31.390  0.0000E+00  0.0000E+00  0.1560E+03  0.1560E+03
    -31.151  0.0000E+00  0.0000E+00  0.1560E+03  0.1560E+03
    -30.911  0.0000E+00  0.0000E+00  0.1560E+03  0.1560E+03
    -30.672  0.0000E+00  0.0000E+00  0.1560E+03  0.1560E+03
    -30.432  0.0000E+00  0.0000E+00  0.1560E+03  0.1560E+03
    -30.192  0.0000E+00  0.0000E+00  0.1560E+03  0.1560E+03
    -29.953  0.0000E+00  0.0000E+00  0.1560E+03  0.1560E+03
    -29.713  0.0000E+00  0.0000E+00  0.1560E+03  0.1560E+03
    -29.474  0.0000E+00  0.0000E+00  0.1560E+03  0.1560E+03
    -29.234  0.0000E+00  0.0000E+00  0.1560E+03  0.1560E+03
    -28.994  0.0000E+00  0.0000E+00  0.1560E+03  0.1560E+03
    -28.755  0.0000E+00  0.0000E+00  0.1560E+03  0.1560E+03
    -28.515  0.0000E+00  0.0000E+00  0.1560E+03  0.1560E+03
    -28.276  0.0000E+00  0.0000E+00  0.1560E+03  0.1560E+03
    -28.036  0.0000E+00  0.0000E+00  0.1560E+03  0.1560E+03
    -27.796  0.0000E+00  0.0000E+00  0.1560E+03  0.1560E+03
    -27.557  0.0000E+00  0.0000E+00  0.1560E+03  0.1560E+03
    -27.317  0.0000E+00  0.0000E+00  0.1560E+03  0.1560E+03
    -27.078  0.0000E+00  0.0000E+00  0.1560E+03  0.1560E+03
    -26.838  0.0000E+00  0.0000E+00  0.1560E+03  0.1560E+03
    -26.598  0.0000E+00  0.0000E+00  0.1560E+03  0.1560E+03
    -26.359  0.0000E+00  0.0000E+00  0.1560E+03  0.1560E+03
    -26.119  0.0000E+00  0.0000E+00  0.1560E+03  0.1560E+03
    -25.880  0.0000E+00  0.0000E+00  0.1560E+03  0.1560E+03
    -25.640  0.0000E+00  0.0000E+00  0.1560E+03  0.1560E+03
    -25.400  0.0000E+00  0.0000E+00  0.1560E+03  0.1560E+03
    -25.161  0.0000E+00  0.0000E+00  0.1560E+03  0.1560E+03
    -24.921  0.0000E+00  0.0000E+00  0.1560E+03  0.1560E+03
    -24.682  0.0000E+00  0.0000E+00  0.1560E+03  0.1560E+03
    -24.442  0.0000E+00  0.0000E+00  0.1560E+03  0.1560E+03
    -24.202  0.0000E+00  0.0000E+00  0.1560E+03  0.1560E+03
    -23.963  0.0000E+00  0.0000E+00  0.1560E+03  0.1560E+03
    -23.723  0.0000E+00  0.0000E+00  0.1560E+03  0.1560E+03
    -23.483  0.0000E+00  0.0000E+00  0.1560E+03  0.1560E+03
    -23.244  0.0000E+00  0.0000E+00  0.1560E+03  0.1560E+03
    -23.004  0.0000E+00  0.0000E+00  0.1560E+03  0.1560E+03
    -22.765  0.0000E+00  0.0000E+00  0.1560E+03  0.1560E+03
    -22.525  0.0000E+00  0.0000E+00  0.1560E+03  0.1560E+03
    -22.285  0.0000E+00  0.0000E+00  0.1560E+03  0.1560E+03
    -22.046  0.0000E+00  0.0000E+00  0.1560E+03  0.1560E+03
    -21.806  0.0000E+00  0.0000E+00  0.1560E+03  0.1560E+03
    -21.567  0.0000E+00  0.0000E+00  0.1560E+03  0.1560E+03
    -21.327  0.0000E+00  0.0000E+00  0.1560E+03  0.1560E+03
    -21.087  0.0000E+00  0.0000E+00  0.1560E+03  0.1560E+03
    -20.848  0.0000E+00  0.0000E+00  0.1560E+03  0.1560E+03
    -20.608  0.0000E+00  0.0000E+00  0.1560E+03  0.1560E+03
    -20.369  0.0000E+00  0.0000E+00  0.1560E+03  0.1560E+03
    -20.129  0.0000E+00  0.0000E+00  0.1560E+03  0.1560E+03
    -19.889  0.0000E+00  0.0000E+00  0.1560E+03  0.1560E+03
    -19.650  0.0000E+00  0.0000E+00  0.1560E+03  0.1560E+03
    -19.410  0.0000E+00  0.0000E+00  0.1560E+03  0.1560E+03
    -19.171  0.0000E+00  0.0000E+00  0.1560E+03  0.1560E+03
    -18.931  0.0000E+00  0.0000E+00  0.1560E+03  0.1560E+03
    -18.691  0.0000E+00  0.0000E+00  0.1560E+03  0.1560E+03
    -18.452  0.0000E+00  0.0000E+00  0.1560E+03  0.1560E+03
    -18.212  0.0000E+00  0.0000E+00  0.1560E+03  0.1560E+03
    -17.973  0.0000E+00  0.0000E+00  0.1560E+03  0.1560E+03
    -17.733  0.0000E+00  0.0000E+00  0.1560E+03  0.1560E+03
    -17.493  0.0000E+00  0.0000E+00  0.1560E+03  0.1560E+03
    -17.254  0.0000E+00  0.0000E+00  0.1560E+03  0.1560E+03
    -17.014  0.0000E+00  0.0000E+00  0.1560E+03  0.1560E+03
    -16.775  0.0000E+00  0.0000E+00  0.1560E+03  0.1560E+03
    -16.535  0.0000E+00  0.0000E+00  0.1560E+03  0.1560E+03
    -16.295  0.0000E+00  0.0000E+00  0.1560E+03  0.1560E+03
    -16.056  0.0000E+00  0.0000E+00  0.1560E+03  0.1560E+03
    -15.816  0.0000E+00  0.0000E+00  0.1560E+03  0.1560E+03
    -15.576  0.0000E+00  0.0000E+00  0.1560E+03  0.1560E+03
    -15.337  0.0000E+00  0.0000E+00  0.1560E+03  0.1560E+03
    -15.097  0.0000E+00  0.0000E+00  0.1560E+03  0.1560E+03
    -14.858  0.0000E+00  0.0000E+00  0.1560E+03  0.1560E+03
    -14.618  0.0000E+00  0.0000E+00  0.1560E+03  0.1560E+03
    -14.378  0.0000E+00  0.0000E+00  0.1560E+03  0.1560E+03
    -14.139  0.0000E+00  0.0000E+00  0.1560E+03  0.1560E+03
    -13.899  0.1413E-02  0.0000E+00  0.1560E+03  0.1560E+03
    -13.660  0.2232E+02  0.7837E-13  0.1613E+03  0.1560E+03
    -13.420  0.2759E+02  0.1894E+01  0.1680E+03  0.1565E+03
    -13.180  0.8832E+01  0.4450E+02  0.1701E+03  0.1671E+03
    -12.941  0.3147E+02  0.4378E+01  0.1776E+03  0.1682E+03
    -12.701  0.9948E+01  0.4199E+02  0.1800E+03  0.1782E+03
    -12.462  0.0000E+00  0.7403E+01  0.1800E+03  0.1800E+03
    -12.222  0.0000E+00  0.0000E+00  0.1800E+03  0.1800E+03
    -11.982  0.0000E+00  0.0000E+00  0.1800E+03  0.1800E+03
    -11.743  0.0000E+00  0.0000E+00  0.1800E+03  0.1800E+03
    -11.503  0.0000E+00  0.0000E+00  0.1800E+03  0.1800E+03
    -11.264  0.0000E+00  0.0000E+00  0.1800E+03  0.1800E+03
    -11.024  0.0000E+00  0.0000E+00  0.1800E+03  0.1800E+03
    -10.784  0.0000E+00  0.0000E+00  0.1800E+03  0.1800E+03
    -10.545  0.0000E+00  0.0000E+00  0.1800E+03  0.1800E+03
    -10.305  0.0000E+00  0.0000E+00  0.1800E+03  0.1800E+03
    -10.066  0.0000E+00  0.0000E+00  0.1800E+03  0.1800E+03
     -9.826  0.0000E+00  0.0000E+00  0.1800E+03  0.1800E+03
     -9.586  0.0000E+00  0.0000E+00  0.1800E+03  0.1800E+03
     -9.347  0.0000E+00  0.0000E+00  0.1800E+03  0.1800E+03
     -9.107  0.0000E+00  0.0000E+00  0.1800E+03  0.1800E+03
     -8.868  0.0000E+00  0.0000E+00  0.1800E+03  0.1800E+03
     -8.628  0.0000E+00  0.0000E+00  0.1800E+03  0.1800E+03
     -8.388  0.0000E+00  0.0000E+00  0.1800E+03  0.1800E+03
     -8.149  0.0000E+00  0.0000E+00  0.1800E+03  0.1800E+03
     -7.909  0.2354E-02  0.0000E+00  0.1800E+03  0.1800E+03
     -7.669  0.9441E+01  0.1751E-01  0.1823E+03  0.1800E+03
     -7.430  0.2313E+02  0.1202E+02  0.1878E+03  0.1829E+03
     -7.190  0.5584E+02  0.2863E+02  0.2012E+03  0.1897E+03
     -6.951  0.5789E+02  0.5996E+02  0.2151E+03  0.2041E+03
     -6.711  0.3943E+01  0.4634E+02  0.2160E+03  0.2152E+03
     -6.471  0.0000E+00  0.3291E+01  0.2160E+03  0.2160E+03
     -6.232  0.0000E+00  0.0000E+00  0.2160E+03  0.2160E+03
     -5.992  0.0000E+00  0.0000E+00  0.2160E+03  0.2160E+03
     -5.753  0.0000E+00  0.0000E+00  0.2160E+03  0.2160E+03
     -5.513  0.0000E+00  0.0000E+00  0.2160E+03  0.2160E+03
     -5.273  0.0000E+00  0.0000E+00  0.2160E+03  0.2160E+03
     -5.034  0.0000E+00  0.0000E+00  0.2160E+03  0.2160E+03
     -4.794  0.0000E+00  0.0000E+00  0.2160E+03  0.2160E+03
     -4.555  0.0000E+00  0.0000E+00  0.2160E+03  0.2160E+03
     -4.315  0.0000E+00  0.0000E+00  0.2160E+03  0.2160E+03
     -4.075  0.0000E+00  0.0000E+00  0.2160E+03  0.2160E+03
     -3.836  0.0000E+00  0.0000E+00  0.2160E+03  0.2160E+03
     -3.596  0.0000E+00  0.0000E+00  0.2160E+03  0.2160E+03
     -3.357  0.0000E+00  0.0000E+00  0.2160E+03  0.2160E+03
     -3.117  0.0000E+00  0.0000E+00  0.2160E+03  0.2160E+03
     -2.877  0.2170E-13  0.0000E+00  0.2160E+03  0.2160E+03
     -2.638  0.8948E+00  0.0000E+00  0.2162E+03  0.2160E+03
     -2.398  0.1024E+02  0.0000E+00  0.2187E+03  0.2160E+03
     -2.159  0.2047E+02  0.0000E+00  0.2236E+03  0.2160E+03
     -1.919  0.1864E+01  0.0000E+00  0.2240E+03  0.2160E+03
     -1.679  0.3470E+02  0.0000E+00  0.2323E+03  0.2160E+03
     -1.440  0.1961E+02  0.5663E-15  0.2370E+03  0.2160E+03
     -1.200  0.4404E+02  0.9259E-01  0.2476E+03  0.2160E+03
     -0.961  0.4971E+02  0.4423E+01  0.2595E+03  0.2171E+03
     -0.721  0.7511E+02  0.1410E+02  0.2775E+03  0.2205E+03
     -0.481  0.1033E+03  0.1532E+02  0.3023E+03  0.2241E+03
     -0.242  0.8545E+02  0.1967E+02  0.3227E+03  0.2288E+03
     -0.002  0.1105E+03  0.4127E+02  0.3492E+03  0.2387E+03
      0.238  0.6962E+02  0.3392E+02  0.3659E+03  0.2469E+03
      0.477  0.3819E+02  0.4222E+02  0.3750E+03  0.2570E+03
      0.717  0.4570E+02  0.3358E+02  0.3860E+03  0.2650E+03
      0.956  0.4869E+02  0.5299E+02  0.3977E+03  0.2777E+03
      1.196  0.5559E+02  0.6044E+02  0.4110E+03  0.2922E+03
      1.436  0.6435E+02  0.4443E+02  0.4264E+03  0.3028E+03
      1.675  0.1009E+03  0.4002E+02  0.4506E+03  0.3124E+03
      1.915  0.5229E+02  0.3848E+02  0.4631E+03  0.3217E+03
      2.154  0.3885E+02  0.3737E+02  0.4724E+03  0.3306E+03
      2.394  0.4651E+02  0.3830E+02  0.4835E+03  0.3398E+03
      2.634  0.4781E+02  0.4950E+02  0.4950E+03  0.3516E+03
      2.873  0.4352E+02  0.6283E+02  0.5054E+03  0.3667E+03
      3.113  0.4011E+02  0.5875E+02  0.5150E+03  0.3808E+03
      3.352  0.4755E+02  0.4792E+02  0.5264E+03  0.3923E+03
      3.592  0.5249E+02  0.3006E+02  0.5390E+03  0.3995E+03
      3.832  0.4535E+02  0.6139E+02  0.5499E+03  0.4142E+03
      4.071  0.3200E+02  0.7305E+02  0.5575E+03  0.4317E+03
      4.311  0.4239E+02  0.1350E+01  0.5677E+03  0.4320E+03
      4.550  0.2357E+02  0.0000E+00  0.5733E+03  0.4320E+03
      4.790  0.1018E+02  0.0000E+00  0.5758E+03  0.4320E+03
      5.030  0.8851E+00  0.0000E+00  0.5760E+03  0.4320E+03
      5.269  0.0000E+00  0.0000E+00  0.5760E+03  0.4320E+03
      5.509  0.0000E+00  0.0000E+00  0.5760E+03  0.4320E+03
      5.748  0.0000E+00  0.0000E+00  0.5760E+03  0.4320E+03
      5.988  0.0000E+00  0.6397E-11  0.5760E+03  0.4320E+03
      6.228  0.0000E+00  0.1486E+00  0.5760E+03  0.4320E+03
      6.467  0.0000E+00  0.8200E+01  0.5760E+03  0.4340E+03
      6.707  0.0000E+00  0.3032E+02  0.5760E+03  0.4413E+03
      6.946  0.8585E-12  0.4350E+02  0.5760E+03  0.4517E+03
      7.186  0.1092E+00  0.7331E+02  0.5760E+03  0.4693E+03
      7.426  0.1294E+00  0.8076E+02  0.5761E+03  0.4886E+03
      7.665  0.9026E+00  0.6543E+02  0.5763E+03  0.5043E+03
      7.905  0.3508E+01  0.8788E+02  0.5771E+03  0.5253E+03
      8.145  0.4266E+01  0.7122E+02  0.5781E+03  0.5424E+03
      8.384  0.7052E+01  0.5435E+02  0.5798E+03  0.5554E+03
      8.624  0.1641E+02  0.3723E+02  0.5838E+03  0.5643E+03
      8.863  0.2526E+02  0.3908E+02  0.5898E+03  0.5737E+03
      9.103  0.1923E+02  0.1932E+02  0.5944E+03  0.5783E+03
      9.343  0.2542E+02  0.1394E+02  0.6005E+03  0.5817E+03
      9.582  0.3128E+02  0.2059E+02  0.6080E+03  0.5866E+03
      9.822  0.2657E+02  0.3002E+02  0.6144E+03  0.5938E+03
     10.061  0.2963E+02  0.2656E+02  0.6215E+03  0.6002E+03
     10.301  0.2276E+02  0.3480E+02  0.6269E+03  0.6085E+03
     10.541  0.2041E+02  0.3537E+02  0.6318E+03  0.6170E+03
     10.780  0.2861E+02  0.2797E+02  0.6387E+03  0.6237E+03
     11.020  0.3893E+02  0.2240E+02  0.6480E+03  0.6290E+03
     11.259  0.3941E+02  0.2164E+02  0.6574E+03  0.6342E+03
     11.499  0.3725E+02  0.3231E+02  0.6664E+03  0.6420E+03
     11.739  0.4487E+02  0.3873E+02  0.6771E+03  0.6513E+03
     11.978  0.3849E+02  0.4263E+02  0.6863E+03  0.6615E+03
     12.218  0.3856E+02  0.5199E+02  0.6956E+03  0.6739E+03
     12.457  0.3991E+02  0.4676E+02  0.7051E+03  0.6851E+03
     12.697  0.3649E+02  0.3596E+02  0.7139E+03  0.6937E+03
     12.937  0.3440E+02  0.4129E+02  0.7221E+03  0.7036E+03
     13.176  0.2271E+02  0.3970E+02  0.7276E+03  0.7131E+03
     13.416  0.1796E+01  0.3425E+02  0.7280E+03  0.7214E+03
     13.655  0.0000E+00  0.2394E+02  0.7280E+03  0.7271E+03
     13.895  0.0000E+00  0.3795E+01  0.7280E+03  0.7280E+03
     14.135  0.0000E+00  0.3740E-05  0.7280E+03  0.7280E+03
     14.374  0.0000E+00  0.0000E+00  0.7280E+03  0.7280E+03
     14.614  0.0000E+00  0.0000E+00  0.7280E+03  0.7280E+03
     14.853  0.0000E+00  0.0000E+00  0.7280E+03  0.7280E+03
     15.093  0.0000E+00  0.0000E+00  0.7280E+03  0.7280E+03
     15.333  0.0000E+00  0.0000E+00  0.7280E+03  0.7280E+03
     15.572  0.0000E+00  0.0000E+00  0.7280E+03  0.7280E+03
     15.812  0.0000E+00  0.0000E+00  0.7280E+03  0.7280E+03
     16.051  0.0000E+00  0.0000E+00  0.7280E+03  0.7280E+03
     16.291  0.0000E+00  0.0000E+00  0.7280E+03  0.7280E+03
     16.531  0.0000E+00  0.0000E+00  0.7280E+03  0.7280E+03
     16.770  0.0000E+00  0.0000E+00  0.7280E+03  0.7280E+03
     17.010  0.0000E+00  0.0000E+00  0.7280E+03  0.7280E+03
