<?xml version="1.0" encoding="ISO-8859-1"?>
<modeling>
 <generator>
  <i name="program" type="string">vasp </i>
  <i name="version" type="string">5.4.4.18Apr17-6-g9f103f2a35  </i>
  <i name="subversion" type="string">(build Oct 25 2017 14:42:18) complex            parallel </i>
  <i name="platform" type="string">LinuxIFC </i>
  <i name="date" type="string">2021 06 15 </i>
  <i name="time" type="string">04:45:07 </i>
 </generator>
 <incar>
  <i type="string" name="PREC">accurate</i>
  <i type="string" name="ALGO"> normal</i>
  <i type="logical" name="ADDGRID"> T  </i>
  <i type="int" name="ISPIN">     2</i>
  <i type="int" name="ICHARG">     1</i>
  <i type="int" name="NELM">   200</i>
  <i type="int" name="NELMIN">     8</i>
  <i name="EDIFF">      0.00000100</i>
  <i type="int" name="ISYM">     2</i>
  <i name="ENCUT">    650.00000000</i>
  <v name="MAGMOM">      0.60000000      0.60000000      0.60000000      0.60000000      0.60000000      0.60000000      0.60000000      0.60000000      0.60000000      0.60000000      0.60000000      0.60000000      0.60000000      0.60000000      0.60000000      0.60000000      0.60000000      0.60000000      0.60000000      0.60000000
      0.60000000      0.60000000      0.60000000      0.60000000      0.60000000      0.60000000      0.60000000      0.60000000      0.60000000      0.60000000      0.60000000      0.60000000      0.60000000      0.60000000      0.60000000      0.60000000      0.60000000      0.60000000      0.60000000      0.60000000
      0.60000000      0.60000000      0.60000000      0.60000000      0.60000000      0.60000000      0.60000000      0.60000000      0.60000000      0.60000000      0.60000000      0.60000000      0.60000000      0.60000000      0.60000000      0.60000000      0.60000000      0.60000000      0.60000000      0.60000000
      0.60000000      0.60000000      0.60000000      0.60000000      5.00000000      5.00000000      5.00000000      5.00000000      5.00000000      5.00000000      5.00000000      5.00000000      5.00000000      5.00000000      5.00000000      5.00000000      5.00000000      5.00000000      5.00000000      5.00000000
      5.00000000      5.00000000      5.00000000      5.00000000      5.00000000      5.00000000      5.00000000      5.00000000      5.00000000      5.00000000      5.00000000      5.00000000      5.00000000      5.00000000      5.00000000      5.00000000      0.60000000      0.60000000      0.60000000      0.60000000
      0.60000000      0.60000000      0.60000000      0.60000000      0.60000000      0.60000000      0.60000000      0.60000000      0.60000000      0.60000000      0.60000000      0.60000000      0.60000000      0.60000000      0.60000000      0.60000000      0.60000000      0.60000000      0.60000000      0.60000000
      0.60000000      0.60000000      0.60000000      0.60000000      0.60000000      0.60000000      0.60000000      0.60000000      0.60000000      0.60000000      0.60000000      0.60000000      0.60000000      0.60000000      0.60000000      0.60000000      0.60000000      0.60000000      0.60000000      0.60000000
      0.60000000      0.60000000      0.60000000      0.60000000      0.60000000      0.60000000      0.60000000      0.60000000      0.60000000      0.60000000      0.60000000      0.60000000      0.60000000      0.60000000      0.60000000      0.60000000      0.60000000      0.60000000      0.60000000      0.60000000
</v>
  <i type="logical" name="LREAL"> F  </i>
  <i type="int" name="ISMEAR">     0</i>
  <i name="SIGMA">      0.05000000</i>
  <i type="int" name="NWRITE">     1</i>
  <i type="int" name="LMAXMIX">     4</i>
  <i type="logical" name="LWAVE"> F  </i>
  <i type="logical" name="LASPH"> T  </i>
  <v type="int" name="KPOINT_BSE">    -1     0     0     0</v>
  <i type="int" name="NELM">   200</i>
  <i type="string" name="GGA"> pe</i>
  <i type="logical" name="LDAU"> T  </i>
  <v type="int" name="LDAUTYPE">     2</v>
  <v type="int" name="LDAUL">    -1     2    -1    -1</v>
  <v name="LDAUU">      0.00000000      4.00000000      0.00000000      0.00000000</v>
  <v name="LDAUJ">      0.00000000      0.00000000      0.00000000      0.00000000</v>
  <i type="logical" name="LASPH"> T  </i>
 </incar>
 <structure name="primitive_cell" >
  <crystal>
   <varray name="basis" >
    <v>      15.42482202       0.00000000       0.00000000 </v>
    <v>       0.00000000      11.21024242       0.00000000 </v>
    <v>       0.00000000       0.00000000      11.27702698 </v>
   </varray>
   <i name="volume">   1949.97833107 </i>
   <varray name="rec_basis" >
    <v>       0.06483057       0.00000000       0.00000000 </v>
    <v>       0.00000000       0.08920414       0.00000000 </v>
    <v>       0.00000000       0.00000000       0.08867585 </v>
   </varray>
  </crystal>
  <varray name="positions" >
   <v>       0.12500000       0.25000000       0.46751009 </v>
   <v>       0.00000000       0.25000000      -0.50000000 </v>
   <v>       0.25000000       0.25000000      -0.50000000 </v>
   <v>       0.12500000       0.25000000       0.24893947 </v>
   <v>      -0.01393352       0.37500000       0.37500000 </v>
   <v>       0.26393352       0.12500000       0.37500000 </v>
   <v>       0.23075932       0.12500000      -0.37500000 </v>
   <v>       0.01924068       0.37500000      -0.37500000 </v>
   <v>       0.26924068       0.37500000       0.37588676 </v>
   <v>       0.12500000       0.00000000      -0.49893947 </v>
   <v>       0.12500000      -0.50000000      -0.49893947 </v>
   <v>      -0.01924068       0.12500000       0.37500000 </v>
   <v>       0.01393352       0.12500000      -0.37500000 </v>
   <v>       0.23606648       0.37500000      -0.37500000 </v>
   <v>       0.12500000       0.25000000      -0.25106053 </v>
   <v>       0.12500000       0.00000000       0.28248991 </v>
   <v>       0.12500000      -0.50000000       0.28248991 </v>
   <v>       0.37500000       0.25000000      -0.46751009 </v>
   <v>      -0.12500000       0.25000000      -0.46751009 </v>
   <v>       0.00000000       0.00000000       0.25000000 </v>
   <v>       0.00000000      -0.50000000       0.25000000 </v>
   <v>       0.25000000       0.00000000       0.25000000 </v>
   <v>       0.25000000      -0.50000000       0.25000000 </v>
   <v>       0.23075932       0.12500000       0.12500000 </v>
   <v>       0.01924068       0.37500000       0.12500000 </v>
   <v>       0.01393352       0.12500000       0.12500000 </v>
   <v>       0.23606648       0.37500000       0.12500000 </v>
   <v>       0.12500000       0.00000000      -0.21751009 </v>
   <v>       0.12500000      -0.50000000      -0.21751009 </v>
   <v>       0.37500000       0.25000000       0.25106053 </v>
   <v>      -0.12500000       0.25000000       0.25106053 </v>
   <v>       0.00000000       0.00000000      -0.25000000 </v>
   <v>       0.00000000      -0.50000000      -0.25000000 </v>
   <v>       0.25000000       0.00000000      -0.25000000 </v>
   <v>       0.25000000      -0.50000000      -0.25000000 </v>
   <v>       0.37500000       0.00000000       0.49893947 </v>
   <v>      -0.12500000       0.00000000       0.49893947 </v>
   <v>       0.37500000      -0.50000000       0.49893947 </v>
   <v>      -0.12500000      -0.50000000       0.49893947 </v>
   <v>      -0.01393352      -0.12500000       0.37500000 </v>
   <v>       0.26393352      -0.37500000       0.37500000 </v>
   <v>       0.23075932      -0.37500000      -0.37500000 </v>
   <v>       0.01924068      -0.12500000      -0.37500000 </v>
   <v>       0.26924068      -0.12500000       0.37500000 </v>
   <v>      -0.01924068      -0.37500000       0.37500000 </v>
   <v>       0.01393352      -0.37500000      -0.37500000 </v>
   <v>       0.23606648      -0.12500000      -0.37500000 </v>
   <v>       0.37500000       0.25000000      -0.24893947 </v>
   <v>      -0.12500000       0.25000000      -0.24893947 </v>
   <v>      -0.01393352       0.37500000      -0.12500000 </v>
   <v>       0.26393352       0.12500000      -0.12500000 </v>
   <v>       0.26924068       0.37500000      -0.12500000 </v>
   <v>      -0.01924068       0.12500000      -0.12500000 </v>
   <v>       0.37500000       0.00000000       0.21751009 </v>
   <v>      -0.12500000       0.00000000       0.21751009 </v>
   <v>       0.37500000      -0.50000000       0.21751009 </v>
   <v>      -0.12500000      -0.50000000       0.21751009 </v>
   <v>       0.37500000       0.00000000      -0.28248991 </v>
   <v>      -0.12500000       0.00000000      -0.28248991 </v>
   <v>       0.37500000      -0.50000000      -0.28248991 </v>
   <v>      -0.12500000      -0.50000000      -0.28248991 </v>
   <v>       0.12500000      -0.25000000       0.46751009 </v>
   <v>       0.00000000       0.25000000       0.00000000 </v>
   <v>       0.25000000       0.25000000       0.00000000 </v>
   <v>       0.12500000       0.25000000      -0.03248991 </v>
   <v>      -0.23075932       0.37500000       0.37500000 </v>
   <v>       0.48075932       0.12500000       0.37500000 </v>
   <v>      -0.50000000       0.25000000      -0.50000000 </v>
   <v>      -0.25000000       0.25000000      -0.50000000 </v>
   <v>       0.48606648       0.37500000       0.37500000 </v>
   <v>      -0.23606648       0.12500000       0.37500000 </v>
   <v>       0.23075932      -0.37500000       0.12500000 </v>
   <v>       0.01924068      -0.12500000       0.12500000 </v>
   <v>       0.00000000      -0.25000000      -0.50000000 </v>
   <v>       0.25000000      -0.25000000      -0.50000000 </v>
   <v>       0.12500000       0.00000000       0.00106053 </v>
   <v>       0.12500000      -0.50000000       0.00106053 </v>
   <v>       0.01393352      -0.37500000       0.12500000 </v>
   <v>       0.23606648      -0.12500000       0.12500000 </v>
   <v>       0.12500000      -0.25000000       0.24893947 </v>
   <v>       0.37500000       0.25000000       0.03248991 </v>
   <v>      -0.12500000       0.25000000       0.03248991 </v>
   <v>      -0.48606648       0.12500000      -0.37500000 </v>
   <v>      -0.26393352       0.37500000      -0.37500000 </v>
   <v>       0.12500000      -0.25000000      -0.25106053 </v>
   <v>      -0.26924068       0.12500000      -0.37500000 </v>
   <v>      -0.48075932       0.37500000      -0.37500000 </v>
   <v>      -0.01393352      -0.12500000      -0.12500000 </v>
   <v>       0.26393352      -0.37500000      -0.12500000 </v>
   <v>       0.26924068      -0.12500000      -0.12500000 </v>
   <v>      -0.01924068      -0.37500000      -0.12500000 </v>
   <v>       0.37500000      -0.25000000      -0.46751009 </v>
   <v>      -0.12500000      -0.25000000      -0.46751009 </v>
   <v>      -0.50000000       0.00000000       0.25000000 </v>
   <v>      -0.50000000      -0.50000000       0.25000000 </v>
   <v>      -0.25000000       0.00000000       0.25000000 </v>
   <v>      -0.25000000      -0.50000000       0.25000000 </v>
   <v>      -0.23075932      -0.12500000       0.37500000 </v>
   <v>       0.48075932      -0.37500000       0.37500000 </v>
   <v>       0.48606648      -0.12500000       0.37500000 </v>
   <v>      -0.23606648      -0.37500000       0.37500000 </v>
   <v>       0.37500000       0.00000000      -0.00106053 </v>
   <v>      -0.12500000       0.00000000      -0.00106053 </v>
   <v>       0.37500000      -0.50000000      -0.00106053 </v>
   <v>      -0.12500000      -0.50000000      -0.00106053 </v>
   <v>      -0.50000000       0.00000000      -0.25000000 </v>
   <v>      -0.50000000      -0.50000000      -0.25000000 </v>
   <v>      -0.25000000       0.00000000      -0.25000000 </v>
   <v>      -0.25000000      -0.50000000      -0.25000000 </v>
   <v>       0.37500000      -0.25000000       0.25106053 </v>
   <v>      -0.12500000      -0.25000000       0.25106053 </v>
   <v>      -0.48606648       0.12500000       0.12500000 </v>
   <v>      -0.26393352       0.37500000       0.12500000 </v>
   <v>      -0.23075932       0.37500000      -0.12500000 </v>
   <v>       0.48075932       0.12500000      -0.12500000 </v>
   <v>      -0.26924068       0.12500000       0.12500000 </v>
   <v>      -0.48075932       0.37500000       0.12500000 </v>
   <v>       0.48606648       0.37500000      -0.12500000 </v>
   <v>      -0.23606648       0.12500000      -0.12500000 </v>
   <v>       0.37500000      -0.25000000      -0.24893947 </v>
   <v>      -0.12500000      -0.25000000      -0.24893947 </v>
   <v>      -0.48606648      -0.37500000      -0.37500000 </v>
   <v>      -0.26393352      -0.12500000      -0.37500000 </v>
   <v>      -0.26924068      -0.37500000      -0.37500000 </v>
   <v>      -0.48075932      -0.12500000      -0.37500000 </v>
   <v>      -0.37500000       0.25000000       0.46751009 </v>
   <v>      -0.50000000       0.25000000       0.00000000 </v>
   <v>      -0.25000000       0.25000000       0.00000000 </v>
   <v>       0.00000000      -0.25000000       0.00000000 </v>
   <v>       0.25000000      -0.25000000       0.00000000 </v>
   <v>       0.12500000      -0.25000000      -0.03248991 </v>
   <v>      -0.50000000      -0.25000000      -0.50000000 </v>
   <v>      -0.25000000      -0.25000000      -0.50000000 </v>
   <v>      -0.37500000       0.25000000       0.24893947 </v>
   <v>      -0.37500000       0.00000000      -0.49893947 </v>
   <v>      -0.37500000      -0.50000000      -0.49893947 </v>
   <v>      -0.48606648      -0.37500000       0.12500000 </v>
   <v>      -0.26393352      -0.12500000       0.12500000 </v>
   <v>      -0.23075932      -0.12500000      -0.12500000 </v>
   <v>       0.48075932      -0.37500000      -0.12500000 </v>
   <v>      -0.37500000       0.25000000      -0.25106053 </v>
   <v>      -0.26924068      -0.37500000       0.12500000 </v>
   <v>      -0.48075932      -0.12500000       0.12500000 </v>
   <v>       0.48606648      -0.12500000      -0.12500000 </v>
   <v>      -0.23606648      -0.37500000      -0.12500000 </v>
   <v>       0.37500000      -0.25000000       0.03248991 </v>
   <v>      -0.12500000      -0.25000000       0.03248991 </v>
   <v>      -0.37500000       0.00000000       0.28248991 </v>
   <v>      -0.37500000      -0.50000000       0.28248991 </v>
   <v>      -0.37500000       0.00000000      -0.21751009 </v>
   <v>      -0.37500000      -0.50000000      -0.21751009 </v>
   <v>      -0.37500000      -0.25000000       0.46751009 </v>
   <v>      -0.37500000       0.25000000      -0.03248991 </v>
   <v>      -0.50000000      -0.25000000       0.00000000 </v>
   <v>      -0.25000000      -0.25000000       0.00000000 </v>
   <v>      -0.37500000       0.00000000       0.00106053 </v>
   <v>      -0.37500000      -0.50000000       0.00106053 </v>
   <v>      -0.37500000      -0.25000000       0.24893947 </v>
   <v>      -0.37500000      -0.25000000      -0.25106053 </v>
   <v>      -0.37500000      -0.25000000      -0.03248991 </v>
  </varray>
 </structure>
 <varray name="primitive_index" >
  <v type="int" >        1 </v>
  <v type="int" >      133 </v>
  <v type="int" >      149 </v>
  <v type="int" >      105 </v>
  <v type="int" >       66 </v>
  <v type="int" >       89 </v>
  <v type="int" >       45 </v>
  <v type="int" >       53 </v>
  <v type="int" >       33 </v>
  <v type="int" >       97 </v>
  <v type="int" >       99 </v>
  <v type="int" >       58 </v>
  <v type="int" >       77 </v>
  <v type="int" >       85 </v>
  <v type="int" >      109 </v>
  <v type="int" >        9 </v>
  <v type="int" >       11 </v>
  <v type="int" >       21 </v>
  <v type="int" >       22 </v>
  <v type="int" >      137 </v>
  <v type="int" >      139 </v>
  <v type="int" >      153 </v>
  <v type="int" >      155 </v>
  <v type="int" >       41 </v>
  <v type="int" >       49 </v>
  <v type="int" >       73 </v>
  <v type="int" >       81 </v>
  <v type="int" >       13 </v>
  <v type="int" >       15 </v>
  <v type="int" >      121 </v>
  <v type="int" >      122 </v>
  <v type="int" >      141 </v>
  <v type="int" >      143 </v>
  <v type="int" >      157 </v>
  <v type="int" >      159 </v>
  <v type="int" >      117 </v>
  <v type="int" >      118 </v>
  <v type="int" >      119 </v>
  <v type="int" >      120 </v>
  <v type="int" >       68 </v>
  <v type="int" >       91 </v>
  <v type="int" >       47 </v>
  <v type="int" >       55 </v>
  <v type="int" >       35 </v>
  <v type="int" >       60 </v>
  <v type="int" >       79 </v>
  <v type="int" >       87 </v>
  <v type="int" >      125 </v>
  <v type="int" >      126 </v>
  <v type="int" >       70 </v>
  <v type="int" >       93 </v>
  <v type="int" >       37 </v>
  <v type="int" >       62 </v>
  <v type="int" >       25 </v>
  <v type="int" >       26 </v>
  <v type="int" >       27 </v>
  <v type="int" >       28 </v>
  <v type="int" >       29 </v>
  <v type="int" >       30 </v>
  <v type="int" >       31 </v>
  <v type="int" >       32 </v>
  <v type="int" >        3 </v>
  <v type="int" >      129 </v>
  <v type="int" >      145 </v>
  <v type="int" >        5 </v>
  <v type="int" >       34 </v>
  <v type="int" >       57 </v>
  <v type="int" >      134 </v>
  <v type="int" >      150 </v>
  <v type="int" >       65 </v>
  <v type="int" >       90 </v>
  <v type="int" >       43 </v>
  <v type="int" >       51 </v>
  <v type="int" >      135 </v>
  <v type="int" >      151 </v>
  <v type="int" >      101 </v>
  <v type="int" >      103 </v>
  <v type="int" >       75 </v>
  <v type="int" >       83 </v>
  <v type="int" >      107 </v>
  <v type="int" >       17 </v>
  <v type="int" >       18 </v>
  <v type="int" >       78 </v>
  <v type="int" >       86 </v>
  <v type="int" >      111 </v>
  <v type="int" >       46 </v>
  <v type="int" >       54 </v>
  <v type="int" >       72 </v>
  <v type="int" >       95 </v>
  <v type="int" >       39 </v>
  <v type="int" >       64 </v>
  <v type="int" >       23 </v>
  <v type="int" >       24 </v>
  <v type="int" >      138 </v>
  <v type="int" >      140 </v>
  <v type="int" >      154 </v>
  <v type="int" >      156 </v>
  <v type="int" >       36 </v>
  <v type="int" >       59 </v>
  <v type="int" >       67 </v>
  <v type="int" >       92 </v>
  <v type="int" >      113 </v>
  <v type="int" >      114 </v>
  <v type="int" >      115 </v>
  <v type="int" >      116 </v>
  <v type="int" >      142 </v>
  <v type="int" >      144 </v>
  <v type="int" >      158 </v>
  <v type="int" >      160 </v>
  <v type="int" >      123 </v>
  <v type="int" >      124 </v>
  <v type="int" >       74 </v>
  <v type="int" >       82 </v>
  <v type="int" >       38 </v>
  <v type="int" >       61 </v>
  <v type="int" >       42 </v>
  <v type="int" >       50 </v>
  <v type="int" >       69 </v>
  <v type="int" >       94 </v>
  <v type="int" >      127 </v>
  <v type="int" >      128 </v>
  <v type="int" >       80 </v>
  <v type="int" >       88 </v>
  <v type="int" >       48 </v>
  <v type="int" >       56 </v>
  <v type="int" >        2 </v>
  <v type="int" >      130 </v>
  <v type="int" >      146 </v>
  <v type="int" >      131 </v>
  <v type="int" >      147 </v>
  <v type="int" >        7 </v>
  <v type="int" >      136 </v>
  <v type="int" >      152 </v>
  <v type="int" >      106 </v>
  <v type="int" >       98 </v>
  <v type="int" >      100 </v>
  <v type="int" >       76 </v>
  <v type="int" >       84 </v>
  <v type="int" >       40 </v>
  <v type="int" >       63 </v>
  <v type="int" >      110 </v>
  <v type="int" >       44 </v>
  <v type="int" >       52 </v>
  <v type="int" >       71 </v>
  <v type="int" >       96 </v>
  <v type="int" >       19 </v>
  <v type="int" >       20 </v>
  <v type="int" >       10 </v>
  <v type="int" >       12 </v>
  <v type="int" >       14 </v>
  <v type="int" >       16 </v>
  <v type="int" >        4 </v>
  <v type="int" >        6 </v>
  <v type="int" >      132 </v>
  <v type="int" >      148 </v>
  <v type="int" >      102 </v>
  <v type="int" >      104 </v>
  <v type="int" >      108 </v>
  <v type="int" >      112 </v>
  <v type="int" >        8 </v>
 </varray>
 <kpoints>
  <generation param="Gamma">
   <v type="int" name="divisions">       2        3        3 </v>
   <v name="usershift">      0.00000000       0.00000000       0.00000000 </v>
   <v name="genvec1">      0.50000000       0.00000000       0.00000000 </v>
   <v name="genvec2">      0.00000000       0.33333333       0.00000000 </v>
   <v name="genvec3">      0.00000000       0.00000000       0.33333333 </v>
   <v name="shift">      0.00000000       0.00000000       0.00000000 </v>
  </generation>
  <varray name="kpointlist" >
   <v>       0.00000000       0.00000000       0.00000000 </v>
   <v>       0.50000000       0.00000000       0.00000000 </v>
   <v>       0.00000000       0.33333333       0.00000000 </v>
   <v>       0.50000000       0.33333333       0.00000000 </v>
   <v>       0.00000000       0.00000000       0.33333333 </v>
   <v>       0.50000000       0.00000000       0.33333333 </v>
   <v>       0.00000000       0.33333333       0.33333333 </v>
   <v>       0.50000000       0.33333333       0.33333333 </v>
   <v>       0.00000000      -0.33333333       0.33333333 </v>
   <v>       0.50000000      -0.33333333       0.33333333 </v>
  </varray>
  <varray name="weights" >
   <v>       0.05555556 </v>
   <v>       0.05555556 </v>
   <v>       0.11111111 </v>
   <v>       0.11111111 </v>
   <v>       0.11111111 </v>
   <v>       0.11111111 </v>
   <v>       0.11111111 </v>
   <v>       0.11111111 </v>
   <v>       0.11111111 </v>
   <v>       0.11111111 </v>
  </varray>
 </kpoints>
 <parameters>
  <separator name="general" >
   <i type="string" name="SYSTEM">unknown system</i>
   <i type="logical" name="LCOMPAT"> F  </i>
  </separator>
  <separator name="electronic" >
   <i type="string" name="PREC">accura</i>
   <i name="ENMAX">    650.00000000</i>
   <i name="ENAUG">    628.94500000</i>
   <i name="EDIFF">      0.00000100</i>
   <i type="int" name="IALGO">    38</i>
   <i type="int" name="IWAVPR">    10</i>
   <i type="int" name="NBANDS">   732</i>
   <i name="NELECT">   1024.00000000</i>
   <i type="int" name="TURBO">     0</i>
   <i type="int" name="IRESTART">     0</i>
   <i type="int" name="NREBOOT">     0</i>
   <i type="int" name="NMIN">     0</i>
   <i name="EREF">      0.00000000</i>
   <separator name="electronic smearing" >
    <i type="int" name="ISMEAR">     0</i>
    <i name="SIGMA">      0.05000000</i>
    <i name="KSPACING">      0.50000000</i>
    <i type="logical" name="KGAMMA"> T  </i>
   </separator>
   <separator name="electronic projectors" >
    <i type="logical" name="LREAL"> F  </i>
    <v name="ROPT">      0.00000000      0.00000000      0.00000000      0.00000000</v>
    <i type="int" name="LMAXPAW">  -100</i>
    <i type="int" name="LMAXMIX">     4</i>
    <i type="logical" name="NLSPLINE"> F  </i>
   </separator>
   <separator name="electronic startup" >
    <i type="int" name="ISTART">     0</i>
    <i type="int" name="ICHARG">     1</i>
    <i type="int" name="INIWAV">     1</i>
   </separator>
   <separator name="electronic spin" >
    <i type="int" name="ISPIN">     2</i>
    <i type="logical" name="LNONCOLLINEAR"> F  </i>
    <v name="MAGMOM">      0.60000000      0.60000000      0.60000000      0.60000000      0.60000000      0.60000000      0.60000000      0.60000000      0.60000000      0.60000000      0.60000000      0.60000000      0.60000000      0.60000000      0.60000000      0.60000000      0.60000000      0.60000000      0.60000000      0.60000000
      0.60000000      0.60000000      0.60000000      0.60000000      0.60000000      0.60000000      0.60000000      0.60000000      0.60000000      0.60000000      0.60000000      0.60000000      0.60000000      0.60000000      0.60000000      0.60000000      0.60000000      0.60000000      0.60000000      0.60000000
      0.60000000      0.60000000      0.60000000      0.60000000      0.60000000      0.60000000      0.60000000      0.60000000      0.60000000      0.60000000      0.60000000      0.60000000      0.60000000      0.60000000      0.60000000      0.60000000      0.60000000      0.60000000      0.60000000      0.60000000
      0.60000000      0.60000000      0.60000000      0.60000000      5.00000000      5.00000000      5.00000000      5.00000000      5.00000000      5.00000000      5.00000000      5.00000000      5.00000000      5.00000000      5.00000000      5.00000000      5.00000000      5.00000000      5.00000000      5.00000000
      5.00000000      5.00000000      5.00000000      5.00000000      5.00000000      5.00000000      5.00000000      5.00000000      5.00000000      5.00000000      5.00000000      5.00000000      5.00000000      5.00000000      5.00000000      5.00000000      0.60000000      0.60000000      0.60000000      0.60000000
      0.60000000      0.60000000      0.60000000      0.60000000      0.60000000      0.60000000      0.60000000      0.60000000      0.60000000      0.60000000      0.60000000      0.60000000      0.60000000      0.60000000      0.60000000      0.60000000      0.60000000      0.60000000      0.60000000      0.60000000
      0.60000000      0.60000000      0.60000000      0.60000000      0.60000000      0.60000000      0.60000000      0.60000000      0.60000000      0.60000000      0.60000000      0.60000000      0.60000000      0.60000000      0.60000000      0.60000000      0.60000000      0.60000000      0.60000000      0.60000000
      0.60000000      0.60000000      0.60000000      0.60000000      0.60000000      0.60000000      0.60000000      0.60000000      0.60000000      0.60000000      0.60000000      0.60000000      0.60000000      0.60000000      0.60000000      0.60000000      0.60000000      0.60000000      0.60000000      0.60000000
</v>
    <i name="NUPDOWN">     -1.00000000</i>
    <i type="logical" name="LSORBIT"> F  </i>
    <v name="SAXIS">      0.00000000      0.00000000      1.00000000</v>
    <i type="logical" name="LSPIRAL"> F  </i>
    <v name="QSPIRAL">      0.00000000      0.00000000      0.00000000</v>
    <i type="logical" name="LZEROZ"> F  </i>
   </separator>
   <separator name="electronic exchange-correlation" >
    <i type="logical" name="LASPH"> T  </i>
    <i type="logical" name="LMETAGGA"> F  </i>
   </separator>
   <separator name="electronic convergence" >
    <i type="int" name="NELM">   200</i>
    <i type="int" name="NELMDL">     0</i>
    <i type="int" name="NELMIN">     8</i>
    <i name="ENINI">    650.00000000</i>
    <separator name="electronic convergence detail" >
     <i type="logical" name="LDIAG"> T  </i>
     <i type="logical" name="LSUBROT"> F  </i>
     <i name="WEIMIN">      0.00000000</i>
     <i name="EBREAK">      0.00000000</i>
     <i name="DEPER">      0.30000000</i>
     <i type="int" name="NRMM">     4</i>
     <i name="TIME">      0.40000000</i>
    </separator>
   </separator>
   <separator name="electronic mixer" >
    <i name="AMIX">      0.40000000</i>
    <i name="BMIX">      1.00000000</i>
    <i name="AMIN">      0.10000000</i>
    <i name="AMIX_MAG">      1.60000000</i>
    <i name="BMIX_MAG">      1.00000000</i>
    <separator name="electronic mixer details" >
     <i type="int" name="IMIX">     4</i>
     <i type="logical" name="MIXFIRST"> F  </i>
     <i type="int" name="MAXMIX">   -45</i>
     <i name="WC">    100.00000000</i>
     <i type="int" name="INIMIX">     1</i>
     <i type="int" name="MIXPRE">     1</i>
     <i type="int" name="MREMOVE">     5</i>
    </separator>
   </separator>
   <separator name="electronic dipolcorrection" >
    <i type="logical" name="LDIPOL"> F  </i>
    <i type="logical" name="LMONO"> F  </i>
    <i type="int" name="IDIPOL">     0</i>
    <i name="EPSILON">      1.00000000</i>
    <v name="DIPOL">   -100.00000000   -100.00000000   -100.00000000</v>
    <i name="EFIELD">      0.00000000</i>
   </separator>
  </separator>
  <separator name="grids" >
   <i type="int" name="NGX">   128</i>
   <i type="int" name="NGY">    96</i>
   <i type="int" name="NGZ">    96</i>
   <i type="int" name="NGXF">   256</i>
   <i type="int" name="NGYF">   192</i>
   <i type="int" name="NGZF">   192</i>
   <i type="logical" name="ADDGRID"> T  </i>
  </separator>
  <separator name="ionic" >
   <i type="int" name="NSW">     0</i>
   <i type="int" name="IBRION">    -1</i>
   <i type="int" name="MDALGO">     0</i>
   <i type="int" name="ISIF">     2</i>
   <i name="PSTRESS">      0.00000000</i>
   <i name="EDIFFG">      0.00001000</i>
   <i type="int" name="NFREE">     0</i>
   <i name="POTIM">      0.50000000</i>
   <i name="SMASS">     -3.00000000</i>
   <i name="SCALEE">      1.00000000</i>
  </separator>
  <separator name="ionic md" >
   <i name="TEBEG">      0.00010000</i>
   <i name="TEEND">      0.00010000</i>
   <i type="int" name="NBLOCK">     1</i>
   <i type="int" name="KBLOCK">     1</i>
   <i type="int" name="NPACO">   256</i>
   <i name="APACO">     16.00000000</i>
  </separator>
  <separator name="symmetry" >
   <i type="int" name="ISYM">     2</i>
   <i name="SYMPREC">      0.00001000</i>
  </separator>
  <separator name="dos" >
   <i type="int" name="LORBIT">     0</i>
   <v name="RWIGS">     -1.00000000     -1.00000000     -1.00000000     -1.00000000</v>
   <i type="int" name="NEDOS">   301</i>
   <i name="EMIN">     10.00000000</i>
   <i name="EMAX">    -10.00000000</i>
   <i name="EFERMI">      0.00000000</i>
  </separator>
  <separator name="writing" >
   <i type="int" name="NWRITE">     1</i>
   <i type="logical" name="LWAVE"> F  </i>
   <i type="logical" name="LDOWNSAMPLE"> F  </i>
   <i type="logical" name="LCHARG"> T  </i>
   <i type="logical" name="LPARD"> F  </i>
   <i type="logical" name="LVTOT"> F  </i>
   <i type="logical" name="LVHAR"> F  </i>
   <i type="logical" name="LELF"> F  </i>
   <i type="logical" name="LOPTICS"> F  </i>
   <v name="STM">      0.00000000      0.00000000      0.00000000      0.00000000      0.00000000      0.00000000      0.00000000</v>
  </separator>
  <separator name="performance" >
   <i type="int" name="NPAR">     4</i>
   <i type="int" name="NSIM">     4</i>
   <i type="int" name="NBLK">    -1</i>
   <i type="logical" name="LPLANE"> T  </i>
   <i type="logical" name="LSCALAPACK"> T  </i>
   <i type="logical" name="LSCAAWARE"> F  </i>
   <i type="logical" name="LSCALU"> F  </i>
   <i type="logical" name="LASYNC"> F  </i>
   <i type="logical" name="LORBITALREAL"> F  </i>
  </separator>
  <separator name="miscellaneous" >
   <i type="int" name="IDIOT">     3</i>
   <i type="int" name="ISPECIAL">     0</i>
   <i type="logical" name="LMUSIC"> F  </i>
   <v name="POMASS">      7.01000000     55.84700000     32.06600000     16.00000000</v>
   <v name="DARWINR">      0.00000000      0.00000000      0.00000000      0.00000000</v>
   <v name="DARWINV">      1.00000000      1.00000000      1.00000000      1.00000000</v>
   <i type="logical" name="LCORR"> T  </i>
  </separator>
  <i type="logical" name="GGA_COMPAT"> T  </i>
  <i type="logical" name="LBERRY"> F  </i>
  <i type="int" name="ICORELEVEL">     0</i>
  <i type="logical" name="LDAU"> T  </i>
  <v type="int" name="LDAUTYPE">     2</v>
  <v type="int" name="LDAUL">    -1</v>
  <v name="LDAUU">      0.00000000</v>
  <v name="LDAUJ">      0.00000000</v>
  <i type="int" name="LDAUPRINT">     0</i>
  <i type="int" name="I_CONSTRAINED_M">     0</i>
  <separator name="electronic exchange-correlation" >
   <i type="string" name="GGA">PE</i>
   <i type="int" name="VOSKOWN">     0</i>
   <i type="logical" name="LHFCALC"> F  </i>
   <i type="string" name="PRECFOCK"></i>
   <i type="logical" name="LSYMGRAD"> F  </i>
   <i type="logical" name="LHFONE"> F  </i>
   <i type="logical" name="LRHFCALC"> F  </i>
   <i type="logical" name="LTHOMAS"> F  </i>
   <i type="logical" name="LMODELHF"> F  </i>
   <i name="ENCUT4O">     -1.00000000</i>
   <i type="int" name="EXXOEP">     0</i>
   <i type="int" name="FOURORBIT">     0</i>
   <i name="AEXX">      0.00000000</i>
   <i name="HFALPHA">      0.00000000</i>
   <i name="MCALPHA">      0.00000000</i>
   <i name="ALDAX">      1.00000000</i>
   <i name="AGGAX">      1.00000000</i>
   <i name="ALDAC">      1.00000000</i>
   <i name="AGGAC">      1.00000000</i>
   <i type="int" name="NKREDX">     1</i>
   <i type="int" name="NKREDY">     1</i>
   <i type="int" name="NKREDZ">     1</i>
   <i type="logical" name="SHIFTRED"> F  </i>
   <i type="logical" name="ODDONLY"> F  </i>
   <i type="logical" name="EVENONLY"> F  </i>
   <i type="int" name="LMAXFOCK">     0</i>
   <i type="int" name="NMAXFOCKAE">     0</i>
   <i type="logical" name="LFOCKAEDFT"> F  </i>
   <i name="HFSCREEN">      0.00000000</i>
   <i name="HFSCREENC">      0.00000000</i>
   <i type="int" name="NBANDSGWLOW">     0</i>
  </separator>
  <separator name="vdW DFT" >
   <i type="logical" name="LUSE_VDW"> F  </i>
   <i name="Zab_VDW">     -0.84910000</i>
   <i name="PARAM1">      0.12340000</i>
   <i name="PARAM2">      1.00000000</i>
   <i name="PARAM3">      0.00000000</i>
  </separator>
  <separator name="model GW" >
   <i type="int" name="MODEL_GW">     0</i>
   <i name="MODEL_EPS0">      7.31241874</i>
   <i name="MODEL_ALPHA">      1.00000000</i>
  </separator>
  <separator name="linear response parameters" >
   <i type="logical" name="LEPSILON"> F  </i>
   <i type="logical" name="LRPA"> F  </i>
   <i type="logical" name="LNABLA"> F  </i>
   <i type="logical" name="LVEL"> F  </i>
   <i type="int" name="KINTER">     0</i>
   <i name="CSHIFT">      0.10000000</i>
   <i name="OMEGAMAX">     -1.00000000</i>
   <i name="DEG_THRESHOLD">      0.00200000</i>
   <i name="RTIME">     -0.10000000</i>
   <i name="WPLASMAI">      0.00000000</i>
   <v name="DFIELD">      0.00000000      0.00000000      0.00000000</v>
   <v name="WPLASMA">      0.00000000      0.00000000      0.00000000      0.00000000      0.00000000      0.00000000      0.00000000      0.00000000      0.00000000</v>
  </separator>
  <separator name="orbital magnetization" >
   <i type="logical" name="NUCIND"> F  </i>
   <v name="MAGPOS">      0.00000000      0.00000000      0.00000000</v>
   <i type="logical" name="LNICSALL"> T  </i>
   <i type="logical" name="ORBITALMAG"> F  </i>
   <i type="logical" name="LMAGBLOCH"> F  </i>
   <i type="logical" name="LCHIMAG"> F  </i>
   <i type="logical" name="LGAUGE"> T  </i>
   <i type="int" name="MAGATOM">     0</i>
   <v name="MAGDIPOL">      0.00000000      0.00000000      0.00000000</v>
   <v name="AVECCONST">      0.00000000      0.00000000      0.00000000</v>
  </separator>
  <separator name="response functions" >
   <i type="logical" name="LADDER"> F  </i>
   <i type="logical" name="LRPAFORCE"> F  </i>
   <i type="logical" name="LFXC"> F  </i>
   <i type="logical" name="LHARTREE"> T  </i>
   <i type="int" name="IBSE">     0</i>
   <v type="int" name="KPOINT">    -1     0     0     0</v>
   <i type="logical" name="LTCTE"> F  </i>
   <i type="logical" name="LTETE"> F  </i>
   <i type="logical" name="LTRIPLET"> F  </i>
   <i type="logical" name="LFXCEPS"> F  </i>
   <i type="logical" name="LFXHEG"> F  </i>
   <i type="int" name="NATURALO">     2</i>
   <i type="logical" name="L2ORDER"> F  </i>
   <i type="logical" name="LMP2LT"> F  </i>
   <i type="logical" name="LUSEW"> F  </i>
   <i name="ENCUTGW">     -2.00000000</i>
   <i name="ENCUTGWSOFT">     -2.00000000</i>
   <i name="ENCUTLF">     -1.00000000</i>
   <i type="int" name="LMAXMP2">    -1</i>
   <i name="SCISSOR">      0.00000000</i>
   <i type="int" name="NOMEGA">     0</i>
   <i type="int" name="NOMEGAR">     0</i>
   <i type="int" name="NBANDSGW">    -1</i>
   <i type="int" name="NBANDSO">    -1</i>
   <i type="int" name="NBANDSV">    -1</i>
   <i type="int" name="NELM">   200</i>
   <i type="int" name="NELMHF">     1</i>
   <i type="int" name="DIM">     3</i>
   <i type="int" name="ANTIRES">     0</i>
   <i name="OMEGAMAX">    -30.00000000</i>
   <i name="OMEGAMIN">    -30.00000000</i>
   <i name="OMEGATL">   -200.00000000</i>
   <i type="int" name="OMEGAGRID">   140</i>
   <i name="CSHIFT">     -0.10000000</i>
   <i type="logical" name="SELFENERGY"> F  </i>
   <i type="logical" name="LSPECTRAL"> F  </i>
   <i type="logical" name="LSPECTRALGW"> F  </i>
   <i type="logical" name="LSINGLES"> F  </i>
   <i type="logical" name="LFERMIGW"> F  </i>
   <i type="logical" name="ODDONLYGW"> F  </i>
   <i type="logical" name="EVENONLYGW"> F  </i>
   <i type="int" name="NKREDLFX">     1</i>
   <i type="int" name="NKREDLFY">     1</i>
   <i type="int" name="NKREDLFZ">     1</i>
   <i type="int" name="MAXMEM">  2800</i>
   <i type="int" name="TELESCOPE">     0</i>
   <i type="int" name="TAUPAR">     1</i>
   <i type="int" name="OMEGAPAR">    -1</i>
   <i name="LAMBDA">      1.00000000</i>
  </separator>
  <separator name="External order field" >
   <i name="OFIELD_KAPPA">      0.00000000</i>
   <v name="OFIELD_K">      0.00000000      0.00000000      0.00000000</v>
   <i name="OFIELD_Q6_NEAR">      0.00000000</i>
   <i name="OFIELD_Q6_FAR">      0.00000000</i>
   <i name="OFIELD_A">      0.00000000</i>
  </separator>
 </parameters>
 <atominfo>
  <atoms>     160 </atoms>
  <types>       4 </types>
  <array name="atoms" >
   <dimension dim="1">ion</dimension>
   <field type="string">element</field>
   <field type="int">atomtype</field>
   <set>
    <rc><c>Li</c><c>   1</c></rc>
    <rc><c>Li</c><c>   1</c></rc>
    <rc><c>Li</c><c>   1</c></rc>
    <rc><c>Li</c><c>   1</c></rc>
    <rc><c>Li</c><c>   1</c></rc>
    <rc><c>Li</c><c>   1</c></rc>
    <rc><c>Li</c><c>   1</c></rc>
    <rc><c>Li</c><c>   1</c></rc>
    <rc><c>Li</c><c>   1</c></rc>
    <rc><c>Li</c><c>   1</c></rc>
    <rc><c>Li</c><c>   1</c></rc>
    <rc><c>Li</c><c>   1</c></rc>
    <rc><c>Li</c><c>   1</c></rc>
    <rc><c>Li</c><c>   1</c></rc>
    <rc><c>Li</c><c>   1</c></rc>
    <rc><c>Li</c><c>   1</c></rc>
    <rc><c>Li</c><c>   1</c></rc>
    <rc><c>Li</c><c>   1</c></rc>
    <rc><c>Li</c><c>   1</c></rc>
    <rc><c>Li</c><c>   1</c></rc>
    <rc><c>Li</c><c>   1</c></rc>
    <rc><c>Li</c><c>   1</c></rc>
    <rc><c>Li</c><c>   1</c></rc>
    <rc><c>Li</c><c>   1</c></rc>
    <rc><c>Li</c><c>   1</c></rc>
    <rc><c>Li</c><c>   1</c></rc>
    <rc><c>Li</c><c>   1</c></rc>
    <rc><c>Li</c><c>   1</c></rc>
    <rc><c>Li</c><c>   1</c></rc>
    <rc><c>Li</c><c>   1</c></rc>
    <rc><c>Li</c><c>   1</c></rc>
    <rc><c>Li</c><c>   1</c></rc>
    <rc><c>Li</c><c>   1</c></rc>
    <rc><c>Li</c><c>   1</c></rc>
    <rc><c>Li</c><c>   1</c></rc>
    <rc><c>Li</c><c>   1</c></rc>
    <rc><c>Li</c><c>   1</c></rc>
    <rc><c>Li</c><c>   1</c></rc>
    <rc><c>Li</c><c>   1</c></rc>
    <rc><c>Li</c><c>   1</c></rc>
    <rc><c>Li</c><c>   1</c></rc>
    <rc><c>Li</c><c>   1</c></rc>
    <rc><c>Li</c><c>   1</c></rc>
    <rc><c>Li</c><c>   1</c></rc>
    <rc><c>Li</c><c>   1</c></rc>
    <rc><c>Li</c><c>   1</c></rc>
    <rc><c>Li</c><c>   1</c></rc>
    <rc><c>Li</c><c>   1</c></rc>
    <rc><c>Li</c><c>   1</c></rc>
    <rc><c>Li</c><c>   1</c></rc>
    <rc><c>Li</c><c>   1</c></rc>
    <rc><c>Li</c><c>   1</c></rc>
    <rc><c>Li</c><c>   1</c></rc>
    <rc><c>Li</c><c>   1</c></rc>
    <rc><c>Li</c><c>   1</c></rc>
    <rc><c>Li</c><c>   1</c></rc>
    <rc><c>Li</c><c>   1</c></rc>
    <rc><c>Li</c><c>   1</c></rc>
    <rc><c>Li</c><c>   1</c></rc>
    <rc><c>Li</c><c>   1</c></rc>
    <rc><c>Li</c><c>   1</c></rc>
    <rc><c>Li</c><c>   1</c></rc>
    <rc><c>Li</c><c>   1</c></rc>
    <rc><c>Li</c><c>   1</c></rc>
    <rc><c>Fe</c><c>   2</c></rc>
    <rc><c>Fe</c><c>   2</c></rc>
    <rc><c>Fe</c><c>   2</c></rc>
    <rc><c>Fe</c><c>   2</c></rc>
    <rc><c>Fe</c><c>   2</c></rc>
    <rc><c>Fe</c><c>   2</c></rc>
    <rc><c>Fe</c><c>   2</c></rc>
    <rc><c>Fe</c><c>   2</c></rc>
    <rc><c>Fe</c><c>   2</c></rc>
    <rc><c>Fe</c><c>   2</c></rc>
    <rc><c>Fe</c><c>   2</c></rc>
    <rc><c>Fe</c><c>   2</c></rc>
    <rc><c>Fe</c><c>   2</c></rc>
    <rc><c>Fe</c><c>   2</c></rc>
    <rc><c>Fe</c><c>   2</c></rc>
    <rc><c>Fe</c><c>   2</c></rc>
    <rc><c>Fe</c><c>   2</c></rc>
    <rc><c>Fe</c><c>   2</c></rc>
    <rc><c>Fe</c><c>   2</c></rc>
    <rc><c>Fe</c><c>   2</c></rc>
    <rc><c>Fe</c><c>   2</c></rc>
    <rc><c>Fe</c><c>   2</c></rc>
    <rc><c>Fe</c><c>   2</c></rc>
    <rc><c>Fe</c><c>   2</c></rc>
    <rc><c>Fe</c><c>   2</c></rc>
    <rc><c>Fe</c><c>   2</c></rc>
    <rc><c>Fe</c><c>   2</c></rc>
    <rc><c>Fe</c><c>   2</c></rc>
    <rc><c>Fe</c><c>   2</c></rc>
    <rc><c>Fe</c><c>   2</c></rc>
    <rc><c>Fe</c><c>   2</c></rc>
    <rc><c>Fe</c><c>   2</c></rc>
    <rc><c>S </c><c>   3</c></rc>
    <rc><c>S </c><c>   3</c></rc>
    <rc><c>S </c><c>   3</c></rc>
    <rc><c>S </c><c>   3</c></rc>
    <rc><c>S </c><c>   3</c></rc>
    <rc><c>S </c><c>   3</c></rc>
    <rc><c>S </c><c>   3</c></rc>
    <rc><c>S </c><c>   3</c></rc>
    <rc><c>S </c><c>   3</c></rc>
    <rc><c>S </c><c>   3</c></rc>
    <rc><c>S </c><c>   3</c></rc>
    <rc><c>S </c><c>   3</c></rc>
    <rc><c>S </c><c>   3</c></rc>
    <rc><c>S </c><c>   3</c></rc>
    <rc><c>S </c><c>   3</c></rc>
    <rc><c>S </c><c>   3</c></rc>
    <rc><c>S </c><c>   3</c></rc>
    <rc><c>S </c><c>   3</c></rc>
    <rc><c>S </c><c>   3</c></rc>
    <rc><c>S </c><c>   3</c></rc>
    <rc><c>S </c><c>   3</c></rc>
    <rc><c>S </c><c>   3</c></rc>
    <rc><c>S </c><c>   3</c></rc>
    <rc><c>S </c><c>   3</c></rc>
    <rc><c>S </c><c>   3</c></rc>
    <rc><c>S </c><c>   3</c></rc>
    <rc><c>S </c><c>   3</c></rc>
    <rc><c>S </c><c>   3</c></rc>
    <rc><c>S </c><c>   3</c></rc>
    <rc><c>S </c><c>   3</c></rc>
    <rc><c>S </c><c>   3</c></rc>
    <rc><c>S </c><c>   3</c></rc>
    <rc><c>O </c><c>   4</c></rc>
    <rc><c>O </c><c>   4</c></rc>
    <rc><c>O </c><c>   4</c></rc>
    <rc><c>O </c><c>   4</c></rc>
    <rc><c>O </c><c>   4</c></rc>
    <rc><c>O </c><c>   4</c></rc>
    <rc><c>O </c><c>   4</c></rc>
    <rc><c>O </c><c>   4</c></rc>
    <rc><c>O </c><c>   4</c></rc>
    <rc><c>O </c><c>   4</c></rc>
    <rc><c>O </c><c>   4</c></rc>
    <rc><c>O </c><c>   4</c></rc>
    <rc><c>O </c><c>   4</c></rc>
    <rc><c>O </c><c>   4</c></rc>
    <rc><c>O </c><c>   4</c></rc>
    <rc><c>O </c><c>   4</c></rc>
    <rc><c>O </c><c>   4</c></rc>
    <rc><c>O </c><c>   4</c></rc>
    <rc><c>O </c><c>   4</c></rc>
    <rc><c>O </c><c>   4</c></rc>
    <rc><c>O </c><c>   4</c></rc>
    <rc><c>O </c><c>   4</c></rc>
    <rc><c>O </c><c>   4</c></rc>
    <rc><c>O </c><c>   4</c></rc>
    <rc><c>O </c><c>   4</c></rc>
    <rc><c>O </c><c>   4</c></rc>
    <rc><c>O </c><c>   4</c></rc>
    <rc><c>O </c><c>   4</c></rc>
    <rc><c>O </c><c>   4</c></rc>
    <rc><c>O </c><c>   4</c></rc>
    <rc><c>O </c><c>   4</c></rc>
    <rc><c>O </c><c>   4</c></rc>
   </set>
  </array>
  <array name="atomtypes" >
   <dimension dim="1">type</dimension>
   <field type="int">atomspertype</field>
   <field type="string">element</field>
   <field>mass</field>
   <field>valence</field>
   <field type="string">pseudopotential</field>
   <set>
    <rc><c>  64</c><c>Li</c><c>      7.01000000</c><c>      3.00000000</c><c>  PAW_PBE Li_sv 10Sep2004               </c></rc>
    <rc><c>  32</c><c>Fe</c><c>     55.84700000</c><c>     14.00000000</c><c>  PAW_PBE Fe_pv 02Aug2007               </c></rc>
    <rc><c>  32</c><c>S </c><c>     32.06600000</c><c>      6.00000000</c><c>  PAW_PBE S 06Sep2000                   </c></rc>
    <rc><c>  32</c><c>O </c><c>     16.00000000</c><c>      6.00000000</c><c>  PAW_PBE O 08Apr2002                   </c></rc>
   </set>
  </array>
 </atominfo>
 <structure name="initialpos" >
  <crystal>
   <varray name="basis" >
    <v>      15.42482202       0.00000000       0.00000000 </v>
    <v>       0.00000000      11.21024242       0.00000000 </v>
    <v>       0.00000000       0.00000000      11.27702698 </v>
   </varray>
   <i name="volume">   1949.97833107 </i>
   <varray name="rec_basis" >
    <v>       0.06483057       0.00000000       0.00000000 </v>
    <v>       0.00000000       0.08920414       0.00000000 </v>
    <v>       0.00000000       0.00000000       0.08867585 </v>
   </varray>
  </crystal>
  <varray name="positions" >
   <v>       0.12500000       0.25000000       0.46751010 </v>
   <v>       0.62500000       0.25000000       0.46751010 </v>
   <v>       0.12500000       0.75000000       0.46751010 </v>
   <v>       0.62500000       0.75000000       0.46751010 </v>
   <v>       0.12500000       0.25000000       0.96751010 </v>
   <v>       0.62500000       0.25000000       0.96751010 </v>
   <v>       0.12500000       0.75000000       0.96751010 </v>
   <v>       0.62500000       0.75000000       0.96751010 </v>
   <v>       0.12500000       0.00000000       0.28248990 </v>
   <v>       0.62500000       0.00000000       0.28248990 </v>
   <v>       0.12500000       0.50000000       0.28248990 </v>
   <v>       0.62500000       0.50000000       0.28248990 </v>
   <v>       0.12500000       0.00000000       0.78248990 </v>
   <v>       0.62500000       0.00000000       0.78248990 </v>
   <v>       0.12500000       0.50000000       0.78248990 </v>
   <v>       0.62500000       0.50000000       0.78248990 </v>
   <v>       0.37500000       0.25000000       0.03248990 </v>
   <v>       0.87500000       0.25000000       0.03248990 </v>
   <v>       0.37500000       0.75000000       0.03248990 </v>
   <v>       0.87500000       0.75000000       0.03248990 </v>
   <v>       0.37500000       0.25000000       0.53248990 </v>
   <v>       0.87500000       0.25000000       0.53248990 </v>
   <v>       0.37500000       0.75000000       0.53248990 </v>
   <v>       0.87500000       0.75000000       0.53248990 </v>
   <v>       0.37500000       0.00000000       0.21751010 </v>
   <v>       0.87500000       0.00000000       0.21751010 </v>
   <v>       0.37500000       0.50000000       0.21751010 </v>
   <v>       0.87500000       0.50000000       0.21751010 </v>
   <v>       0.37500000       0.00000000       0.71751010 </v>
   <v>       0.87500000       0.00000000       0.71751010 </v>
   <v>       0.37500000       0.50000000       0.71751010 </v>
   <v>       0.87500000       0.50000000       0.71751010 </v>
   <v>       0.26924068       0.37500000       0.37588676 </v>
   <v>       0.76924068       0.37500000       0.37500000 </v>
   <v>       0.26924068       0.87500000       0.37500000 </v>
   <v>       0.76924068       0.87500000       0.37500000 </v>
   <v>       0.26924068       0.37500000       0.87500000 </v>
   <v>       0.76924068       0.37500000       0.87500000 </v>
   <v>       0.26924068       0.87500000       0.87500000 </v>
   <v>       0.76924068       0.87500000       0.87500000 </v>
   <v>       0.23075932       0.12500000       0.12500000 </v>
   <v>       0.73075932       0.12500000       0.12500000 </v>
   <v>       0.23075932       0.62500000       0.12500000 </v>
   <v>       0.73075932       0.62500000       0.12500000 </v>
   <v>       0.23075932       0.12500000       0.62500000 </v>
   <v>       0.73075932       0.12500000       0.62500000 </v>
   <v>       0.23075932       0.62500000       0.62500000 </v>
   <v>       0.73075932       0.62500000       0.62500000 </v>
   <v>       0.01924068       0.37500000       0.12500000 </v>
   <v>       0.51924068       0.37500000       0.12500000 </v>
   <v>       0.01924068       0.87500000       0.12500000 </v>
   <v>       0.51924068       0.87500000       0.12500000 </v>
   <v>       0.01924068       0.37500000       0.62500000 </v>
   <v>       0.51924068       0.37500000       0.62500000 </v>
   <v>       0.01924068       0.87500000       0.62500000 </v>
   <v>       0.51924068       0.87500000       0.62500000 </v>
   <v>       0.48075932       0.12500000       0.37500000 </v>
   <v>       0.98075932       0.12500000       0.37500000 </v>
   <v>       0.48075932       0.62500000       0.37500000 </v>
   <v>       0.98075932       0.62500000       0.37500000 </v>
   <v>       0.48075932       0.12500000       0.87500000 </v>
   <v>       0.98075932       0.12500000       0.87500000 </v>
   <v>       0.48075932       0.62500000       0.87500000 </v>
   <v>       0.98075932       0.62500000       0.87500000 </v>
   <v>       0.48606648       0.37500000       0.37500000 </v>
   <v>       0.98606648       0.37500000       0.37500000 </v>
   <v>       0.48606648       0.87500000       0.37500000 </v>
   <v>       0.98606648       0.87500000       0.37500000 </v>
   <v>       0.48606648       0.37500000       0.87500000 </v>
   <v>       0.98606648       0.37500000       0.87500000 </v>
   <v>       0.48606648       0.87500000       0.87500000 </v>
   <v>       0.98606648       0.87500000       0.87500000 </v>
   <v>       0.01393352       0.12500000       0.12500000 </v>
   <v>       0.51393352       0.12500000       0.12500000 </v>
   <v>       0.01393352       0.62500000       0.12500000 </v>
   <v>       0.51393352       0.62500000       0.12500000 </v>
   <v>       0.01393352       0.12500000       0.62500000 </v>
   <v>       0.51393352       0.12500000       0.62500000 </v>
   <v>       0.01393352       0.62500000       0.62500000 </v>
   <v>       0.51393352       0.62500000       0.62500000 </v>
   <v>       0.23606648       0.37500000       0.12500000 </v>
   <v>       0.73606648       0.37500000       0.12500000 </v>
   <v>       0.23606648       0.87500000       0.12500000 </v>
   <v>       0.73606648       0.87500000       0.12500000 </v>
   <v>       0.23606648       0.37500000       0.62500000 </v>
   <v>       0.73606648       0.37500000       0.62500000 </v>
   <v>       0.23606648       0.87500000       0.62500000 </v>
   <v>       0.73606648       0.87500000       0.62500000 </v>
   <v>       0.26393352       0.12500000       0.37500000 </v>
   <v>       0.76393352       0.12500000       0.37500000 </v>
   <v>       0.26393352       0.62500000       0.37500000 </v>
   <v>       0.76393352       0.62500000       0.37500000 </v>
   <v>       0.26393352       0.12500000       0.87500000 </v>
   <v>       0.76393352       0.12500000       0.87500000 </v>
   <v>       0.26393352       0.62500000       0.87500000 </v>
   <v>       0.76393352       0.62500000       0.87500000 </v>
   <v>       0.12500000       0.00000000       0.50106053 </v>
   <v>       0.62500000       0.00000000       0.50106053 </v>
   <v>       0.12500000       0.50000000       0.50106053 </v>
   <v>       0.62500000       0.50000000       0.50106053 </v>
   <v>       0.12500000       0.00000000       0.00106053 </v>
   <v>       0.62500000       0.00000000       0.00106053 </v>
   <v>       0.12500000       0.50000000       0.00106053 </v>
   <v>       0.62500000       0.50000000       0.00106053 </v>
   <v>       0.12500000       0.25000000       0.24893947 </v>
   <v>       0.62500000       0.25000000       0.24893947 </v>
   <v>       0.12500000       0.75000000       0.24893947 </v>
   <v>       0.62500000       0.75000000       0.24893947 </v>
   <v>       0.12500000       0.25000000       0.74893947 </v>
   <v>       0.62500000       0.25000000       0.74893947 </v>
   <v>       0.12500000       0.75000000       0.74893947 </v>
   <v>       0.62500000       0.75000000       0.74893947 </v>
   <v>       0.37500000       0.00000000       0.99893947 </v>
   <v>       0.87500000       0.00000000       0.99893947 </v>
   <v>       0.37500000       0.50000000       0.99893947 </v>
   <v>       0.87500000       0.50000000       0.99893947 </v>
   <v>       0.37500000       0.00000000       0.49893947 </v>
   <v>       0.87500000       0.00000000       0.49893947 </v>
   <v>       0.37500000       0.50000000       0.49893947 </v>
   <v>       0.87500000       0.50000000       0.49893947 </v>
   <v>       0.37500000       0.25000000       0.25106053 </v>
   <v>       0.87500000       0.25000000       0.25106053 </v>
   <v>       0.37500000       0.75000000       0.25106053 </v>
   <v>       0.87500000       0.75000000       0.25106053 </v>
   <v>       0.37500000       0.25000000       0.75106053 </v>
   <v>       0.87500000       0.25000000       0.75106053 </v>
   <v>       0.37500000       0.75000000       0.75106053 </v>
   <v>       0.87500000       0.75000000       0.75106053 </v>
   <v>       0.00000000       0.25000000       0.00000000 </v>
   <v>       0.50000000       0.25000000       0.00000000 </v>
   <v>       0.00000000       0.75000000       0.00000000 </v>
   <v>       0.50000000       0.75000000       0.00000000 </v>
   <v>       0.00000000       0.25000000       0.50000000 </v>
   <v>       0.50000000       0.25000000       0.50000000 </v>
   <v>       0.00000000       0.75000000       0.50000000 </v>
   <v>       0.50000000       0.75000000       0.50000000 </v>
   <v>       0.00000000       0.00000000       0.25000000 </v>
   <v>       0.50000000       0.00000000       0.25000000 </v>
   <v>       0.00000000       0.50000000       0.25000000 </v>
   <v>       0.50000000       0.50000000       0.25000000 </v>
   <v>       0.00000000       0.00000000       0.75000000 </v>
   <v>       0.50000000       0.00000000       0.75000000 </v>
   <v>       0.00000000       0.50000000       0.75000000 </v>
   <v>       0.50000000       0.50000000       0.75000000 </v>
   <v>       0.25000000       0.25000000       0.00000000 </v>
   <v>       0.75000000       0.25000000       0.00000000 </v>
   <v>       0.25000000       0.75000000       0.00000000 </v>
   <v>       0.75000000       0.75000000       0.00000000 </v>
   <v>       0.25000000       0.25000000       0.50000000 </v>
   <v>       0.75000000       0.25000000       0.50000000 </v>
   <v>       0.25000000       0.75000000       0.50000000 </v>
   <v>       0.75000000       0.75000000       0.50000000 </v>
   <v>       0.25000000       0.00000000       0.25000000 </v>
   <v>       0.75000000       0.00000000       0.25000000 </v>
   <v>       0.25000000       0.50000000       0.25000000 </v>
   <v>       0.75000000       0.50000000       0.25000000 </v>
   <v>       0.25000000       0.00000000       0.75000000 </v>
   <v>       0.75000000       0.00000000       0.75000000 </v>
   <v>       0.25000000       0.50000000       0.75000000 </v>
   <v>       0.75000000       0.50000000       0.75000000 </v>
  </varray>
 </structure>
 <calculation>
  <scstep>
   <time name="dav">  355.86  361.74</time>
   <time name="total">  358.20  364.11</time>
   <energy>
    <i name="alphaZ">   2574.33730679 </i>
    <i name="ewald"> -67378.53048592 </i>
    <i name="hartreedc"> -36045.54695319 </i>
    <i name="XCdc">   4397.16331517 </i>
    <i name="pawpsdc"> 108725.82191982 </i>
    <i name="pawaedc">-112342.66432617 </i>
    <i name="eentropy">     -0.02972843 </i>
    <i name="bandstr">   -780.42112970 </i>
    <i name="atom"> 114309.28505226 </i>
    <i name="e_fr_energy">  13459.41497064 </i>
    <i name="e_wo_entrp">  13459.44469907 </i>
    <i name="e_0_energy">  13459.42983485 </i>
   </energy>
  </scstep>
  <scstep>
   <time name="dav">  343.14  349.06</time>
   <time name="total">  343.14  349.07</time>
   <energy>
    <i name="e_fr_energy">   1408.36692189 </i>
    <i name="e_wo_entrp">   1408.43687759 </i>
    <i name="e_0_energy">   1408.40189974 </i>
   </energy>
  </scstep>
  <scstep>
   <time name="dav">  376.68  383.22</time>
   <time name="total">  376.68  383.23</time>
   <energy>
    <i name="e_fr_energy">   -528.17130089 </i>
    <i name="e_wo_entrp">   -528.17130089 </i>
    <i name="e_0_energy">   -528.17130089 </i>
   </energy>
  </scstep>
  <scstep>
   <time name="dav">  430.87  437.55</time>
   <time name="total">  430.87  437.55</time>
   <energy>
    <i name="e_fr_energy">   -788.77110982 </i>
    <i name="e_wo_entrp">   -788.77110982 </i>
    <i name="e_0_energy">   -788.77110982 </i>
   </energy>
  </scstep>
  <scstep>
   <time name="dav">  543.73  551.74</time>
   <time name="total">  552.42  560.49</time>
   <energy>
    <i name="e_fr_energy">   -820.40932443 </i>
    <i name="e_wo_entrp">   -820.40932443 </i>
    <i name="e_0_energy">   -820.40932443 </i>
   </energy>
  </scstep>
  <scstep>
   <time name="dav">  441.49  448.78</time>
   <time name="total">  452.17  459.70</time>
   <energy>
    <i name="e_fr_energy">   -821.84706051 </i>
    <i name="e_wo_entrp">   -821.84706051 </i>
    <i name="e_0_energy">   -821.84706051 </i>
   </energy>
  </scstep>
  <scstep>
   <time name="dav">  500.67  509.17</time>
   <time name="total">  511.41  520.11</time>
   <energy>
    <i name="e_fr_energy">   -821.92595256 </i>
    <i name="e_wo_entrp">   -821.92595256 </i>
    <i name="e_0_energy">   -821.92595256 </i>
   </energy>
  </scstep>
  <scstep>
   <time name="dav">  478.25  485.64</time>
   <time name="total">  489.02  496.62</time>
   <energy>
    <i name="e_fr_energy">   -821.92623454 </i>
    <i name="e_wo_entrp">   -821.92623454 </i>
    <i name="e_0_energy">   -821.92623454 </i>
   </energy>
  </scstep>
  <scstep>
   <time name="dav">  505.34  513.40</time>
   <time name="total">  516.14  524.35</time>
   <energy>
    <i name="e_fr_energy">   -821.92531157 </i>
    <i name="e_wo_entrp">   -821.92531157 </i>
    <i name="e_0_energy">   -821.92531157 </i>
   </energy>
  </scstep>
  <scstep>
   <time name="dav">  488.97  496.65</time>
   <time name="total">  499.79  507.66</time>
   <energy>
    <i name="e_fr_energy">   -821.92523407 </i>
    <i name="e_wo_entrp">   -821.92523407 </i>
    <i name="e_0_energy">   -821.92523407 </i>
   </energy>
  </scstep>
  <scstep>
   <time name="dav">  479.95  487.78</time>
   <time name="total">  490.75  498.78</time>
   <energy>
    <i name="e_fr_energy">   -821.92264873 </i>
    <i name="e_wo_entrp">   -821.92264873 </i>
    <i name="e_0_energy">   -821.92264873 </i>
   </energy>
  </scstep>
  <scstep>
   <time name="dav">  451.80  458.98</time>
   <time name="total">  462.55  470.02</time>
   <energy>
    <i name="e_fr_energy">   -821.92166618 </i>
    <i name="e_wo_entrp">   -821.92166618 </i>
    <i name="e_0_energy">   -821.92166618 </i>
   </energy>
  </scstep>
  <scstep>
   <time name="dav">  490.60  498.09</time>
   <time name="total">  501.54  509.10</time>
   <energy>
    <i name="e_fr_energy">   -821.92089025 </i>
    <i name="e_wo_entrp">   -821.92089025 </i>
    <i name="e_0_energy">   -821.92089025 </i>
   </energy>
  </scstep>
  <scstep>
   <time name="dav">  454.13  461.14</time>
   <time name="total">  464.95  472.10</time>
   <energy>
    <i name="e_fr_energy">   -821.92063962 </i>
    <i name="e_wo_entrp">   -821.92063962 </i>
    <i name="e_0_energy">   -821.92063962 </i>
   </energy>
  </scstep>
  <scstep>
   <time name="dav">  427.87  434.06</time>
   <time name="total">  438.75  445.01</time>
   <energy>
    <i name="e_fr_energy">   -821.92036288 </i>
    <i name="e_wo_entrp">   -821.92036288 </i>
    <i name="e_0_energy">   -821.92036288 </i>
   </energy>
  </scstep>
  <scstep>
   <time name="dav">  470.03  477.34</time>
   <time name="total">  480.79  488.34</time>
   <energy>
    <i name="e_fr_energy">   -821.92025327 </i>
    <i name="e_wo_entrp">   -821.92025327 </i>
    <i name="e_0_energy">   -821.92025327 </i>
   </energy>
  </scstep>
  <scstep>
   <time name="dav">  466.00  473.48</time>
   <time name="total">  476.80  484.52</time>
   <energy>
    <i name="e_fr_energy">   -821.92024068 </i>
    <i name="e_wo_entrp">   -821.92024068 </i>
    <i name="e_0_energy">   -821.92024068 </i>
   </energy>
  </scstep>
  <scstep>
   <time name="dav">  392.13  398.09</time>
   <time name="total">  402.96  409.05</time>
   <energy>
    <i name="e_fr_energy">   -821.92024100 </i>
    <i name="e_wo_entrp">   -821.92024100 </i>
    <i name="e_0_energy">   -821.92024100 </i>
   </energy>
  </scstep>
  <scstep>
   <time name="dav">  254.25  258.18</time>
   <time name="total">  256.61  260.57</time>
   <energy>
    <i name="alphaZ">   2574.33730679 </i>
    <i name="ewald"> -67378.53048592 </i>
    <i name="hartreedc"> -36045.63502350 </i>
    <i name="XCdc">   4397.16812165 </i>
    <i name="pawpsdc"> 108722.10645778 </i>
    <i name="pawaedc">-112338.83307675 </i>
    <i name="eentropy">     -0.00000000 </i>
    <i name="bandstr"> -15061.81859379 </i>
    <i name="atom"> 114309.28505226 </i>
    <i name="e_fr_energy">   -821.92024149 </i>
    <i name="e_wo_entrp">   -821.92024149 </i>
    <i name="e_0_energy">   -821.92024149 </i>
   </energy>
  </scstep>
  <structure>
   <crystal>
    <varray name="basis" >
     <v>      15.42482202       0.00000000       0.00000000 </v>
     <v>       0.00000000      11.21024242       0.00000000 </v>
     <v>       0.00000000       0.00000000      11.27702698 </v>
    </varray>
    <i name="volume">   1949.97833107 </i>
    <varray name="rec_basis" >
     <v>       0.06483057       0.00000000       0.00000000 </v>
     <v>       0.00000000       0.08920414       0.00000000 </v>
     <v>       0.00000000       0.00000000       0.08867585 </v>
    </varray>
   </crystal>
   <varray name="positions" >
    <v>       0.12500000       0.25000000       0.46751010 </v>
    <v>       0.62500000       0.25000000       0.46751010 </v>
    <v>       0.12500000       0.75000000       0.46751010 </v>
    <v>       0.62500000       0.75000000       0.46751010 </v>
    <v>       0.12500000       0.25000000       0.96751010 </v>
    <v>       0.62500000       0.25000000       0.96751010 </v>
    <v>       0.12500000       0.75000000       0.96751010 </v>
    <v>       0.62500000       0.75000000       0.96751010 </v>
    <v>       0.12500000       0.00000000       0.28248990 </v>
    <v>       0.62500000       0.00000000       0.28248990 </v>
    <v>       0.12500000       0.50000000       0.28248990 </v>
    <v>       0.62500000       0.50000000       0.28248990 </v>
    <v>       0.12500000       0.00000000       0.78248990 </v>
    <v>       0.62500000       0.00000000       0.78248990 </v>
    <v>       0.12500000       0.50000000       0.78248990 </v>
    <v>       0.62500000       0.50000000       0.78248990 </v>
    <v>       0.37500000       0.25000000       0.03248990 </v>
    <v>       0.87500000       0.25000000       0.03248990 </v>
    <v>       0.37500000       0.75000000       0.03248990 </v>
    <v>       0.87500000       0.75000000       0.03248990 </v>
    <v>       0.37500000       0.25000000       0.53248990 </v>
    <v>       0.87500000       0.25000000       0.53248990 </v>
    <v>       0.37500000       0.75000000       0.53248990 </v>
    <v>       0.87500000       0.75000000       0.53248990 </v>
    <v>       0.37500000       0.00000000       0.21751010 </v>
    <v>       0.87500000       0.00000000       0.21751010 </v>
    <v>       0.37500000       0.50000000       0.21751010 </v>
    <v>       0.87500000       0.50000000       0.21751010 </v>
    <v>       0.37500000       0.00000000       0.71751010 </v>
    <v>       0.87500000       0.00000000       0.71751010 </v>
    <v>       0.37500000       0.50000000       0.71751010 </v>
    <v>       0.87500000       0.50000000       0.71751010 </v>
    <v>       0.26924068       0.37500000       0.37588676 </v>
    <v>       0.76924068       0.37500000       0.37500000 </v>
    <v>       0.26924068       0.87500000       0.37500000 </v>
    <v>       0.76924068       0.87500000       0.37500000 </v>
    <v>       0.26924068       0.37500000       0.87500000 </v>
    <v>       0.76924068       0.37500000       0.87500000 </v>
    <v>       0.26924068       0.87500000       0.87500000 </v>
    <v>       0.76924068       0.87500000       0.87500000 </v>
    <v>       0.23075932       0.12500000       0.12500000 </v>
    <v>       0.73075932       0.12500000       0.12500000 </v>
    <v>       0.23075932       0.62500000       0.12500000 </v>
    <v>       0.73075932       0.62500000       0.12500000 </v>
    <v>       0.23075932       0.12500000       0.62500000 </v>
    <v>       0.73075932       0.12500000       0.62500000 </v>
    <v>       0.23075932       0.62500000       0.62500000 </v>
    <v>       0.73075932       0.62500000       0.62500000 </v>
    <v>       0.01924068       0.37500000       0.12500000 </v>
    <v>       0.51924068       0.37500000       0.12500000 </v>
    <v>       0.01924068       0.87500000       0.12500000 </v>
    <v>       0.51924068       0.87500000       0.12500000 </v>
    <v>       0.01924068       0.37500000       0.62500000 </v>
    <v>       0.51924068       0.37500000       0.62500000 </v>
    <v>       0.01924068       0.87500000       0.62500000 </v>
    <v>       0.51924068       0.87500000       0.62500000 </v>
    <v>       0.48075932       0.12500000       0.37500000 </v>
    <v>       0.98075932       0.12500000       0.37500000 </v>
    <v>       0.48075932       0.62500000       0.37500000 </v>
    <v>       0.98075932       0.62500000       0.37500000 </v>
    <v>       0.48075932       0.12500000       0.87500000 </v>
    <v>       0.98075932       0.12500000       0.87500000 </v>
    <v>       0.48075932       0.62500000       0.87500000 </v>
    <v>       0.98075932       0.62500000       0.87500000 </v>
    <v>       0.48606648       0.37500000       0.37500000 </v>
    <v>       0.98606648       0.37500000       0.37500000 </v>
    <v>       0.48606648       0.87500000       0.37500000 </v>
    <v>       0.98606648       0.87500000       0.37500000 </v>
    <v>       0.48606648       0.37500000       0.87500000 </v>
    <v>       0.98606648       0.37500000       0.87500000 </v>
    <v>       0.48606648       0.87500000       0.87500000 </v>
    <v>       0.98606648       0.87500000       0.87500000 </v>
    <v>       0.01393352       0.12500000       0.12500000 </v>
    <v>       0.51393352       0.12500000       0.12500000 </v>
    <v>       0.01393352       0.62500000       0.12500000 </v>
    <v>       0.51393352       0.62500000       0.12500000 </v>
    <v>       0.01393352       0.12500000       0.62500000 </v>
    <v>       0.51393352       0.12500000       0.62500000 </v>
    <v>       0.01393352       0.62500000       0.62500000 </v>
    <v>       0.51393352       0.62500000       0.62500000 </v>
    <v>       0.23606648       0.37500000       0.12500000 </v>
    <v>       0.73606648       0.37500000       0.12500000 </v>
    <v>       0.23606648       0.87500000       0.12500000 </v>
    <v>       0.73606648       0.87500000       0.12500000 </v>
    <v>       0.23606648       0.37500000       0.62500000 </v>
    <v>       0.73606648       0.37500000       0.62500000 </v>
    <v>       0.23606648       0.87500000       0.62500000 </v>
    <v>       0.73606648       0.87500000       0.62500000 </v>
    <v>       0.26393352       0.12500000       0.37500000 </v>
    <v>       0.76393352       0.12500000       0.37500000 </v>
    <v>       0.26393352       0.62500000       0.37500000 </v>
    <v>       0.76393352       0.62500000       0.37500000 </v>
    <v>       0.26393352       0.12500000       0.87500000 </v>
    <v>       0.76393352       0.12500000       0.87500000 </v>
    <v>       0.26393352       0.62500000       0.87500000 </v>
    <v>       0.76393352       0.62500000       0.87500000 </v>
    <v>       0.12500000       0.00000000       0.50106053 </v>
    <v>       0.62500000       0.00000000       0.50106053 </v>
    <v>       0.12500000       0.50000000       0.50106053 </v>
    <v>       0.62500000       0.50000000       0.50106053 </v>
    <v>       0.12500000       0.00000000       0.00106053 </v>
    <v>       0.62500000       0.00000000       0.00106053 </v>
    <v>       0.12500000       0.50000000       0.00106053 </v>
    <v>       0.62500000       0.50000000       0.00106053 </v>
    <v>       0.12500000       0.25000000       0.24893947 </v>
    <v>       0.62500000       0.25000000       0.24893947 </v>
    <v>       0.12500000       0.75000000       0.24893947 </v>
    <v>       0.62500000       0.75000000       0.24893947 </v>
    <v>       0.12500000       0.25000000       0.74893947 </v>
    <v>       0.62500000       0.25000000       0.74893947 </v>
    <v>       0.12500000       0.75000000       0.74893947 </v>
    <v>       0.62500000       0.75000000       0.74893947 </v>
    <v>       0.37500000       0.00000000       0.99893947 </v>
    <v>       0.87500000       0.00000000       0.99893947 </v>
    <v>       0.37500000       0.50000000       0.99893947 </v>
    <v>       0.87500000       0.50000000       0.99893947 </v>
    <v>       0.37500000       0.00000000       0.49893947 </v>
    <v>       0.87500000       0.00000000       0.49893947 </v>
    <v>       0.37500000       0.50000000       0.49893947 </v>
    <v>       0.87500000       0.50000000       0.49893947 </v>
    <v>       0.37500000       0.25000000       0.25106053 </v>
    <v>       0.87500000       0.25000000       0.25106053 </v>
    <v>       0.37500000       0.75000000       0.25106053 </v>
    <v>       0.87500000       0.75000000       0.25106053 </v>
    <v>       0.37500000       0.25000000       0.75106053 </v>
    <v>       0.87500000       0.25000000       0.75106053 </v>
    <v>       0.37500000       0.75000000       0.75106053 </v>
    <v>       0.87500000       0.75000000       0.75106053 </v>
    <v>       0.00000000       0.25000000       0.00000000 </v>
    <v>       0.50000000       0.25000000       0.00000000 </v>
    <v>       0.00000000       0.75000000       0.00000000 </v>
    <v>       0.50000000       0.75000000       0.00000000 </v>
    <v>       0.00000000       0.25000000       0.50000000 </v>
    <v>       0.50000000       0.25000000       0.50000000 </v>
    <v>       0.00000000       0.75000000       0.50000000 </v>
    <v>       0.50000000       0.75000000       0.50000000 </v>
    <v>       0.00000000       0.00000000       0.25000000 </v>
    <v>       0.50000000       0.00000000       0.25000000 </v>
    <v>       0.00000000       0.50000000       0.25000000 </v>
    <v>       0.50000000       0.50000000       0.25000000 </v>
    <v>       0.00000000       0.00000000       0.75000000 </v>
    <v>       0.50000000       0.00000000       0.75000000 </v>
    <v>       0.00000000       0.50000000       0.75000000 </v>
    <v>       0.50000000       0.50000000       0.75000000 </v>
    <v>       0.25000000       0.25000000       0.00000000 </v>
    <v>       0.75000000       0.25000000       0.00000000 </v>
    <v>       0.25000000       0.75000000       0.00000000 </v>
    <v>       0.75000000       0.75000000       0.00000000 </v>
    <v>       0.25000000       0.25000000       0.50000000 </v>
    <v>       0.75000000       0.25000000       0.50000000 </v>
    <v>       0.25000000       0.75000000       0.50000000 </v>
    <v>       0.75000000       0.75000000       0.50000000 </v>
    <v>       0.25000000       0.00000000       0.25000000 </v>
    <v>       0.75000000       0.00000000       0.25000000 </v>
    <v>       0.25000000       0.50000000       0.25000000 </v>
    <v>       0.75000000       0.50000000       0.25000000 </v>
    <v>       0.25000000       0.00000000       0.75000000 </v>
    <v>       0.75000000       0.00000000       0.75000000 </v>
    <v>       0.25000000       0.50000000       0.75000000 </v>
    <v>       0.75000000       0.50000000       0.75000000 </v>
   </varray>
  </structure>
  <varray name="forces" >
   <v>      -0.00258914      -0.00130830      -0.00072014 </v>
   <v>       0.00004341      -0.00005821      -0.00023288 </v>
   <v>       0.00009123       0.00034284      -0.00037158 </v>
   <v>       0.00012390       0.00005562      -0.00019374 </v>
   <v>       0.00018544       0.00009726       0.00039298 </v>
   <v>      -0.00006536      -0.00001559      -0.00002492 </v>
   <v>       0.00000567      -0.00009079       0.00003164 </v>
   <v>      -0.00002906       0.00001455      -0.00005105 </v>
   <v>      -0.00010411       0.00034483      -0.00014674 </v>
   <v>      -0.00011544       0.00005464       0.00003462 </v>
   <v>       0.00258534      -0.00131372      -0.00048154 </v>
   <v>      -0.00004662      -0.00006033       0.00000273 </v>
   <v>      -0.00000058      -0.00009171       0.00025662 </v>
   <v>       0.00003403       0.00001237       0.00018130 </v>
   <v>      -0.00017336       0.00010124       0.00061596 </v>
   <v>       0.00006464      -0.00002063       0.00020578 </v>
   <v>      -0.00019402       0.00010587       0.00084853 </v>
   <v>       0.00005642      -0.00001606       0.00017073 </v>
   <v>      -0.00001970      -0.00007598       0.00018635 </v>
   <v>       0.00002945       0.00000766       0.00013820 </v>
   <v>       0.00318349      -0.00234946       0.00176481 </v>
   <v>      -0.00002458      -0.00003777       0.00008186 </v>
   <v>      -0.00016489       0.00063227       0.00015043 </v>
   <v>      -0.00009012       0.00004266       0.00009752 </v>
   <v>       0.00016135       0.00063430      -0.00008613 </v>
   <v>       0.00009896       0.00004390      -0.00013209 </v>
   <v>      -0.00316371      -0.00232784       0.00153077 </v>
   <v>       0.00003794      -0.00003397      -0.00014540 </v>
   <v>       0.00001084      -0.00007717      -0.00004406 </v>
   <v>      -0.00003149       0.00001053      -0.00009552 </v>
   <v>       0.00019108       0.00011179       0.00061888 </v>
   <v>      -0.00006077      -0.00001630      -0.00005743 </v>
   <v>      -0.00005148       0.01407061      -0.03712100 </v>
   <v>      -0.00007726      -0.00013656      -0.00018917 </v>
   <v>      -0.00007493      -0.00006366      -0.00026862 </v>
   <v>      -0.00007578       0.00000586      -0.00008075 </v>
   <v>      -0.00008291      -0.00006677       0.00047559 </v>
   <v>      -0.00006977       0.00000531       0.00007661 </v>
   <v>      -0.00007786       0.00006998       0.00020150 </v>
   <v>      -0.00007919       0.00006898       0.00008632 </v>
   <v>       0.00016426       0.00064753       0.00035294 </v>
   <v>       0.00004574       0.00004066       0.00004486 </v>
   <v>       0.00016356      -0.00081976       0.00067507 </v>
   <v>       0.00007020      -0.00000565       0.00000367 </v>
   <v>      -0.00001143      -0.00083216       0.00067769 </v>
   <v>       0.00008142      -0.00001139       0.00000558 </v>
   <v>      -0.00001733       0.00063527       0.00036268 </v>
   <v>       0.00010935       0.00004286       0.00005075 </v>
   <v>       0.00028557      -0.00021216       0.00018690 </v>
   <v>      -0.00042750      -0.00023835       0.00018428 </v>
   <v>      -0.00001473       0.00005018       0.00009183 </v>
   <v>      -0.00014527       0.00008481       0.00008331 </v>
   <v>      -0.00043650      -0.00021443       0.00018033 </v>
   <v>       0.00027554      -0.00023089       0.00018627 </v>
   <v>      -0.00013995       0.00004574       0.00008312 </v>
   <v>      -0.00000836       0.00008884       0.00008527 </v>
   <v>      -0.00030008       0.00030643      -0.00082803 </v>
   <v>       0.00032919       0.00015691      -0.00041983 </v>
   <v>       0.00044975       0.00029837      -0.00083042 </v>
   <v>      -0.00017805       0.00015355      -0.00042528 </v>
   <v>       0.00017478      -0.00007875       0.00024562 </v>
   <v>      -0.00001292      -0.00004659       0.00019470 </v>
   <v>      -0.00002320      -0.00007843       0.00024175 </v>
   <v>       0.00016643      -0.00004711       0.00019362 </v>
   <v>      -0.00001690      -0.00109578      -0.00157680 </v>
   <v>      -0.00000267      -0.00057178      -0.00098743 </v>
   <v>      -0.00001021       0.00043312      -0.00088189 </v>
   <v>      -0.00000774       0.00025699      -0.00067834 </v>
   <v>      -0.00000514       0.00004240       0.00066019 </v>
   <v>      -0.00000997       0.00003550       0.00057656 </v>
   <v>      -0.00000109       0.00003042       0.00029984 </v>
   <v>      -0.00000358      -0.00000663       0.00028203 </v>
   <v>       0.00069852       0.00049014       0.00078666 </v>
   <v>      -0.00101065       0.00051083       0.00095321 </v>
   <v>       0.00026683      -0.00008791      -0.00003203 </v>
   <v>      -0.00018781      -0.00009330       0.00000226 </v>
   <v>      -0.00025459      -0.00008835      -0.00003617 </v>
   <v>       0.00020283      -0.00009910       0.00000112 </v>
   <v>      -0.00068840       0.00048619       0.00078437 </v>
   <v>       0.00101516       0.00050435       0.00095437 </v>
   <v>       0.00178846       0.00076919       0.01130312 </v>
   <v>      -0.00002950      -0.00013456       0.00008940 </v>
   <v>      -0.00002772       0.00003219       0.00008399 </v>
   <v>      -0.00002032       0.00007393       0.00000146 </v>
   <v>      -0.00184121       0.00074247       0.01150341 </v>
   <v>       0.00001260      -0.00013214       0.00009110 </v>
   <v>       0.00001331       0.00003369       0.00008464 </v>
   <v>       0.00001134       0.00007382       0.00000070 </v>
   <v>       0.00069239      -0.00201094      -0.00522609 </v>
   <v>      -0.00001002       0.00009293      -0.00024926 </v>
   <v>      -0.00067089      -0.00207054      -0.00521963 </v>
   <v>       0.00002507       0.00009589      -0.00025440 </v>
   <v>      -0.00005796       0.00025014       0.00086606 </v>
   <v>      -0.00000477      -0.00003801       0.00016930 </v>
   <v>       0.00006674       0.00025799       0.00086511 </v>
   <v>       0.00001340      -0.00003737       0.00016300 </v>
   <v>       0.00047439       0.00048760       0.00029878 </v>
   <v>      -0.00008001      -0.00007041       0.00013171 </v>
   <v>       0.00179338      -0.00154847       0.00028795 </v>
   <v>      -0.00043326       0.00011843       0.00012324 </v>
   <v>      -0.00001956      -0.00019055      -0.00037163 </v>
   <v>       0.00012337      -0.00009462      -0.00015849 </v>
   <v>      -0.00051468       0.00027618      -0.00101683 </v>
   <v>       0.00005875       0.00004645      -0.00010287 </v>
   <v>      -0.00179127      -0.00153998       0.00023972 </v>
   <v>       0.00042908       0.00011680       0.00010093 </v>
   <v>      -0.00047579       0.00048881       0.00026903 </v>
   <v>       0.00008169      -0.00007175       0.00010537 </v>
   <v>       0.00051996       0.00027855      -0.00104049 </v>
   <v>      -0.00005610       0.00004586      -0.00011382 </v>
   <v>       0.00002698      -0.00019794      -0.00039024 </v>
   <v>      -0.00012275      -0.00009239      -0.00016790 </v>
   <v>      -0.00001112      -0.00024374      -0.00044976 </v>
   <v>      -0.00008578      -0.00005573      -0.00014577 </v>
   <v>       0.00048319       0.00024075      -0.00101962 </v>
   <v>      -0.00007101       0.00002625      -0.00012150 </v>
   <v>      -0.00046772       0.00038503       0.00042112 </v>
   <v>       0.00006964      -0.00005789       0.00011221 </v>
   <v>       0.00068837       0.00015691       0.00305670 </v>
   <v>       0.00028647       0.00009803       0.00013680 </v>
   <v>      -0.00062131       0.00010675       0.00300240 </v>
   <v>      -0.00028288       0.00009982       0.00015662 </v>
   <v>       0.00046789       0.00038973       0.00043622 </v>
   <v>      -0.00007241      -0.00006084       0.00013039 </v>
   <v>      -0.00048904       0.00024032      -0.00099919 </v>
   <v>       0.00006757       0.00002496      -0.00010242 </v>
   <v>       0.00000594      -0.00024126      -0.00042935 </v>
   <v>       0.00008133      -0.00006129      -0.00012608 </v>
   <v>      -0.00021657       0.00015650      -0.00073166 </v>
   <v>       0.00014015       0.00023642      -0.00086241 </v>
   <v>      -0.00012040       0.00012132      -0.00017153 </v>
   <v>       0.00006838       0.00010072      -0.00017572 </v>
   <v>       0.00027468       0.00020817       0.00047007 </v>
   <v>      -0.00025698       0.00036186       0.00062425 </v>
   <v>       0.00042673      -0.00066267       0.00034432 </v>
   <v>      -0.00054291      -0.00105698       0.00042928 </v>
   <v>      -0.00041436      -0.00065699       0.00033670 </v>
[...]
       <r>   -27.7744     0.0000   160.0000 </r>
       <r>   -27.5358     0.0000   160.0000 </r>
       <r>   -27.2971     0.0000   160.0000 </r>
       <r>   -27.0584     0.0000   160.0000 </r>
       <r>   -26.8198     0.0000   160.0000 </r>
       <r>   -26.5811     0.0000   160.0000 </r>
       <r>   -26.3424     0.0000   160.0000 </r>
       <r>   -26.1038     0.0000   160.0000 </r>
       <r>   -25.8651     0.0000   160.0000 </r>
       <r>   -25.6264     0.0000   160.0000 </r>
       <r>   -25.3878     0.0000   160.0000 </r>
       <r>   -25.1491     0.0000   160.0000 </r>
       <r>   -24.9104     0.0000   160.0000 </r>
       <r>   -24.6718     0.0000   160.0000 </r>
       <r>   -24.4331     0.0000   160.0000 </r>
       <r>   -24.1945     0.0000   160.0000 </r>
       <r>   -23.9558     0.0000   160.0000 </r>
       <r>   -23.7171     0.0000   160.0000 </r>
       <r>   -23.4785     0.0000   160.0000 </r>
       <r>   -23.2398     0.0000   160.0000 </r>
       <r>   -23.0011     0.0000   160.0000 </r>
       <r>   -22.7625     0.0000   160.0000 </r>
       <r>   -22.5238     0.0000   160.0000 </r>
       <r>   -22.2851     0.0000   160.0000 </r>
       <r>   -22.0465     0.0000   160.0000 </r>
       <r>   -21.8078     0.0000   160.0000 </r>
       <r>   -21.5691     0.0000   160.0000 </r>
       <r>   -21.3305     0.0000   160.0000 </r>
       <r>   -21.0918     0.0000   160.0000 </r>
       <r>   -20.8531     0.0000   160.0000 </r>
       <r>   -20.6145     0.0000   160.0000 </r>
       <r>   -20.3758     0.0000   160.0000 </r>
       <r>   -20.1371     0.0000   160.0000 </r>
       <r>   -19.8985     0.0000   160.0000 </r>
       <r>   -19.6598     0.0000   160.0000 </r>
       <r>   -19.4211     0.0000   160.0000 </r>
       <r>   -19.1825     0.0000   160.0000 </r>
       <r>   -18.9438     0.0000   160.0000 </r>
       <r>   -18.7051     0.0000   160.0000 </r>
       <r>   -18.4665     0.0000   160.0000 </r>
       <r>   -18.2278     0.0000   160.0000 </r>
       <r>   -17.9891     0.0000   160.0000 </r>
       <r>   -17.7505     0.0000   160.0000 </r>
       <r>   -17.5118     0.0000   160.0000 </r>
       <r>   -17.2731     0.0000   160.0000 </r>
       <r>   -17.0345     0.0000   160.0000 </r>
       <r>   -16.7958     0.0000   160.0000 </r>
       <r>   -16.5571     0.0000   160.0000 </r>
       <r>   -16.3185     0.0000   160.0000 </r>
       <r>   -16.0798     0.0000   160.0000 </r>
       <r>   -15.8412     0.0000   160.0000 </r>
       <r>   -15.6025     0.0000   160.0000 </r>
       <r>   -15.3638     0.0000   160.0000 </r>
       <r>   -15.1252     0.0000   160.0000 </r>
       <r>   -14.8865     0.0000   160.0000 </r>
       <r>   -14.6478     0.0000   160.0000 </r>
       <r>   -14.4092     0.0000   160.0000 </r>
       <r>   -14.1705     0.0000   160.0000 </r>
       <r>   -13.9318     0.0000   160.0000 </r>
       <r>   -13.6932     0.0000   160.0000 </r>
       <r>   -13.4545     0.0000   160.0000 </r>
       <r>   -13.2158     5.0287   161.2002 </r>
       <r>   -12.9772   108.0960   186.9990 </r>
       <r>   -12.7385    20.9541   192.0000 </r>
       <r>   -12.4998     0.0000   192.0000 </r>
       <r>   -12.2612     0.0000   192.0000 </r>
       <r>   -12.0225     0.0000   192.0000 </r>
       <r>   -11.7838     0.0000   192.0000 </r>
       <r>   -11.5452     0.0000   192.0000 </r>
       <r>   -11.3065     0.0000   192.0000 </r>
       <r>   -11.0678     0.0000   192.0000 </r>
       <r>   -10.8292     0.0000   192.0000 </r>
       <r>   -10.5905     0.0000   192.0000 </r>
       <r>   -10.3518     0.0000   192.0000 </r>
       <r>   -10.1132     0.0000   192.0000 </r>
       <r>    -9.8745     0.0000   192.0000 </r>
       <r>    -9.6358     0.0000   192.0000 </r>
       <r>    -9.3972     0.0000   192.0000 </r>
       <r>    -9.1585     0.0000   192.0000 </r>
       <r>    -8.9198     0.0000   192.0000 </r>
       <r>    -8.6812     0.0000   192.0000 </r>
       <r>    -8.4425     0.0000   192.0000 </r>
       <r>    -8.2038     0.0000   192.0000 </r>
       <r>    -7.9652     0.0000   192.0000 </r>
       <r>    -7.7265     0.0000   192.0000 </r>
       <r>    -7.4879     0.1044   192.0249 </r>
       <r>    -7.2492    40.8953   201.7852 </r>
       <r>    -7.0105    63.7029   216.9889 </r>
       <r>    -6.7719    28.4283   223.7738 </r>
       <r>    -6.5332     0.9479   224.0000 </r>
       <r>    -6.2945     0.0000   224.0000 </r>
       <r>    -6.0559     0.0000   224.0000 </r>
       <r>    -5.8172     0.0000   224.0000 </r>
       <r>    -5.5785     0.0000   224.0000 </r>
       <r>    -5.3399     0.0000   224.0000 </r>
       <r>    -5.1012     0.0000   224.0000 </r>
       <r>    -4.8625     0.0000   224.0000 </r>
       <r>    -4.6239     0.0000   224.0000 </r>
       <r>    -4.3852     0.0000   224.0000 </r>
       <r>    -4.1465     0.0000   224.0000 </r>
       <r>    -3.9079     0.0000   224.0000 </r>
       <r>    -3.6692     0.0000   224.0000 </r>
       <r>    -3.4305     0.0000   224.0000 </r>
       <r>    -3.1919     0.0000   224.0000 </r>
       <r>    -2.9532     0.0000   224.0000 </r>
       <r>    -2.7145     0.0000   224.0000 </r>
       <r>    -2.4759     0.0000   224.0000 </r>
       <r>    -2.2372     0.0000   224.0000 </r>
       <r>    -1.9985     0.0000   224.0000 </r>
       <r>    -1.7599     0.0000   224.0000 </r>
       <r>    -1.5212     0.0000   224.0000 </r>
       <r>    -1.2825     0.0000   224.0000 </r>
       <r>    -1.0439     0.0777   224.0186 </r>
       <r>    -0.8052    20.9380   229.0157 </r>
       <r>    -0.5665    28.1129   235.7253 </r>
       <r>    -0.3279    15.7447   239.4830 </r>
       <r>    -0.0892    14.3751   242.9139 </r>
       <r>     0.1495    26.1802   249.1622 </r>
       <r>     0.3881    51.1890   261.3793 </r>
       <r>     0.6268    78.7046   280.1634 </r>
       <r>     0.8654    71.6028   297.2525 </r>
       <r>     1.1041    76.7352   315.5666 </r>
       <r>     1.3428    29.7084   322.6569 </r>
       <r>     1.5814    37.3743   331.5769 </r>
       <r>     1.8201    49.6426   343.4249 </r>
       <r>     2.0588    43.7207   353.8595 </r>
       <r>     2.2974    28.2851   360.6102 </r>
       <r>     2.5361    50.8147   372.7379 </r>
       <r>     2.7748    68.0220   388.9725 </r>
       <r>     3.0134    82.2548   408.6039 </r>
       <r>     3.2521    29.2116   415.5757 </r>
       <r>     3.4908    21.9474   420.8138 </r>
       <r>     3.7294    47.4229   432.1320 </r>
       <r>     3.9681    55.6062   445.4033 </r>
       <r>     4.2068    10.8795   447.9999 </r>
       <r>     4.4454     0.0006   448.0000 </r>
       <r>     4.6841     0.0000   448.0000 </r>
       <r>     4.9228     0.0000   448.0000 </r>
       <r>     5.1614     0.0000   448.0000 </r>
       <r>     5.4001     0.0000   448.0000 </r>
       <r>     5.6388     0.0000   448.0000 </r>
       <r>     5.8774     0.0000   448.0000 </r>
       <r>     6.1161     0.0000   448.0000 </r>
       <r>     6.3548     0.0000   448.0000 </r>
       <r>     6.5934     1.3177   448.3145 </r>
       <r>     6.8321    53.2787   461.0303 </r>
       <r>     7.0708    76.9720   479.4009 </r>
       <r>     7.3094    58.0081   493.2454 </r>
       <r>     7.5481    68.6846   509.6381 </r>
       <r>     7.7868    63.4299   524.7766 </r>
       <r>     8.0254    97.7407   548.1039 </r>
       <r>     8.2641    70.2650   564.8738 </r>
       <r>     8.5028    35.4488   573.3342 </r>
       <r>     8.7414    13.2000   576.4846 </r>
       <r>     8.9801     8.4126   578.4924 </r>
       <r>     9.2187    11.5228   581.2425 </r>
       <r>     9.4574    20.5287   586.1420 </r>
       <r>     9.6961    25.5714   592.2450 </r>
       <r>     9.9347    41.6648   602.1889 </r>
       <r>    10.1734    32.7690   610.0098 </r>
       <r>    10.4121    33.8201   618.0815 </r>
       <r>    10.6507    32.8068   625.9113 </r>
       <r>    10.8894    23.4805   631.5153 </r>
       <r>    11.1281    34.0121   639.6328 </r>
       <r>    11.3667    23.1697   645.1627 </r>
       <r>    11.6054    35.7371   653.6919 </r>
       <r>    11.8441    52.3823   666.1937 </r>
       <r>    12.0827    58.0210   680.0414 </r>
       <r>    12.3214    45.8909   690.9940 </r>
       <r>    12.5601    31.0822   698.4122 </r>
       <r>    12.7987    32.5336   706.1769 </r>
       <r>    13.0374    35.2878   714.5989 </r>
       <r>    13.2761    36.6250   723.3400 </r>
       <r>    13.5147    28.9216   730.2426 </r>
       <r>    13.7534     7.3634   732.0000 </r>
       <r>    13.9921     0.0000   732.0000 </r>
       <r>    14.2307     0.0000   732.0000 </r>
       <r>    14.4694     0.0000   732.0000 </r>
       <r>    14.7081     0.0000   732.0000 </r>
       <r>    14.9467     0.0000   732.0000 </r>
       <r>    15.1854     0.0000   732.0000 </r>
       <r>    15.4241     0.0000   732.0000 </r>
       <r>    15.6627     0.0000   732.0000 </r>
       <r>    15.9014     0.0000   732.0000 </r>
       <r>    16.1401     0.0000   732.0000 </r>
       <r>    16.3787     0.0000   732.0000 </r>
       <r>    16.6174     0.0000   732.0000 </r>
       <r>    16.8561     0.0000   732.0000 </r>
      </set>
     </set>
    </array>
   </total>
  </dos>
 </calculation>
 <structure name="finalpos" >
  <crystal>
   <varray name="basis" >
    <v>      15.42482202       0.00000000       0.00000000 </v>
    <v>       0.00000000      11.21024242       0.00000000 </v>
    <v>       0.00000000       0.00000000      11.27702698 </v>
   </varray>
   <i name="volume">   1949.97833107 </i>
   <varray name="rec_basis" >
    <v>       0.06483057       0.00000000       0.00000000 </v>
    <v>       0.00000000       0.08920414       0.00000000 </v>
    <v>       0.00000000       0.00000000       0.08867585 </v>
   </varray>
  </crystal>
  <varray name="positions" >
   <v>       0.12500000       0.25000000       0.46751010 </v>
   <v>       0.62500000       0.25000000       0.46751010 </v>
   <v>       0.12500000       0.75000000       0.46751010 </v>
   <v>       0.62500000       0.75000000       0.46751010 </v>
   <v>       0.12500000       0.25000000       0.96751010 </v>
   <v>       0.62500000       0.25000000       0.96751010 </v>
   <v>       0.12500000       0.75000000       0.96751010 </v>
   <v>       0.62500000       0.75000000       0.96751010 </v>
   <v>       0.12500000       0.00000000       0.28248990 </v>
   <v>       0.62500000       0.00000000       0.28248990 </v>
   <v>       0.12500000       0.50000000       0.28248990 </v>
   <v>       0.62500000       0.50000000       0.28248990 </v>
   <v>       0.12500000       0.00000000       0.78248990 </v>
   <v>       0.62500000       0.00000000       0.78248990 </v>
   <v>       0.12500000       0.50000000       0.78248990 </v>
   <v>       0.62500000       0.50000000       0.78248990 </v>
   <v>       0.37500000       0.25000000       0.03248990 </v>
   <v>       0.87500000       0.25000000       0.03248990 </v>
   <v>       0.37500000       0.75000000       0.03248990 </v>
   <v>       0.87500000       0.75000000       0.03248990 </v>
   <v>       0.37500000       0.25000000       0.53248990 </v>
   <v>       0.87500000       0.25000000       0.53248990 </v>
   <v>       0.37500000       0.75000000       0.53248990 </v>
   <v>       0.87500000       0.75000000       0.53248990 </v>
   <v>       0.37500000       0.00000000       0.21751010 </v>
   <v>       0.87500000       0.00000000       0.21751010 </v>
   <v>       0.37500000       0.50000000       0.21751010 </v>
   <v>       0.87500000       0.50000000       0.21751010 </v>
   <v>       0.37500000       0.00000000       0.71751010 </v>
   <v>       0.87500000       0.00000000       0.71751010 </v>
   <v>       0.37500000       0.50000000       0.71751010 </v>
   <v>       0.87500000       0.50000000       0.71751010 </v>
   <v>       0.26924068       0.37500000       0.37588676 </v>
   <v>       0.76924068       0.37500000       0.37500000 </v>
   <v>       0.26924068       0.87500000       0.37500000 </v>
   <v>       0.76924068       0.87500000       0.37500000 </v>
   <v>       0.26924068       0.37500000       0.87500000 </v>
   <v>       0.76924068       0.37500000       0.87500000 </v>
   <v>       0.26924068       0.87500000       0.87500000 </v>
   <v>       0.76924068       0.87500000       0.87500000 </v>
   <v>       0.23075932       0.12500000       0.12500000 </v>
   <v>       0.73075932       0.12500000       0.12500000 </v>
   <v>       0.23075932       0.62500000       0.12500000 </v>
   <v>       0.73075932       0.62500000       0.12500000 </v>
   <v>       0.23075932       0.12500000       0.62500000 </v>
   <v>       0.73075932       0.12500000       0.62500000 </v>
   <v>       0.23075932       0.62500000       0.62500000 </v>
   <v>       0.73075932       0.62500000       0.62500000 </v>
   <v>       0.01924068       0.37500000       0.12500000 </v>
   <v>       0.51924068       0.37500000       0.12500000 </v>
   <v>       0.01924068       0.87500000       0.12500000 </v>
   <v>       0.51924068       0.87500000       0.12500000 </v>
   <v>       0.01924068       0.37500000       0.62500000 </v>
   <v>       0.51924068       0.37500000       0.62500000 </v>
   <v>       0.01924068       0.87500000       0.62500000 </v>
   <v>       0.51924068       0.87500000       0.62500000 </v>
   <v>       0.48075932       0.12500000       0.37500000 </v>
   <v>       0.98075932       0.12500000       0.37500000 </v>
   <v>       0.48075932       0.62500000       0.37500000 </v>
   <v>       0.98075932       0.62500000       0.37500000 </v>
   <v>       0.48075932       0.12500000       0.87500000 </v>
   <v>       0.98075932       0.12500000       0.87500000 </v>
   <v>       0.48075932       0.62500000       0.87500000 </v>
   <v>       0.98075932       0.62500000       0.87500000 </v>
   <v>       0.48606648       0.37500000       0.37500000 </v>
   <v>       0.98606648       0.37500000       0.37500000 </v>
   <v>       0.48606648       0.87500000       0.37500000 </v>
   <v>       0.98606648       0.87500000       0.37500000 </v>
   <v>       0.48606648       0.37500000       0.87500000 </v>
   <v>       0.98606648       0.37500000       0.87500000 </v>
   <v>       0.48606648       0.87500000       0.87500000 </v>
   <v>       0.98606648       0.87500000       0.87500000 </v>
   <v>       0.01393352       0.12500000       0.12500000 </v>
   <v>       0.51393352       0.12500000       0.12500000 </v>
   <v>       0.01393352       0.62500000       0.12500000 </v>
   <v>       0.51393352       0.62500000       0.12500000 </v>
   <v>       0.01393352       0.12500000       0.62500000 </v>
   <v>       0.51393352       0.12500000       0.62500000 </v>
   <v>       0.01393352       0.62500000       0.62500000 </v>
   <v>       0.51393352       0.62500000       0.62500000 </v>
   <v>       0.23606648       0.37500000       0.12500000 </v>
   <v>       0.73606648       0.37500000       0.12500000 </v>
   <v>       0.23606648       0.87500000       0.12500000 </v>
   <v>       0.73606648       0.87500000       0.12500000 </v>
   <v>       0.23606648       0.37500000       0.62500000 </v>
   <v>       0.73606648       0.37500000       0.62500000 </v>
   <v>       0.23606648       0.87500000       0.62500000 </v>
   <v>       0.73606648       0.87500000       0.62500000 </v>
   <v>       0.26393352       0.12500000       0.37500000 </v>
   <v>       0.76393352       0.12500000       0.37500000 </v>
   <v>       0.26393352       0.62500000       0.37500000 </v>
   <v>       0.76393352       0.62500000       0.37500000 </v>
   <v>       0.26393352       0.12500000       0.87500000 </v>
   <v>       0.76393352       0.12500000       0.87500000 </v>
   <v>       0.26393352       0.62500000       0.87500000 </v>
   <v>       0.76393352       0.62500000       0.87500000 </v>
   <v>       0.12500000       0.00000000       0.50106053 </v>
   <v>       0.62500000       0.00000000       0.50106053 </v>
   <v>       0.12500000       0.50000000       0.50106053 </v>
   <v>       0.62500000       0.50000000       0.50106053 </v>
   <v>       0.12500000       0.00000000       0.00106053 </v>
   <v>       0.62500000       0.00000000       0.00106053 </v>
   <v>       0.12500000       0.50000000       0.00106053 </v>
   <v>       0.62500000       0.50000000       0.00106053 </v>
   <v>       0.12500000       0.25000000       0.24893947 </v>
   <v>       0.62500000       0.25000000       0.24893947 </v>
   <v>       0.12500000       0.75000000       0.24893947 </v>
   <v>       0.62500000       0.75000000       0.24893947 </v>
   <v>       0.12500000       0.25000000       0.74893947 </v>
   <v>       0.62500000       0.25000000       0.74893947 </v>
   <v>       0.12500000       0.75000000       0.74893947 </v>
   <v>       0.62500000       0.75000000       0.74893947 </v>
   <v>       0.37500000       0.00000000       0.99893947 </v>
   <v>       0.87500000       0.00000000       0.99893947 </v>
   <v>       0.37500000       0.50000000       0.99893947 </v>
   <v>       0.87500000       0.50000000       0.99893947 </v>
   <v>       0.37500000       0.00000000       0.49893947 </v>
   <v>       0.87500000       0.00000000       0.49893947 </v>
   <v>       0.37500000       0.50000000       0.49893947 </v>
   <v>       0.87500000       0.50000000       0.49893947 </v>
   <v>       0.37500000       0.25000000       0.25106053 </v>
   <v>       0.87500000       0.25000000       0.25106053 </v>
   <v>       0.37500000       0.75000000       0.25106053 </v>
   <v>       0.87500000       0.75000000       0.25106053 </v>
   <v>       0.37500000       0.25000000       0.75106053 </v>
   <v>       0.87500000       0.25000000       0.75106053 </v>
   <v>       0.37500000       0.75000000       0.75106053 </v>
   <v>       0.87500000       0.75000000       0.75106053 </v>
   <v>       0.00000000       0.25000000       0.00000000 </v>
   <v>       0.50000000       0.25000000       0.00000000 </v>
   <v>       0.00000000       0.75000000       0.00000000 </v>
   <v>       0.50000000       0.75000000       0.00000000 </v>
   <v>       0.00000000       0.25000000       0.50000000 </v>
   <v>       0.50000000       0.25000000       0.50000000 </v>
   <v>       0.00000000       0.75000000       0.50000000 </v>
   <v>       0.50000000       0.75000000       0.50000000 </v>
   <v>       0.00000000       0.00000000       0.25000000 </v>
   <v>       0.50000000       0.00000000       0.25000000 </v>
   <v>       0.00000000       0.50000000       0.25000000 </v>
   <v>       0.50000000       0.50000000       0.25000000 </v>
   <v>       0.00000000       0.00000000       0.75000000 </v>
   <v>       0.50000000       0.00000000       0.75000000 </v>
   <v>       0.00000000       0.50000000       0.75000000 </v>
   <v>       0.50000000       0.50000000       0.75000000 </v>
   <v>       0.25000000       0.25000000       0.00000000 </v>
   <v>       0.75000000       0.25000000       0.00000000 </v>
   <v>       0.25000000       0.75000000       0.00000000 </v>
   <v>       0.75000000       0.75000000       0.00000000 </v>
   <v>       0.25000000       0.25000000       0.50000000 </v>
   <v>       0.75000000       0.25000000       0.50000000 </v>
   <v>       0.25000000       0.75000000       0.50000000 </v>
   <v>       0.75000000       0.75000000       0.50000000 </v>
   <v>       0.25000000       0.00000000       0.25000000 </v>
   <v>       0.75000000       0.00000000       0.25000000 </v>
   <v>       0.25000000       0.50000000       0.25000000 </v>
   <v>       0.75000000       0.50000000       0.25000000 </v>
   <v>       0.25000000       0.00000000       0.75000000 </v>
   <v>       0.75000000       0.00000000       0.75000000 </v>
   <v>       0.25000000       0.50000000       0.75000000 </v>
   <v>       0.75000000       0.50000000       0.75000000 </v>
  </varray>
 </structure>
</modeling>
