  88  88   0   0
  0.1431748E+02  0.1111223E-08  0.1111745E-08  0.1056954E-08  0.5000000E-15
  1.000000000000000E-004
  CAR 
 unknown system                          
     17.90047243    -54.33921098  301      5.19832810      1.00000000
    -54.339  0.0000E+00  0.0000E+00  0.0000E+00  0.0000E+00
    -54.098  0.0000E+00  0.0000E+00  0.0000E+00  0.0000E+00
    -53.858  0.0000E+00  0.0000E+00  0.0000E+00  0.0000E+00
    -53.617  0.0000E+00  0.0000E+00  0.0000E+00  0.0000E+00
    -53.376  0.0000E+00  0.0000E+00  0.0000E+00  0.0000E+00
    -53.135  0.0000E+00  0.0000E+00  0.0000E+00  0.0000E+00
    -52.894  0.0000E+00  0.0000E+00  0.0000E+00  0.0000E+00
    -52.654  0.0000E+00  0.0000E+00  0.0000E+00  0.0000E+00
    -52.413  0.0000E+00  0.0000E+00  0.0000E+00  0.0000E+00
    -52.172  0.0000E+00  0.0000E+00  0.0000E+00  0.0000E+00
    -51.931  0.0000E+00  0.0000E+00  0.0000E+00  0.0000E+00
    -51.690  0.0000E+00  0.0000E+00  0.0000E+00  0.0000E+00
    -51.450  0.0000E+00  0.0000E+00  0.0000E+00  0.0000E+00
    -51.209  0.4385E-03  0.0000E+00  0.1056E-03  0.0000E+00
    -50.968  0.1311E+03  0.0000E+00  0.3157E+02  0.0000E+00
    -50.727  0.1790E+01  0.0000E+00  0.3200E+02  0.0000E+00
    -50.486  0.0000E+00  0.0000E+00  0.3200E+02  0.0000E+00
    -50.246  0.0000E+00  0.0000E+00  0.3200E+02  0.0000E+00
    -50.005  0.0000E+00  0.0000E+00  0.3200E+02  0.0000E+00
    -49.764  0.2080E+01  0.0000E+00  0.3250E+02  0.0000E+00
    -49.523  0.2375E+03  0.0000E+00  0.8969E+02  0.0000E+00
    -49.282  0.2619E+02  0.0000E+00  0.9600E+02  0.0000E+00
    -49.042  0.0000E+00  0.0000E+00  0.9600E+02  0.0000E+00
    -48.801  0.0000E+00  0.0000E+00  0.9600E+02  0.0000E+00
    -48.560  0.0000E+00  0.0000E+00  0.9600E+02  0.0000E+00
    -48.319  0.0000E+00  0.0000E+00  0.9600E+02  0.0000E+00
    -48.078  0.0000E+00  0.0000E+00  0.9600E+02  0.0000E+00
    -47.838  0.0000E+00  0.0000E+00  0.9600E+02  0.0000E+00
    -47.597  0.0000E+00  0.0000E+00  0.9600E+02  0.0000E+00
    -47.356  0.0000E+00  0.0000E+00  0.9600E+02  0.0000E+00
    -47.115  0.0000E+00  0.0000E+00  0.9600E+02  0.0000E+00
    -46.874  0.0000E+00  0.0000E+00  0.9600E+02  0.0000E+00
    -46.634  0.0000E+00  0.0000E+00  0.9600E+02  0.0000E+00
    -46.393  0.0000E+00  0.3907E+00  0.9600E+02  0.9407E-01
    -46.152  0.0000E+00  0.1325E+03  0.9600E+02  0.3199E+02
    -45.911  0.0000E+00  0.6099E+02  0.9600E+02  0.4668E+02
    -45.670  0.0000E+00  0.2048E+03  0.9600E+02  0.9600E+02
    -45.430  0.0000E+00  0.0000E+00  0.9600E+02  0.9600E+02
    -45.189  0.0000E+00  0.0000E+00  0.9600E+02  0.9600E+02
    -44.948  0.0000E+00  0.0000E+00  0.9600E+02  0.9600E+02
    -44.707  0.0000E+00  0.0000E+00  0.9600E+02  0.9600E+02
    -44.466  0.0000E+00  0.0000E+00  0.9600E+02  0.9600E+02
    -44.226  0.0000E+00  0.0000E+00  0.9600E+02  0.9600E+02
    -43.985  0.0000E+00  0.0000E+00  0.9600E+02  0.9600E+02
    -43.744  0.0000E+00  0.0000E+00  0.9600E+02  0.9600E+02
    -43.503  0.0000E+00  0.0000E+00  0.9600E+02  0.9600E+02
    -43.262  0.0000E+00  0.0000E+00  0.9600E+02  0.9600E+02
    -43.022  0.0000E+00  0.0000E+00  0.9600E+02  0.9600E+02
    -42.781  0.0000E+00  0.0000E+00  0.9600E+02  0.9600E+02
    -42.540  0.0000E+00  0.0000E+00  0.9600E+02  0.9600E+02
    -42.299  0.0000E+00  0.0000E+00  0.9600E+02  0.9600E+02
    -42.058  0.0000E+00  0.0000E+00  0.9600E+02  0.9600E+02
    -41.818  0.0000E+00  0.0000E+00  0.9600E+02  0.9600E+02
    -41.577  0.0000E+00  0.0000E+00  0.9600E+02  0.9600E+02
    -41.336  0.0000E+00  0.0000E+00  0.9600E+02  0.9600E+02
    -41.095  0.0000E+00  0.0000E+00  0.9600E+02  0.9600E+02
    -40.854  0.0000E+00  0.0000E+00  0.9600E+02  0.9600E+02
    -40.614  0.0000E+00  0.0000E+00  0.9600E+02  0.9600E+02
    -40.373  0.0000E+00  0.0000E+00  0.9600E+02  0.9600E+02
    -40.132  0.1572E-11  0.9946E-12  0.9600E+02  0.9600E+02
    -39.891  0.1546E+02  0.1427E+02  0.9972E+02  0.9944E+02
    -39.650  0.5099E+02  0.5217E+02  0.1120E+03  0.1120E+03
    -39.410  0.0000E+00  0.0000E+00  0.1120E+03  0.1120E+03
    -39.169  0.0000E+00  0.0000E+00  0.1120E+03  0.1120E+03
    -38.928  0.0000E+00  0.0000E+00  0.1120E+03  0.1120E+03
    -38.687  0.0000E+00  0.0000E+00  0.1120E+03  0.1120E+03
    -38.446  0.0000E+00  0.0000E+00  0.1120E+03  0.1120E+03
    -38.206  0.0000E+00  0.0000E+00  0.1120E+03  0.1120E+03
    -37.965  0.0000E+00  0.0000E+00  0.1120E+03  0.1120E+03
    -37.724  0.0000E+00  0.0000E+00  0.1120E+03  0.1120E+03
    -37.483  0.0000E+00  0.0000E+00  0.1120E+03  0.1120E+03
    -37.242  0.0000E+00  0.0000E+00  0.1120E+03  0.1120E+03
    -37.002  0.0000E+00  0.0000E+00  0.1120E+03  0.1120E+03
    -36.761  0.0000E+00  0.0000E+00  0.1120E+03  0.1120E+03
    -36.520  0.0000E+00  0.0000E+00  0.1120E+03  0.1120E+03
    -36.279  0.0000E+00  0.0000E+00  0.1120E+03  0.1120E+03
    -36.038  0.0000E+00  0.0000E+00  0.1120E+03  0.1120E+03
    -35.798  0.0000E+00  0.0000E+00  0.1120E+03  0.1120E+03
    -35.557  0.0000E+00  0.0000E+00  0.1120E+03  0.1120E+03
    -35.316  0.0000E+00  0.0000E+00  0.1120E+03  0.1120E+03
    -35.075  0.0000E+00  0.0000E+00  0.1120E+03  0.1120E+03
    -34.834  0.0000E+00  0.0000E+00  0.1120E+03  0.1120E+03
    -34.594  0.0000E+00  0.0000E+00  0.1120E+03  0.1120E+03
    -34.353  0.0000E+00  0.0000E+00  0.1120E+03  0.1120E+03
    -34.112  0.0000E+00  0.0000E+00  0.1120E+03  0.1120E+03
    -33.871  0.0000E+00  0.0000E+00  0.1120E+03  0.1120E+03
    -33.631  0.0000E+00  0.0000E+00  0.1120E+03  0.1120E+03
    -33.390  0.0000E+00  0.0000E+00  0.1120E+03  0.1120E+03
    -33.149  0.0000E+00  0.0000E+00  0.1120E+03  0.1120E+03
    -32.908  0.0000E+00  0.0000E+00  0.1120E+03  0.1120E+03
    -32.667  0.0000E+00  0.0000E+00  0.1120E+03  0.1120E+03
    -32.427  0.0000E+00  0.0000E+00  0.1120E+03  0.1120E+03
    -32.186  0.0000E+00  0.0000E+00  0.1120E+03  0.1120E+03
    -31.945  0.0000E+00  0.0000E+00  0.1120E+03  0.1120E+03
    -31.704  0.0000E+00  0.0000E+00  0.1120E+03  0.1120E+03
    -31.463  0.0000E+00  0.0000E+00  0.1120E+03  0.1120E+03
    -31.223  0.0000E+00  0.0000E+00  0.1120E+03  0.1120E+03
    -30.982  0.0000E+00  0.0000E+00  0.1120E+03  0.1120E+03
    -30.741  0.0000E+00  0.0000E+00  0.1120E+03  0.1120E+03
    -30.500  0.0000E+00  0.0000E+00  0.1120E+03  0.1120E+03
    -30.259  0.0000E+00  0.0000E+00  0.1120E+03  0.1120E+03
    -30.019  0.0000E+00  0.0000E+00  0.1120E+03  0.1120E+03
    -29.778  0.0000E+00  0.0000E+00  0.1120E+03  0.1120E+03
    -29.537  0.0000E+00  0.0000E+00  0.1120E+03  0.1120E+03
    -29.296  0.0000E+00  0.0000E+00  0.1120E+03  0.1120E+03
    -29.055  0.0000E+00  0.0000E+00  0.1120E+03  0.1120E+03
    -28.815  0.0000E+00  0.0000E+00  0.1120E+03  0.1120E+03
    -28.574  0.0000E+00  0.0000E+00  0.1120E+03  0.1120E+03
    -28.333  0.0000E+00  0.0000E+00  0.1120E+03  0.1120E+03
    -28.092  0.0000E+00  0.0000E+00  0.1120E+03  0.1120E+03
    -27.851  0.0000E+00  0.0000E+00  0.1120E+03  0.1120E+03
    -27.611  0.0000E+00  0.0000E+00  0.1120E+03  0.1120E+03
    -27.370  0.0000E+00  0.0000E+00  0.1120E+03  0.1120E+03
    -27.129  0.0000E+00  0.0000E+00  0.1120E+03  0.1120E+03
    -26.888  0.0000E+00  0.0000E+00  0.1120E+03  0.1120E+03
    -26.647  0.0000E+00  0.0000E+00  0.1120E+03  0.1120E+03
    -26.407  0.0000E+00  0.0000E+00  0.1120E+03  0.1120E+03
    -26.166  0.0000E+00  0.0000E+00  0.1120E+03  0.1120E+03
    -25.925  0.0000E+00  0.0000E+00  0.1120E+03  0.1120E+03
    -25.684  0.0000E+00  0.0000E+00  0.1120E+03  0.1120E+03
    -25.443  0.0000E+00  0.0000E+00  0.1120E+03  0.1120E+03
    -25.203  0.0000E+00  0.0000E+00  0.1120E+03  0.1120E+03
    -24.962  0.0000E+00  0.0000E+00  0.1120E+03  0.1120E+03
    -24.721  0.0000E+00  0.0000E+00  0.1120E+03  0.1120E+03
    -24.480  0.0000E+00  0.0000E+00  0.1120E+03  0.1120E+03
    -24.239  0.0000E+00  0.0000E+00  0.1120E+03  0.1120E+03
    -23.999  0.0000E+00  0.0000E+00  0.1120E+03  0.1120E+03
    -23.758  0.0000E+00  0.0000E+00  0.1120E+03  0.1120E+03
    -23.517  0.0000E+00  0.0000E+00  0.1120E+03  0.1120E+03
    -23.276  0.0000E+00  0.0000E+00  0.1120E+03  0.1120E+03
    -23.035  0.0000E+00  0.0000E+00  0.1120E+03  0.1120E+03
    -22.795  0.0000E+00  0.0000E+00  0.1120E+03  0.1120E+03
    -22.554  0.0000E+00  0.0000E+00  0.1120E+03  0.1120E+03
    -22.313  0.0000E+00  0.0000E+00  0.1120E+03  0.1120E+03
    -22.072  0.0000E+00  0.0000E+00  0.1120E+03  0.1120E+03
    -21.831  0.0000E+00  0.0000E+00  0.1120E+03  0.1120E+03
    -21.591  0.0000E+00  0.0000E+00  0.1120E+03  0.1120E+03
    -21.350  0.0000E+00  0.0000E+00  0.1120E+03  0.1120E+03
    -21.109  0.0000E+00  0.0000E+00  0.1120E+03  0.1120E+03
    -20.868  0.0000E+00  0.0000E+00  0.1120E+03  0.1120E+03
    -20.627  0.0000E+00  0.0000E+00  0.1120E+03  0.1120E+03
    -20.387  0.0000E+00  0.0000E+00  0.1120E+03  0.1120E+03
    -20.146  0.0000E+00  0.0000E+00  0.1120E+03  0.1120E+03
    -19.905  0.0000E+00  0.0000E+00  0.1120E+03  0.1120E+03
    -19.664  0.0000E+00  0.0000E+00  0.1120E+03  0.1120E+03
    -19.423  0.0000E+00  0.0000E+00  0.1120E+03  0.1120E+03
    -19.183  0.0000E+00  0.0000E+00  0.1120E+03  0.1120E+03
    -18.942  0.0000E+00  0.0000E+00  0.1120E+03  0.1120E+03
    -18.701  0.0000E+00  0.0000E+00  0.1120E+03  0.1120E+03
    -18.460  0.0000E+00  0.0000E+00  0.1120E+03  0.1120E+03
    -18.219  0.0000E+00  0.0000E+00  0.1120E+03  0.1120E+03
    -17.979  0.0000E+00  0.0000E+00  0.1120E+03  0.1120E+03
    -17.738  0.0000E+00  0.0000E+00  0.1120E+03  0.1120E+03
    -17.497  0.0000E+00  0.0000E+00  0.1120E+03  0.1120E+03
    -17.256  0.0000E+00  0.0000E+00  0.1120E+03  0.1120E+03
    -17.015  0.0000E+00  0.0000E+00  0.1120E+03  0.1120E+03
    -16.775  0.0000E+00  0.0000E+00  0.1120E+03  0.1120E+03
    -16.534  0.0000E+00  0.0000E+00  0.1120E+03  0.1120E+03
    -16.293  0.0000E+00  0.0000E+00  0.1120E+03  0.1120E+03
    -16.052  0.0000E+00  0.0000E+00  0.1120E+03  0.1120E+03
    -15.811  0.0000E+00  0.0000E+00  0.1120E+03  0.1120E+03
    -15.571  0.0000E+00  0.0000E+00  0.1120E+03  0.1120E+03
    -15.330  0.0000E+00  0.0000E+00  0.1120E+03  0.1120E+03
    -15.089  0.0000E+00  0.0000E+00  0.1120E+03  0.1120E+03
    -14.848  0.0000E+00  0.0000E+00  0.1120E+03  0.1120E+03
    -14.607  0.0000E+00  0.0000E+00  0.1120E+03  0.1120E+03
    -14.367  0.0000E+00  0.0000E+00  0.1120E+03  0.1120E+03
    -14.126  0.0000E+00  0.0000E+00  0.1120E+03  0.1120E+03
    -13.885  0.0000E+00  0.0000E+00  0.1120E+03  0.1120E+03
    -13.644  0.0000E+00  0.0000E+00  0.1120E+03  0.1120E+03
    -13.403  0.4489E-06  0.0000E+00  0.1120E+03  0.1120E+03
    -13.163  0.1846E+02  0.0000E+00  0.1164E+03  0.1120E+03
    -12.922  0.4642E+02  0.6231E-02  0.1276E+03  0.1120E+03
    -12.681  0.1564E+01  0.4171E+02  0.1280E+03  0.1220E+03
    -12.440  0.0000E+00  0.2473E+02  0.1280E+03  0.1280E+03
    -12.199  0.0000E+00  0.3461E-05  0.1280E+03  0.1280E+03
    -11.959  0.0000E+00  0.0000E+00  0.1280E+03  0.1280E+03
    -11.718  0.0000E+00  0.0000E+00  0.1280E+03  0.1280E+03
    -11.477  0.0000E+00  0.0000E+00  0.1280E+03  0.1280E+03
    -11.236  0.0000E+00  0.0000E+00  0.1280E+03  0.1280E+03
    -10.995  0.0000E+00  0.0000E+00  0.1280E+03  0.1280E+03
    -10.755  0.0000E+00  0.0000E+00  0.1280E+03  0.1280E+03
    -10.514  0.0000E+00  0.0000E+00  0.1280E+03  0.1280E+03
    -10.273  0.0000E+00  0.0000E+00  0.1280E+03  0.1280E+03
    -10.032  0.0000E+00  0.0000E+00  0.1280E+03  0.1280E+03
     -9.791  0.0000E+00  0.0000E+00  0.1280E+03  0.1280E+03
     -9.551  0.0000E+00  0.0000E+00  0.1280E+03  0.1280E+03
     -9.310  0.0000E+00  0.0000E+00  0.1280E+03  0.1280E+03
     -9.069  0.0000E+00  0.0000E+00  0.1280E+03  0.1280E+03
     -8.828  0.0000E+00  0.0000E+00  0.1280E+03  0.1280E+03
     -8.587  0.0000E+00  0.0000E+00  0.1280E+03  0.1280E+03
     -8.347  0.0000E+00  0.0000E+00  0.1280E+03  0.1280E+03
     -8.106  0.0000E+00  0.0000E+00  0.1280E+03  0.1280E+03
     -7.865  0.4114E-10  0.0000E+00  0.1280E+03  0.1280E+03
     -7.624  0.5185E+00  0.7119E-11  0.1281E+03  0.1280E+03
     -7.383  0.1233E+02  0.4528E+00  0.1311E+03  0.1281E+03
     -7.143  0.3025E+02  0.1355E+02  0.1384E+03  0.1314E+03
     -6.902  0.3355E+02  0.2951E+02  0.1465E+03  0.1385E+03
     -6.661  0.2302E+02  0.2575E+02  0.1520E+03  0.1447E+03
     -6.420  0.3824E-04  0.3034E+02  0.1520E+03  0.1520E+03
     -6.179  0.0000E+00  0.6910E-01  0.1520E+03  0.1520E+03
     -5.939  0.0000E+00  0.0000E+00  0.1520E+03  0.1520E+03
     -5.698  0.0000E+00  0.0000E+00  0.1520E+03  0.1520E+03
     -5.457  0.0000E+00  0.0000E+00  0.1520E+03  0.1520E+03
     -5.216  0.0000E+00  0.0000E+00  0.1520E+03  0.1520E+03
     -4.975  0.0000E+00  0.0000E+00  0.1520E+03  0.1520E+03
     -4.735  0.0000E+00  0.0000E+00  0.1520E+03  0.1520E+03
     -4.494  0.0000E+00  0.0000E+00  0.1520E+03  0.1520E+03
     -4.253  0.0000E+00  0.0000E+00  0.1520E+03  0.1520E+03
     -4.012  0.0000E+00  0.0000E+00  0.1520E+03  0.1520E+03
     -3.771  0.0000E+00  0.0000E+00  0.1520E+03  0.1520E+03
     -3.531  0.0000E+00  0.0000E+00  0.1520E+03  0.1520E+03
     -3.290  0.0000E+00  0.0000E+00  0.1520E+03  0.1520E+03
     -3.049  0.0000E+00  0.0000E+00  0.1520E+03  0.1520E+03
     -2.808  0.0000E+00  0.0000E+00  0.1520E+03  0.1520E+03
     -2.567  0.0000E+00  0.0000E+00  0.1520E+03  0.1520E+03
     -2.327  0.0000E+00  0.0000E+00  0.1520E+03  0.1520E+03
     -2.086  0.1494E-04  0.0000E+00  0.1520E+03  0.1520E+03
     -1.845  0.1550E+02  0.0000E+00  0.1557E+03  0.1520E+03
     -1.604  0.1972E+02  0.0000E+00  0.1605E+03  0.1520E+03
     -1.363  0.1495E+02  0.0000E+00  0.1641E+03  0.1520E+03
     -1.123  0.1701E+02  0.0000E+00  0.1682E+03  0.1520E+03
     -0.882  0.4530E+02  0.0000E+00  0.1791E+03  0.1520E+03
     -0.641  0.5890E+02  0.5106E-06  0.1933E+03  0.1520E+03
     -0.400  0.3872E+02  0.3866E+01  0.2026E+03  0.1529E+03
     -0.159  0.6748E+02  0.2035E+02  0.2188E+03  0.1578E+03
      0.081  0.7394E+02  0.1224E+02  0.2366E+03  0.1608E+03
      0.322  0.7752E+02  0.1834E+02  0.2553E+03  0.1652E+03
      0.563  0.6970E+02  0.2945E+02  0.2721E+03  0.1723E+03
      0.804  0.5636E+02  0.3908E+02  0.2857E+03  0.1817E+03
      1.045  0.3650E+02  0.3733E+02  0.2945E+03  0.1907E+03
      1.285  0.3046E+02  0.3150E+02  0.3018E+03  0.1983E+03
      1.526  0.4506E+02  0.2067E+02  0.3126E+03  0.2032E+03
      1.767  0.4174E+02  0.2908E+02  0.3227E+03  0.2103E+03
      2.008  0.6868E+02  0.3656E+02  0.3392E+03  0.2191E+03
      2.249  0.5888E+02  0.2805E+02  0.3534E+03  0.2258E+03
      2.489  0.2665E+02  0.2695E+02  0.3598E+03  0.2323E+03
      2.730  0.4251E+02  0.3027E+02  0.3701E+03  0.2396E+03
      2.971  0.3087E+02  0.4417E+02  0.3775E+03  0.2502E+03
      3.212  0.8624E+01  0.4558E+02  0.3796E+03  0.2612E+03
      3.453  0.2736E+02  0.3283E+02  0.3862E+03  0.2691E+03
      3.693  0.2756E+02  0.1268E+02  0.3928E+03  0.2722E+03
      3.934  0.3072E+02  0.1719E+02  0.4002E+03  0.2763E+03
      4.175  0.3593E+02  0.5281E+02  0.4088E+03  0.2890E+03
      4.416  0.3633E+02  0.4443E+02  0.4176E+03  0.2997E+03
      4.657  0.3044E+02  0.1781E+02  0.4249E+03  0.3040E+03
      4.897  0.2590E+02  0.7563E-02  0.4312E+03  0.3040E+03
      5.138  0.3486E+01  0.0000E+00  0.4320E+03  0.3040E+03
      5.379  0.0000E+00  0.0000E+00  0.4320E+03  0.3040E+03
      5.620  0.0000E+00  0.0000E+00  0.4320E+03  0.3040E+03
      5.861  0.0000E+00  0.0000E+00  0.4320E+03  0.3040E+03
      6.101  0.0000E+00  0.1504E-09  0.4320E+03  0.3040E+03
      6.342  0.0000E+00  0.3670E+00  0.4320E+03  0.3041E+03
      6.583  0.0000E+00  0.4182E+01  0.4320E+03  0.3051E+03
      6.824  0.0000E+00  0.7727E+01  0.4320E+03  0.3070E+03
      7.065  0.2220E-15  0.1879E+02  0.4320E+03  0.3115E+03
      7.305  0.2146E-01  0.4383E+02  0.4320E+03  0.3220E+03
      7.546  0.1324E+00  0.5299E+02  0.4320E+03  0.3348E+03
      7.787  0.2161E+00  0.6357E+02  0.4321E+03  0.3501E+03
      8.028  0.7499E+00  0.6553E+02  0.4323E+03  0.3659E+03
      8.269  0.2033E+01  0.6984E+02  0.4328E+03  0.3827E+03
      8.509  0.2635E+01  0.5977E+02  0.4334E+03  0.3971E+03
      8.750  0.8821E+01  0.5851E+02  0.4355E+03  0.4112E+03
      8.991  0.1233E+02  0.4846E+02  0.4385E+03  0.4229E+03
      9.232  0.1308E+02  0.3045E+02  0.4416E+03  0.4302E+03
      9.473  0.1801E+02  0.9144E+01  0.4460E+03  0.4324E+03
      9.713  0.1636E+02  0.2911E+01  0.4499E+03  0.4331E+03
      9.954  0.1566E+02  0.8273E+01  0.4537E+03  0.4351E+03
     10.195  0.2249E+02  0.1850E+02  0.4591E+03  0.4395E+03
     10.436  0.1483E+02  0.1799E+02  0.4627E+03  0.4439E+03
     10.677  0.1540E+02  0.1711E+02  0.4664E+03  0.4480E+03
     10.917  0.1309E+02  0.2757E+02  0.4695E+03  0.4546E+03
     11.158  0.2055E+02  0.1900E+02  0.4745E+03  0.4592E+03
     11.399  0.2453E+02  0.2386E+02  0.4804E+03  0.4649E+03
     11.640  0.2747E+02  0.1513E+02  0.4870E+03  0.4686E+03
     11.880  0.2434E+02  0.1372E+02  0.4929E+03  0.4719E+03
     12.121  0.3379E+02  0.1583E+02  0.5010E+03  0.4757E+03
     12.362  0.1996E+02  0.3632E+02  0.5058E+03  0.4845E+03
     12.603  0.2301E+02  0.3282E+02  0.5113E+03  0.4924E+03
     12.844  0.2137E+02  0.3025E+02  0.5165E+03  0.4996E+03
     13.084  0.2050E+02  0.2033E+02  0.5214E+03  0.5045E+03
     13.325  0.2351E+02  0.2190E+02  0.5271E+03  0.5098E+03
     13.566  0.2469E+02  0.2722E+02  0.5330E+03  0.5164E+03
     13.807  0.1363E+02  0.2373E+02  0.5363E+03  0.5221E+03
     14.048  0.6987E+01  0.2637E+02  0.5380E+03  0.5284E+03
     14.288  0.4122E-02  0.1940E+02  0.5380E+03  0.5331E+03
     14.529  0.0000E+00  0.1702E+02  0.5380E+03  0.5372E+03
     14.770  0.0000E+00  0.3337E+01  0.5380E+03  0.5380E+03
     15.011  0.0000E+00  0.2250E-05  0.5380E+03  0.5380E+03
     15.252  0.0000E+00  0.0000E+00  0.5380E+03  0.5380E+03
     15.492  0.0000E+00  0.0000E+00  0.5380E+03  0.5380E+03
     15.733  0.0000E+00  0.0000E+00  0.5380E+03  0.5380E+03
     15.974  0.0000E+00  0.0000E+00  0.5380E+03  0.5380E+03
     16.215  0.0000E+00  0.0000E+00  0.5380E+03  0.5380E+03
     16.456  0.0000E+00  0.0000E+00  0.5380E+03  0.5380E+03
     16.696  0.0000E+00  0.0000E+00  0.5380E+03  0.5380E+03
     16.937  0.0000E+00  0.0000E+00  0.5380E+03  0.5380E+03
     17.178  0.0000E+00  0.0000E+00  0.5380E+03  0.5380E+03
     17.419  0.0000E+00  0.0000E+00  0.5380E+03  0.5380E+03
     17.660  0.0000E+00  0.0000E+00  0.5380E+03  0.5380E+03
     17.900  0.0000E+00  0.0000E+00  0.5380E+03  0.5380E+03
