 224 224   0   0
  0.1357572E+02  0.1537960E-08  0.1537962E-08  0.1395899E-08  0.5000000E-15
  1.000000000000000E-004
  CAR 
 unknown system                          
     17.69575584    -54.42101963  301      5.25561207      1.00000000
    -54.421  0.0000E+00  0.0000E+00  0.0000E+00  0.0000E+00
    -54.181  0.0000E+00  0.0000E+00  0.0000E+00  0.0000E+00
    -53.940  0.0000E+00  0.0000E+00  0.0000E+00  0.0000E+00
    -53.700  0.0000E+00  0.0000E+00  0.0000E+00  0.0000E+00
    -53.459  0.0000E+00  0.0000E+00  0.0000E+00  0.0000E+00
    -53.219  0.0000E+00  0.0000E+00  0.0000E+00  0.0000E+00
    -52.979  0.0000E+00  0.0000E+00  0.0000E+00  0.0000E+00
    -52.738  0.0000E+00  0.0000E+00  0.0000E+00  0.0000E+00
    -52.498  0.0000E+00  0.0000E+00  0.0000E+00  0.0000E+00
    -52.258  0.0000E+00  0.0000E+00  0.0000E+00  0.0000E+00
    -52.017  0.0000E+00  0.0000E+00  0.0000E+00  0.0000E+00
    -51.777  0.0000E+00  0.0000E+00  0.0000E+00  0.0000E+00
    -51.536  0.0000E+00  0.0000E+00  0.0000E+00  0.0000E+00
    -51.296  0.1442E-02  0.0000E+00  0.3467E-03  0.0000E+00
    -51.056  0.2640E+03  0.0000E+00  0.6347E+02  0.0000E+00
    -50.815  0.2202E+01  0.0000E+00  0.6400E+02  0.0000E+00
    -50.575  0.0000E+00  0.0000E+00  0.6400E+02  0.0000E+00
    -50.334  0.0000E+00  0.0000E+00  0.6400E+02  0.0000E+00
    -50.094  0.0000E+00  0.0000E+00  0.6400E+02  0.0000E+00
    -49.854  0.1105E-05  0.0000E+00  0.6400E+02  0.0000E+00
    -49.613  0.4367E+03  0.0000E+00  0.1690E+03  0.0000E+00
    -49.373  0.9582E+02  0.0000E+00  0.1920E+03  0.0000E+00
    -49.132  0.0000E+00  0.0000E+00  0.1920E+03  0.0000E+00
    -48.892  0.0000E+00  0.0000E+00  0.1920E+03  0.0000E+00
    -48.652  0.0000E+00  0.0000E+00  0.1920E+03  0.0000E+00
    -48.411  0.0000E+00  0.0000E+00  0.1920E+03  0.0000E+00
    -48.171  0.0000E+00  0.0000E+00  0.1920E+03  0.0000E+00
    -47.931  0.0000E+00  0.0000E+00  0.1920E+03  0.0000E+00
    -47.690  0.0000E+00  0.0000E+00  0.1920E+03  0.0000E+00
    -47.450  0.0000E+00  0.0000E+00  0.1920E+03  0.0000E+00
    -47.209  0.0000E+00  0.0000E+00  0.1920E+03  0.0000E+00
    -46.969  0.0000E+00  0.0000E+00  0.1920E+03  0.0000E+00
    -46.729  0.0000E+00  0.0000E+00  0.1920E+03  0.0000E+00
    -46.488  0.0000E+00  0.6872E+00  0.1920E+03  0.1652E+00
    -46.248  0.0000E+00  0.2655E+03  0.1920E+03  0.6400E+02
    -46.007  0.0000E+00  0.6248E+01  0.1920E+03  0.6550E+02
    -45.767  0.0000E+00  0.5262E+03  0.1920E+03  0.1920E+03
    -45.527  0.0000E+00  0.6475E-03  0.1920E+03  0.1920E+03
    -45.286  0.0000E+00  0.0000E+00  0.1920E+03  0.1920E+03
    -45.046  0.0000E+00  0.0000E+00  0.1920E+03  0.1920E+03
    -44.805  0.0000E+00  0.0000E+00  0.1920E+03  0.1920E+03
    -44.565  0.0000E+00  0.0000E+00  0.1920E+03  0.1920E+03
    -44.325  0.0000E+00  0.0000E+00  0.1920E+03  0.1920E+03
    -44.084  0.0000E+00  0.0000E+00  0.1920E+03  0.1920E+03
    -43.844  0.0000E+00  0.0000E+00  0.1920E+03  0.1920E+03
    -43.604  0.0000E+00  0.0000E+00  0.1920E+03  0.1920E+03
    -43.363  0.0000E+00  0.0000E+00  0.1920E+03  0.1920E+03
    -43.123  0.0000E+00  0.0000E+00  0.1920E+03  0.1920E+03
    -42.882  0.0000E+00  0.0000E+00  0.1920E+03  0.1920E+03
    -42.642  0.0000E+00  0.0000E+00  0.1920E+03  0.1920E+03
    -42.402  0.0000E+00  0.0000E+00  0.1920E+03  0.1920E+03
    -42.161  0.0000E+00  0.0000E+00  0.1920E+03  0.1920E+03
    -41.921  0.0000E+00  0.0000E+00  0.1920E+03  0.1920E+03
    -41.680  0.0000E+00  0.0000E+00  0.1920E+03  0.1920E+03
    -41.440  0.0000E+00  0.0000E+00  0.1920E+03  0.1920E+03
    -41.200  0.0000E+00  0.0000E+00  0.1920E+03  0.1920E+03
    -40.959  0.0000E+00  0.0000E+00  0.1920E+03  0.1920E+03
    -40.719  0.0000E+00  0.0000E+00  0.1920E+03  0.1920E+03
    -40.478  0.0000E+00  0.0000E+00  0.1920E+03  0.1920E+03
    -40.238  0.0000E+00  0.0000E+00  0.1920E+03  0.1920E+03
    -39.998  0.0000E+00  0.0000E+00  0.1920E+03  0.1920E+03
    -39.757  0.1986E-01  0.1810E-01  0.1920E+03  0.1920E+03
    -39.517  0.2652E+03  0.2651E+03  0.2557E+03  0.2557E+03
    -39.276  0.1047E+01  0.1111E+01  0.2560E+03  0.2560E+03
    -39.036  0.0000E+00  0.0000E+00  0.2560E+03  0.2560E+03
    -38.796  0.0000E+00  0.0000E+00  0.2560E+03  0.2560E+03
    -38.555  0.0000E+00  0.0000E+00  0.2560E+03  0.2560E+03
    -38.315  0.0000E+00  0.0000E+00  0.2560E+03  0.2560E+03
    -38.075  0.0000E+00  0.0000E+00  0.2560E+03  0.2560E+03
    -37.834  0.0000E+00  0.0000E+00  0.2560E+03  0.2560E+03
    -37.594  0.0000E+00  0.0000E+00  0.2560E+03  0.2560E+03
    -37.353  0.0000E+00  0.0000E+00  0.2560E+03  0.2560E+03
    -37.113  0.0000E+00  0.0000E+00  0.2560E+03  0.2560E+03
    -36.873  0.0000E+00  0.0000E+00  0.2560E+03  0.2560E+03
    -36.632  0.0000E+00  0.0000E+00  0.2560E+03  0.2560E+03
    -36.392  0.0000E+00  0.0000E+00  0.2560E+03  0.2560E+03
    -36.151  0.0000E+00  0.0000E+00  0.2560E+03  0.2560E+03
    -35.911  0.0000E+00  0.0000E+00  0.2560E+03  0.2560E+03
    -35.671  0.0000E+00  0.0000E+00  0.2560E+03  0.2560E+03
    -35.430  0.0000E+00  0.0000E+00  0.2560E+03  0.2560E+03
    -35.190  0.0000E+00  0.0000E+00  0.2560E+03  0.2560E+03
    -34.949  0.0000E+00  0.0000E+00  0.2560E+03  0.2560E+03
    -34.709  0.0000E+00  0.0000E+00  0.2560E+03  0.2560E+03
    -34.469  0.0000E+00  0.0000E+00  0.2560E+03  0.2560E+03
    -34.228  0.0000E+00  0.0000E+00  0.2560E+03  0.2560E+03
    -33.988  0.0000E+00  0.0000E+00  0.2560E+03  0.2560E+03
    -33.748  0.0000E+00  0.0000E+00  0.2560E+03  0.2560E+03
    -33.507  0.0000E+00  0.0000E+00  0.2560E+03  0.2560E+03
    -33.267  0.0000E+00  0.0000E+00  0.2560E+03  0.2560E+03
    -33.026  0.0000E+00  0.0000E+00  0.2560E+03  0.2560E+03
    -32.786  0.0000E+00  0.0000E+00  0.2560E+03  0.2560E+03
    -32.546  0.0000E+00  0.0000E+00  0.2560E+03  0.2560E+03
    -32.305  0.0000E+00  0.0000E+00  0.2560E+03  0.2560E+03
    -32.065  0.0000E+00  0.0000E+00  0.2560E+03  0.2560E+03
    -31.824  0.0000E+00  0.0000E+00  0.2560E+03  0.2560E+03
    -31.584  0.0000E+00  0.0000E+00  0.2560E+03  0.2560E+03
    -31.344  0.0000E+00  0.0000E+00  0.2560E+03  0.2560E+03
    -31.103  0.0000E+00  0.0000E+00  0.2560E+03  0.2560E+03
    -30.863  0.0000E+00  0.0000E+00  0.2560E+03  0.2560E+03
    -30.622  0.0000E+00  0.0000E+00  0.2560E+03  0.2560E+03
    -30.382  0.0000E+00  0.0000E+00  0.2560E+03  0.2560E+03
    -30.142  0.0000E+00  0.0000E+00  0.2560E+03  0.2560E+03
    -29.901  0.0000E+00  0.0000E+00  0.2560E+03  0.2560E+03
    -29.661  0.0000E+00  0.0000E+00  0.2560E+03  0.2560E+03
    -29.421  0.0000E+00  0.0000E+00  0.2560E+03  0.2560E+03
    -29.180  0.0000E+00  0.0000E+00  0.2560E+03  0.2560E+03
    -28.940  0.0000E+00  0.0000E+00  0.2560E+03  0.2560E+03
    -28.699  0.0000E+00  0.0000E+00  0.2560E+03  0.2560E+03
    -28.459  0.0000E+00  0.0000E+00  0.2560E+03  0.2560E+03
    -28.219  0.0000E+00  0.0000E+00  0.2560E+03  0.2560E+03
    -27.978  0.0000E+00  0.0000E+00  0.2560E+03  0.2560E+03
    -27.738  0.0000E+00  0.0000E+00  0.2560E+03  0.2560E+03
    -27.497  0.0000E+00  0.0000E+00  0.2560E+03  0.2560E+03
    -27.257  0.0000E+00  0.0000E+00  0.2560E+03  0.2560E+03
    -27.017  0.0000E+00  0.0000E+00  0.2560E+03  0.2560E+03
    -26.776  0.0000E+00  0.0000E+00  0.2560E+03  0.2560E+03
    -26.536  0.0000E+00  0.0000E+00  0.2560E+03  0.2560E+03
    -26.295  0.0000E+00  0.0000E+00  0.2560E+03  0.2560E+03
    -26.055  0.0000E+00  0.0000E+00  0.2560E+03  0.2560E+03
    -25.815  0.0000E+00  0.0000E+00  0.2560E+03  0.2560E+03
    -25.574  0.0000E+00  0.0000E+00  0.2560E+03  0.2560E+03
    -25.334  0.0000E+00  0.0000E+00  0.2560E+03  0.2560E+03
    -25.094  0.0000E+00  0.0000E+00  0.2560E+03  0.2560E+03
    -24.853  0.0000E+00  0.0000E+00  0.2560E+03  0.2560E+03
    -24.613  0.0000E+00  0.0000E+00  0.2560E+03  0.2560E+03
    -24.372  0.0000E+00  0.0000E+00  0.2560E+03  0.2560E+03
    -24.132  0.0000E+00  0.0000E+00  0.2560E+03  0.2560E+03
    -23.892  0.0000E+00  0.0000E+00  0.2560E+03  0.2560E+03
    -23.651  0.0000E+00  0.0000E+00  0.2560E+03  0.2560E+03
    -23.411  0.0000E+00  0.0000E+00  0.2560E+03  0.2560E+03
    -23.170  0.0000E+00  0.0000E+00  0.2560E+03  0.2560E+03
    -22.930  0.0000E+00  0.0000E+00  0.2560E+03  0.2560E+03
    -22.690  0.0000E+00  0.0000E+00  0.2560E+03  0.2560E+03
    -22.449  0.0000E+00  0.0000E+00  0.2560E+03  0.2560E+03
    -22.209  0.0000E+00  0.0000E+00  0.2560E+03  0.2560E+03
    -21.968  0.0000E+00  0.0000E+00  0.2560E+03  0.2560E+03
    -21.728  0.0000E+00  0.0000E+00  0.2560E+03  0.2560E+03
    -21.488  0.0000E+00  0.0000E+00  0.2560E+03  0.2560E+03
    -21.247  0.0000E+00  0.0000E+00  0.2560E+03  0.2560E+03
    -21.007  0.0000E+00  0.0000E+00  0.2560E+03  0.2560E+03
    -20.767  0.0000E+00  0.0000E+00  0.2560E+03  0.2560E+03
    -20.526  0.0000E+00  0.0000E+00  0.2560E+03  0.2560E+03
    -20.286  0.0000E+00  0.0000E+00  0.2560E+03  0.2560E+03
    -20.045  0.0000E+00  0.0000E+00  0.2560E+03  0.2560E+03
    -19.805  0.0000E+00  0.0000E+00  0.2560E+03  0.2560E+03
    -19.565  0.0000E+00  0.0000E+00  0.2560E+03  0.2560E+03
    -19.324  0.0000E+00  0.0000E+00  0.2560E+03  0.2560E+03
    -19.084  0.0000E+00  0.0000E+00  0.2560E+03  0.2560E+03
    -18.843  0.0000E+00  0.0000E+00  0.2560E+03  0.2560E+03
    -18.603  0.0000E+00  0.0000E+00  0.2560E+03  0.2560E+03
    -18.363  0.0000E+00  0.0000E+00  0.2560E+03  0.2560E+03
    -18.122  0.0000E+00  0.0000E+00  0.2560E+03  0.2560E+03
    -17.882  0.0000E+00  0.0000E+00  0.2560E+03  0.2560E+03
    -17.641  0.0000E+00  0.0000E+00  0.2560E+03  0.2560E+03
    -17.401  0.0000E+00  0.0000E+00  0.2560E+03  0.2560E+03
    -17.161  0.0000E+00  0.0000E+00  0.2560E+03  0.2560E+03
    -16.920  0.0000E+00  0.0000E+00  0.2560E+03  0.2560E+03
    -16.680  0.0000E+00  0.0000E+00  0.2560E+03  0.2560E+03
    -16.440  0.0000E+00  0.0000E+00  0.2560E+03  0.2560E+03
    -16.199  0.0000E+00  0.0000E+00  0.2560E+03  0.2560E+03
    -15.959  0.0000E+00  0.0000E+00  0.2560E+03  0.2560E+03
    -15.718  0.0000E+00  0.0000E+00  0.2560E+03  0.2560E+03
    -15.478  0.0000E+00  0.0000E+00  0.2560E+03  0.2560E+03
    -15.238  0.0000E+00  0.0000E+00  0.2560E+03  0.2560E+03
    -14.997  0.0000E+00  0.0000E+00  0.2560E+03  0.2560E+03
    -14.757  0.0000E+00  0.0000E+00  0.2560E+03  0.2560E+03
    -14.516  0.0000E+00  0.0000E+00  0.2560E+03  0.2560E+03
    -14.276  0.0000E+00  0.0000E+00  0.2560E+03  0.2560E+03
    -14.036  0.0000E+00  0.0000E+00  0.2560E+03  0.2560E+03
    -13.795  0.0000E+00  0.0000E+00  0.2560E+03  0.2560E+03
    -13.555  0.0000E+00  0.0000E+00  0.2560E+03  0.2560E+03
    -13.314  0.0000E+00  0.0000E+00  0.2560E+03  0.2560E+03
    -13.074  0.0000E+00  0.0000E+00  0.2560E+03  0.2560E+03
    -12.834  0.7344E-01  0.0000E+00  0.2560E+03  0.2560E+03
    -12.593  0.1320E+03  0.1408E-02  0.2877E+03  0.2560E+03
    -12.353  0.1083E+01  0.1234E+03  0.2880E+03  0.2857E+03
    -12.113  0.0000E+00  0.9727E+01  0.2880E+03  0.2880E+03
    -11.872  0.0000E+00  0.0000E+00  0.2880E+03  0.2880E+03
    -11.632  0.0000E+00  0.0000E+00  0.2880E+03  0.2880E+03
    -11.391  0.0000E+00  0.0000E+00  0.2880E+03  0.2880E+03
    -11.151  0.0000E+00  0.0000E+00  0.2880E+03  0.2880E+03
    -10.911  0.0000E+00  0.0000E+00  0.2880E+03  0.2880E+03
    -10.670  0.0000E+00  0.0000E+00  0.2880E+03  0.2880E+03
    -10.430  0.0000E+00  0.0000E+00  0.2880E+03  0.2880E+03
    -10.189  0.0000E+00  0.0000E+00  0.2880E+03  0.2880E+03
     -9.949  0.0000E+00  0.0000E+00  0.2880E+03  0.2880E+03
     -9.709  0.0000E+00  0.0000E+00  0.2880E+03  0.2880E+03
     -9.468  0.0000E+00  0.0000E+00  0.2880E+03  0.2880E+03
     -9.228  0.0000E+00  0.0000E+00  0.2880E+03  0.2880E+03
     -8.987  0.0000E+00  0.0000E+00  0.2880E+03  0.2880E+03
     -8.747  0.0000E+00  0.0000E+00  0.2880E+03  0.2880E+03
     -8.507  0.0000E+00  0.0000E+00  0.2880E+03  0.2880E+03
     -8.266  0.0000E+00  0.0000E+00  0.2880E+03  0.2880E+03
     -8.026  0.4419E-10  0.0000E+00  0.2880E+03  0.2880E+03
     -7.786  0.9117E+00  0.3615E-07  0.2882E+03  0.2880E+03
     -7.545  0.1877E+02  0.2803E+01  0.2927E+03  0.2887E+03
     -7.305  0.2812E+02  0.2227E+02  0.2995E+03  0.2940E+03
     -7.064  0.5355E+02  0.3099E+02  0.3124E+03  0.3015E+03
     -6.824  0.1469E+03  0.4885E+02  0.3477E+03  0.3132E+03
     -6.584  0.1799E+02  0.1389E+03  0.3520E+03  0.3466E+03
     -6.343  0.0000E+00  0.2243E+02  0.3520E+03  0.3520E+03
     -6.103  0.0000E+00  0.1279E-04  0.3520E+03  0.3520E+03
     -5.862  0.0000E+00  0.0000E+00  0.3520E+03  0.3520E+03
     -5.622  0.0000E+00  0.0000E+00  0.3520E+03  0.3520E+03
     -5.382  0.0000E+00  0.0000E+00  0.3520E+03  0.3520E+03
     -5.141  0.0000E+00  0.0000E+00  0.3520E+03  0.3520E+03
     -4.901  0.0000E+00  0.0000E+00  0.3520E+03  0.3520E+03
     -4.660  0.0000E+00  0.0000E+00  0.3520E+03  0.3520E+03
     -4.420  0.0000E+00  0.0000E+00  0.3520E+03  0.3520E+03
     -4.180  0.0000E+00  0.0000E+00  0.3520E+03  0.3520E+03
     -3.939  0.0000E+00  0.0000E+00  0.3520E+03  0.3520E+03
     -3.699  0.0000E+00  0.0000E+00  0.3520E+03  0.3520E+03
     -3.458  0.0000E+00  0.0000E+00  0.3520E+03  0.3520E+03
     -3.218  0.0000E+00  0.0000E+00  0.3520E+03  0.3520E+03
     -2.978  0.0000E+00  0.0000E+00  0.3520E+03  0.3520E+03
     -2.737  0.0000E+00  0.0000E+00  0.3520E+03  0.3520E+03
     -2.497  0.0000E+00  0.0000E+00  0.3520E+03  0.3520E+03
     -2.257  0.0000E+00  0.0000E+00  0.3520E+03  0.3520E+03
     -2.016  0.0000E+00  0.0000E+00  0.3520E+03  0.3520E+03
     -1.776  0.4090E-12  0.0000E+00  0.3520E+03  0.3520E+03
     -1.535  0.1190E+01  0.0000E+00  0.3523E+03  0.3520E+03
     -1.295  0.9953E+02  0.0000E+00  0.3762E+03  0.3520E+03
     -1.055  0.3240E+02  0.0000E+00  0.3840E+03  0.3520E+03
     -0.814  0.1231E+02  0.0000E+00  0.3870E+03  0.3520E+03
     -0.574  0.8904E+02  0.6869E-05  0.4084E+03  0.3520E+03
     -0.333  0.2230E+03  0.3988E+01  0.4620E+03  0.3530E+03
     -0.093  0.2020E+03  0.2473E+02  0.5105E+03  0.3589E+03
      0.147  0.1769E+03  0.4093E+02  0.5531E+03  0.3687E+03
      0.388  0.1519E+03  0.4225E+02  0.5896E+03  0.3789E+03
      0.628  0.1201E+03  0.7178E+02  0.6185E+03  0.3962E+03
      0.869  0.5462E+02  0.6073E+02  0.6316E+03  0.4108E+03
      1.109  0.6928E+02  0.6514E+02  0.6482E+03  0.4264E+03
      1.349  0.7368E+02  0.6768E+02  0.6659E+03  0.4427E+03
      1.590  0.6800E+02  0.7765E+02  0.6823E+03  0.4613E+03
      1.830  0.1101E+03  0.1108E+03  0.7088E+03  0.4880E+03
      2.070  0.2137E+03  0.6268E+02  0.7601E+03  0.5031E+03
      2.311  0.1401E+03  0.3766E+02  0.7938E+03  0.5121E+03
      2.551  0.8464E+02  0.7727E+02  0.8142E+03  0.5307E+03
      2.792  0.6880E+02  0.1039E+03  0.8307E+03  0.5557E+03
      3.032  0.3540E+02  0.7079E+02  0.8392E+03  0.5727E+03
      3.272  0.4029E+02  0.1311E+03  0.8489E+03  0.6042E+03
      3.513  0.5194E+02  0.1179E+03  0.8614E+03  0.6325E+03
      3.753  0.6739E+02  0.2515E+02  0.8776E+03  0.6386E+03
      3.994  0.7944E+02  0.4363E+02  0.8967E+03  0.6490E+03
      4.234  0.8013E+02  0.1784E+03  0.9159E+03  0.6919E+03
      4.474  0.7599E+02  0.4846E+02  0.9342E+03  0.7036E+03
      4.715  0.2873E+02  0.1712E+01  0.9411E+03  0.7040E+03
      4.955  0.6471E+02  0.0000E+00  0.9567E+03  0.7040E+03
      5.196  0.1389E+02  0.0000E+00  0.9600E+03  0.7040E+03
      5.436  0.0000E+00  0.0000E+00  0.9600E+03  0.7040E+03
      5.676  0.0000E+00  0.0000E+00  0.9600E+03  0.7040E+03
      5.917  0.0000E+00  0.0000E+00  0.9600E+03  0.7040E+03
      6.157  0.0000E+00  0.7118E-07  0.9600E+03  0.7040E+03
      6.397  0.0000E+00  0.1023E+01  0.9600E+03  0.7042E+03
      6.638  0.0000E+00  0.1008E+02  0.9600E+03  0.7067E+03
      6.878  0.0000E+00  0.2633E+02  0.9600E+03  0.7130E+03
      7.119  0.2887E-16  0.6560E+02  0.9600E+03  0.7288E+03
      7.359  0.5360E-01  0.1112E+03  0.9600E+03  0.7555E+03
      7.599  0.1506E+01  0.1393E+03  0.9604E+03  0.7890E+03
      7.840  0.5044E+01  0.1183E+03  0.9616E+03  0.8174E+03
      8.080  0.7081E+01  0.1782E+03  0.9633E+03  0.8603E+03
      8.321  0.9311E+01  0.1465E+03  0.9655E+03  0.8955E+03
      8.561  0.1251E+02  0.6157E+02  0.9685E+03  0.9103E+03
      8.801  0.1430E+02  0.8266E+02  0.9720E+03  0.9302E+03
      9.042  0.2721E+02  0.7319E+02  0.9785E+03  0.9478E+03
      9.282  0.3338E+02  0.5737E+02  0.9865E+03  0.9615E+03
      9.523  0.3502E+02  0.2338E+02  0.9950E+03  0.9672E+03
      9.763  0.5353E+02  0.3405E+02  0.1008E+04  0.9754E+03
     10.003  0.5106E+02  0.2267E+02  0.1020E+04  0.9808E+03
     10.244  0.3416E+02  0.3854E+02  0.1028E+04  0.9901E+03
     10.484  0.2145E+02  0.4362E+02  0.1033E+04  0.1001E+04
     10.724  0.4556E+02  0.6079E+02  0.1044E+04  0.1015E+04
     10.965  0.3309E+02  0.4367E+02  0.1052E+04  0.1026E+04
     11.205  0.4330E+02  0.4024E+02  0.1063E+04  0.1035E+04
     11.446  0.7791E+02  0.3440E+02  0.1082E+04  0.1044E+04
     11.686  0.4307E+02  0.4377E+02  0.1092E+04  0.1054E+04
     11.926  0.6443E+02  0.5160E+02  0.1107E+04  0.1067E+04
     12.167  0.6665E+02  0.5770E+02  0.1123E+04  0.1080E+04
     12.407  0.6942E+02  0.5328E+02  0.1140E+04  0.1093E+04
     12.648  0.6083E+02  0.6677E+02  0.1155E+04  0.1109E+04
     12.888  0.5283E+02  0.7977E+02  0.1167E+04  0.1128E+04
     13.128  0.5874E+02  0.6485E+02  0.1182E+04  0.1144E+04
     13.369  0.4841E+02  0.6615E+02  0.1193E+04  0.1160E+04
     13.609  0.4031E+02  0.6476E+02  0.1203E+04  0.1175E+04
     13.850  0.1899E+02  0.5730E+02  0.1207E+04  0.1189E+04
     14.090  0.2506E+01  0.5331E+02  0.1208E+04  0.1202E+04
     14.330  0.0000E+00  0.2159E+02  0.1208E+04  0.1207E+04
     14.571  0.0000E+00  0.3012E+01  0.1208E+04  0.1208E+04
     14.811  0.0000E+00  0.3934E-05  0.1208E+04  0.1208E+04
     15.051  0.0000E+00  0.0000E+00  0.1208E+04  0.1208E+04
     15.292  0.0000E+00  0.0000E+00  0.1208E+04  0.1208E+04
     15.532  0.0000E+00  0.0000E+00  0.1208E+04  0.1208E+04
     15.773  0.0000E+00  0.0000E+00  0.1208E+04  0.1208E+04
     16.013  0.0000E+00  0.0000E+00  0.1208E+04  0.1208E+04
     16.253  0.0000E+00  0.0000E+00  0.1208E+04  0.1208E+04
     16.494  0.0000E+00  0.0000E+00  0.1208E+04  0.1208E+04
     16.734  0.0000E+00  0.0000E+00  0.1208E+04  0.1208E+04
     16.975  0.0000E+00  0.0000E+00  0.1208E+04  0.1208E+04
     17.215  0.0000E+00  0.0000E+00  0.1208E+04  0.1208E+04
     17.455  0.0000E+00  0.0000E+00  0.1208E+04  0.1208E+04
     17.696  0.0000E+00  0.0000E+00  0.1208E+04  0.1208E+04
