  224  224    1    2
  0.1357572E+02  0.1537960E-08  0.1537962E-08  0.1395899E-08  0.5000000E-15
  1.000000000000000E-004
  CAR 
 unknown system                          
   1664      8   1208
 
  0.0000000E+00  0.0000000E+00  0.0000000E+00  0.1250000E+00
    1      -51.142983    -46.392243   1.000000   1.000000
    2      -51.142766    -46.391857   1.000000   1.000000
    3      -51.142573    -46.391605   1.000000   1.000000
    4      -51.142115    -46.391118   1.000000   1.000000
    5      -51.142011    -46.391002   1.000000   1.000000
    6      -51.141641    -46.390939   1.000000   1.000000
    7      -51.141428    -46.390642   1.000000   1.000000
    8      -51.141343    -46.390538   1.000000   1.000000
    9      -51.141247    -46.390514   1.000000   1.000000
   10      -51.141201    -46.390422   1.000000   1.000000
   11      -51.141178    -46.390322   1.000000   1.000000
   12      -51.141087    -46.390211   1.000000   1.000000
   13      -51.141028    -46.390180   1.000000   1.000000
   14      -51.141006    -46.390156   1.000000   1.000000
   15      -51.140964    -46.390069   1.000000   1.000000
   16      -51.140911    -46.389995   1.000000   1.000000
   17      -51.140880    -46.389950   1.000000   1.000000
   18      -51.140841    -46.389924   1.000000   1.000000
   19      -51.140788    -46.389839   1.000000   1.000000
   20      -51.140737    -46.389743   1.000000   1.000000
   21      -51.140702    -46.389692   1.000000   1.000000
   22      -51.140646    -46.389628   1.000000   1.000000
   23      -51.140587    -46.389603   1.000000   1.000000
   24      -51.140568    -46.389587   1.000000   1.000000
   25      -51.140555    -46.389535   1.000000   1.000000
   26      -51.140507    -46.389513   1.000000   1.000000
   27      -51.140483    -46.389476   1.000000   1.000000
   28      -51.140452    -46.389445   1.000000   1.000000
   29      -51.140433    -46.389389   1.000000   1.000000
   30      -51.140400    -46.389326   1.000000   1.000000
   31      -51.140352    -46.389252   1.000000   1.000000
   32      -51.140319    -46.389173   1.000000   1.000000
   33      -51.140293    -46.389162   1.000000   1.000000
   34      -51.140248    -46.389105   1.000000   1.000000
   35      -51.140226    -46.389064   1.000000   1.000000
   36      -51.140199    -46.389036   1.000000   1.000000
   37      -51.140156    -46.388967   1.000000   1.000000
   38      -51.140145    -46.388944   1.000000   1.000000
   39      -51.140126    -46.388892   1.000000   1.000000
   40      -51.140112    -46.388876   1.000000   1.000000
   41      -51.140053    -46.388817   1.000000   1.000000
   42      -51.140039    -46.388788   1.000000   1.000000
   43      -51.140001    -46.388781   1.000000   1.000000
   44      -51.139942    -46.388713   1.000000   1.000000
   45      -51.139886    -46.388697   1.000000   1.000000
   46      -51.139875    -46.388613   1.000000   1.000000
   47      -51.139835    -46.388578   1.000000   1.000000
   48      -51.139807    -46.388542   1.000000   1.000000
   49      -51.139759    -46.388507   1.000000   1.000000
   50      -51.139752    -46.388440   1.000000   1.000000
   51      -51.139736    -46.388405   1.000000   1.000000
   52      -51.139626    -46.388305   1.000000   1.000000
   53      -51.139590    -46.388203   1.000000   1.000000
   54      -51.139545    -46.388184   1.000000   1.000000
   55      -51.139496    -46.388134   1.000000   1.000000
   56      -51.139429    -46.388114   1.000000   1.000000
   57      -51.139348    -46.387936   1.000000   1.000000
   58      -51.139304    -46.387916   1.000000   1.000000
   59      -51.139099    -46.387703   1.000000   1.000000
   60      -51.138746    -46.387536   1.000000   1.000000
   61      -51.138538    -46.387368   1.000000   1.000000
   62      -51.138209    -46.386960   1.000000   1.000000
   63      -51.137998    -46.386702   1.000000   1.000000
   64      -51.137847    -46.386435   1.000000   1.000000
   65      -49.649237    -45.930760   1.000000   1.000000
   66      -49.649202    -45.930337   1.000000   1.000000
   67      -49.648681    -45.930057   1.000000   1.000000
   68      -49.648488    -45.929870   1.000000   1.000000
   69      -49.648225    -45.929636   1.000000   1.000000
   70      -49.647677    -45.929547   1.000000   1.000000
   71      -49.647646    -45.929260   1.000000   1.000000
   72      -49.647562    -45.929234   1.000000   1.000000
   73      -49.647543    -45.929216   1.000000   1.000000
   74      -49.647534    -45.929072   1.000000   1.000000
   75      -49.647457    -45.928858   1.000000   1.000000
   76      -49.647449    -45.928791   1.000000   1.000000
   77      -49.647413    -45.928769   1.000000   1.000000
   78      -49.647376    -45.928755   1.000000   1.000000
   79      -49.647344    -45.928729   1.000000   1.000000
   80      -49.647326    -45.928677   1.000000   1.000000
   81      -49.647277    -45.928651   1.000000   1.000000
   82      -49.647244    -45.928638   1.000000   1.000000
   83      -49.647216    -45.928616   1.000000   1.000000
   84      -49.647111    -45.928606   1.000000   1.000000
   85      -49.647067    -45.928592   1.000000   1.000000
   86      -49.647055    -45.928530   1.000000   1.000000
   87      -49.647034    -45.928489   1.000000   1.000000
   88      -49.646998    -45.928462   1.000000   1.000000
   89      -49.646977    -45.928359   1.000000   1.000000
   90      -49.646948    -45.928334   1.000000   1.000000
   91      -49.646918    -45.928312   1.000000   1.000000
   92      -49.646892    -45.928302   1.000000   1.000000
   93      -49.646844    -45.928264   1.000000   1.000000
   94      -49.646808    -45.928245   1.000000   1.000000
   95      -49.646787    -45.928199   1.000000   1.000000
   96      -49.646772    -45.928191   1.000000   1.000000
   97      -49.646758    -45.928164   1.000000   1.000000
   98      -49.646694    -45.928142   1.000000   1.000000
   99      -49.646682    -45.928097   1.000000   1.000000
  100      -49.646635    -45.928077   1.000000   1.000000
  101      -49.646589    -45.928047   1.000000   1.000000
  102      -49.646550    -45.927966   1.000000   1.000000
  103      -49.646516    -45.927945   1.000000   1.000000
  104      -49.646507    -45.927941   1.000000   1.000000
  105      -49.646480    -45.927912   1.000000   1.000000
  106      -49.646461    -45.927901   1.000000   1.000000
  107      -49.646347    -45.927854   1.000000   1.000000
  108      -49.646307    -45.927825   1.000000   1.000000
  109      -49.646251    -45.927726   1.000000   1.000000
  110      -49.646243    -45.927653   1.000000   1.000000
  111      -49.646153    -45.927627   1.000000   1.000000
  112      -49.646132    -45.927605   1.000000   1.000000
  113      -49.646098    -45.927528   1.000000   1.000000
  114      -49.646055    -45.927505   1.000000   1.000000
  115      -49.646023    -45.927440   1.000000   1.000000
  116      -49.646008    -45.927429   1.000000   1.000000
  117      -49.646002    -45.927408   1.000000   1.000000
  118      -49.645934    -45.927369   1.000000   1.000000
  119      -49.645932    -45.927353   1.000000   1.000000
  120      -49.645800    -45.927334   1.000000   1.000000
  121      -49.645779    -45.927312   1.000000   1.000000
  122      -49.645748    -45.927281   1.000000   1.000000
  123      -49.645732    -45.927254   1.000000   1.000000
  124      -49.645715    -45.927225   1.000000   1.000000
  125      -49.645699    -45.927214   1.000000   1.000000
  126      -49.645698    -45.927194   1.000000   1.000000
  127      -49.645676    -45.927168   1.000000   1.000000
  128      -49.645633    -45.927140   1.000000   1.000000
  129      -49.645582    -45.927127   1.000000   1.000000
  130      -49.645566    -45.927102   1.000000   1.000000
  131      -49.645470    -45.927096   1.000000   1.000000
  132      -49.645444    -45.927060   1.000000   1.000000
  133      -49.645438    -45.927038   1.000000   1.000000
  134      -49.645390    -45.926995   1.000000   1.000000
  135      -49.645361    -45.926964   1.000000   1.000000
  136      -49.645340    -45.926947   1.000000   1.000000
  137      -49.645320    -45.926944   1.000000   1.000000
  138      -49.645310    -45.926912   1.000000   1.000000
  139      -49.645269    -45.926878   1.000000   1.000000
  140      -49.645233    -45.926863   1.000000   1.000000
  141      -49.645208    -45.926825   1.000000   1.000000
  142      -49.645205    -45.926815   1.000000   1.000000
  143      -49.645195    -45.926763   1.000000   1.000000
  144      -49.645166    -45.926754   1.000000   1.000000
  145      -49.645086    -45.926646   1.000000   1.000000
  146      -49.645074    -45.926636   1.000000   1.000000
  147      -49.645068    -45.926614   1.000000   1.000000
  148      -49.645054    -45.926599   1.000000   1.000000
  149      -49.644982    -45.926576   1.000000   1.000000
  150      -49.644916    -45.926571   1.000000   1.000000
  151      -49.644880    -45.926532   1.000000   1.000000
  152      -49.644864    -45.926525   1.000000   1.000000
  153      -49.644855    -45.926495   1.000000   1.000000
  154      -49.644828    -45.926480   1.000000   1.000000
  155      -49.644819    -45.926469   1.000000   1.000000
  156      -49.644770    -45.926451   1.000000   1.000000
  157      -49.644760    -45.926433   1.000000   1.000000
  158      -49.644699    -45.926411   1.000000   1.000000
  159      -49.644644    -45.926405   1.000000   1.000000
  160      -49.644575    -45.926388   1.000000   1.000000
  161      -49.644573    -45.926355   1.000000   1.000000
  162      -49.644544    -45.926345   1.000000   1.000000
  163      -49.644501    -45.926328   1.000000   1.000000
  164      -49.644486    -45.926324   1.000000   1.000000
  165      -49.644379    -45.926283   1.000000   1.000000
  166      -49.644371    -45.926187   1.000000   1.000000
  167      -49.644350    -45.926173   1.000000   1.000000
  168      -49.644341    -45.926149   1.000000   1.000000
  169      -49.644313    -45.926108   1.000000   1.000000
  170      -49.644255    -45.926090   1.000000   1.000000
  171      -49.644245    -45.926036   1.000000   1.000000
  172      -49.644210    -45.926027   1.000000   1.000000
  173      -49.644173    -45.925979   1.000000   1.000000
  174      -49.644109    -45.925930   1.000000   1.000000
  175      -49.644068    -45.925911   1.000000   1.000000
  176      -49.644021    -45.925845   1.000000   1.000000
  177      -49.644016    -45.925799   1.000000   1.000000
  178      -49.644002    -45.925760   1.000000   1.000000
  179      -49.643964    -45.925686   1.000000   1.000000
  180      -49.643898    -45.925575   1.000000   1.000000
  181      -49.643872    -45.925561   1.000000   1.000000
  182      -49.643705    -45.925546   1.000000   1.000000
  183      -49.643689    -45.925517   1.000000   1.000000
  184      -49.643584    -45.925406   1.000000   1.000000
  185      -49.643548    -45.925308   1.000000   1.000000
  186      -49.643529    -45.925188   1.000000   1.000000
  187      -49.643434    -45.925006   1.000000   1.000000
  188      -49.643181    -45.924863   1.000000   1.000000
  189      -49.642810    -45.924625   1.000000   1.000000
  190      -49.642601    -45.924401   1.000000   1.000000
  191      -49.641920    -45.924280   1.000000   1.000000
  192      -49.641665    -45.924042   1.000000   1.000000
  193      -39.641187    -39.640272   1.000000   1.000000
  194      -39.641060    -39.640142   1.000000   1.000000
  195      -39.634084    -39.633217   1.000000   1.000000
  196      -39.633537    -39.632665   1.000000   1.000000
  197      -39.633468    -39.632596   1.000000   1.000000
  198      -39.633424    -39.632551   1.000000   1.000000
  199      -39.633417    -39.632544   1.000000   1.000000
  200      -39.633401    -39.632528   1.000000   1.000000
  201      -39.633338    -39.632465   1.000000   1.000000
  202      -39.632867    -39.631993   1.000000   1.000000
  203      -39.628101    -39.627267   1.000000   1.000000
  204      -39.627965    -39.627127   1.000000   1.000000
  205      -39.627819    -39.626980   1.000000   1.000000
  206      -39.627811    -39.626974   1.000000   1.000000
  207      -39.627715    -39.626879   1.000000   1.000000
  208      -39.627700    -39.626862   1.000000   1.000000
  209      -39.627522    -39.626683   1.000000   1.000000
  210      -39.627332    -39.626491   1.000000   1.000000
  211      -39.616981    -39.616220   1.000000   1.000000
  212      -39.616548    -39.615775   1.000000   1.000000
  213      -39.616061    -39.615284   1.000000   1.000000
  214      -39.616042    -39.615265   1.000000   1.000000
  215      -39.616040    -39.615264   1.000000   1.000000
  216      -39.615743    -39.614965   1.000000   1.000000
  217      -39.615646    -39.614870   1.000000   1.000000
  218      -39.615586    -39.614815   1.000000   1.000000
  219      -39.615577    -39.614797   1.000000   1.000000
  220      -39.615282    -39.614513   1.000000   1.000000
  221      -39.615260    -39.614492   1.000000   1.000000
  222      -39.615241    -39.614474   1.000000   1.000000
  223      -39.615229    -39.614462   1.000000   1.000000
  224      -39.615218    -39.614449   1.000000   1.000000
  225      -39.615135    -39.614366   1.000000   1.000000
  226      -39.615044    -39.614277   1.000000   1.000000
  227      -39.615037    -39.614270   1.000000   1.000000
  228      -39.615026    -39.614258   1.000000   1.000000
  229      -39.614955    -39.614186   1.000000   1.000000
  230      -39.614927    -39.614159   1.000000   1.000000
  231      -39.614915    -39.614147   1.000000   1.000000
  232      -39.614854    -39.614086   1.000000   1.000000
  233      -39.614753    -39.613985   1.000000   1.000000
  234      -39.614474    -39.613706   1.000000   1.000000
  235      -39.614258    -39.613499   1.000000   1.000000
  236      -39.614256    -39.613498   1.000000   1.000000
  237      -39.613685    -39.612923   1.000000   1.000000
  238      -39.613117    -39.612342   1.000000   1.000000
  239      -39.604287    -39.603570   1.000000   1.000000
  240      -39.603995    -39.603276   1.000000   1.000000
  241      -39.603894    -39.603175   1.000000   1.000000
  242      -39.603871    -39.603151   1.000000   1.000000
  243      -39.603772    -39.603053   1.000000   1.000000
  244      -39.603758    -39.603039   1.000000   1.000000
  245      -39.603629    -39.602909   1.000000   1.000000
  246      -39.603473    -39.602750   1.000000   1.000000
  247      -39.600042    -39.599338   1.000000   1.000000
  248      -39.599630    -39.598924   1.000000   1.000000
  249      -39.599563    -39.598857   1.000000   1.000000
  250      -39.599542    -39.598836   1.000000   1.000000
  251      -39.599524    -39.598818   1.000000   1.000000
  252      -39.599499    -39.598793   1.000000   1.000000
  253      -39.599367    -39.598661   1.000000   1.000000
  254      -39.598842    -39.598130   1.000000   1.000000
  255      -39.593293    -39.592611   1.000000   1.000000
  256      -39.593101    -39.592416   1.000000   1.000000
  257      -12.747205    -12.467735   1.000000   1.000000
  258      -12.747192    -12.467721   1.000000   1.000000
  259      -12.719650    -12.439901   1.000000   1.000000
  260      -12.719411    -12.439647   1.000000   1.000000
  261      -12.719347    -12.439595   1.000000   1.000000
  262      -12.719344    -12.439587   1.000000   1.000000
  263      -12.719315    -12.439564   1.000000   1.000000
  264      -12.719303    -12.439552   1.000000   1.000000
  265      -12.719231    -12.439494   1.000000   1.000000
  266      -12.718989    -12.439235   1.000000   1.000000
  267      -12.697175    -12.417002   1.000000   1.000000
  268      -12.697170    -12.416997   1.000000   1.000000
  269      -12.694767    -12.415157   1.000000   1.000000
  270      -12.694761    -12.415153   1.000000   1.000000
  271      -12.694743    -12.415135   1.000000   1.000000
  272      -12.694741    -12.415132   1.000000   1.000000
  273      -12.692374    -12.413309   1.000000   1.000000
  274      -12.692348    -12.413300   1.000000   1.000000
  275      -12.691255    -12.411223   1.000000   1.000000
  276      -12.691253    -12.411221   1.000000   1.000000
  277      -12.691235    -12.411202   1.000000   1.000000
  278      -12.691145    -12.411130   1.000000   1.000000
  279      -12.672855    -12.392842   1.000000   1.000000
  280      -12.672689    -12.392664   1.000000   1.000000
  281      -12.672624    -12.392609   1.000000   1.000000
  282      -12.672464    -12.392458   1.000000   1.000000
  283      -12.667782    -12.388893   1.000000   1.000000
  284      -12.667620    -12.388720   1.000000   1.000000
  285      -12.667556    -12.388667   1.000000   1.000000
  286      -12.667391    -12.388506   1.000000   1.000000
  287      -12.654509    -12.374556   1.000000   1.000000
  288      -12.643735    -12.366010   1.000000   1.000000
  289       -7.800035     -7.599035   1.000000   1.000000
  290       -7.748243     -7.551521   1.000000   1.000000
  291       -7.506281     -7.319942   1.000000   1.000000
  292       -7.505378     -7.319126   1.000000   1.000000
  293       -7.505344     -7.319091   1.000000   1.000000
  294       -7.504699     -7.318386   1.000000   1.000000
  295       -7.501603     -7.309527   1.000000   1.000000
  296       -7.500967     -7.308824   1.000000   1.000000
  297       -7.500928     -7.308786   1.000000   1.000000
  298       -7.500048     -7.307977   1.000000   1.000000
  299       -7.315215     -7.117762   1.000000   1.000000
  300       -7.315151     -7.117683   1.000000   1.000000
  301       -7.296884     -7.093619   1.000000   1.000000
  302       -7.296830     -7.093547   1.000000   1.000000
  303       -7.296795     -7.093511   1.000000   1.000000
  304       -7.296745     -7.093450   1.000000   1.000000
  305       -7.269259     -7.061971   1.000000   1.000000
  306       -7.269187     -7.061882   1.000000   1.000000
  307       -7.088764     -6.893897   1.000000   1.000000
  308       -7.084683     -6.893865   1.000000   1.000000
  309       -7.084665     -6.893851   1.000000   1.000000
  310       -7.084648     -6.893798   1.000000   1.000000
  311       -7.084549     -6.796771   1.000000   1.000000
  312       -7.046589     -6.783863   1.000000   1.000000
  313       -7.001310     -6.768839   1.000000   1.000000
  314       -6.999973     -6.767981   1.000000   1.000000
  315       -6.999908     -6.767926   1.000000   1.000000
  316       -6.999785     -6.767880   1.000000   1.000000
  317       -6.999758     -6.766893   1.000000   1.000000
  318       -6.999740     -6.766218   1.000000   1.000000
  319       -6.999625     -6.766138   1.000000   1.000000
  320       -6.998497     -6.766093   1.000000   1.000000
  321       -6.994842     -6.766050   1.000000   1.000000
  322       -6.994183     -6.766036   1.000000   1.000000
  323       -6.994018     -6.765915   1.000000   1.000000
  324       -6.993360     -6.764480   1.000000   1.000000
  325       -6.955835     -6.745576   1.000000   1.000000
  326       -6.955788     -6.744890   1.000000   1.000000
  327       -6.955771     -6.744849   1.000000   1.000000
  328       -6.955725     -6.744084   1.000000   1.000000
  329       -6.948342     -6.697498   1.000000   1.000000
  330       -6.948260     -6.697475   1.000000   1.000000
  331       -6.929347     -6.689788   1.000000   1.000000
  332       -6.928648     -6.689083   1.000000   1.000000
  333       -6.928601     -6.689051   1.000000   1.000000
  334       -6.927811     -6.688281   1.000000   1.000000
  335       -6.911320     -6.640762   1.000000   1.000000
  336       -6.911281     -6.639697   1.000000   1.000000
  337       -6.885739     -6.639208   1.000000   1.000000
  338       -6.885727     -6.639064   1.000000   1.000000
  339       -6.885642     -6.639059   1.000000   1.000000
  340       -6.885639     -6.638999   1.000000   1.000000
  341       -6.878091     -6.638917   1.000000   1.000000
  342       -6.876958     -6.638597   1.000000   1.000000
  343       -6.876839     -6.638370   1.000000   1.000000
  344       -6.876798     -6.638363   1.000000   1.000000
  345       -6.876791     -6.637623   1.000000   1.000000
  346       -6.876681     -6.637048   1.000000   1.000000
  347       -6.876651     -6.628068   1.000000   1.000000
  348       -6.875240     -6.627882   1.000000   1.000000
  349       -6.832578     -6.586614   1.000000   1.000000
  350       -6.832547     -6.586592   1.000000   1.000000
  351       -6.794269     -6.499090   1.000000   1.000000
  352       -6.794205     -6.499047   1.000000   1.000000
  353       -1.525516     -0.414585   1.000000   1.000000
  354       -1.467847     -0.414574   1.000000   1.000000
  355       -1.467790     -0.414480   1.000000   1.000000
  356       -1.467621     -0.414419   1.000000   1.000000
  357       -1.467431      0.026201   1.000000   1.000000
  358       -1.460351      0.026289   1.000000   1.000000
  359       -1.460257      0.026349   1.000000   1.000000
  360       -1.460193      0.026607   1.000000   1.000000
  361       -1.460167      0.037458   1.000000   1.000000
  362       -1.421392      0.037854   1.000000   1.000000
  363       -1.421325      0.037970   1.000000   1.000000
  364       -1.382804      0.037998   1.000000   1.000000
  365       -1.382787      0.038107   1.000000   1.000000
  366       -1.382765      0.038232   1.000000   1.000000
  367       -1.382735      0.038292   1.000000   1.000000
  368       -1.332816      0.038547   1.000000   1.000000
  369       -1.332769      0.102887   1.000000   1.000000
  370       -1.332550      0.102927   1.000000   1.000000
  371       -1.332511      0.207534   1.000000   1.000000
  372       -1.332505      0.207541   1.000000   1.000000
  373       -1.332426      0.207557   1.000000   1.000000
  374       -1.332210      0.207567   1.000000   1.000000
  375       -1.332179      0.304169   1.000000   1.000000
  376       -1.292680      0.392447   1.000000   1.000000
  377       -1.292581      0.392507   1.000000   1.000000
  378       -1.292423      0.392621   1.000000   1.000000
  379       -1.292214      0.392813   1.000000   1.000000
  380       -1.256792      0.490884   1.000000   1.000000
  381       -1.256780      0.490906   1.000000   1.000000
  382       -1.232201      0.497365   1.000000   1.000000
  383       -1.232126      0.497660   1.000000   1.000000
  384       -1.220379      0.497723   1.000000   1.000000
  385       -0.822776      0.498036   1.000000   1.000000
  386       -0.822735      0.510646   1.000000   1.000000
  387       -0.822717      0.510696   1.000000   1.000000
  388       -0.822569      0.531179   1.000000   1.000000
  389       -0.722698      0.531228   1.000000   1.000000
  390       -0.722612      0.531273   1.000000   1.000000
  391       -0.699218      0.531296   1.000000   1.000000
  392       -0.699104      0.573471   1.000000   1.000000
  393       -0.698979      0.574207   1.000000   1.000000
  394       -0.698908      0.574303   1.000000   1.000000
  395       -0.688476      0.574362   1.000000   1.000000
  396       -0.688439      0.574395   1.000000   1.000000
  397       -0.688284      0.574436   1.000000   1.000000
  398       -0.688062      0.574592   1.000000   1.000000
  399       -0.666756      0.575355   1.000000   1.000000
  400       -0.666568      0.638619   1.000000   1.000000
  401       -0.666466      0.666298   1.000000   1.000000
  402       -0.666269      0.666345   1.000000   1.000000
  403       -0.652088      0.733088   1.000000   1.000000
  404       -0.651916      0.733111   1.000000   1.000000
  405       -0.651807      0.931377   1.000000   1.000000
  406       -0.651664      0.932543   1.000000   1.000000
  407       -0.589438      0.935592   1.000000   1.000000
  408       -0.589390      0.935651   1.000000   1.000000
  409       -0.576589      0.948795   1.000000   1.000000
  410       -0.576551      0.948907   1.000000   1.000000
  411       -0.576521      0.949017   1.000000   1.000000
  412       -0.576502      0.949087   1.000000   1.000000
  413       -0.553543      0.986136   1.000000   1.000000
  414       -0.553206      0.986192   1.000000   1.000000
  415       -0.553045      0.986227   1.000000   1.000000
  416       -0.552975      0.986267   1.000000   1.000000
  417       -0.497626      0.992787   1.000000   1.000000
  418       -0.496876      0.992987   1.000000   1.000000
  419       -0.472909      1.008873   1.000000   1.000000
  420       -0.472682      1.008941   1.000000   1.000000
  421       -0.461681      1.008955   1.000000   1.000000
  422       -0.461459      1.009013   1.000000   1.000000
  423       -0.461174      1.018473   1.000000   1.000000
  424       -0.461125      1.049065   1.000000   1.000000
  425       -0.459885      1.049116   1.000000   1.000000
  426       -0.459676      1.051611   1.000000   1.000000
  427       -0.459459      1.051632   1.000000   1.000000
  428       -0.459388      1.051823   1.000000   1.000000
  429       -0.410057      1.051909   1.000000   1.000000
  430       -0.409958      1.078629   1.000000   1.000000
  431       -0.407634      1.078719   1.000000   1.000000
  432       -0.407575      1.078849   1.000000   1.000000
  433       -0.407450      1.078952   1.000000   1.000000
  434       -0.407411      1.079830   1.000000   1.000000
  435       -0.407369      1.079872   1.000000   1.000000
  436       -0.407323      1.079894   1.000000   1.000000
  437       -0.383310      1.080088   1.000000   1.000000
  438       -0.383265      1.192855   1.000000   1.000000
  439       -0.378178      1.192881   1.000000   1.000000
  440       -0.369203      1.376464   1.000000   1.000000
  441       -0.368943      1.390371   1.000000   1.000000
  442       -0.368766      1.390912   1.000000   1.000000
  443       -0.368728      1.391285   1.000000   1.000000
  444       -0.368603      1.391341   1.000000   1.000000
  445       -0.368592      1.391444   1.000000   1.000000
  446       -0.368505      1.437315   1.000000   1.000000
  447       -0.368184      1.450210   1.000000   1.000000
  448       -0.353546      1.526322   1.000000   1.000000
  449       -0.353522      1.526390   1.000000   1.000000
  450       -0.349048      1.526446   1.000000   1.000000
  451       -0.341788      1.526513   1.000000   1.000000
  452       -0.335809      1.528929   1.000000   1.000000
  453       -0.335766      1.528955   1.000000   1.000000
  454       -0.335497      1.529011   1.000000   1.000000
  455       -0.335315      1.529059   1.000000   1.000000
  456       -0.334239      1.558261   1.000000   1.000000
  457       -0.334187      1.558294   1.000000   1.000000
  458       -0.334042      1.558321   1.000000   1.000000
  459       -0.334000      1.558386   1.000000   1.000000
  460       -0.324250      1.566439   1.000000   1.000000
  461       -0.324224      1.566661   1.000000   1.000000
  462       -0.323871      1.566902   1.000000   1.000000
  463       -0.323754      1.567165   1.000000   1.000000
  464       -0.321668      1.568035   1.000000   1.000000
  465       -0.321654      1.568196   1.000000   1.000000
  466       -0.321297      1.568432   1.000000   1.000000
  467       -0.321093      1.568807   1.000000   1.000000
  468       -0.303830      1.586610   1.000000   1.000000
  469       -0.295903      1.586665   1.000000   1.000000
  470       -0.288037      1.695670   1.000000   1.000000
  471       -0.287922      1.695765   1.000000   1.000000
  472       -0.287828      1.740886   1.000000   1.000000
  473       -0.287655      1.741100   1.000000   1.000000
  474       -0.280405      1.741323   1.000000   1.000000
  475       -0.280366      1.741370   1.000000   1.000000
  476       -0.275100      1.746861   1.000000   1.000000
  477       -0.275009      1.746873   1.000000   1.000000
  478       -0.274826      1.746900   1.000000   1.000000
  479       -0.274817      1.746913   1.000000   1.000000
  480       -0.241932      1.779031   1.000000   1.000000
  481       -0.241815      1.780612   1.000000   1.000000
  482       -0.241563      1.780653   1.000000   1.000000
  483       -0.241378      1.836455   1.000000   1.000000
  484       -0.241364      1.837021   1.000000   1.000000
  485       -0.241341      1.837309   1.000000   1.000000
  486       -0.241332      1.837518   1.000000   1.000000
  487       -0.241184      1.837769   1.000000   1.000000
  488       -0.207396      1.838104   1.000000   1.000000
  489       -0.207390      1.838425   1.000000   1.000000
  490       -0.199637      1.838476   1.000000   1.000000
  491       -0.199599      1.866211   1.000000   1.000000
  492       -0.199518      1.866414   1.000000   1.000000
  493       -0.199489      1.913276   1.000000   1.000000
  494       -0.194079      1.913445   1.000000   1.000000
  495       -0.193943      1.913453   1.000000   1.000000
  496       -0.164051      1.913572   1.000000   1.000000
  497       -0.163794      1.913667   1.000000   1.000000
  498       -0.163751      1.913683   1.000000   1.000000
  499       -0.163734      1.913752   1.000000   1.000000
  500       -0.156904      1.913773   1.000000   1.000000
  501       -0.156497      1.926949   1.000000   1.000000
  502       -0.156184      1.926986   1.000000   1.000000
  503       -0.156166      1.927032   1.000000   1.000000
  504       -0.139048      1.927166   1.000000   1.000000
  505       -0.139023      2.133210   1.000000   1.000000
  506       -0.138892      2.133289   1.000000   1.000000
  507       -0.138758      2.191256   1.000000   1.000000
  508       -0.091018      2.193184   1.000000   1.000000
  509       -0.090908      2.300462   1.000000   1.000000
  510       -0.082671      2.300800   1.000000   1.000000
  511       -0.082524      2.300959   1.000000   1.000000
  512       -0.082484      2.301338   1.000000   1.000000