 108 108   0   0
  0.1367340E+02  0.1151037E-08  0.1132740E-08  0.1132740E-08  0.5000000E-15
  1.000000000000000E-004
  CAR 
 unknown system                          
     17.82482017    -54.65736776  301      5.29144184      1.00000000
    -54.657  0.0000E+00  0.0000E+00  0.0000E+00  0.0000E+00
    -54.416  0.0000E+00  0.0000E+00  0.0000E+00  0.0000E+00
    -54.174  0.0000E+00  0.0000E+00  0.0000E+00  0.0000E+00
    -53.933  0.0000E+00  0.0000E+00  0.0000E+00  0.0000E+00
    -53.691  0.0000E+00  0.0000E+00  0.0000E+00  0.0000E+00
    -53.449  0.0000E+00  0.0000E+00  0.0000E+00  0.0000E+00
    -53.208  0.0000E+00  0.0000E+00  0.0000E+00  0.0000E+00
    -52.966  0.0000E+00  0.0000E+00  0.0000E+00  0.0000E+00
    -52.725  0.0000E+00  0.0000E+00  0.0000E+00  0.0000E+00
    -52.483  0.0000E+00  0.0000E+00  0.0000E+00  0.0000E+00
    -52.241  0.0000E+00  0.0000E+00  0.0000E+00  0.0000E+00
    -52.000  0.0000E+00  0.0000E+00  0.0000E+00  0.0000E+00
    -51.758  0.0000E+00  0.0000E+00  0.0000E+00  0.0000E+00
    -51.516  0.4018E-03  0.0000E+00  0.9709E-04  0.0000E+00
    -51.275  0.9842E+02  0.0000E+00  0.2378E+02  0.0000E+00
    -51.033  0.4330E+02  0.0000E+00  0.3424E+02  0.0000E+00
    -50.792  0.7281E+01  0.0000E+00  0.3600E+02  0.0000E+00
    -50.550  0.0000E+00  0.0000E+00  0.3600E+02  0.0000E+00
    -50.308  0.1903E-03  0.0000E+00  0.3600E+02  0.0000E+00
    -50.067  0.9795E+02  0.0000E+00  0.5967E+02  0.0000E+00
    -49.825  0.5082E+02  0.0000E+00  0.7195E+02  0.0000E+00
    -49.584  0.1237E+03  0.0000E+00  0.1018E+03  0.0000E+00
    -49.342  0.2557E+02  0.0000E+00  0.1080E+03  0.0000E+00
    -49.100  0.0000E+00  0.0000E+00  0.1080E+03  0.0000E+00
    -48.859  0.0000E+00  0.0000E+00  0.1080E+03  0.0000E+00
    -48.617  0.0000E+00  0.0000E+00  0.1080E+03  0.0000E+00
    -48.376  0.0000E+00  0.0000E+00  0.1080E+03  0.0000E+00
    -48.134  0.0000E+00  0.0000E+00  0.1080E+03  0.0000E+00
    -47.892  0.0000E+00  0.0000E+00  0.1080E+03  0.0000E+00
    -47.651  0.0000E+00  0.0000E+00  0.1080E+03  0.0000E+00
    -47.409  0.0000E+00  0.0000E+00  0.1080E+03  0.0000E+00
    -47.168  0.0000E+00  0.0000E+00  0.1080E+03  0.0000E+00
    -46.926  0.0000E+00  0.0000E+00  0.1080E+03  0.0000E+00
    -46.684  0.0000E+00  0.1422E+01  0.1080E+03  0.3436E+00
    -46.443  0.0000E+00  0.9794E+02  0.1080E+03  0.2401E+02
    -46.201  0.0000E+00  0.1758E+03  0.1080E+03  0.6648E+02
    -45.960  0.0000E+00  0.8330E+02  0.1080E+03  0.8660E+02
    -45.718  0.0000E+00  0.8855E+02  0.1080E+03  0.1080E+03
    -45.476  0.0000E+00  0.3652E-03  0.1080E+03  0.1080E+03
    -45.235  0.0000E+00  0.0000E+00  0.1080E+03  0.1080E+03
    -44.993  0.0000E+00  0.0000E+00  0.1080E+03  0.1080E+03
    -44.751  0.0000E+00  0.0000E+00  0.1080E+03  0.1080E+03
    -44.510  0.0000E+00  0.0000E+00  0.1080E+03  0.1080E+03
    -44.268  0.0000E+00  0.0000E+00  0.1080E+03  0.1080E+03
    -44.027  0.0000E+00  0.0000E+00  0.1080E+03  0.1080E+03
    -43.785  0.0000E+00  0.0000E+00  0.1080E+03  0.1080E+03
    -43.543  0.0000E+00  0.0000E+00  0.1080E+03  0.1080E+03
    -43.302  0.0000E+00  0.0000E+00  0.1080E+03  0.1080E+03
    -43.060  0.0000E+00  0.0000E+00  0.1080E+03  0.1080E+03
    -42.819  0.0000E+00  0.0000E+00  0.1080E+03  0.1080E+03
    -42.577  0.0000E+00  0.0000E+00  0.1080E+03  0.1080E+03
    -42.335  0.0000E+00  0.0000E+00  0.1080E+03  0.1080E+03
    -42.094  0.0000E+00  0.0000E+00  0.1080E+03  0.1080E+03
    -41.852  0.0000E+00  0.0000E+00  0.1080E+03  0.1080E+03
    -41.611  0.0000E+00  0.0000E+00  0.1080E+03  0.1080E+03
    -41.369  0.0000E+00  0.0000E+00  0.1080E+03  0.1080E+03
    -41.127  0.0000E+00  0.0000E+00  0.1080E+03  0.1080E+03
    -40.886  0.0000E+00  0.0000E+00  0.1080E+03  0.1080E+03
    -40.644  0.0000E+00  0.0000E+00  0.1080E+03  0.1080E+03
    -40.403  0.3925E-12  0.7648E-12  0.1080E+03  0.1080E+03
    -40.161  0.1712E+02  0.1935E+02  0.1121E+03  0.1127E+03
    -39.919  0.8222E+02  0.7998E+02  0.1320E+03  0.1320E+03
    -39.678  0.0000E+00  0.0000E+00  0.1320E+03  0.1320E+03
    -39.436  0.0000E+00  0.0000E+00  0.1320E+03  0.1320E+03
    -39.195  0.0000E+00  0.0000E+00  0.1320E+03  0.1320E+03
    -38.953  0.0000E+00  0.0000E+00  0.1320E+03  0.1320E+03
    -38.711  0.0000E+00  0.0000E+00  0.1320E+03  0.1320E+03
    -38.470  0.0000E+00  0.0000E+00  0.1320E+03  0.1320E+03
    -38.228  0.0000E+00  0.0000E+00  0.1320E+03  0.1320E+03
    -37.986  0.0000E+00  0.0000E+00  0.1320E+03  0.1320E+03
    -37.745  0.0000E+00  0.0000E+00  0.1320E+03  0.1320E+03
    -37.503  0.0000E+00  0.0000E+00  0.1320E+03  0.1320E+03
    -37.262  0.0000E+00  0.0000E+00  0.1320E+03  0.1320E+03
    -37.020  0.0000E+00  0.0000E+00  0.1320E+03  0.1320E+03
    -36.778  0.0000E+00  0.0000E+00  0.1320E+03  0.1320E+03
    -36.537  0.0000E+00  0.0000E+00  0.1320E+03  0.1320E+03
    -36.295  0.0000E+00  0.0000E+00  0.1320E+03  0.1320E+03
    -36.054  0.0000E+00  0.0000E+00  0.1320E+03  0.1320E+03
    -35.812  0.0000E+00  0.0000E+00  0.1320E+03  0.1320E+03
    -35.570  0.0000E+00  0.0000E+00  0.1320E+03  0.1320E+03
    -35.329  0.0000E+00  0.0000E+00  0.1320E+03  0.1320E+03
    -35.087  0.0000E+00  0.0000E+00  0.1320E+03  0.1320E+03
    -34.846  0.0000E+00  0.0000E+00  0.1320E+03  0.1320E+03
    -34.604  0.0000E+00  0.0000E+00  0.1320E+03  0.1320E+03
    -34.362  0.0000E+00  0.0000E+00  0.1320E+03  0.1320E+03
    -34.121  0.0000E+00  0.0000E+00  0.1320E+03  0.1320E+03
    -33.879  0.0000E+00  0.0000E+00  0.1320E+03  0.1320E+03
    -33.638  0.0000E+00  0.0000E+00  0.1320E+03  0.1320E+03
    -33.396  0.0000E+00  0.0000E+00  0.1320E+03  0.1320E+03
    -33.154  0.0000E+00  0.0000E+00  0.1320E+03  0.1320E+03
    -32.913  0.0000E+00  0.0000E+00  0.1320E+03  0.1320E+03
    -32.671  0.0000E+00  0.0000E+00  0.1320E+03  0.1320E+03
    -32.429  0.0000E+00  0.0000E+00  0.1320E+03  0.1320E+03
    -32.188  0.0000E+00  0.0000E+00  0.1320E+03  0.1320E+03
    -31.946  0.0000E+00  0.0000E+00  0.1320E+03  0.1320E+03
    -31.705  0.0000E+00  0.0000E+00  0.1320E+03  0.1320E+03
    -31.463  0.0000E+00  0.0000E+00  0.1320E+03  0.1320E+03
    -31.221  0.0000E+00  0.0000E+00  0.1320E+03  0.1320E+03
    -30.980  0.0000E+00  0.0000E+00  0.1320E+03  0.1320E+03
    -30.738  0.0000E+00  0.0000E+00  0.1320E+03  0.1320E+03
    -30.497  0.0000E+00  0.0000E+00  0.1320E+03  0.1320E+03
    -30.255  0.0000E+00  0.0000E+00  0.1320E+03  0.1320E+03
    -30.013  0.0000E+00  0.0000E+00  0.1320E+03  0.1320E+03
    -29.772  0.0000E+00  0.0000E+00  0.1320E+03  0.1320E+03
    -29.530  0.0000E+00  0.0000E+00  0.1320E+03  0.1320E+03
    -29.289  0.0000E+00  0.0000E+00  0.1320E+03  0.1320E+03
    -29.047  0.0000E+00  0.0000E+00  0.1320E+03  0.1320E+03
    -28.805  0.0000E+00  0.0000E+00  0.1320E+03  0.1320E+03
    -28.564  0.0000E+00  0.0000E+00  0.1320E+03  0.1320E+03
    -28.322  0.0000E+00  0.0000E+00  0.1320E+03  0.1320E+03
    -28.081  0.0000E+00  0.0000E+00  0.1320E+03  0.1320E+03
    -27.839  0.0000E+00  0.0000E+00  0.1320E+03  0.1320E+03
    -27.597  0.0000E+00  0.0000E+00  0.1320E+03  0.1320E+03
    -27.356  0.0000E+00  0.0000E+00  0.1320E+03  0.1320E+03
    -27.114  0.0000E+00  0.0000E+00  0.1320E+03  0.1320E+03
    -26.873  0.0000E+00  0.0000E+00  0.1320E+03  0.1320E+03
    -26.631  0.0000E+00  0.0000E+00  0.1320E+03  0.1320E+03
    -26.389  0.0000E+00  0.0000E+00  0.1320E+03  0.1320E+03
    -26.148  0.0000E+00  0.0000E+00  0.1320E+03  0.1320E+03
    -25.906  0.0000E+00  0.0000E+00  0.1320E+03  0.1320E+03
    -25.664  0.0000E+00  0.0000E+00  0.1320E+03  0.1320E+03
    -25.423  0.0000E+00  0.0000E+00  0.1320E+03  0.1320E+03
    -25.181  0.0000E+00  0.0000E+00  0.1320E+03  0.1320E+03
    -24.940  0.0000E+00  0.0000E+00  0.1320E+03  0.1320E+03
    -24.698  0.0000E+00  0.0000E+00  0.1320E+03  0.1320E+03
    -24.456  0.0000E+00  0.0000E+00  0.1320E+03  0.1320E+03
    -24.215  0.0000E+00  0.0000E+00  0.1320E+03  0.1320E+03
    -23.973  0.0000E+00  0.0000E+00  0.1320E+03  0.1320E+03
    -23.732  0.0000E+00  0.0000E+00  0.1320E+03  0.1320E+03
    -23.490  0.0000E+00  0.0000E+00  0.1320E+03  0.1320E+03
    -23.248  0.0000E+00  0.0000E+00  0.1320E+03  0.1320E+03
    -23.007  0.0000E+00  0.0000E+00  0.1320E+03  0.1320E+03
    -22.765  0.0000E+00  0.0000E+00  0.1320E+03  0.1320E+03
    -22.524  0.0000E+00  0.0000E+00  0.1320E+03  0.1320E+03
    -22.282  0.0000E+00  0.0000E+00  0.1320E+03  0.1320E+03
    -22.040  0.0000E+00  0.0000E+00  0.1320E+03  0.1320E+03
    -21.799  0.0000E+00  0.0000E+00  0.1320E+03  0.1320E+03
    -21.557  0.0000E+00  0.0000E+00  0.1320E+03  0.1320E+03
    -21.316  0.0000E+00  0.0000E+00  0.1320E+03  0.1320E+03
    -21.074  0.0000E+00  0.0000E+00  0.1320E+03  0.1320E+03
    -20.832  0.0000E+00  0.0000E+00  0.1320E+03  0.1320E+03
    -20.591  0.0000E+00  0.0000E+00  0.1320E+03  0.1320E+03
    -20.349  0.0000E+00  0.0000E+00  0.1320E+03  0.1320E+03
    -20.108  0.0000E+00  0.0000E+00  0.1320E+03  0.1320E+03
    -19.866  0.0000E+00  0.0000E+00  0.1320E+03  0.1320E+03
    -19.624  0.0000E+00  0.0000E+00  0.1320E+03  0.1320E+03
    -19.383  0.0000E+00  0.0000E+00  0.1320E+03  0.1320E+03
    -19.141  0.0000E+00  0.0000E+00  0.1320E+03  0.1320E+03
    -18.899  0.0000E+00  0.0000E+00  0.1320E+03  0.1320E+03
    -18.658  0.0000E+00  0.0000E+00  0.1320E+03  0.1320E+03
    -18.416  0.0000E+00  0.0000E+00  0.1320E+03  0.1320E+03
    -18.175  0.0000E+00  0.0000E+00  0.1320E+03  0.1320E+03
    -17.933  0.0000E+00  0.0000E+00  0.1320E+03  0.1320E+03
    -17.691  0.0000E+00  0.0000E+00  0.1320E+03  0.1320E+03
    -17.450  0.0000E+00  0.0000E+00  0.1320E+03  0.1320E+03
    -17.208  0.0000E+00  0.0000E+00  0.1320E+03  0.1320E+03
    -16.967  0.0000E+00  0.0000E+00  0.1320E+03  0.1320E+03
    -16.725  0.0000E+00  0.0000E+00  0.1320E+03  0.1320E+03
    -16.483  0.0000E+00  0.0000E+00  0.1320E+03  0.1320E+03
    -16.242  0.0000E+00  0.0000E+00  0.1320E+03  0.1320E+03
    -16.000  0.0000E+00  0.0000E+00  0.1320E+03  0.1320E+03
    -15.759  0.0000E+00  0.0000E+00  0.1320E+03  0.1320E+03
    -15.517  0.0000E+00  0.0000E+00  0.1320E+03  0.1320E+03
    -15.275  0.0000E+00  0.0000E+00  0.1320E+03  0.1320E+03
    -15.034  0.0000E+00  0.0000E+00  0.1320E+03  0.1320E+03
    -14.792  0.0000E+00  0.0000E+00  0.1320E+03  0.1320E+03
    -14.551  0.0000E+00  0.0000E+00  0.1320E+03  0.1320E+03
    -14.309  0.0000E+00  0.0000E+00  0.1320E+03  0.1320E+03
    -14.067  0.0000E+00  0.0000E+00  0.1320E+03  0.1320E+03
    -13.826  0.1558E-11  0.0000E+00  0.1320E+03  0.1320E+03
    -13.584  0.2350E+01  0.0000E+00  0.1326E+03  0.1320E+03
    -13.343  0.5795E+02  0.1750E-05  0.1466E+03  0.1320E+03
    -13.101  0.3889E+02  0.1907E+02  0.1560E+03  0.1366E+03
    -12.859  0.1382E+00  0.7621E+02  0.1560E+03  0.1550E+03
    -12.618  0.0000E+00  0.4048E+01  0.1560E+03  0.1560E+03
    -12.376  0.0000E+00  0.0000E+00  0.1560E+03  0.1560E+03
    -12.134  0.0000E+00  0.0000E+00  0.1560E+03  0.1560E+03
    -11.893  0.0000E+00  0.0000E+00  0.1560E+03  0.1560E+03
    -11.651  0.0000E+00  0.0000E+00  0.1560E+03  0.1560E+03
    -11.410  0.0000E+00  0.0000E+00  0.1560E+03  0.1560E+03
    -11.168  0.0000E+00  0.0000E+00  0.1560E+03  0.1560E+03
    -10.926  0.0000E+00  0.0000E+00  0.1560E+03  0.1560E+03
    -10.685  0.0000E+00  0.0000E+00  0.1560E+03  0.1560E+03
    -10.443  0.0000E+00  0.0000E+00  0.1560E+03  0.1560E+03
    -10.202  0.0000E+00  0.0000E+00  0.1560E+03  0.1560E+03
     -9.960  0.0000E+00  0.0000E+00  0.1560E+03  0.1560E+03
     -9.718  0.0000E+00  0.0000E+00  0.1560E+03  0.1560E+03
     -9.477  0.0000E+00  0.0000E+00  0.1560E+03  0.1560E+03
     -9.235  0.0000E+00  0.0000E+00  0.1560E+03  0.1560E+03
     -8.994  0.0000E+00  0.0000E+00  0.1560E+03  0.1560E+03
     -8.752  0.0000E+00  0.0000E+00  0.1560E+03  0.1560E+03
     -8.510  0.0000E+00  0.0000E+00  0.1560E+03  0.1560E+03
     -8.269  0.0000E+00  0.0000E+00  0.1560E+03  0.1560E+03
     -8.027  0.0000E+00  0.0000E+00  0.1560E+03  0.1560E+03
     -7.786  0.3386E-13  0.0000E+00  0.1560E+03  0.1560E+03
     -7.544  0.2246E+00  0.4255E-16  0.1561E+03  0.1560E+03
     -7.302  0.2240E+02  0.6792E-01  0.1615E+03  0.1560E+03
     -7.061  0.4720E+02  0.2454E+02  0.1729E+03  0.1619E+03
     -6.819  0.2926E+02  0.4657E+02  0.1799E+03  0.1732E+03
     -6.578  0.2440E+00  0.2667E+02  0.1800E+03  0.1796E+03
     -6.336  0.0000E+00  0.1490E+01  0.1800E+03  0.1800E+03
     -6.094  0.0000E+00  0.0000E+00  0.1800E+03  0.1800E+03
     -5.853  0.0000E+00  0.0000E+00  0.1800E+03  0.1800E+03
     -5.611  0.0000E+00  0.0000E+00  0.1800E+03  0.1800E+03
     -5.369  0.0000E+00  0.0000E+00  0.1800E+03  0.1800E+03
     -5.128  0.0000E+00  0.0000E+00  0.1800E+03  0.1800E+03
     -4.886  0.0000E+00  0.0000E+00  0.1800E+03  0.1800E+03
     -4.645  0.0000E+00  0.0000E+00  0.1800E+03  0.1800E+03
     -4.403  0.0000E+00  0.0000E+00  0.1800E+03  0.1800E+03
     -4.161  0.0000E+00  0.0000E+00  0.1800E+03  0.1800E+03
     -3.920  0.0000E+00  0.0000E+00  0.1800E+03  0.1800E+03
     -3.678  0.0000E+00  0.0000E+00  0.1800E+03  0.1800E+03
     -3.437  0.0000E+00  0.0000E+00  0.1800E+03  0.1800E+03
     -3.195  0.0000E+00  0.0000E+00  0.1800E+03  0.1800E+03
     -2.953  0.0000E+00  0.0000E+00  0.1800E+03  0.1800E+03
     -2.712  0.0000E+00  0.0000E+00  0.1800E+03  0.1800E+03
     -2.470  0.0000E+00  0.0000E+00  0.1800E+03  0.1800E+03
     -2.229  0.1478E-01  0.0000E+00  0.1800E+03  0.1800E+03
     -1.987  0.2729E+02  0.0000E+00  0.1866E+03  0.1800E+03
     -1.745  0.5011E+02  0.0000E+00  0.1987E+03  0.1800E+03
     -1.504  0.1581E+02  0.0000E+00  0.2025E+03  0.1800E+03
     -1.262  0.1905E+02  0.0000E+00  0.2071E+03  0.1800E+03
     -1.021  0.5920E+02  0.1619E-03  0.2214E+03  0.1800E+03
     -0.779  0.7324E+02  0.1912E+01  0.2391E+03  0.1805E+03
     -0.537  0.6483E+02  0.1002E+02  0.2548E+03  0.1829E+03
     -0.296  0.6329E+02  0.2040E+02  0.2701E+03  0.1878E+03
     -0.054  0.6207E+02  0.3415E+02  0.2851E+03  0.1961E+03
      0.187  0.5481E+02  0.2516E+02  0.2983E+03  0.2021E+03
      0.429  0.1067E+03  0.3706E+02  0.3241E+03  0.2111E+03
      0.671  0.5268E+02  0.3617E+02  0.3368E+03  0.2198E+03
      0.912  0.4680E+02  0.5715E+02  0.3481E+03  0.2336E+03
      1.154  0.5299E+02  0.5592E+02  0.3609E+03  0.2472E+03
      1.396  0.6428E+02  0.1980E+02  0.3765E+03  0.2519E+03
      1.637  0.5396E+02  0.2524E+02  0.3895E+03  0.2580E+03
      1.879  0.5845E+02  0.4734E+02  0.4036E+03  0.2695E+03
      2.120  0.4837E+02  0.3570E+02  0.4153E+03  0.2781E+03
      2.362  0.2752E+02  0.3020E+02  0.4220E+03  0.2854E+03
      2.604  0.3531E+02  0.3338E+02  0.4305E+03  0.2935E+03
      2.845  0.3372E+02  0.4465E+02  0.4386E+03  0.3042E+03
      3.087  0.3661E+02  0.3815E+02  0.4475E+03  0.3135E+03
      3.328  0.3371E+02  0.5966E+02  0.4556E+03  0.3279E+03
      3.570  0.2572E+02  0.2781E+02  0.4618E+03  0.3346E+03
      3.812  0.4118E+02  0.9347E+01  0.4718E+03  0.3369E+03
      4.053  0.4594E+02  0.1087E+02  0.4829E+03  0.3395E+03
      4.295  0.3576E+02  0.4074E+02  0.4915E+03  0.3493E+03
      4.536  0.3624E+02  0.2273E+02  0.5003E+03  0.3548E+03
      4.778  0.1537E+02  0.1987E+02  0.5040E+03  0.3596E+03
      5.020  0.1237E-01  0.1572E+01  0.5040E+03  0.3600E+03
      5.261  0.0000E+00  0.1788E-04  0.5040E+03  0.3600E+03
      5.503  0.0000E+00  0.0000E+00  0.5040E+03  0.3600E+03
      5.744  0.0000E+00  0.0000E+00  0.5040E+03  0.3600E+03
      5.986  0.0000E+00  0.2323E-07  0.5040E+03  0.3600E+03
      6.228  0.0000E+00  0.3166E+00  0.5040E+03  0.3601E+03
      6.469  0.0000E+00  0.3689E+01  0.5040E+03  0.3610E+03
      6.711  0.4759E-02  0.9776E+01  0.5040E+03  0.3633E+03
      6.952  0.1485E+00  0.3278E+02  0.5040E+03  0.3713E+03
      7.194  0.3176E+00  0.7777E+02  0.5041E+03  0.3900E+03
      7.436  0.7581E+00  0.6506E+02  0.5043E+03  0.4058E+03
      7.677  0.2533E+01  0.5150E+02  0.5049E+03  0.4182E+03
      7.919  0.2213E+01  0.8561E+02  0.5054E+03  0.4389E+03
      8.161  0.2120E+01  0.7824E+02  0.5060E+03  0.4578E+03
      8.402  0.5336E+01  0.5285E+02  0.5072E+03  0.4706E+03
      8.644  0.7904E+01  0.7297E+02  0.5092E+03  0.4882E+03
      8.885  0.1655E+02  0.4499E+02  0.5132E+03  0.4991E+03
      9.127  0.1347E+02  0.2210E+02  0.5164E+03  0.5044E+03
      9.369  0.1857E+02  0.4824E+01  0.5209E+03  0.5056E+03
      9.610  0.1984E+02  0.6660E+01  0.5257E+03  0.5072E+03
      9.852  0.1784E+02  0.1156E+02  0.5300E+03  0.5100E+03
     10.093  0.1803E+02  0.1444E+02  0.5344E+03  0.5135E+03
     10.335  0.1976E+02  0.1815E+02  0.5391E+03  0.5178E+03
     10.577  0.2425E+02  0.3198E+02  0.5450E+03  0.5256E+03
     10.818  0.2130E+02  0.2822E+02  0.5501E+03  0.5324E+03
     11.060  0.2852E+02  0.2189E+02  0.5570E+03  0.5377E+03
     11.301  0.2876E+02  0.2488E+02  0.5640E+03  0.5437E+03
     11.543  0.2223E+02  0.2207E+02  0.5693E+03  0.5490E+03
     11.785  0.2726E+02  0.2152E+02  0.5759E+03  0.5542E+03
     12.026  0.3936E+02  0.1857E+02  0.5854E+03  0.5587E+03
     12.268  0.3436E+02  0.3070E+02  0.5937E+03  0.5661E+03
     12.509  0.2812E+02  0.4269E+02  0.6005E+03  0.5764E+03
     12.751  0.2539E+02  0.3527E+02  0.6067E+03  0.5850E+03
     12.993  0.2860E+02  0.2855E+02  0.6136E+03  0.5919E+03
     13.234  0.2532E+02  0.2742E+02  0.6197E+03  0.5985E+03
     13.476  0.2167E+02  0.3660E+02  0.6249E+03  0.6073E+03
     13.717  0.1791E+02  0.2944E+02  0.6293E+03  0.6144E+03
     13.959  0.2898E+01  0.2309E+02  0.6300E+03  0.6200E+03
     14.201  0.1788E+00  0.2359E+02  0.6300E+03  0.6257E+03
     14.442  0.0000E+00  0.1638E+02  0.6300E+03  0.6297E+03
     14.684  0.0000E+00  0.1374E+01  0.6300E+03  0.6300E+03
     14.926  0.0000E+00  0.2099E-05  0.6300E+03  0.6300E+03
     15.167  0.0000E+00  0.0000E+00  0.6300E+03  0.6300E+03
     15.409  0.0000E+00  0.0000E+00  0.6300E+03  0.6300E+03
     15.650  0.0000E+00  0.0000E+00  0.6300E+03  0.6300E+03
     15.892  0.0000E+00  0.0000E+00  0.6300E+03  0.6300E+03
     16.134  0.0000E+00  0.0000E+00  0.6300E+03  0.6300E+03
     16.375  0.0000E+00  0.0000E+00  0.6300E+03  0.6300E+03
     16.617  0.0000E+00  0.0000E+00  0.6300E+03  0.6300E+03
     16.858  0.0000E+00  0.0000E+00  0.6300E+03  0.6300E+03
     17.100  0.0000E+00  0.0000E+00  0.6300E+03  0.6300E+03
     17.342  0.0000E+00  0.0000E+00  0.6300E+03  0.6300E+03
     17.583  0.0000E+00  0.0000E+00  0.6300E+03  0.6300E+03
     17.825  0.0000E+00  0.0000E+00  0.6300E+03  0.6300E+03
