  224  224    1    2
  0.1357572E+02  0.1537960E-08  0.1537962E-08  0.1395899E-08  0.5000000E-15
  1.000000000000000E-004
  CAR 
 unknown system                          
   1664      8   1208
 
  0.0000000E+00  0.0000000E+00  0.0000000E+00  0.1250000E+00
    1      -51.143435    -46.392401   1.000000   1.000000
    2      -51.142214    -46.391420   1.000000   1.000000
    3      -51.141849    -46.390965   1.000000   1.000000
    4      -51.141817    -46.390959   1.000000   1.000000
    5      -51.141511    -46.390777   1.000000   1.000000
    6      -51.141400    -46.390600   1.000000   1.000000
    7      -51.141279    -46.390563   1.000000   1.000000
    8      -51.141186    -46.390446   1.000000   1.000000
    9      -51.141136    -46.390317   1.000000   1.000000
   10      -51.141072    -46.390235   1.000000   1.000000
   11      -51.141030    -46.390194   1.000000   1.000000
   12      -51.140986    -46.390031   1.000000   1.000000
   13      -51.140931    -46.390004   1.000000   1.000000
   14      -51.140888    -46.389988   1.000000   1.000000
   15      -51.140884    -46.389979   1.000000   1.000000
   16      -51.140827    -46.389935   1.000000   1.000000
   17      -51.140804    -46.389905   1.000000   1.000000
   18      -51.140795    -46.389805   1.000000   1.000000
   19      -51.140736    -46.389772   1.000000   1.000000
   20      -51.140686    -46.389749   1.000000   1.000000
   21      -51.140664    -46.389690   1.000000   1.000000
   22      -51.140602    -46.389617   1.000000   1.000000
   23      -51.140582    -46.389598   1.000000   1.000000
   24      -51.140538    -46.389566   1.000000   1.000000
   25      -51.140523    -46.389535   1.000000   1.000000
   26      -51.140513    -46.389530   1.000000   1.000000
   27      -51.140480    -46.389520   1.000000   1.000000
   28      -51.140471    -46.389475   1.000000   1.000000
   29      -51.140432    -46.389437   1.000000   1.000000
   30      -51.140376    -46.389351   1.000000   1.000000
   31      -51.140354    -46.389334   1.000000   1.000000
   32      -51.140328    -46.389234   1.000000   1.000000
   33      -51.140253    -46.389159   1.000000   1.000000
   34      -51.140234    -46.389082   1.000000   1.000000
   35      -51.140172    -46.388924   1.000000   1.000000
   36      -51.140158    -46.388916   1.000000   1.000000
   37      -51.140126    -46.388895   1.000000   1.000000
   38      -51.140071    -46.388875   1.000000   1.000000
   39      -51.139990    -46.388730   1.000000   1.000000
   40      -51.139984    -46.388724   1.000000   1.000000
   41      -51.139939    -46.388692   1.000000   1.000000
   42      -51.139927    -46.388685   1.000000   1.000000
   43      -51.139910    -46.388650   1.000000   1.000000
   44      -51.139885    -46.388599   1.000000   1.000000
   45      -51.139871    -46.388573   1.000000   1.000000
   46      -51.139839    -46.388569   1.000000   1.000000
   47      -51.139835    -46.388552   1.000000   1.000000
   48      -51.139769    -46.388477   1.000000   1.000000
   49      -51.139746    -46.388473   1.000000   1.000000
   50      -51.139722    -46.388458   1.000000   1.000000
   51      -51.139676    -46.388375   1.000000   1.000000
   52      -51.139627    -46.388327   1.000000   1.000000
   53      -51.139615    -46.388312   1.000000   1.000000
   54      -51.139544    -46.388233   1.000000   1.000000
   55      -51.139477    -46.388160   1.000000   1.000000
   56      -51.139453    -46.388042   1.000000   1.000000
   57      -51.139355    -46.388027   1.000000   1.000000
   58      -51.139321    -46.387903   1.000000   1.000000
   59      -51.139218    -46.387814   1.000000   1.000000
   60      -51.139076    -46.387735   1.000000   1.000000
   61      -51.139050    -46.387655   1.000000   1.000000
   62      -51.138958    -46.387453   1.000000   1.000000
   63      -51.137852    -46.386761   1.000000   1.000000
   64      -51.129661    -46.380902   1.000000   1.000000
   65      -49.650148    -45.930780   1.000000   1.000000
   66      -49.648537    -45.930254   1.000000   1.000000
   67      -49.648052    -45.929685   1.000000   1.000000
   68      -49.647989    -45.929589   1.000000   1.000000
   69      -49.647755    -45.929329   1.000000   1.000000
   70      -49.647607    -45.929129   1.000000   1.000000
   71      -49.647529    -45.928978   1.000000   1.000000
   72      -49.647505    -45.928889   1.000000   1.000000
   73      -49.647460    -45.928869   1.000000   1.000000
   74      -49.647431    -45.928841   1.000000   1.000000
   75      -49.647394    -45.928787   1.000000   1.000000
   76      -49.647354    -45.928766   1.000000   1.000000
   77      -49.647343    -45.928714   1.000000   1.000000
   78      -49.647325    -45.928674   1.000000   1.000000
   79      -49.647263    -45.928642   1.000000   1.000000
   80      -49.647240    -45.928575   1.000000   1.000000
   81      -49.647166    -45.928546   1.000000   1.000000
   82      -49.647159    -45.928534   1.000000   1.000000
   83      -49.647138    -45.928501   1.000000   1.000000
   84      -49.647133    -45.928458   1.000000   1.000000
   85      -49.647044    -45.928452   1.000000   1.000000
   86      -49.647010    -45.928370   1.000000   1.000000
   87      -49.647002    -45.928361   1.000000   1.000000
   88      -49.646966    -45.928339   1.000000   1.000000
   89      -49.646915    -45.928324   1.000000   1.000000
   90      -49.646913    -45.928289   1.000000   1.000000
   91      -49.646875    -45.928253   1.000000   1.000000
   92      -49.646780    -45.928218   1.000000   1.000000
   93      -49.646729    -45.928213   1.000000   1.000000
   94      -49.646698    -45.928193   1.000000   1.000000
   95      -49.646671    -45.928155   1.000000   1.000000
   96      -49.646666    -45.928125   1.000000   1.000000
   97      -49.646661    -45.928088   1.000000   1.000000
   98      -49.646562    -45.928073   1.000000   1.000000
   99      -49.646530    -45.928061   1.000000   1.000000
  100      -49.646516    -45.927987   1.000000   1.000000
  101      -49.646492    -45.927979   1.000000   1.000000
  102      -49.646459    -45.927890   1.000000   1.000000
  103      -49.646417    -45.927834   1.000000   1.000000
  104      -49.646395    -45.927796   1.000000   1.000000
  105      -49.646317    -45.927778   1.000000   1.000000
  106      -49.646286    -45.927750   1.000000   1.000000
  107      -49.646230    -45.927706   1.000000   1.000000
  108      -49.646227    -45.927683   1.000000   1.000000
  109      -49.646201    -45.927668   1.000000   1.000000
  110      -49.646111    -45.927590   1.000000   1.000000
  111      -49.646096    -45.927551   1.000000   1.000000
  112      -49.646061    -45.927526   1.000000   1.000000
  113      -49.646021    -45.927506   1.000000   1.000000
  114      -49.645994    -45.927472   1.000000   1.000000
  115      -49.645980    -45.927443   1.000000   1.000000
  116      -49.645878    -45.927433   1.000000   1.000000
  117      -49.645864    -45.927417   1.000000   1.000000
  118      -49.645838    -45.927328   1.000000   1.000000
  119      -49.645776    -45.927316   1.000000   1.000000
  120      -49.645732    -45.927279   1.000000   1.000000
  121      -49.645719    -45.927267   1.000000   1.000000
  122      -49.645642    -45.927263   1.000000   1.000000
  123      -49.645629    -45.927208   1.000000   1.000000
  124      -49.645565    -45.927182   1.000000   1.000000
  125      -49.645559    -45.927169   1.000000   1.000000
  126      -49.645558    -45.927135   1.000000   1.000000
  127      -49.645539    -45.927130   1.000000   1.000000
  128      -49.645499    -45.927115   1.000000   1.000000
  129      -49.645461    -45.927108   1.000000   1.000000
  130      -49.645402    -45.927073   1.000000   1.000000
  131      -49.645381    -45.927047   1.000000   1.000000
  132      -49.645380    -45.927017   1.000000   1.000000
  133      -49.645335    -45.926977   1.000000   1.000000
  134      -49.645328    -45.926902   1.000000   1.000000
  135      -49.645320    -45.926892   1.000000   1.000000
  136      -49.645291    -45.926864   1.000000   1.000000
  137      -49.645288    -45.926844   1.000000   1.000000
  138      -49.645265    -45.926818   1.000000   1.000000
  139      -49.645244    -45.926785   1.000000   1.000000
  140      -49.645202    -45.926769   1.000000   1.000000
  141      -49.645169    -45.926757   1.000000   1.000000
  142      -49.645164    -45.926716   1.000000   1.000000
  143      -49.645142    -45.926701   1.000000   1.000000
  144      -49.645104    -45.926664   1.000000   1.000000
  145      -49.645050    -45.926642   1.000000   1.000000
  146      -49.645038    -45.926633   1.000000   1.000000
  147      -49.645032    -45.926595   1.000000   1.000000
  148      -49.645022    -45.926577   1.000000   1.000000
  149      -49.644957    -45.926564   1.000000   1.000000
  150      -49.644928    -45.926551   1.000000   1.000000
  151      -49.644895    -45.926537   1.000000   1.000000
  152      -49.644861    -45.926516   1.000000   1.000000
  153      -49.644857    -45.926506   1.000000   1.000000
  154      -49.644830    -45.926498   1.000000   1.000000
  155      -49.644794    -45.926451   1.000000   1.000000
  156      -49.644726    -45.926435   1.000000   1.000000
  157      -49.644700    -45.926418   1.000000   1.000000
  158      -49.644681    -45.926403   1.000000   1.000000
  159      -49.644658    -45.926348   1.000000   1.000000
  160      -49.644644    -45.926275   1.000000   1.000000
  161      -49.644634    -45.926274   1.000000   1.000000
  162      -49.644568    -45.926255   1.000000   1.000000
  163      -49.644540    -45.926224   1.000000   1.000000
  164      -49.644516    -45.926206   1.000000   1.000000
  165      -49.644440    -45.926165   1.000000   1.000000
  166      -49.644413    -45.926141   1.000000   1.000000
  167      -49.644370    -45.926130   1.000000   1.000000
  168      -49.644333    -45.926083   1.000000   1.000000
  169      -49.644332    -45.926062   1.000000   1.000000
  170      -49.644303    -45.926035   1.000000   1.000000
  171      -49.644205    -45.926003   1.000000   1.000000
  172      -49.644187    -45.925958   1.000000   1.000000
  173      -49.644148    -45.925924   1.000000   1.000000
  174      -49.644099    -45.925909   1.000000   1.000000
  175      -49.644054    -45.925842   1.000000   1.000000
  176      -49.644046    -45.925835   1.000000   1.000000
  177      -49.644015    -45.925786   1.000000   1.000000
  178      -49.643945    -45.925746   1.000000   1.000000
  179      -49.643908    -45.925729   1.000000   1.000000
  180      -49.643801    -45.925718   1.000000   1.000000
  181      -49.643782    -45.925669   1.000000   1.000000
  182      -49.643669    -45.925649   1.000000   1.000000
  183      -49.643647    -45.925538   1.000000   1.000000
  184      -49.643572    -45.925499   1.000000   1.000000
  185      -49.643484    -45.925398   1.000000   1.000000
  186      -49.643478    -45.925312   1.000000   1.000000
  187      -49.643198    -45.925252   1.000000   1.000000
  188      -49.643123    -45.925198   1.000000   1.000000
  189      -49.642950    -45.924703   1.000000   1.000000
  190      -49.641901    -45.924326   1.000000   1.000000
  191      -49.637733    -45.919513   1.000000   1.000000
  192      -49.635371    -45.919181   1.000000   1.000000
  193      -39.642379    -39.641463   1.000000   1.000000
  194      -39.640677    -39.639759   1.000000   1.000000
  195      -39.635754    -39.634881   1.000000   1.000000
  196      -39.634374    -39.633502   1.000000   1.000000
  197      -39.634037    -39.633164   1.000000   1.000000
  198      -39.633591    -39.632717   1.000000   1.000000
  199      -39.633201    -39.632327   1.000000   1.000000
  200      -39.633066    -39.632193   1.000000   1.000000
  201      -39.632977    -39.632104   1.000000   1.000000
  202      -39.632838    -39.631964   1.000000   1.000000
  203      -39.629047    -39.628208   1.000000   1.000000
  204      -39.628779    -39.627938   1.000000   1.000000
  205      -39.628476    -39.627637   1.000000   1.000000
  206      -39.628162    -39.627323   1.000000   1.000000
  207      -39.627437    -39.626599   1.000000   1.000000
  208      -39.627385    -39.626546   1.000000   1.000000
  209      -39.627348    -39.626509   1.000000   1.000000
  210      -39.627306    -39.626466   1.000000   1.000000
  211      -39.619414    -39.618640   1.000000   1.000000
  212      -39.617805    -39.617031   1.000000   1.000000
  213      -39.617488    -39.616714   1.000000   1.000000
  214      -39.616876    -39.616100   1.000000   1.000000
  215      -39.616011    -39.615236   1.000000   1.000000
  216      -39.615903    -39.615127   1.000000   1.000000
  217      -39.615729    -39.614952   1.000000   1.000000
  218      -39.615650    -39.614874   1.000000   1.000000
  219      -39.615558    -39.614787   1.000000   1.000000
  220      -39.615516    -39.614745   1.000000   1.000000
  221      -39.615328    -39.614556   1.000000   1.000000
  222      -39.615311    -39.614531   1.000000   1.000000
  223      -39.615250    -39.614479   1.000000   1.000000
  224      -39.615235    -39.614455   1.000000   1.000000
  225      -39.615193    -39.614422   1.000000   1.000000
  226      -39.615118    -39.614348   1.000000   1.000000
  227      -39.614923    -39.614154   1.000000   1.000000
  228      -39.614853    -39.614085   1.000000   1.000000
  229      -39.614835    -39.614066   1.000000   1.000000
  230      -39.614714    -39.613946   1.000000   1.000000
  231      -39.614673    -39.613906   1.000000   1.000000
  232      -39.614612    -39.613846   1.000000   1.000000
  233      -39.614581    -39.613820   1.000000   1.000000
  234      -39.614510    -39.613748   1.000000   1.000000
  235      -39.614500    -39.613729   1.000000   1.000000
  236      -39.614444    -39.613674   1.000000   1.000000
  237      -39.613831    -39.613070   1.000000   1.000000
  238      -39.613730    -39.612969   1.000000   1.000000
  239      -39.605576    -39.604856   1.000000   1.000000
  240      -39.604763    -39.604041   1.000000   1.000000
  241      -39.604450    -39.603730   1.000000   1.000000
  242      -39.604175    -39.603454   1.000000   1.000000
  243      -39.603518    -39.602799   1.000000   1.000000
  244      -39.603426    -39.602706   1.000000   1.000000
  245      -39.603405    -39.602685   1.000000   1.000000
  246      -39.603389    -39.602669   1.000000   1.000000
  247      -39.601000    -39.600292   1.000000   1.000000
  248      -39.600115    -39.599408   1.000000   1.000000
  249      -39.599991    -39.599284   1.000000   1.000000
  250      -39.599727    -39.599020   1.000000   1.000000
  251      -39.599356    -39.598650   1.000000   1.000000
  252      -39.599198    -39.598492   1.000000   1.000000
  253      -39.599111    -39.598404   1.000000   1.000000
  254      -39.598985    -39.598278   1.000000   1.000000
  255      -39.593899    -39.593214   1.000000   1.000000
  256      -39.592884    -39.592200   1.000000   1.000000
  257      -12.747916    -12.468487   1.000000   1.000000
  258      -12.746792    -12.467322   1.000000   1.000000
  259      -12.720809    -12.441140   1.000000   1.000000
  260      -12.720055    -12.440342   1.000000   1.000000
  261      -12.719827    -12.440102   1.000000   1.000000
  262      -12.719413    -12.439667   1.000000   1.000000
  263      -12.719151    -12.439390   1.000000   1.000000
  264      -12.718998    -12.439216   1.000000   1.000000
  265      -12.718910    -12.439136   1.000000   1.000000
  266      -12.718626    -12.438939   1.000000   1.000000
  267      -12.697458    -12.417324   1.000000   1.000000
  268      -12.697385    -12.417294   1.000000   1.000000
  269      -12.695496    -12.415901   1.000000   1.000000
  270      -12.695415    -12.415838   1.000000   1.000000
  271      -12.694474    -12.414856   1.000000   1.000000
  272      -12.694232    -12.414633   1.000000   1.000000
  273      -12.692682    -12.413534   1.000000   1.000000
  274      -12.692450    -12.413331   1.000000   1.000000
  275      -12.691731    -12.411801   1.000000   1.000000
  276      -12.691713    -12.411783   1.000000   1.000000
  277      -12.690969    -12.410925   1.000000   1.000000
  278      -12.690663    -12.410668   1.000000   1.000000
  279      -12.673211    -12.393316   1.000000   1.000000
  280      -12.672873    -12.392885   1.000000   1.000000
  281      -12.672752    -12.392753   1.000000   1.000000
  282      -12.672602    -12.392584   1.000000   1.000000
  283      -12.667774    -12.388880   1.000000   1.000000
  284      -12.667718    -12.388819   1.000000   1.000000
  285      -12.667602    -12.388713   1.000000   1.000000
  286      -12.667512    -12.388611   1.000000   1.000000
  287      -12.654651    -12.374724   1.000000   1.000000
  288      -12.643840    -12.366123   1.000000   1.000000
  289       -7.800180     -7.599158   1.000000   1.000000
  290       -7.748364     -7.551625   1.000000   1.000000
  291       -7.505978     -7.319635   1.000000   1.000000
  292       -7.505339     -7.319083   1.000000   1.000000
  293       -7.505337     -7.319063   1.000000   1.000000
  294       -7.505271     -7.318992   1.000000   1.000000
  295       -7.501615     -7.309413   1.000000   1.000000
  296       -7.500919     -7.308777   1.000000   1.000000
  297       -7.500856     -7.308717   1.000000   1.000000
  298       -7.500796     -7.308654   1.000000   1.000000
  299       -7.315372     -7.117879   1.000000   1.000000
  300       -7.315081     -7.117613   1.000000   1.000000
  301       -7.297166     -7.093815   1.000000   1.000000
  302       -7.297021     -7.093739   1.000000   1.000000
  303       -7.297006     -7.093721   1.000000   1.000000
  304       -7.296413     -7.093094   1.000000   1.000000
  305       -7.269548     -7.062211   1.000000   1.000000
  306       -7.269158     -7.061844   1.000000   1.000000
  307       -7.088527     -6.894257   1.000000   1.000000
  308       -7.085145     -6.894019   1.000000   1.000000
  309       -7.084824     -6.893479   1.000000   1.000000
  310       -7.084319     -6.893460   1.000000   1.000000
  311       -7.084288     -6.796584   1.000000   1.000000
  312       -7.046482     -6.783656   1.000000   1.000000
  313       -7.000798     -6.768627   1.000000   1.000000
  314       -7.000006     -6.768083   1.000000   1.000000
  315       -6.999867     -6.767583   1.000000   1.000000
  316       -6.999762     -6.767569   1.000000   1.000000
  317       -6.999658     -6.766904   1.000000   1.000000
  318       -6.999526     -6.766321   1.000000   1.000000
  319       -6.999378     -6.766159   1.000000   1.000000
  320       -6.999135     -6.766069   1.000000   1.000000
  321       -6.994178     -6.765964   1.000000   1.000000
  322       -6.994156     -6.765797   1.000000   1.000000
  323       -6.994046     -6.765638   1.000000   1.000000
  324       -6.993970     -6.765355   1.000000   1.000000
  325       -6.956530     -6.744861   1.000000   1.000000
  326       -6.955929     -6.744851   1.000000   1.000000
  327       -6.955429     -6.744740   1.000000   1.000000
  328       -6.955399     -6.744565   1.000000   1.000000
  329       -6.948259     -6.697364   1.000000   1.000000
  330       -6.948242     -6.697340   1.000000   1.000000
  331       -6.928616     -6.689044   1.000000   1.000000
  332       -6.928586     -6.689011   1.000000   1.000000
  333       -6.928518     -6.688929   1.000000   1.000000
  334       -6.928487     -6.688863   1.000000   1.000000
  335       -6.911642     -6.640607   1.000000   1.000000
  336       -6.910966     -6.639254   1.000000   1.000000
  337       -6.886023     -6.639152   1.000000   1.000000
  338       -6.885829     -6.639010   1.000000   1.000000
  339       -6.885372     -6.638911   1.000000   1.000000
  340       -6.885271     -6.638827   1.000000   1.000000
  341       -6.878284     -6.638599   1.000000   1.000000
  342       -6.877042     -6.638592   1.000000   1.000000
  343       -6.876902     -6.638551   1.000000   1.000000
  344       -6.876801     -6.638510   1.000000   1.000000
  345       -6.876704     -6.637859   1.000000   1.000000
  346       -6.876560     -6.637750   1.000000   1.000000
  347       -6.876418     -6.628354   1.000000   1.000000
  348       -6.876152     -6.627677   1.000000   1.000000
  349       -6.832643     -6.586615   1.000000   1.000000
  350       -6.832515     -6.586535   1.000000   1.000000
  351       -6.794728     -6.499515   1.000000   1.000000
  352       -6.793915     -6.498706   1.000000   1.000000
  353       -1.525548     -0.414830   1.000000   1.000000
  354       -1.467869     -0.414687   1.000000   1.000000
  355       -1.467702     -0.414339   1.000000   1.000000
  356       -1.467608     -0.414181   1.000000   1.000000
  357       -1.467580      0.025746   1.000000   1.000000
  358       -1.460502      0.026283   1.000000   1.000000
  359       -1.460370      0.026440   1.000000   1.000000
  360       -1.460184      0.026485   1.000000   1.000000
  361       -1.460017      0.037463   1.000000   1.000000
  362       -1.421424      0.037648   1.000000   1.000000
  363       -1.421343      0.037807   1.000000   1.000000
  364       -1.383058      0.037977   1.000000   1.000000
  365       -1.383024      0.038216   1.000000   1.000000
  366       -1.382624      0.038240   1.000000   1.000000
  367       -1.382439      0.038441   1.000000   1.000000
  368       -1.333254      0.038490   1.000000   1.000000
  369       -1.332795      0.102683   1.000000   1.000000
  370       -1.332544      0.102864   1.000000   1.000000
  371       -1.332495      0.207025   1.000000   1.000000
  372       -1.332419      0.207259   1.000000   1.000000
  373       -1.332383      0.207749   1.000000   1.000000
  374       -1.332188      0.207819   1.000000   1.000000
  375       -1.331934      0.303939   1.000000   1.000000
  376       -1.292581      0.392300   1.000000   1.000000
  377       -1.292504      0.392425   1.000000   1.000000
  378       -1.292444      0.392602   1.000000   1.000000
  379       -1.292397      0.392688   1.000000   1.000000
  380       -1.257109      0.490847   1.000000   1.000000
  381       -1.256471      0.490911   1.000000   1.000000
  382       -1.232237      0.497613   1.000000   1.000000
  383       -1.232092      0.497640   1.000000   1.000000
  384       -1.220388      0.497747   1.000000   1.000000
  385       -0.822878      0.497946   1.000000   1.000000
  386       -0.822781      0.510648   1.000000   1.000000
  387       -0.822653      0.510720   1.000000   1.000000
  388       -0.822416      0.530912   1.000000   1.000000
  389       -0.722733      0.531019   1.000000   1.000000
  390       -0.722577      0.531468   1.000000   1.000000
  391       -0.699149      0.531560   1.000000   1.000000
  392       -0.699066      0.573988   1.000000   1.000000
  393       -0.698987      0.574076   1.000000   1.000000
  394       -0.698861      0.574243   1.000000   1.000000
  395       -0.688651      0.574260   1.000000   1.000000
  396       -0.688387      0.574592   1.000000   1.000000
  397       -0.688204      0.574618   1.000000   1.000000
  398       -0.687854      0.574663   1.000000   1.000000
  399       -0.666668      0.574685   1.000000   1.000000
  400       -0.666643      0.638483   1.000000   1.000000
  401       -0.666390      0.666246   1.000000   1.000000
  402       -0.666330      0.666445   1.000000   1.000000
  403       -0.651976      0.732546   1.000000   1.000000
  404       -0.651896      0.733410   1.000000   1.000000
  405       -0.651811      0.931470   1.000000   1.000000
  406       -0.651696      0.932653   1.000000   1.000000
  407       -0.589490      0.935566   1.000000   1.000000
  408       -0.589319      0.935713   1.000000   1.000000
  409       -0.576678      0.948872   1.000000   1.000000
  410       -0.576648      0.948905   1.000000   1.000000
  411       -0.576417      0.949020   1.000000   1.000000
  412       -0.576312      0.949171   1.000000   1.000000
  413       -0.553371      0.985956   1.000000   1.000000
  414       -0.553308      0.986043   1.000000   1.000000
  415       -0.553007      0.986402   1.000000   1.000000
  416       -0.552962      0.986475   1.000000   1.000000
  417       -0.497521      0.992657   1.000000   1.000000
  418       -0.496764      0.992850   1.000000   1.000000
  419       -0.472836      1.008623   1.000000   1.000000
  420       -0.472604      1.008684   1.000000   1.000000
  421       -0.461576      1.009136   1.000000   1.000000
  422       -0.461372      1.009154   1.000000   1.000000
  423       -0.461198      1.018560   1.000000   1.000000
  424       -0.461087      1.048786   1.000000   1.000000
  425       -0.459680      1.049068   1.000000   1.000000
  426       -0.459555      1.051596   1.000000   1.000000
  427       -0.459301      1.051713   1.000000   1.000000
  428       -0.459225      1.051786   1.000000   1.000000
  429       -0.410054      1.051866   1.000000   1.000000
  430       -0.409886      1.078687   1.000000   1.000000
  431       -0.407732      1.078777   1.000000   1.000000
  432       -0.407672      1.078842   1.000000   1.000000
  433       -0.407374      1.078987   1.000000   1.000000
  434       -0.407320      1.079586   1.000000   1.000000
  435       -0.407267      1.079694   1.000000   1.000000
  436       -0.406882      1.080035   1.000000   1.000000
  437       -0.383258      1.080123   1.000000   1.000000
  438       -0.383193      1.192762   1.000000   1.000000
  439       -0.378311      1.193072   1.000000   1.000000
  440       -0.369003      1.376420   1.000000   1.000000
  441       -0.368988      1.390316   1.000000   1.000000
  442       -0.368705      1.390884   1.000000   1.000000
  443       -0.368686      1.391038   1.000000   1.000000
  444       -0.368649      1.391245   1.000000   1.000000
  445       -0.368633      1.391456   1.000000   1.000000
  446       -0.368599      1.437306   1.000000   1.000000
  447       -0.368569      1.450195   1.000000   1.000000
  448       -0.353621      1.526144   1.000000   1.000000
  449       -0.353414      1.526159   1.000000   1.000000
  450       -0.348992      1.526289   1.000000   1.000000
  451       -0.341714      1.526407   1.000000   1.000000
  452       -0.335929      1.528894   1.000000   1.000000
  453       -0.335570      1.528925   1.000000   1.000000
  454       -0.335511      1.529000   1.000000   1.000000
  455       -0.335134      1.529007   1.000000   1.000000
  456       -0.334313      1.557926   1.000000   1.000000
  457       -0.334279      1.557989   1.000000   1.000000
  458       -0.333972      1.558574   1.000000   1.000000
  459       -0.333674      1.558647   1.000000   1.000000
  460       -0.324238      1.566155   1.000000   1.000000
  461       -0.324147      1.566495   1.000000   1.000000
  462       -0.323846      1.566772   1.000000   1.000000
  463       -0.323795      1.566917   1.000000   1.000000
  464       -0.321574      1.567997   1.000000   1.000000
  465       -0.321557      1.568284   1.000000   1.000000
  466       -0.321115      1.568444   1.000000   1.000000
  467       -0.321098      1.568556   1.000000   1.000000
  468       -0.303752      1.586337   1.000000   1.000000
  469       -0.295814      1.586711   1.000000   1.000000
  470       -0.288169      1.695480   1.000000   1.000000
  471       -0.287815      1.695760   1.000000   1.000000
  472       -0.287785      1.740743   1.000000   1.000000
  473       -0.287691      1.741012   1.000000   1.000000
  474       -0.280373      1.741134   1.000000   1.000000
  475       -0.280287      1.741172   1.000000   1.000000
  476       -0.275187      1.746177   1.000000   1.000000
  477       -0.274921      1.746235   1.000000   1.000000
  478       -0.274863      1.747262   1.000000   1.000000
  479       -0.274622      1.747302   1.000000   1.000000
  480       -0.241835      1.778944   1.000000   1.000000
  481       -0.241718      1.780603   1.000000   1.000000
  482       -0.241611      1.780651   1.000000   1.000000
  483       -0.241433      1.836461   1.000000   1.000000
  484       -0.241423      1.836911   1.000000   1.000000
  485       -0.241350      1.837080   1.000000   1.000000
  486       -0.241259      1.837385   1.000000   1.000000
  487       -0.241084      1.837500   1.000000   1.000000
  488       -0.207432      1.838043   1.000000   1.000000
  489       -0.207426      1.838096   1.000000   1.000000
  490       -0.199839      1.838750   1.000000   1.000000
  491       -0.199623      1.866074   1.000000   1.000000
  492       -0.199491      1.866625   1.000000   1.000000
  493       -0.199247      1.912999   1.000000   1.000000
  494       -0.194019      1.913067   1.000000   1.000000
  495       -0.193773      1.913272   1.000000   1.000000
  496       -0.164040      1.913380   1.000000   1.000000
  497       -0.163923      1.913722   1.000000   1.000000
  498       -0.163781      1.913756   1.000000   1.000000
  499       -0.163683      1.913791   1.000000   1.000000
  500       -0.156640      1.913841   1.000000   1.000000
  501       -0.156526      1.926383   1.000000   1.000000
  502       -0.156164      1.926939   1.000000   1.000000
  503       -0.156067      1.927138   1.000000   1.000000
  504       -0.139124      1.927385   1.000000   1.000000
  505       -0.138919      2.133237   1.000000   1.000000
  506       -0.138869      2.133277   1.000000   1.000000
  507       -0.138537      2.191524   1.000000   1.000000
  508       -0.090958      2.193457   1.000000   1.000000
  509       -0.090926      2.300479   1.000000   1.000000
  510       -0.082431      2.300875   1.000000   1.000000
  511       -0.082419      2.301053   1.000000   1.000000
  512       -0.082342      2.301417   1.000000   1.000000