  224  224    1    2
  0.1357572E+02  0.1537960E-08  0.1537962E-08  0.1395899E-08  0.5000000E-15
  1.000000000000000E-004
  CAR 
 unknown system                          
   1664      8   1208
 
  0.0000000E+00  0.0000000E+00  0.0000000E+00  0.1250000E+00
    1      -51.143341    -46.392567   1.000000   1.000000
    2      -51.142903    -46.391831   1.000000   1.000000
    3      -51.141671    -46.391122   1.000000   1.000000
    4      -51.141388    -46.390698   1.000000   1.000000
    5      -51.141383    -46.390680   1.000000   1.000000
    6      -51.141289    -46.390564   1.000000   1.000000
    7      -51.141225    -46.390509   1.000000   1.000000
    8      -51.141157    -46.390348   1.000000   1.000000
    9      -51.141130    -46.390288   1.000000   1.000000
   10      -51.141100    -46.390275   1.000000   1.000000
   11      -51.141023    -46.390162   1.000000   1.000000
   12      -51.140973    -46.390147   1.000000   1.000000
   13      -51.140937    -46.390064   1.000000   1.000000
   14      -51.140928    -46.390033   1.000000   1.000000
   15      -51.140890    -46.390010   1.000000   1.000000
   16      -51.140838    -46.389954   1.000000   1.000000
   17      -51.140821    -46.389897   1.000000   1.000000
   18      -51.140772    -46.389816   1.000000   1.000000
   19      -51.140729    -46.389767   1.000000   1.000000
   20      -51.140705    -46.389729   1.000000   1.000000
   21      -51.140687    -46.389713   1.000000   1.000000
   22      -51.140643    -46.389644   1.000000   1.000000
   23      -51.140579    -46.389622   1.000000   1.000000
   24      -51.140566    -46.389601   1.000000   1.000000
   25      -51.140555    -46.389580   1.000000   1.000000
   26      -51.140537    -46.389560   1.000000   1.000000
   27      -51.140519    -46.389546   1.000000   1.000000
   28      -51.140499    -46.389494   1.000000   1.000000
   29      -51.140466    -46.389458   1.000000   1.000000
   30      -51.140457    -46.389430   1.000000   1.000000
   31      -51.140416    -46.389390   1.000000   1.000000
   32      -51.140342    -46.389362   1.000000   1.000000
   33      -51.140297    -46.389109   1.000000   1.000000
   34      -51.140264    -46.389072   1.000000   1.000000
   35      -51.140233    -46.389017   1.000000   1.000000
   36      -51.140195    -46.388967   1.000000   1.000000
   37      -51.140161    -46.388910   1.000000   1.000000
   38      -51.140132    -46.388883   1.000000   1.000000
   39      -51.140124    -46.388864   1.000000   1.000000
   40      -51.140115    -46.388853   1.000000   1.000000
   41      -51.140104    -46.388830   1.000000   1.000000
   42      -51.140090    -46.388813   1.000000   1.000000
   43      -51.140026    -46.388783   1.000000   1.000000
   44      -51.139990    -46.388743   1.000000   1.000000
   45      -51.139947    -46.388688   1.000000   1.000000
   46      -51.139932    -46.388657   1.000000   1.000000
   47      -51.139906    -46.388649   1.000000   1.000000
   48      -51.139904    -46.388620   1.000000   1.000000
   49      -51.139864    -46.388570   1.000000   1.000000
   50      -51.139838    -46.388536   1.000000   1.000000
   51      -51.139810    -46.388511   1.000000   1.000000
   52      -51.139796    -46.388491   1.000000   1.000000
   53      -51.139726    -46.388405   1.000000   1.000000
   54      -51.139696    -46.388369   1.000000   1.000000
   55      -51.139651    -46.388327   1.000000   1.000000
   56      -51.139615    -46.388242   1.000000   1.000000
   57      -51.139575    -46.388199   1.000000   1.000000
   58      -51.139520    -46.388056   1.000000   1.000000
   59      -51.139458    -46.388042   1.000000   1.000000
   60      -51.139406    -46.387936   1.000000   1.000000
   61      -51.139386    -46.387924   1.000000   1.000000
   62      -51.139153    -46.387572   1.000000   1.000000
   63      -51.137576    -46.386476   1.000000   1.000000
   64      -51.137144    -46.385743   1.000000   1.000000
   65      -49.649420    -45.930157   1.000000   1.000000
   66      -49.649359    -45.930073   1.000000   1.000000
   67      -49.647738    -45.929882   1.000000   1.000000
   68      -49.647708    -45.929803   1.000000   1.000000
   69      -49.647640    -45.929105   1.000000   1.000000
   70      -49.647518    -45.929083   1.000000   1.000000
   71      -49.647460    -45.929033   1.000000   1.000000
   72      -49.647414    -45.929012   1.000000   1.000000
   73      -49.647391    -45.928750   1.000000   1.000000
   74      -49.647369    -45.928712   1.000000   1.000000
   75      -49.647325    -45.928691   1.000000   1.000000
   76      -49.647321    -45.928683   1.000000   1.000000
   77      -49.647291    -45.928655   1.000000   1.000000
   78      -49.647276    -45.928633   1.000000   1.000000
   79      -49.647270    -45.928601   1.000000   1.000000
   80      -49.647240    -45.928568   1.000000   1.000000
   81      -49.647196    -45.928546   1.000000   1.000000
   82      -49.647181    -45.928534   1.000000   1.000000
   83      -49.647155    -45.928501   1.000000   1.000000
   84      -49.647138    -45.928468   1.000000   1.000000
   85      -49.647118    -45.928465   1.000000   1.000000
   86      -49.647102    -45.928436   1.000000   1.000000
   87      -49.647077    -45.928427   1.000000   1.000000
   88      -49.647044    -45.928387   1.000000   1.000000
   89      -49.647026    -45.928361   1.000000   1.000000
   90      -49.646984    -45.928345   1.000000   1.000000
   91      -49.646907    -45.928283   1.000000   1.000000
   92      -49.646886    -45.928282   1.000000   1.000000
   93      -49.646860    -45.928271   1.000000   1.000000
   94      -49.646850    -45.928250   1.000000   1.000000
   95      -49.646818    -45.928238   1.000000   1.000000
   96      -49.646810    -45.928214   1.000000   1.000000
   97      -49.646691    -45.928130   1.000000   1.000000
   98      -49.646650    -45.928119   1.000000   1.000000
   99      -49.646619    -45.928095   1.000000   1.000000
  100      -49.646603    -45.928069   1.000000   1.000000
  101      -49.646568    -45.927970   1.000000   1.000000
  102      -49.646539    -45.927960   1.000000   1.000000
  103      -49.646522    -45.927926   1.000000   1.000000
  104      -49.646494    -45.927921   1.000000   1.000000
  105      -49.646441    -45.927890   1.000000   1.000000
  106      -49.646410    -45.927863   1.000000   1.000000
  107      -49.646345    -45.927820   1.000000   1.000000
  108      -49.646305    -45.927796   1.000000   1.000000
  109      -49.646211    -45.927659   1.000000   1.000000
  110      -49.646174    -45.927622   1.000000   1.000000
  111      -49.646167    -45.927585   1.000000   1.000000
  112      -49.646160    -45.927549   1.000000   1.000000
  113      -49.646089    -45.927494   1.000000   1.000000
  114      -49.646055    -45.927464   1.000000   1.000000
  115      -49.646047    -45.927448   1.000000   1.000000
  116      -49.646007    -45.927414   1.000000   1.000000
  117      -49.645908    -45.927384   1.000000   1.000000
  118      -49.645873    -45.927348   1.000000   1.000000
  119      -49.645837    -45.927338   1.000000   1.000000
  120      -49.645807    -45.927315   1.000000   1.000000
  121      -49.645776    -45.927308   1.000000   1.000000
  122      -49.645752    -45.927277   1.000000   1.000000
  123      -49.645719    -45.927254   1.000000   1.000000
  124      -49.645701    -45.927246   1.000000   1.000000
  125      -49.645553    -45.927188   1.000000   1.000000
  126      -49.645542    -45.927149   1.000000   1.000000
  127      -49.645534    -45.927126   1.000000   1.000000
  128      -49.645500    -45.927123   1.000000   1.000000
  129      -49.645493    -45.927099   1.000000   1.000000
  130      -49.645476    -45.927083   1.000000   1.000000
  131      -49.645467    -45.927077   1.000000   1.000000
  132      -49.645439    -45.927055   1.000000   1.000000
  133      -49.645418    -45.927037   1.000000   1.000000
  134      -49.645404    -45.927021   1.000000   1.000000
  135      -49.645373    -45.927000   1.000000   1.000000
  136      -49.645364    -45.926995   1.000000   1.000000
  137      -49.645326    -45.926954   1.000000   1.000000
  138      -49.645324    -45.926923   1.000000   1.000000
  139      -49.645300    -45.926916   1.000000   1.000000
  140      -49.645267    -45.926897   1.000000   1.000000
  141      -49.645261    -45.926840   1.000000   1.000000
  142      -49.645234    -45.926826   1.000000   1.000000
  143      -49.645211    -45.926808   1.000000   1.000000
  144      -49.645193    -45.926798   1.000000   1.000000
  145      -49.645172    -45.926779   1.000000   1.000000
  146      -49.645158    -45.926766   1.000000   1.000000
  147      -49.645090    -45.926744   1.000000   1.000000
  148      -49.645081    -45.926728   1.000000   1.000000
  149      -49.645066    -45.926662   1.000000   1.000000
  150      -49.645021    -45.926638   1.000000   1.000000
  151      -49.644994    -45.926587   1.000000   1.000000
  152      -49.644965    -45.926571   1.000000   1.000000
  153      -49.644925    -45.926565   1.000000   1.000000
  154      -49.644891    -45.926546   1.000000   1.000000
  155      -49.644778    -45.926541   1.000000   1.000000
  156      -49.644737    -45.926520   1.000000   1.000000
  157      -49.644718    -45.926492   1.000000   1.000000
  158      -49.644698    -45.926442   1.000000   1.000000
  159      -49.644671    -45.926432   1.000000   1.000000
  160      -49.644652    -45.926415   1.000000   1.000000
  161      -49.644606    -45.926377   1.000000   1.000000
  162      -49.644586    -45.926371   1.000000   1.000000
  163      -49.644557    -45.926359   1.000000   1.000000
  164      -49.644540    -45.926346   1.000000   1.000000
  165      -49.644484    -45.926335   1.000000   1.000000
  166      -49.644440    -45.926298   1.000000   1.000000
  167      -49.644413    -45.926272   1.000000   1.000000
  168      -49.644397    -45.926246   1.000000   1.000000
  169      -49.644344    -45.926222   1.000000   1.000000
  170      -49.644321    -45.926210   1.000000   1.000000
  171      -49.644294    -45.926187   1.000000   1.000000
  172      -49.644210    -45.926162   1.000000   1.000000
  173      -49.644170    -45.926115   1.000000   1.000000
  174      -49.644154    -45.926090   1.000000   1.000000
  175      -49.644130    -45.926060   1.000000   1.000000
  176      -49.644115    -45.926049   1.000000   1.000000
  177      -49.644056    -45.925908   1.000000   1.000000
  178      -49.644022    -45.925863   1.000000   1.000000
  179      -49.643997    -45.925858   1.000000   1.000000
  180      -49.643984    -45.925832   1.000000   1.000000
  181      -49.643964    -45.925788   1.000000   1.000000
  182      -49.643953    -45.925765   1.000000   1.000000
  183      -49.643707    -45.925736   1.000000   1.000000
  184      -49.643674    -45.925709   1.000000   1.000000
  185      -49.643607    -45.925705   1.000000   1.000000
  186      -49.643583    -45.925663   1.000000   1.000000
  187      -49.643503    -45.925474   1.000000   1.000000
  188      -49.643467    -45.925401   1.000000   1.000000
  189      -49.643298    -45.924716   1.000000   1.000000
  190      -49.643232    -45.924648   1.000000   1.000000
  191      -49.642535    -45.924003   1.000000   1.000000
  192      -49.642491    -45.923930   1.000000   1.000000
  193      -39.641200    -39.640283   1.000000   1.000000
  194      -39.641040    -39.640122   1.000000   1.000000
  195      -39.634371    -39.633498   1.000000   1.000000
  196      -39.633524    -39.632652   1.000000   1.000000
  197      -39.633427    -39.632554   1.000000   1.000000
  198      -39.633426    -39.632553   1.000000   1.000000
  199      -39.633412    -39.632540   1.000000   1.000000
  200      -39.633357    -39.632485   1.000000   1.000000
  201      -39.633356    -39.632483   1.000000   1.000000
  202      -39.632669    -39.631797   1.000000   1.000000
  203      -39.628209    -39.627371   1.000000   1.000000
  204      -39.628131    -39.627292   1.000000   1.000000
  205      -39.627798    -39.626961   1.000000   1.000000
  206      -39.627763    -39.626925   1.000000   1.000000
  207      -39.627760    -39.626922   1.000000   1.000000
  208      -39.627693    -39.626854   1.000000   1.000000
  209      -39.627409    -39.626572   1.000000   1.000000
  210      -39.627283    -39.626446   1.000000   1.000000
  211      -39.617468    -39.616695   1.000000   1.000000
  212      -39.616235    -39.615461   1.000000   1.000000
  213      -39.616034    -39.615258   1.000000   1.000000
  214      -39.615983    -39.615206   1.000000   1.000000
  215      -39.615786    -39.615009   1.000000   1.000000
  216      -39.615704    -39.614930   1.000000   1.000000
  217      -39.615581    -39.614800   1.000000   1.000000
  218      -39.615575    -39.614798   1.000000   1.000000
  219      -39.615540    -39.614760   1.000000   1.000000
  220      -39.615317    -39.614545   1.000000   1.000000
  221      -39.615215    -39.614448   1.000000   1.000000
  222      -39.615205    -39.614438   1.000000   1.000000
  223      -39.615167    -39.614400   1.000000   1.000000
  224      -39.615165    -39.614398   1.000000   1.000000
  225      -39.615149    -39.614382   1.000000   1.000000
  226      -39.615074    -39.614305   1.000000   1.000000
  227      -39.615001    -39.614233   1.000000   1.000000
  228      -39.614975    -39.614206   1.000000   1.000000
  229      -39.614973    -39.614204   1.000000   1.000000
  230      -39.614928    -39.614160   1.000000   1.000000
  231      -39.614923    -39.614155   1.000000   1.000000
  232      -39.614860    -39.614092   1.000000   1.000000
  233      -39.614668    -39.613904   1.000000   1.000000
  234      -39.614650    -39.613888   1.000000   1.000000
  235      -39.614360    -39.613603   1.000000   1.000000
  236      -39.614309    -39.613552   1.000000   1.000000
  237      -39.613852    -39.613088   1.000000   1.000000
  238      -39.613062    -39.612300   1.000000   1.000000
  239      -39.604215    -39.603495   1.000000   1.000000
  240      -39.604154    -39.603434   1.000000   1.000000
  241      -39.603873    -39.603154   1.000000   1.000000
  242      -39.603798    -39.603079   1.000000   1.000000
  243      -39.603794    -39.603075   1.000000   1.000000
  244      -39.603769    -39.603050   1.000000   1.000000
  245      -39.603507    -39.602788   1.000000   1.000000
  246      -39.603376    -39.602657   1.000000   1.000000
  247      -39.600186    -39.599479   1.000000   1.000000
  248      -39.599590    -39.598884   1.000000   1.000000
  249      -39.599588    -39.598883   1.000000   1.000000
  250      -39.599537    -39.598831   1.000000   1.000000
  251      -39.599521    -39.598815   1.000000   1.000000
  252      -39.599517    -39.598811   1.000000   1.000000
  253      -39.599399    -39.598693   1.000000   1.000000
  254      -39.598663    -39.597957   1.000000   1.000000
  255      -39.593293    -39.592611   1.000000   1.000000
  256      -39.593116    -39.592433   1.000000   1.000000
  257      -12.747480    -12.468035   1.000000   1.000000
  258      -12.747183    -12.467713   1.000000   1.000000
  259      -12.722411    -12.442832   1.000000   1.000000
  260      -12.719364    -12.439610   1.000000   1.000000
  261      -12.719356    -12.439602   1.000000   1.000000
  262      -12.719330    -12.439578   1.000000   1.000000
  263      -12.719315    -12.439563   1.000000   1.000000
  264      -12.719277    -12.439528   1.000000   1.000000
  265      -12.719261    -12.439511   1.000000   1.000000
  266      -12.717464    -12.437653   1.000000   1.000000
  267      -12.698767    -12.418932   1.000000   1.000000
  268      -12.696845    -12.416706   1.000000   1.000000
  269      -12.695975    -12.416185   1.000000   1.000000
  270      -12.694759    -12.415151   1.000000   1.000000
  271      -12.694730    -12.415122   1.000000   1.000000
  272      -12.694013    -12.414417   1.000000   1.000000
  273      -12.692955    -12.413729   1.000000   1.000000
  274      -12.692079    -12.412784   1.000000   1.000000
  275      -12.691666    -12.411815   1.000000   1.000000
  276      -12.691252    -12.411218   1.000000   1.000000
  277      -12.691228    -12.411193   1.000000   1.000000
  278      -12.688827    -12.408857   1.000000   1.000000
  279      -12.673729    -12.393795   1.000000   1.000000
  280      -12.672685    -12.392668   1.000000   1.000000
  281      -12.672643    -12.392629   1.000000   1.000000
  282      -12.671488    -12.391549   1.000000   1.000000
  283      -12.668400    -12.389479   1.000000   1.000000
  284      -12.667616    -12.388724   1.000000   1.000000
  285      -12.667574    -12.388685   1.000000   1.000000
  286      -12.665654    -12.386517   1.000000   1.000000
  287      -12.654318    -12.374351   1.000000   1.000000
  288      -12.643597    -12.365849   1.000000   1.000000
  289       -7.800025     -7.599026   1.000000   1.000000
  290       -7.748232     -7.551511   1.000000   1.000000
  291       -7.505515     -7.319258   1.000000   1.000000
  292       -7.505387     -7.319133   1.000000   1.000000
  293       -7.505327     -7.319074   1.000000   1.000000
  294       -7.505200     -7.318949   1.000000   1.000000
  295       -7.501087     -7.308941   1.000000   1.000000
  296       -7.500972     -7.308829   1.000000   1.000000
  297       -7.500902     -7.308761   1.000000   1.000000
  298       -7.500788     -7.308648   1.000000   1.000000
  299       -7.315187     -7.117733   1.000000   1.000000
  300       -7.315121     -7.117670   1.000000   1.000000
  301       -7.296870     -7.093583   1.000000   1.000000
  302       -7.296832     -7.093545   1.000000   1.000000
  303       -7.296790     -7.093510   1.000000   1.000000
  304       -7.296753     -7.093473   1.000000   1.000000
  305       -7.269267     -7.061967   1.000000   1.000000
  306       -7.269201     -7.061905   1.000000   1.000000
  307       -7.088625     -6.893893   1.000000   1.000000
  308       -7.084704     -6.893849   1.000000   1.000000
  309       -7.084660     -6.893833   1.000000   1.000000
  310       -7.084632     -6.893784   1.000000   1.000000
  311       -7.084582     -6.796723   1.000000   1.000000
  312       -7.046566     -6.783790   1.000000   1.000000
  313       -6.999998     -6.767955   1.000000   1.000000
  314       -6.999821     -6.767910   1.000000   1.000000
  315       -6.999816     -6.767893   1.000000   1.000000
  316       -6.999772     -6.767845   1.000000   1.000000
  317       -6.999762     -6.766314   1.000000   1.000000
  318       -6.999711     -6.766129   1.000000   1.000000
  319       -6.999707     -6.766128   1.000000   1.000000
  320       -6.999538     -6.766087   1.000000   1.000000
  321       -6.994320     -6.766080   1.000000   1.000000
  322       -6.994204     -6.766033   1.000000   1.000000
  323       -6.994136     -6.766030   1.000000   1.000000
  324       -6.994019     -6.765854   1.000000   1.000000
  325       -6.955813     -6.745022   1.000000   1.000000
  326       -6.955771     -6.744907   1.000000   1.000000
  327       -6.955742     -6.744842   1.000000   1.000000
  328       -6.955693     -6.744727   1.000000   1.000000
  329       -6.948352     -6.697482   1.000000   1.000000
  330       -6.948296     -6.697430   1.000000   1.000000
  331       -6.928761     -6.689213   1.000000   1.000000
  332       -6.928641     -6.689097   1.000000   1.000000
  333       -6.928580     -6.689037   1.000000   1.000000
  334       -6.928458     -6.688920   1.000000   1.000000
  335       -6.911320     -6.639267   1.000000   1.000000
  336       -6.911302     -6.639076   1.000000   1.000000
  337       -6.885679     -6.639071   1.000000   1.000000
  338       -6.885673     -6.639058   1.000000   1.000000
  339       -6.885613     -6.639024   1.000000   1.000000
  340       -6.885599     -6.638975   1.000000   1.000000
  341       -6.877037     -6.638971   1.000000   1.000000
  342       -6.876866     -6.638824   1.000000   1.000000
  343       -6.876863     -6.638417   1.000000   1.000000
  344       -6.876819     -6.638362   1.000000   1.000000
  345       -6.876801     -6.638347   1.000000   1.000000
  346       -6.876755     -6.638314   1.000000   1.000000
  347       -6.876752     -6.628083   1.000000   1.000000
  348       -6.876583     -6.628063   1.000000   1.000000
  349       -6.832627     -6.586663   1.000000   1.000000
  350       -6.832573     -6.586613   1.000000   1.000000
  351       -6.794276     -6.499096   1.000000   1.000000
  352       -6.794258     -6.499076   1.000000   1.000000
  353       -1.525532     -0.415100   1.000000   1.000000
  354       -1.468401     -0.414574   1.000000   1.000000
  355       -1.467708     -0.414450   1.000000   1.000000
  356       -1.467641     -0.413942   1.000000   1.000000
  357       -1.467074      0.025434   1.000000   1.000000
  358       -1.460807      0.026344   1.000000   1.000000
  359       -1.460327      0.026446   1.000000   1.000000
  360       -1.460188      0.026975   1.000000   1.000000
  361       -1.459625      0.036915   1.000000   1.000000
  362       -1.421724      0.037906   1.000000   1.000000
  363       -1.421011      0.037973   1.000000   1.000000
  364       -1.383433      0.038037   1.000000   1.000000
  365       -1.382784      0.038066   1.000000   1.000000
  366       -1.382764      0.038124   1.000000   1.000000
  367       -1.382134      0.038183   1.000000   1.000000
  368       -1.333691      0.039432   1.000000   1.000000
  369       -1.332581      0.102457   1.000000   1.000000
  370       -1.332559      0.103372   1.000000   1.000000
  371       -1.332516      0.206725   1.000000   1.000000
  372       -1.332477      0.207520   1.000000   1.000000
  373       -1.332448      0.207585   1.000000   1.000000
  374       -1.332425      0.208345   1.000000   1.000000
  375       -1.331306      0.304169   1.000000   1.000000
  376       -1.293056      0.391748   1.000000   1.000000
  377       -1.292520      0.392559   1.000000   1.000000
  378       -1.292449      0.392674   1.000000   1.000000
  379       -1.291841      0.393417   1.000000   1.000000
  380       -1.256800      0.490424   1.000000   1.000000
  381       -1.256770      0.491408   1.000000   1.000000
  382       -1.232480      0.497492   1.000000   1.000000
  383       -1.231838      0.497692   1.000000   1.000000
  384       -1.220361      0.497717   1.000000   1.000000
  385       -0.822870      0.497889   1.000000   1.000000
  386       -0.822746      0.510684   1.000000   1.000000
  387       -0.822655      0.510700   1.000000   1.000000
  388       -0.822523      0.531125   1.000000   1.000000
  389       -0.722783      0.531205   1.000000   1.000000
  390       -0.722525      0.531295   1.000000   1.000000
  391       -0.699192      0.531371   1.000000   1.000000
  392       -0.699123      0.574163   1.000000   1.000000
  393       -0.699066      0.574256   1.000000   1.000000
  394       -0.698791      0.574309   1.000000   1.000000
  395       -0.688510      0.574361   1.000000   1.000000
  396       -0.688446      0.574405   1.000000   1.000000
  397       -0.688183      0.574452   1.000000   1.000000
  398       -0.688115      0.574507   1.000000   1.000000
  399       -0.666911      0.574598   1.000000   1.000000
  400       -0.666517      0.638616   1.000000   1.000000
  401       -0.666400      0.666198   1.000000   1.000000
  402       -0.666371      0.666434   1.000000   1.000000
  403       -0.652085      0.733086   1.000000   1.000000
  404       -0.651871      0.733122   1.000000   1.000000
  405       -0.651796      0.931320   1.000000   1.000000
  406       -0.651690      0.932538   1.000000   1.000000
  407       -0.589575      0.935375   1.000000   1.000000
  408       -0.589252      0.935929   1.000000   1.000000
  409       -0.576885      0.948604   1.000000   1.000000
  410       -0.576631      0.948945   1.000000   1.000000
  411       -0.576463      0.949050   1.000000   1.000000
  412       -0.576211      0.949265   1.000000   1.000000
  413       -0.553398      0.985649   1.000000   1.000000
  414       -0.553389      0.986132   1.000000   1.000000
  415       -0.553202      0.986294   1.000000   1.000000
  416       -0.552841      0.986650   1.000000   1.000000
  417       -0.497637      0.992765   1.000000   1.000000
  418       -0.496868      0.992988   1.000000   1.000000
  419       -0.472912      1.008665   1.000000   1.000000
  420       -0.472682      1.008928   1.000000   1.000000
  421       -0.461579      1.008968   1.000000   1.000000
  422       -0.461541      1.009241   1.000000   1.000000
  423       -0.461305      1.018462   1.000000   1.000000
  424       -0.461091      1.048839   1.000000   1.000000
  425       -0.459785      1.049255   1.000000   1.000000
  426       -0.459781      1.051256   1.000000   1.000000
  427       -0.459474      1.051753   1.000000   1.000000
  428       -0.459261      1.051803   1.000000   1.000000
  429       -0.410277      1.052199   1.000000   1.000000
  430       -0.409787      1.078387   1.000000   1.000000
  431       -0.407883      1.078655   1.000000   1.000000
  432       -0.407601      1.078847   1.000000   1.000000
  433       -0.407570      1.079164   1.000000   1.000000
  434       -0.407387      1.079635   1.000000   1.000000
  435       -0.407278      1.079770   1.000000   1.000000
  436       -0.407025      1.079983   1.000000   1.000000
  437       -0.383298      1.080544   1.000000   1.000000
  438       -0.383246      1.192411   1.000000   1.000000
  439       -0.378173      1.193291   1.000000   1.000000
  440       -0.368853      1.376464   1.000000   1.000000
  441       -0.368834      1.390362   1.000000   1.000000
  442       -0.368718      1.391108   1.000000   1.000000
  443       -0.368702      1.391167   1.000000   1.000000
  444       -0.368673      1.391369   1.000000   1.000000
  445       -0.368657      1.391410   1.000000   1.000000
  446       -0.368591      1.437319   1.000000   1.000000
  447       -0.368562      1.450200   1.000000   1.000000
  448       -0.353561      1.525758   1.000000   1.000000
  449       -0.353516      1.526332   1.000000   1.000000
  450       -0.349038      1.526423   1.000000   1.000000
  451       -0.341789      1.526885   1.000000   1.000000
  452       -0.335809      1.528459   1.000000   1.000000
  453       -0.335772      1.529001   1.000000   1.000000
  454       -0.335402      1.529083   1.000000   1.000000
  455       -0.335358      1.529545   1.000000   1.000000
  456       -0.334215      1.558225   1.000000   1.000000
  457       -0.334160      1.558302   1.000000   1.000000
  458       -0.334096      1.558360   1.000000   1.000000
  459       -0.334039      1.558428   1.000000   1.000000
  460       -0.324490      1.566187   1.000000   1.000000
  461       -0.324051      1.566777   1.000000   1.000000
  462       -0.323855      1.566961   1.000000   1.000000
  463       -0.323846      1.567165   1.000000   1.000000
  464       -0.321861      1.567970   1.000000   1.000000
  465       -0.321395      1.568309   1.000000   1.000000
  466       -0.321194      1.568511   1.000000   1.000000
  467       -0.321179      1.568868   1.000000   1.000000
  468       -0.303844      1.586525   1.000000   1.000000
  469       -0.295896      1.586673   1.000000   1.000000
  470       -0.288097      1.695609   1.000000   1.000000
  471       -0.287912      1.695829   1.000000   1.000000
  472       -0.287793      1.740957   1.000000   1.000000
  473       -0.287618      1.741034   1.000000   1.000000
  474       -0.280390      1.741111   1.000000   1.000000
  475       -0.280373      1.741323   1.000000   1.000000
  476       -0.275135      1.746866   1.000000   1.000000
  477       -0.275072      1.746907   1.000000   1.000000
  478       -0.274818      1.746923   1.000000   1.000000
  479       -0.274750      1.746947   1.000000   1.000000
  480       -0.241704      1.779034   1.000000   1.000000
  481       -0.241613      1.780497   1.000000   1.000000
  482       -0.241592      1.780807   1.000000   1.000000
  483       -0.241568      1.836784   1.000000   1.000000
  484       -0.241388      1.836910   1.000000   1.000000
  485       -0.241371      1.837188   1.000000   1.000000
  486       -0.241352      1.837421   1.000000   1.000000
  487       -0.241223      1.837643   1.000000   1.000000
  488       -0.207409      1.837750   1.000000   1.000000
  489       -0.207396      1.838448   1.000000   1.000000
  490       -0.199694      1.838829   1.000000   1.000000
  491       -0.199653      1.866211   1.000000   1.000000
  492       -0.199496      1.866417   1.000000   1.000000
  493       -0.199435      1.912689   1.000000   1.000000
  494       -0.194111      1.913456   1.000000   1.000000
  495       -0.193910      1.913513   1.000000   1.000000
  496       -0.163965      1.913586   1.000000   1.000000
  497       -0.163959      1.913597   1.000000   1.000000
  498       -0.163839      1.913656   1.000000   1.000000
  499       -0.163667      1.913821   1.000000   1.000000
  500       -0.156667      1.914352   1.000000   1.000000
  501       -0.156661      1.926726   1.000000   1.000000
  502       -0.156304      1.926985   1.000000   1.000000
  503       -0.156043      1.927105   1.000000   1.000000
  504       -0.139133      1.927381   1.000000   1.000000
  505       -0.139031      2.133012   1.000000   1.000000
  506       -0.138837      2.133493   1.000000   1.000000
  507       -0.138732      2.191280   1.000000   1.000000
  508       -0.091108      2.193168   1.000000   1.000000
  509       -0.090826      2.300680   1.000000   1.000000
  510       -0.082790      2.300706   1.000000   1.000000
  511       -0.082483      2.301023   1.000000   1.000000
  512       -0.082465      2.301327   1.000000   1.000000