 120 120   0   0
  0.1228332E+02  0.1173587E-08  0.1121847E-08  0.1119562E-08  0.5000000E-15
  1.000000000000000E-004
  CAR 
 unknown system                          
     16.73663720    -54.73808447  301      4.40724771      1.00000000
    -54.738  0.0000E+00  0.0000E+00  0.0000E+00  0.0000E+00
    -54.500  0.0000E+00  0.0000E+00  0.0000E+00  0.0000E+00
    -54.262  0.0000E+00  0.0000E+00  0.0000E+00  0.0000E+00
    -54.023  0.0000E+00  0.0000E+00  0.0000E+00  0.0000E+00
    -53.785  0.0000E+00  0.0000E+00  0.0000E+00  0.0000E+00
    -53.547  0.0000E+00  0.0000E+00  0.0000E+00  0.0000E+00
    -53.309  0.0000E+00  0.0000E+00  0.0000E+00  0.0000E+00
    -53.070  0.0000E+00  0.0000E+00  0.0000E+00  0.0000E+00
    -52.832  0.0000E+00  0.0000E+00  0.0000E+00  0.0000E+00
    -52.594  0.0000E+00  0.0000E+00  0.0000E+00  0.0000E+00
    -52.356  0.0000E+00  0.0000E+00  0.0000E+00  0.0000E+00
    -52.117  0.0000E+00  0.0000E+00  0.0000E+00  0.0000E+00
    -51.879  0.0000E+00  0.0000E+00  0.0000E+00  0.0000E+00
    -51.641  0.1303E-03  0.0000E+00  0.3105E-04  0.0000E+00
    -51.403  0.9661E+02  0.0000E+00  0.2302E+02  0.0000E+00
    -51.164  0.4124E+01  0.0000E+00  0.2400E+02  0.0000E+00
    -50.926  0.0000E+00  0.0000E+00  0.2400E+02  0.0000E+00
    -50.688  0.0000E+00  0.0000E+00  0.2400E+02  0.0000E+00
    -50.450  0.1005E-09  0.0000E+00  0.2400E+02  0.0000E+00
    -50.211  0.3700E+02  0.0000E+00  0.3282E+02  0.0000E+00
    -49.973  0.1328E+03  0.0000E+00  0.6446E+02  0.0000E+00
    -49.735  0.3164E+02  0.0000E+00  0.7200E+02  0.0000E+00
    -49.497  0.0000E+00  0.0000E+00  0.7200E+02  0.0000E+00
    -49.258  0.0000E+00  0.0000E+00  0.7200E+02  0.0000E+00
    -49.020  0.0000E+00  0.0000E+00  0.7200E+02  0.0000E+00
    -48.782  0.0000E+00  0.0000E+00  0.7200E+02  0.0000E+00
    -48.544  0.0000E+00  0.0000E+00  0.7200E+02  0.0000E+00
    -48.305  0.0000E+00  0.0000E+00  0.7200E+02  0.0000E+00
    -48.067  0.0000E+00  0.0000E+00  0.7200E+02  0.0000E+00
    -47.829  0.0000E+00  0.0000E+00  0.7200E+02  0.0000E+00
    -47.591  0.0000E+00  0.0000E+00  0.7200E+02  0.0000E+00
    -47.352  0.0000E+00  0.0000E+00  0.7200E+02  0.0000E+00
    -47.114  0.0000E+00  0.0000E+00  0.7200E+02  0.0000E+00
    -46.876  0.0000E+00  0.3975E-01  0.7200E+02  0.9471E-02
    -46.638  0.0000E+00  0.1005E+03  0.7200E+02  0.2396E+02
    -46.399  0.0000E+00  0.8893E+02  0.7200E+02  0.4515E+02
    -46.161  0.0000E+00  0.1127E+03  0.7200E+02  0.7200E+02
    -45.923  0.0000E+00  0.0000E+00  0.7200E+02  0.7200E+02
    -45.685  0.0000E+00  0.0000E+00  0.7200E+02  0.7200E+02
    -45.446  0.0000E+00  0.0000E+00  0.7200E+02  0.7200E+02
    -45.208  0.0000E+00  0.0000E+00  0.7200E+02  0.7200E+02
    -44.970  0.0000E+00  0.0000E+00  0.7200E+02  0.7200E+02
    -44.732  0.0000E+00  0.0000E+00  0.7200E+02  0.7200E+02
    -44.493  0.0000E+00  0.0000E+00  0.7200E+02  0.7200E+02
    -44.255  0.0000E+00  0.0000E+00  0.7200E+02  0.7200E+02
    -44.017  0.0000E+00  0.0000E+00  0.7200E+02  0.7200E+02
    -43.779  0.0000E+00  0.0000E+00  0.7200E+02  0.7200E+02
    -43.540  0.0000E+00  0.0000E+00  0.7200E+02  0.7200E+02
    -43.302  0.0000E+00  0.0000E+00  0.7200E+02  0.7200E+02
    -43.064  0.0000E+00  0.0000E+00  0.7200E+02  0.7200E+02
    -42.826  0.0000E+00  0.0000E+00  0.7200E+02  0.7200E+02
    -42.587  0.0000E+00  0.0000E+00  0.7200E+02  0.7200E+02
    -42.349  0.0000E+00  0.0000E+00  0.7200E+02  0.7200E+02
    -42.111  0.0000E+00  0.0000E+00  0.7200E+02  0.7200E+02
    -41.873  0.0000E+00  0.0000E+00  0.7200E+02  0.7200E+02
    -41.634  0.0000E+00  0.0000E+00  0.7200E+02  0.7200E+02
    -41.396  0.0000E+00  0.0000E+00  0.7200E+02  0.7200E+02
    -41.158  0.0000E+00  0.0000E+00  0.7200E+02  0.7200E+02
    -40.920  0.0000E+00  0.0000E+00  0.7200E+02  0.7200E+02
    -40.681  0.1384E-03  0.4108E-04  0.7200E+02  0.7200E+02
    -40.443  0.9793E+02  0.9600E+02  0.9533E+02  0.9487E+02
    -40.205  0.1033E+03  0.1052E+03  0.1199E+03  0.1199E+03
    -39.967  0.2401E+00  0.2445E+00  0.1200E+03  0.1200E+03
    -39.728  0.0000E+00  0.0000E+00  0.1200E+03  0.1200E+03
    -39.490  0.0000E+00  0.0000E+00  0.1200E+03  0.1200E+03
    -39.252  0.0000E+00  0.0000E+00  0.1200E+03  0.1200E+03
    -39.014  0.0000E+00  0.0000E+00  0.1200E+03  0.1200E+03
    -38.775  0.0000E+00  0.0000E+00  0.1200E+03  0.1200E+03
    -38.537  0.0000E+00  0.0000E+00  0.1200E+03  0.1200E+03
    -38.299  0.0000E+00  0.0000E+00  0.1200E+03  0.1200E+03
    -38.061  0.0000E+00  0.0000E+00  0.1200E+03  0.1200E+03
    -37.822  0.0000E+00  0.0000E+00  0.1200E+03  0.1200E+03
    -37.584  0.0000E+00  0.0000E+00  0.1200E+03  0.1200E+03
    -37.346  0.0000E+00  0.0000E+00  0.1200E+03  0.1200E+03
    -37.108  0.0000E+00  0.0000E+00  0.1200E+03  0.1200E+03
    -36.869  0.0000E+00  0.0000E+00  0.1200E+03  0.1200E+03
    -36.631  0.0000E+00  0.0000E+00  0.1200E+03  0.1200E+03
    -36.393  0.0000E+00  0.0000E+00  0.1200E+03  0.1200E+03
    -36.155  0.0000E+00  0.0000E+00  0.1200E+03  0.1200E+03
    -35.916  0.0000E+00  0.0000E+00  0.1200E+03  0.1200E+03
    -35.678  0.0000E+00  0.0000E+00  0.1200E+03  0.1200E+03
    -35.440  0.0000E+00  0.0000E+00  0.1200E+03  0.1200E+03
    -35.202  0.0000E+00  0.0000E+00  0.1200E+03  0.1200E+03
    -34.963  0.0000E+00  0.0000E+00  0.1200E+03  0.1200E+03
    -34.725  0.0000E+00  0.0000E+00  0.1200E+03  0.1200E+03
    -34.487  0.0000E+00  0.0000E+00  0.1200E+03  0.1200E+03
    -34.249  0.0000E+00  0.0000E+00  0.1200E+03  0.1200E+03
    -34.010  0.0000E+00  0.0000E+00  0.1200E+03  0.1200E+03
    -33.772  0.0000E+00  0.0000E+00  0.1200E+03  0.1200E+03
    -33.534  0.0000E+00  0.0000E+00  0.1200E+03  0.1200E+03
    -33.296  0.0000E+00  0.0000E+00  0.1200E+03  0.1200E+03
    -33.057  0.0000E+00  0.0000E+00  0.1200E+03  0.1200E+03
    -32.819  0.0000E+00  0.0000E+00  0.1200E+03  0.1200E+03
    -32.581  0.0000E+00  0.0000E+00  0.1200E+03  0.1200E+03
    -32.343  0.0000E+00  0.0000E+00  0.1200E+03  0.1200E+03
    -32.104  0.0000E+00  0.0000E+00  0.1200E+03  0.1200E+03
    -31.866  0.0000E+00  0.0000E+00  0.1200E+03  0.1200E+03
    -31.628  0.0000E+00  0.0000E+00  0.1200E+03  0.1200E+03
    -31.390  0.0000E+00  0.0000E+00  0.1200E+03  0.1200E+03
    -31.151  0.0000E+00  0.0000E+00  0.1200E+03  0.1200E+03
    -30.913  0.0000E+00  0.0000E+00  0.1200E+03  0.1200E+03
    -30.675  0.0000E+00  0.0000E+00  0.1200E+03  0.1200E+03
    -30.437  0.0000E+00  0.0000E+00  0.1200E+03  0.1200E+03
    -30.198  0.0000E+00  0.0000E+00  0.1200E+03  0.1200E+03
    -29.960  0.0000E+00  0.0000E+00  0.1200E+03  0.1200E+03
    -29.722  0.0000E+00  0.0000E+00  0.1200E+03  0.1200E+03
    -29.484  0.0000E+00  0.0000E+00  0.1200E+03  0.1200E+03
    -29.245  0.0000E+00  0.0000E+00  0.1200E+03  0.1200E+03
    -29.007  0.0000E+00  0.0000E+00  0.1200E+03  0.1200E+03
    -28.769  0.0000E+00  0.0000E+00  0.1200E+03  0.1200E+03
    -28.531  0.0000E+00  0.0000E+00  0.1200E+03  0.1200E+03
    -28.292  0.0000E+00  0.0000E+00  0.1200E+03  0.1200E+03
    -28.054  0.0000E+00  0.0000E+00  0.1200E+03  0.1200E+03
    -27.816  0.0000E+00  0.0000E+00  0.1200E+03  0.1200E+03
    -27.578  0.0000E+00  0.0000E+00  0.1200E+03  0.1200E+03
    -27.339  0.0000E+00  0.0000E+00  0.1200E+03  0.1200E+03
    -27.101  0.0000E+00  0.0000E+00  0.1200E+03  0.1200E+03
    -26.863  0.0000E+00  0.0000E+00  0.1200E+03  0.1200E+03
    -26.625  0.0000E+00  0.0000E+00  0.1200E+03  0.1200E+03
    -26.386  0.0000E+00  0.0000E+00  0.1200E+03  0.1200E+03
    -26.148  0.0000E+00  0.0000E+00  0.1200E+03  0.1200E+03
    -25.910  0.0000E+00  0.0000E+00  0.1200E+03  0.1200E+03
    -25.672  0.0000E+00  0.0000E+00  0.1200E+03  0.1200E+03
    -25.433  0.0000E+00  0.0000E+00  0.1200E+03  0.1200E+03
    -25.195  0.0000E+00  0.0000E+00  0.1200E+03  0.1200E+03
    -24.957  0.0000E+00  0.0000E+00  0.1200E+03  0.1200E+03
    -24.719  0.0000E+00  0.0000E+00  0.1200E+03  0.1200E+03
    -24.480  0.0000E+00  0.0000E+00  0.1200E+03  0.1200E+03
    -24.242  0.0000E+00  0.0000E+00  0.1200E+03  0.1200E+03
    -24.004  0.0000E+00  0.0000E+00  0.1200E+03  0.1200E+03
    -23.766  0.0000E+00  0.0000E+00  0.1200E+03  0.1200E+03
    -23.527  0.0000E+00  0.0000E+00  0.1200E+03  0.1200E+03
    -23.289  0.0000E+00  0.0000E+00  0.1200E+03  0.1200E+03
    -23.051  0.0000E+00  0.0000E+00  0.1200E+03  0.1200E+03
    -22.813  0.0000E+00  0.0000E+00  0.1200E+03  0.1200E+03
    -22.574  0.0000E+00  0.0000E+00  0.1200E+03  0.1200E+03
    -22.336  0.0000E+00  0.0000E+00  0.1200E+03  0.1200E+03
    -22.098  0.0000E+00  0.0000E+00  0.1200E+03  0.1200E+03
    -21.860  0.0000E+00  0.0000E+00  0.1200E+03  0.1200E+03
    -21.621  0.0000E+00  0.0000E+00  0.1200E+03  0.1200E+03
    -21.383  0.0000E+00  0.0000E+00  0.1200E+03  0.1200E+03
    -21.145  0.0000E+00  0.0000E+00  0.1200E+03  0.1200E+03
    -20.907  0.0000E+00  0.0000E+00  0.1200E+03  0.1200E+03
    -20.668  0.0000E+00  0.0000E+00  0.1200E+03  0.1200E+03
    -20.430  0.0000E+00  0.0000E+00  0.1200E+03  0.1200E+03
    -20.192  0.0000E+00  0.0000E+00  0.1200E+03  0.1200E+03
    -19.954  0.0000E+00  0.0000E+00  0.1200E+03  0.1200E+03
    -19.715  0.0000E+00  0.0000E+00  0.1200E+03  0.1200E+03
    -19.477  0.0000E+00  0.0000E+00  0.1200E+03  0.1200E+03
    -19.239  0.0000E+00  0.0000E+00  0.1200E+03  0.1200E+03
    -19.001  0.0000E+00  0.0000E+00  0.1200E+03  0.1200E+03
    -18.762  0.0000E+00  0.0000E+00  0.1200E+03  0.1200E+03
    -18.524  0.0000E+00  0.0000E+00  0.1200E+03  0.1200E+03
    -18.286  0.0000E+00  0.0000E+00  0.1200E+03  0.1200E+03
    -18.048  0.0000E+00  0.0000E+00  0.1200E+03  0.1200E+03
    -17.809  0.0000E+00  0.0000E+00  0.1200E+03  0.1200E+03
    -17.571  0.0000E+00  0.0000E+00  0.1200E+03  0.1200E+03
    -17.333  0.0000E+00  0.0000E+00  0.1200E+03  0.1200E+03
    -17.095  0.0000E+00  0.0000E+00  0.1200E+03  0.1200E+03
    -16.856  0.0000E+00  0.0000E+00  0.1200E+03  0.1200E+03
    -16.618  0.0000E+00  0.0000E+00  0.1200E+03  0.1200E+03
    -16.380  0.0000E+00  0.0000E+00  0.1200E+03  0.1200E+03
    -16.142  0.0000E+00  0.0000E+00  0.1200E+03  0.1200E+03
    -15.903  0.0000E+00  0.0000E+00  0.1200E+03  0.1200E+03
    -15.665  0.0000E+00  0.0000E+00  0.1200E+03  0.1200E+03
    -15.427  0.0000E+00  0.0000E+00  0.1200E+03  0.1200E+03
    -15.189  0.0000E+00  0.0000E+00  0.1200E+03  0.1200E+03
    -14.950  0.0000E+00  0.0000E+00  0.1200E+03  0.1200E+03
    -14.712  0.0000E+00  0.0000E+00  0.1200E+03  0.1200E+03
    -14.474  0.0000E+00  0.0000E+00  0.1200E+03  0.1200E+03
    -14.236  0.0000E+00  0.0000E+00  0.1200E+03  0.1200E+03
    -13.997  0.0000E+00  0.0000E+00  0.1200E+03  0.1200E+03
    -13.759  0.1171E-08  0.0000E+00  0.1200E+03  0.1200E+03
    -13.521  0.8697E+01  0.1898E-15  0.1221E+03  0.1200E+03
    -13.283  0.5998E+02  0.3143E+00  0.1364E+03  0.1201E+03
    -13.044  0.3206E+02  0.6696E+02  0.1440E+03  0.1360E+03
    -12.806  0.2836E-03  0.3346E+02  0.1440E+03  0.1440E+03
    -12.568  0.0000E+00  0.3556E-04  0.1440E+03  0.1440E+03
    -12.330  0.0000E+00  0.0000E+00  0.1440E+03  0.1440E+03
    -12.092  0.0000E+00  0.0000E+00  0.1440E+03  0.1440E+03
    -11.853  0.0000E+00  0.0000E+00  0.1440E+03  0.1440E+03
    -11.615  0.0000E+00  0.0000E+00  0.1440E+03  0.1440E+03
    -11.377  0.0000E+00  0.0000E+00  0.1440E+03  0.1440E+03
    -11.139  0.0000E+00  0.0000E+00  0.1440E+03  0.1440E+03
    -10.900  0.0000E+00  0.0000E+00  0.1440E+03  0.1440E+03
    -10.662  0.0000E+00  0.0000E+00  0.1440E+03  0.1440E+03
    -10.424  0.0000E+00  0.0000E+00  0.1440E+03  0.1440E+03
    -10.186  0.0000E+00  0.0000E+00  0.1440E+03  0.1440E+03
     -9.947  0.0000E+00  0.0000E+00  0.1440E+03  0.1440E+03
     -9.709  0.0000E+00  0.0000E+00  0.1440E+03  0.1440E+03
     -9.471  0.0000E+00  0.0000E+00  0.1440E+03  0.1440E+03
     -9.233  0.0000E+00  0.0000E+00  0.1440E+03  0.1440E+03
     -8.994  0.0000E+00  0.0000E+00  0.1440E+03  0.1440E+03
     -8.756  0.0000E+00  0.0000E+00  0.1440E+03  0.1440E+03
     -8.518  0.0000E+00  0.0000E+00  0.1440E+03  0.1440E+03
     -8.280  0.0000E+00  0.0000E+00  0.1440E+03  0.1440E+03
     -8.041  0.0000E+00  0.0000E+00  0.1440E+03  0.1440E+03
     -7.803  0.1302E-01  0.3279E-15  0.1440E+03  0.1440E+03
     -7.565  0.1860E+02  0.1434E+00  0.1484E+03  0.1440E+03
     -7.327  0.4825E+02  0.2918E+02  0.1599E+03  0.1510E+03
     -7.088  0.3306E+02  0.4935E+02  0.1678E+03  0.1627E+03
     -6.850  0.8221E+00  0.2143E+02  0.1680E+03  0.1679E+03
     -6.612  0.0000E+00  0.6287E+00  0.1680E+03  0.1680E+03
     -6.374  0.0000E+00  0.0000E+00  0.1680E+03  0.1680E+03
     -6.135  0.0000E+00  0.0000E+00  0.1680E+03  0.1680E+03
     -5.897  0.0000E+00  0.0000E+00  0.1680E+03  0.1680E+03
     -5.659  0.0000E+00  0.0000E+00  0.1680E+03  0.1680E+03
     -5.421  0.0000E+00  0.0000E+00  0.1680E+03  0.1680E+03
     -5.182  0.0000E+00  0.0000E+00  0.1680E+03  0.1680E+03
     -4.944  0.0000E+00  0.0000E+00  0.1680E+03  0.1680E+03
     -4.706  0.0000E+00  0.0000E+00  0.1680E+03  0.1680E+03
     -4.468  0.0000E+00  0.0000E+00  0.1680E+03  0.1680E+03
     -4.229  0.0000E+00  0.0000E+00  0.1680E+03  0.1680E+03
     -3.991  0.0000E+00  0.0000E+00  0.1680E+03  0.1680E+03
     -3.753  0.0000E+00  0.0000E+00  0.1680E+03  0.1680E+03
     -3.515  0.0000E+00  0.0000E+00  0.1680E+03  0.1680E+03
     -3.276  0.0000E+00  0.0000E+00  0.1680E+03  0.1680E+03
     -3.038  0.0000E+00  0.0000E+00  0.1680E+03  0.1680E+03
     -2.800  0.0000E+00  0.0000E+00  0.1680E+03  0.1680E+03
     -2.562  0.0000E+00  0.0000E+00  0.1680E+03  0.1680E+03
     -2.323  0.0000E+00  0.0000E+00  0.1680E+03  0.1680E+03
     -2.085  0.2841E-05  0.0000E+00  0.1680E+03  0.1680E+03
     -1.847  0.8243E+01  0.0000E+00  0.1700E+03  0.1680E+03
     -1.609  0.5852E+02  0.0000E+00  0.1839E+03  0.1680E+03
     -1.370  0.4118E+02  0.0000E+00  0.1937E+03  0.1680E+03
     -1.132  0.3266E+02  0.0000E+00  0.2015E+03  0.1680E+03
     -0.894  0.5420E+02  0.3385E-08  0.2144E+03  0.1680E+03
     -0.656  0.5330E+02  0.1880E+01  0.2271E+03  0.1684E+03
     -0.417  0.6718E+02  0.1741E+02  0.2431E+03  0.1726E+03
     -0.179  0.5398E+02  0.3879E+02  0.2560E+03  0.1818E+03
      0.059  0.3453E+02  0.3494E+02  0.2642E+03  0.1902E+03
      0.297  0.5522E+02  0.2307E+02  0.2774E+03  0.1957E+03
      0.536  0.4750E+02  0.4865E+02  0.2887E+03  0.2072E+03
      0.774  0.3245E+02  0.4863E+02  0.2964E+03  0.2188E+03
      1.012  0.4995E+02  0.6844E+02  0.3083E+03  0.2351E+03
      1.250  0.4931E+02  0.2578E+02  0.3201E+03  0.2413E+03
      1.489  0.5424E+02  0.2315E+02  0.3330E+03  0.2468E+03
      1.727  0.6186E+02  0.3829E+02  0.3477E+03  0.2559E+03
      1.965  0.3381E+02  0.4594E+02  0.3558E+03  0.2669E+03
      2.203  0.2404E+02  0.2940E+02  0.3615E+03  0.2739E+03
      2.442  0.1380E+02  0.3574E+02  0.3648E+03  0.2824E+03
      2.680  0.3760E+02  0.2542E+02  0.3737E+03  0.2884E+03
      2.918  0.3870E+02  0.4571E+02  0.3830E+03  0.2993E+03
      3.156  0.3044E+02  0.4174E+02  0.3902E+03  0.3093E+03
      3.395  0.4392E+02  0.1429E+02  0.4007E+03  0.3127E+03
      3.633  0.5360E+02  0.3114E+02  0.4134E+03  0.3201E+03
      3.871  0.4708E+02  0.5677E+02  0.4247E+03  0.3336E+03
      4.109  0.2889E+02  0.9977E+01  0.4316E+03  0.3360E+03
      4.348  0.1889E+01  0.5129E-05  0.4320E+03  0.3360E+03
      4.586  0.0000E+00  0.0000E+00  0.4320E+03  0.3360E+03
      4.824  0.0000E+00  0.0000E+00  0.4320E+03  0.3360E+03
      5.062  0.0000E+00  0.0000E+00  0.4320E+03  0.3360E+03
      5.301  0.0000E+00  0.0000E+00  0.4320E+03  0.3360E+03
      5.539  0.0000E+00  0.0000E+00  0.4320E+03  0.3360E+03
      5.777  0.0000E+00  0.0000E+00  0.4320E+03  0.3360E+03
      6.015  0.0000E+00  0.5033E-02  0.4320E+03  0.3360E+03
      6.254  0.0000E+00  0.1959E+01  0.4320E+03  0.3365E+03
      6.492  0.0000E+00  0.1371E+02  0.4320E+03  0.3397E+03
      6.730  0.0000E+00  0.2698E+02  0.4320E+03  0.3462E+03
      6.968  0.0000E+00  0.2530E+02  0.4320E+03  0.3522E+03
      7.207  0.1344E-04  0.5824E+02  0.4320E+03  0.3661E+03
      7.445  0.1552E+00  0.7514E+02  0.4320E+03  0.3840E+03
      7.683  0.7577E+00  0.2927E+02  0.4322E+03  0.3909E+03
      7.921  0.1534E+01  0.4137E+02  0.4326E+03  0.4008E+03
      8.160  0.4827E+01  0.7842E+02  0.4337E+03  0.4195E+03
      8.398  0.7199E+01  0.4935E+02  0.4354E+03  0.4312E+03
      8.636  0.1572E+02  0.3607E+01  0.4392E+03  0.4321E+03
      8.874  0.2399E+02  0.1183E+01  0.4449E+03  0.4324E+03
      9.113  0.1981E+02  0.4517E+01  0.4496E+03  0.4335E+03
      9.351  0.1940E+02  0.1084E+02  0.4543E+03  0.4360E+03
      9.589  0.1981E+02  0.2118E+02  0.4590E+03  0.4411E+03
      9.827  0.2443E+02  0.2885E+02  0.4648E+03  0.4480E+03
     10.066  0.2199E+02  0.3011E+02  0.4700E+03  0.4551E+03
     10.304  0.1794E+02  0.3001E+02  0.4743E+03  0.4623E+03
     10.542  0.2473E+02  0.2578E+02  0.4802E+03  0.4684E+03
     10.780  0.1489E+02  0.2584E+02  0.4837E+03  0.4746E+03
     11.019  0.2764E+02  0.2417E+02  0.4903E+03  0.4803E+03
     11.257  0.4551E+02  0.1039E+02  0.5012E+03  0.4828E+03
     11.495  0.4862E+02  0.2589E+02  0.5128E+03  0.4890E+03
     11.733  0.3508E+02  0.3066E+02  0.5211E+03  0.4963E+03
     11.972  0.2032E+02  0.5645E+02  0.5260E+03  0.5097E+03
     12.210  0.2078E+02  0.4435E+02  0.5309E+03  0.5203E+03
     12.448  0.3024E+02  0.2673E+02  0.5381E+03  0.5267E+03
     12.686  0.3227E+02  0.2378E+02  0.5458E+03  0.5323E+03
     12.925  0.1837E+02  0.2748E+02  0.5502E+03  0.5389E+03
     13.163  0.7571E+01  0.3299E+02  0.5520E+03  0.5467E+03
     13.401  0.9199E-01  0.1800E+02  0.5520E+03  0.5510E+03
     13.639  0.0000E+00  0.4065E+01  0.5520E+03  0.5520E+03
     13.878  0.0000E+00  0.4023E-05  0.5520E+03  0.5520E+03
     14.116  0.0000E+00  0.0000E+00  0.5520E+03  0.5520E+03
     14.354  0.0000E+00  0.0000E+00  0.5520E+03  0.5520E+03
     14.592  0.0000E+00  0.0000E+00  0.5520E+03  0.5520E+03
     14.831  0.0000E+00  0.0000E+00  0.5520E+03  0.5520E+03
     15.069  0.0000E+00  0.0000E+00  0.5520E+03  0.5520E+03
     15.307  0.0000E+00  0.0000E+00  0.5520E+03  0.5520E+03
     15.545  0.0000E+00  0.0000E+00  0.5520E+03  0.5520E+03
     15.784  0.0000E+00  0.0000E+00  0.5520E+03  0.5520E+03
     16.022  0.0000E+00  0.0000E+00  0.5520E+03  0.5520E+03
     16.260  0.0000E+00  0.0000E+00  0.5520E+03  0.5520E+03
     16.498  0.0000E+00  0.0000E+00  0.5520E+03  0.5520E+03
     16.737  0.0000E+00  0.0000E+00  0.5520E+03  0.5520E+03
