  88  88   0   0
  0.1431748E+02  0.1111223E-08  0.1111745E-08  0.1056954E-08  0.5000000E-15
  1.000000000000000E-004
  CAR 
 unknown system                          
     17.90658965    -54.34215905  301      5.20285134      1.00000000
    -54.342  0.0000E+00  0.0000E+00  0.0000E+00  0.0000E+00
    -54.101  0.0000E+00  0.0000E+00  0.0000E+00  0.0000E+00
    -53.861  0.0000E+00  0.0000E+00  0.0000E+00  0.0000E+00
    -53.620  0.0000E+00  0.0000E+00  0.0000E+00  0.0000E+00
    -53.379  0.0000E+00  0.0000E+00  0.0000E+00  0.0000E+00
    -53.138  0.0000E+00  0.0000E+00  0.0000E+00  0.0000E+00
    -52.897  0.0000E+00  0.0000E+00  0.0000E+00  0.0000E+00
    -52.656  0.0000E+00  0.0000E+00  0.0000E+00  0.0000E+00
    -52.416  0.0000E+00  0.0000E+00  0.0000E+00  0.0000E+00
    -52.175  0.0000E+00  0.0000E+00  0.0000E+00  0.0000E+00
    -51.934  0.0000E+00  0.0000E+00  0.0000E+00  0.0000E+00
    -51.693  0.0000E+00  0.0000E+00  0.0000E+00  0.0000E+00
    -51.452  0.0000E+00  0.0000E+00  0.0000E+00  0.0000E+00
    -51.211  0.3246E-03  0.0000E+00  0.7817E-04  0.0000E+00
    -50.971  0.1307E+03  0.0000E+00  0.3147E+02  0.0000E+00
    -50.730  0.2180E+01  0.0000E+00  0.3200E+02  0.0000E+00
    -50.489  0.0000E+00  0.0000E+00  0.3200E+02  0.0000E+00
    -50.248  0.0000E+00  0.0000E+00  0.3200E+02  0.0000E+00
    -50.007  0.0000E+00  0.0000E+00  0.3200E+02  0.0000E+00
    -49.766  0.1819E+01  0.0000E+00  0.3244E+02  0.0000E+00
    -49.526  0.2352E+03  0.0000E+00  0.8908E+02  0.0000E+00
    -49.285  0.2873E+02  0.0000E+00  0.9600E+02  0.0000E+00
    -49.044  0.0000E+00  0.0000E+00  0.9600E+02  0.0000E+00
    -48.803  0.0000E+00  0.0000E+00  0.9600E+02  0.0000E+00
    -48.562  0.0000E+00  0.0000E+00  0.9600E+02  0.0000E+00
    -48.321  0.0000E+00  0.0000E+00  0.9600E+02  0.0000E+00
    -48.081  0.0000E+00  0.0000E+00  0.9600E+02  0.0000E+00
    -47.840  0.0000E+00  0.0000E+00  0.9600E+02  0.0000E+00
    -47.599  0.0000E+00  0.0000E+00  0.9600E+02  0.0000E+00
    -47.358  0.0000E+00  0.0000E+00  0.9600E+02  0.0000E+00
    -47.117  0.0000E+00  0.0000E+00  0.9600E+02  0.0000E+00
    -46.876  0.0000E+00  0.0000E+00  0.9600E+02  0.0000E+00
    -46.636  0.0000E+00  0.0000E+00  0.9600E+02  0.0000E+00
    -46.395  0.0000E+00  0.3323E+00  0.9600E+02  0.8002E-01
    -46.154  0.0000E+00  0.1325E+03  0.9600E+02  0.3199E+02
    -45.913  0.0000E+00  0.5859E+02  0.9600E+02  0.4610E+02
    -45.672  0.0000E+00  0.2072E+03  0.9600E+02  0.9600E+02
    -45.431  0.0000E+00  0.0000E+00  0.9600E+02  0.9600E+02
    -45.191  0.0000E+00  0.0000E+00  0.9600E+02  0.9600E+02
    -44.950  0.0000E+00  0.0000E+00  0.9600E+02  0.9600E+02
    -44.709  0.0000E+00  0.0000E+00  0.9600E+02  0.9600E+02
    -44.468  0.0000E+00  0.0000E+00  0.9600E+02  0.9600E+02
    -44.227  0.0000E+00  0.0000E+00  0.9600E+02  0.9600E+02
    -43.987  0.0000E+00  0.0000E+00  0.9600E+02  0.9600E+02
    -43.746  0.0000E+00  0.0000E+00  0.9600E+02  0.9600E+02
    -43.505  0.0000E+00  0.0000E+00  0.9600E+02  0.9600E+02
    -43.264  0.0000E+00  0.0000E+00  0.9600E+02  0.9600E+02
    -43.023  0.0000E+00  0.0000E+00  0.9600E+02  0.9600E+02
    -42.782  0.0000E+00  0.0000E+00  0.9600E+02  0.9600E+02
    -42.542  0.0000E+00  0.0000E+00  0.9600E+02  0.9600E+02
    -42.301  0.0000E+00  0.0000E+00  0.9600E+02  0.9600E+02
    -42.060  0.0000E+00  0.0000E+00  0.9600E+02  0.9600E+02
    -41.819  0.0000E+00  0.0000E+00  0.9600E+02  0.9600E+02
    -41.578  0.0000E+00  0.0000E+00  0.9600E+02  0.9600E+02
    -41.337  0.0000E+00  0.0000E+00  0.9600E+02  0.9600E+02
    -41.097  0.0000E+00  0.0000E+00  0.9600E+02  0.9600E+02
    -40.856  0.0000E+00  0.0000E+00  0.9600E+02  0.9600E+02
    -40.615  0.0000E+00  0.0000E+00  0.9600E+02  0.9600E+02
    -40.374  0.0000E+00  0.0000E+00  0.9600E+02  0.9600E+02
    -40.133  0.1769E-11  0.1119E-11  0.9600E+02  0.9600E+02
    -39.892  0.1452E+02  0.1340E+02  0.9950E+02  0.9923E+02
    -39.652  0.5192E+02  0.5304E+02  0.1120E+03  0.1120E+03
    -39.411  0.0000E+00  0.0000E+00  0.1120E+03  0.1120E+03
    -39.170  0.0000E+00  0.0000E+00  0.1120E+03  0.1120E+03
    -38.929  0.0000E+00  0.0000E+00  0.1120E+03  0.1120E+03
    -38.688  0.0000E+00  0.0000E+00  0.1120E+03  0.1120E+03
    -38.447  0.0000E+00  0.0000E+00  0.1120E+03  0.1120E+03
    -38.207  0.0000E+00  0.0000E+00  0.1120E+03  0.1120E+03
    -37.966  0.0000E+00  0.0000E+00  0.1120E+03  0.1120E+03
    -37.725  0.0000E+00  0.0000E+00  0.1120E+03  0.1120E+03
    -37.484  0.0000E+00  0.0000E+00  0.1120E+03  0.1120E+03
    -37.243  0.0000E+00  0.0000E+00  0.1120E+03  0.1120E+03
    -37.002  0.0000E+00  0.0000E+00  0.1120E+03  0.1120E+03
    -36.762  0.0000E+00  0.0000E+00  0.1120E+03  0.1120E+03
    -36.521  0.0000E+00  0.0000E+00  0.1120E+03  0.1120E+03
    -36.280  0.0000E+00  0.0000E+00  0.1120E+03  0.1120E+03
    -36.039  0.0000E+00  0.0000E+00  0.1120E+03  0.1120E+03
    -35.798  0.0000E+00  0.0000E+00  0.1120E+03  0.1120E+03
    -35.557  0.0000E+00  0.0000E+00  0.1120E+03  0.1120E+03
    -35.317  0.0000E+00  0.0000E+00  0.1120E+03  0.1120E+03
    -35.076  0.0000E+00  0.0000E+00  0.1120E+03  0.1120E+03
    -34.835  0.0000E+00  0.0000E+00  0.1120E+03  0.1120E+03
    -34.594  0.0000E+00  0.0000E+00  0.1120E+03  0.1120E+03
    -34.353  0.0000E+00  0.0000E+00  0.1120E+03  0.1120E+03
    -34.113  0.0000E+00  0.0000E+00  0.1120E+03  0.1120E+03
    -33.872  0.0000E+00  0.0000E+00  0.1120E+03  0.1120E+03
    -33.631  0.0000E+00  0.0000E+00  0.1120E+03  0.1120E+03
    -33.390  0.0000E+00  0.0000E+00  0.1120E+03  0.1120E+03
    -33.149  0.0000E+00  0.0000E+00  0.1120E+03  0.1120E+03
    -32.908  0.0000E+00  0.0000E+00  0.1120E+03  0.1120E+03
    -32.668  0.0000E+00  0.0000E+00  0.1120E+03  0.1120E+03
    -32.427  0.0000E+00  0.0000E+00  0.1120E+03  0.1120E+03
    -32.186  0.0000E+00  0.0000E+00  0.1120E+03  0.1120E+03
    -31.945  0.0000E+00  0.0000E+00  0.1120E+03  0.1120E+03
    -31.704  0.0000E+00  0.0000E+00  0.1120E+03  0.1120E+03
    -31.463  0.0000E+00  0.0000E+00  0.1120E+03  0.1120E+03
    -31.223  0.0000E+00  0.0000E+00  0.1120E+03  0.1120E+03
    -30.982  0.0000E+00  0.0000E+00  0.1120E+03  0.1120E+03
    -30.741  0.0000E+00  0.0000E+00  0.1120E+03  0.1120E+03
    -30.500  0.0000E+00  0.0000E+00  0.1120E+03  0.1120E+03
    -30.259  0.0000E+00  0.0000E+00  0.1120E+03  0.1120E+03
    -30.018  0.0000E+00  0.0000E+00  0.1120E+03  0.1120E+03
    -29.778  0.0000E+00  0.0000E+00  0.1120E+03  0.1120E+03
    -29.537  0.0000E+00  0.0000E+00  0.1120E+03  0.1120E+03
    -29.296  0.0000E+00  0.0000E+00  0.1120E+03  0.1120E+03
    -29.055  0.0000E+00  0.0000E+00  0.1120E+03  0.1120E+03
    -28.814  0.0000E+00  0.0000E+00  0.1120E+03  0.1120E+03
    -28.573  0.0000E+00  0.0000E+00  0.1120E+03  0.1120E+03
    -28.333  0.0000E+00  0.0000E+00  0.1120E+03  0.1120E+03
    -28.092  0.0000E+00  0.0000E+00  0.1120E+03  0.1120E+03
    -27.851  0.0000E+00  0.0000E+00  0.1120E+03  0.1120E+03
    -27.610  0.0000E+00  0.0000E+00  0.1120E+03  0.1120E+03
    -27.369  0.0000E+00  0.0000E+00  0.1120E+03  0.1120E+03
    -27.128  0.0000E+00  0.0000E+00  0.1120E+03  0.1120E+03
    -26.888  0.0000E+00  0.0000E+00  0.1120E+03  0.1120E+03
    -26.647  0.0000E+00  0.0000E+00  0.1120E+03  0.1120E+03
    -26.406  0.0000E+00  0.0000E+00  0.1120E+03  0.1120E+03
    -26.165  0.0000E+00  0.0000E+00  0.1120E+03  0.1120E+03
    -25.924  0.0000E+00  0.0000E+00  0.1120E+03  0.1120E+03
    -25.683  0.0000E+00  0.0000E+00  0.1120E+03  0.1120E+03
    -25.443  0.0000E+00  0.0000E+00  0.1120E+03  0.1120E+03
    -25.202  0.0000E+00  0.0000E+00  0.1120E+03  0.1120E+03
    -24.961  0.0000E+00  0.0000E+00  0.1120E+03  0.1120E+03
    -24.720  0.0000E+00  0.0000E+00  0.1120E+03  0.1120E+03
    -24.479  0.0000E+00  0.0000E+00  0.1120E+03  0.1120E+03
    -24.239  0.0000E+00  0.0000E+00  0.1120E+03  0.1120E+03
    -23.998  0.0000E+00  0.0000E+00  0.1120E+03  0.1120E+03
    -23.757  0.0000E+00  0.0000E+00  0.1120E+03  0.1120E+03
    -23.516  0.0000E+00  0.0000E+00  0.1120E+03  0.1120E+03
    -23.275  0.0000E+00  0.0000E+00  0.1120E+03  0.1120E+03
    -23.034  0.0000E+00  0.0000E+00  0.1120E+03  0.1120E+03
    -22.794  0.0000E+00  0.0000E+00  0.1120E+03  0.1120E+03
    -22.553  0.0000E+00  0.0000E+00  0.1120E+03  0.1120E+03
    -22.312  0.0000E+00  0.0000E+00  0.1120E+03  0.1120E+03
    -22.071  0.0000E+00  0.0000E+00  0.1120E+03  0.1120E+03
    -21.830  0.0000E+00  0.0000E+00  0.1120E+03  0.1120E+03
    -21.589  0.0000E+00  0.0000E+00  0.1120E+03  0.1120E+03
    -21.349  0.0000E+00  0.0000E+00  0.1120E+03  0.1120E+03
    -21.108  0.0000E+00  0.0000E+00  0.1120E+03  0.1120E+03
    -20.867  0.0000E+00  0.0000E+00  0.1120E+03  0.1120E+03
    -20.626  0.0000E+00  0.0000E+00  0.1120E+03  0.1120E+03
    -20.385  0.0000E+00  0.0000E+00  0.1120E+03  0.1120E+03
    -20.144  0.0000E+00  0.0000E+00  0.1120E+03  0.1120E+03
    -19.904  0.0000E+00  0.0000E+00  0.1120E+03  0.1120E+03
    -19.663  0.0000E+00  0.0000E+00  0.1120E+03  0.1120E+03
    -19.422  0.0000E+00  0.0000E+00  0.1120E+03  0.1120E+03
    -19.181  0.0000E+00  0.0000E+00  0.1120E+03  0.1120E+03
    -18.940  0.0000E+00  0.0000E+00  0.1120E+03  0.1120E+03
    -18.699  0.0000E+00  0.0000E+00  0.1120E+03  0.1120E+03
    -18.459  0.0000E+00  0.0000E+00  0.1120E+03  0.1120E+03
    -18.218  0.0000E+00  0.0000E+00  0.1120E+03  0.1120E+03
    -17.977  0.0000E+00  0.0000E+00  0.1120E+03  0.1120E+03
    -17.736  0.0000E+00  0.0000E+00  0.1120E+03  0.1120E+03
    -17.495  0.0000E+00  0.0000E+00  0.1120E+03  0.1120E+03
    -17.254  0.0000E+00  0.0000E+00  0.1120E+03  0.1120E+03
    -17.014  0.0000E+00  0.0000E+00  0.1120E+03  0.1120E+03
    -16.773  0.0000E+00  0.0000E+00  0.1120E+03  0.1120E+03
    -16.532  0.0000E+00  0.0000E+00  0.1120E+03  0.1120E+03
    -16.291  0.0000E+00  0.0000E+00  0.1120E+03  0.1120E+03
    -16.050  0.0000E+00  0.0000E+00  0.1120E+03  0.1120E+03
    -15.809  0.0000E+00  0.0000E+00  0.1120E+03  0.1120E+03
    -15.569  0.0000E+00  0.0000E+00  0.1120E+03  0.1120E+03
    -15.328  0.0000E+00  0.0000E+00  0.1120E+03  0.1120E+03
    -15.087  0.0000E+00  0.0000E+00  0.1120E+03  0.1120E+03
    -14.846  0.0000E+00  0.0000E+00  0.1120E+03  0.1120E+03
    -14.605  0.0000E+00  0.0000E+00  0.1120E+03  0.1120E+03
    -14.365  0.0000E+00  0.0000E+00  0.1120E+03  0.1120E+03
    -14.124  0.0000E+00  0.0000E+00  0.1120E+03  0.1120E+03
    -13.883  0.0000E+00  0.0000E+00  0.1120E+03  0.1120E+03
    -13.642  0.0000E+00  0.0000E+00  0.1120E+03  0.1120E+03
    -13.401  0.6225E-06  0.0000E+00  0.1120E+03  0.1120E+03
    -13.160  0.1900E+02  0.0000E+00  0.1166E+03  0.1120E+03
    -12.920  0.4604E+02  0.7739E-02  0.1277E+03  0.1120E+03
    -12.679  0.1397E+01  0.4235E+02  0.1280E+03  0.1222E+03
    -12.438  0.0000E+00  0.2408E+02  0.1280E+03  0.1280E+03
    -12.197  0.0000E+00  0.0000E+00  0.1280E+03  0.1280E+03
    -11.956  0.0000E+00  0.0000E+00  0.1280E+03  0.1280E+03
    -11.715  0.0000E+00  0.0000E+00  0.1280E+03  0.1280E+03
    -11.475  0.0000E+00  0.0000E+00  0.1280E+03  0.1280E+03
    -11.234  0.0000E+00  0.0000E+00  0.1280E+03  0.1280E+03
    -10.993  0.0000E+00  0.0000E+00  0.1280E+03  0.1280E+03
    -10.752  0.0000E+00  0.0000E+00  0.1280E+03  0.1280E+03
    -10.511  0.0000E+00  0.0000E+00  0.1280E+03  0.1280E+03
    -10.270  0.0000E+00  0.0000E+00  0.1280E+03  0.1280E+03
    -10.030  0.0000E+00  0.0000E+00  0.1280E+03  0.1280E+03
     -9.789  0.0000E+00  0.0000E+00  0.1280E+03  0.1280E+03
     -9.548  0.0000E+00  0.0000E+00  0.1280E+03  0.1280E+03
     -9.307  0.0000E+00  0.0000E+00  0.1280E+03  0.1280E+03
     -9.066  0.0000E+00  0.0000E+00  0.1280E+03  0.1280E+03
     -8.825  0.0000E+00  0.0000E+00  0.1280E+03  0.1280E+03
     -8.585  0.0000E+00  0.0000E+00  0.1280E+03  0.1280E+03
     -8.344  0.0000E+00  0.0000E+00  0.1280E+03  0.1280E+03
     -8.103  0.0000E+00  0.0000E+00  0.1280E+03  0.1280E+03
     -7.862  0.6891E-10  0.0000E+00  0.1280E+03  0.1280E+03
     -7.621  0.5681E+00  0.1229E-10  0.1281E+03  0.1280E+03
     -7.380  0.1258E+02  0.5004E+00  0.1312E+03  0.1281E+03
     -7.140  0.3025E+02  0.1383E+02  0.1385E+03  0.1315E+03
     -6.899  0.3400E+02  0.2947E+02  0.1466E+03  0.1385E+03
     -6.658  0.2225E+02  0.2609E+02  0.1520E+03  0.1448E+03
     -6.417  0.2297E-04  0.2971E+02  0.1520E+03  0.1520E+03
     -6.176  0.0000E+00  0.5678E-01  0.1520E+03  0.1520E+03
     -5.935  0.0000E+00  0.0000E+00  0.1520E+03  0.1520E+03
     -5.695  0.0000E+00  0.0000E+00  0.1520E+03  0.1520E+03
     -5.454  0.0000E+00  0.0000E+00  0.1520E+03  0.1520E+03
     -5.213  0.0000E+00  0.0000E+00  0.1520E+03  0.1520E+03
     -4.972  0.0000E+00  0.0000E+00  0.1520E+03  0.1520E+03
     -4.731  0.0000E+00  0.0000E+00  0.1520E+03  0.1520E+03
     -4.491  0.0000E+00  0.0000E+00  0.1520E+03  0.1520E+03
     -4.250  0.0000E+00  0.0000E+00  0.1520E+03  0.1520E+03
     -4.009  0.0000E+00  0.0000E+00  0.1520E+03  0.1520E+03
     -3.768  0.0000E+00  0.0000E+00  0.1520E+03  0.1520E+03
     -3.527  0.0000E+00  0.0000E+00  0.1520E+03  0.1520E+03
     -3.286  0.0000E+00  0.0000E+00  0.1520E+03  0.1520E+03
     -3.046  0.0000E+00  0.0000E+00  0.1520E+03  0.1520E+03
     -2.805  0.0000E+00  0.0000E+00  0.1520E+03  0.1520E+03
     -2.564  0.0000E+00  0.0000E+00  0.1520E+03  0.1520E+03
     -2.323  0.0000E+00  0.0000E+00  0.1520E+03  0.1520E+03
     -2.082  0.2386E-04  0.0000E+00  0.1520E+03  0.1520E+03
     -1.841  0.1595E+02  0.0000E+00  0.1558E+03  0.1520E+03
     -1.601  0.1956E+02  0.0000E+00  0.1606E+03  0.1520E+03
     -1.360  0.1482E+02  0.0000E+00  0.1641E+03  0.1520E+03
     -1.119  0.1711E+02  0.0000E+00  0.1682E+03  0.1520E+03
     -0.878  0.4581E+02  0.0000E+00  0.1793E+03  0.1520E+03
     -0.637  0.5900E+02  0.8788E-06  0.1935E+03  0.1520E+03
     -0.396  0.3869E+02  0.4143E+01  0.2028E+03  0.1530E+03
     -0.156  0.6790E+02  0.2035E+02  0.2192E+03  0.1579E+03
      0.085  0.7373E+02  0.1224E+02  0.2369E+03  0.1608E+03
      0.326  0.7757E+02  0.1853E+02  0.2556E+03  0.1653E+03
      0.567  0.6984E+02  0.2955E+02  0.2724E+03  0.1724E+03
      0.808  0.5565E+02  0.3920E+02  0.2858E+03  0.1819E+03
      1.049  0.3643E+02  0.3731E+02  0.2946E+03  0.1909E+03
      1.289  0.3058E+02  0.3123E+02  0.3020E+03  0.1984E+03
      1.530  0.4507E+02  0.2073E+02  0.3128E+03  0.2034E+03
      1.771  0.4218E+02  0.2895E+02  0.3230E+03  0.2103E+03
      2.012  0.6886E+02  0.3688E+02  0.3395E+03  0.2192E+03
      2.253  0.5804E+02  0.2766E+02  0.3535E+03  0.2259E+03
      2.494  0.2679E+02  0.2701E+02  0.3600E+03  0.2324E+03
      2.734  0.4265E+02  0.3068E+02  0.3703E+03  0.2398E+03
      2.975  0.3023E+02  0.4436E+02  0.3775E+03  0.2505E+03
      3.216  0.8660E+01  0.4552E+02  0.3796E+03  0.2614E+03
      3.457  0.2787E+02  0.3222E+02  0.3863E+03  0.2692E+03
      3.698  0.2724E+02  0.1247E+02  0.3929E+03  0.2722E+03
      3.938  0.3090E+02  0.1766E+02  0.4003E+03  0.2764E+03
      4.179  0.3591E+02  0.5255E+02  0.4090E+03  0.2891E+03
      4.420  0.3635E+02  0.4482E+02  0.4177E+03  0.2999E+03
      4.661  0.3026E+02  0.1707E+02  0.4250E+03  0.3040E+03
      4.902  0.2580E+02  0.5129E-02  0.4312E+03  0.3040E+03
      5.143  0.3181E+01  0.0000E+00  0.4320E+03  0.3040E+03
      5.383  0.0000E+00  0.0000E+00  0.4320E+03  0.3040E+03
      5.624  0.0000E+00  0.0000E+00  0.4320E+03  0.3040E+03
      5.865  0.0000E+00  0.0000E+00  0.4320E+03  0.3040E+03
      6.106  0.0000E+00  0.3397E-09  0.4320E+03  0.3040E+03
      6.347  0.0000E+00  0.3956E+00  0.4320E+03  0.3041E+03
      6.588  0.0000E+00  0.4197E+01  0.4320E+03  0.3051E+03
      6.828  0.0000E+00  0.7858E+01  0.4320E+03  0.3070E+03
      7.069  0.6574E-15  0.1924E+02  0.4320E+03  0.3116E+03
      7.310  0.2639E-01  0.4416E+02  0.4320E+03  0.3223E+03
      7.551  0.1274E+00  0.5335E+02  0.4320E+03  0.3351E+03
      7.792  0.2446E+00  0.6333E+02  0.4321E+03  0.3504E+03
      8.033  0.7318E+00  0.6585E+02  0.4323E+03  0.3662E+03
      8.273  0.2118E+01  0.7009E+02  0.4328E+03  0.3831E+03
      8.514  0.2642E+01  0.5926E+02  0.4334E+03  0.3974E+03
      8.755  0.8893E+01  0.5866E+02  0.4356E+03  0.4115E+03
      8.996  0.1246E+02  0.4790E+02  0.4386E+03  0.4230E+03
      9.237  0.1310E+02  0.2994E+02  0.4417E+03  0.4302E+03
      9.478  0.1806E+02  0.8915E+01  0.4461E+03  0.4324E+03
      9.718  0.1627E+02  0.3013E+01  0.4500E+03  0.4331E+03
      9.959  0.1570E+02  0.8348E+01  0.4538E+03  0.4351E+03
     10.200  0.2249E+02  0.1866E+02  0.4592E+03  0.4396E+03
     10.441  0.1484E+02  0.1797E+02  0.4628E+03  0.4440E+03
     10.682  0.1532E+02  0.1717E+02  0.4664E+03  0.4481E+03
     10.923  0.1318E+02  0.2759E+02  0.4696E+03  0.4547E+03
     11.163  0.2063E+02  0.1896E+02  0.4746E+03  0.4593E+03
     11.404  0.2474E+02  0.2398E+02  0.4805E+03  0.4651E+03
     11.645  0.2726E+02  0.1483E+02  0.4871E+03  0.4687E+03
     11.886  0.2463E+02  0.1380E+02  0.4930E+03  0.4720E+03
     12.127  0.3349E+02  0.1604E+02  0.5011E+03  0.4758E+03
     12.368  0.1991E+02  0.3673E+02  0.5059E+03  0.4847E+03
     12.608  0.2306E+02  0.3266E+02  0.5115E+03  0.4925E+03
     12.849  0.2142E+02  0.2988E+02  0.5166E+03  0.4997E+03
     13.090  0.2030E+02  0.2025E+02  0.5215E+03  0.5046E+03
     13.331  0.2390E+02  0.2217E+02  0.5273E+03  0.5100E+03
     13.572  0.2429E+02  0.2724E+02  0.5331E+03  0.5165E+03
     13.812  0.1345E+02  0.2373E+02  0.5363E+03  0.5222E+03
     14.053  0.6847E+01  0.2629E+02  0.5380E+03  0.5286E+03
     14.294  0.4641E-02  0.1920E+02  0.5380E+03  0.5332E+03
     14.535  0.0000E+00  0.1675E+02  0.5380E+03  0.5372E+03
     14.776  0.0000E+00  0.3243E+01  0.5380E+03  0.5380E+03
     15.017  0.0000E+00  0.2245E-05  0.5380E+03  0.5380E+03
     15.257  0.0000E+00  0.0000E+00  0.5380E+03  0.5380E+03
     15.498  0.0000E+00  0.0000E+00  0.5380E+03  0.5380E+03
     15.739  0.0000E+00  0.0000E+00  0.5380E+03  0.5380E+03
     15.980  0.0000E+00  0.0000E+00  0.5380E+03  0.5380E+03
     16.221  0.0000E+00  0.0000E+00  0.5380E+03  0.5380E+03
     16.462  0.0000E+00  0.0000E+00  0.5380E+03  0.5380E+03
     16.702  0.0000E+00  0.0000E+00  0.5380E+03  0.5380E+03
     16.943  0.0000E+00  0.0000E+00  0.5380E+03  0.5380E+03
     17.184  0.0000E+00  0.0000E+00  0.5380E+03  0.5380E+03
     17.425  0.0000E+00  0.0000E+00  0.5380E+03  0.5380E+03
     17.666  0.0000E+00  0.0000E+00  0.5380E+03  0.5380E+03
     17.907  0.0000E+00  0.0000E+00  0.5380E+03  0.5380E+03
