 vasp.5.4.4.18Apr17-6-g9f103f2a35 (build Oct 25 2017 14:42:18) complex          
  
 executed on             LinuxIFC date 2021.06.02  14:45:45
 running on   24 total cores
 distrk:  each k-point on   12 cores,    2 groups
 distr:  one band on NCORES_PER_BAND=   6 cores,    2 groups


--------------------------------------------------------------------------------------------------------


 INCAR:
 POTCAR:    PAW_PBE Li_sv 10Sep2004               
 POTCAR:    PAW_PBE O 08Apr2002                   
 POTCAR:    PAW_PBE S 06Sep2000                   
 POTCAR:    PAW_PBE Fe_pv 02Aug2007               

 ----------------------------------------------------------------------------- 
|                                                                             |
|           W    W    AA    RRRRR   N    N  II  N    N   GGGG   !!!           |
|           W    W   A  A   R    R  NN   N  II  NN   N  G    G  !!!           |
|           W    W  A    A  R    R  N N  N  II  N N  N  G       !!!           |
|           W WW W  AAAAAA  RRRRR   N  N N  II  N  N N  G  GGG   !            |
|           WW  WW  A    A  R   R   N   NN  II  N   NN  G    G                |
|           W    W  A    A  R    R  N    N  II  N    N   GGGG   !!!           |
|                                                                             |
|      You have enabled k-point parallelism (KPAR>1).                         |
|      This developmental code was originally  written by Paul Kent at ORNL,  |
|      and carefully double checked in Vienna.                                |
|      GW as well as linear response parallelism added by Martijn Marsman     |
|      and Georg Kresse.                                                      |
|      Carefully verify results versus KPAR=1.                                |
|      Report problems to Paul Kent and Vienna.                               |
|                                                                             |
 ----------------------------------------------------------------------------- 

 POTCAR:    PAW_PBE Li_sv 10Sep2004               
  local pseudopotential read in
  atomic valenz-charges read in
  non local Contribution for L=           0  read in
    real space projection operators read in
  non local Contribution for L=           0  read in
    real space projection operators read in
  non local Contribution for L=           1  read in
    real space projection operators read in
    PAW grid and wavefunctions read in
 
   number of l-projection  operators is LMAX  =           3
   number of lm-projection operators is LMMAX =           5
 
 POTCAR:    PAW_PBE O 08Apr2002                   
  local pseudopotential read in
  partial core-charges read in
  partial kinetic energy density read in
  kinetic energy density of atom read in
  atomic valenz-charges read in
  non local Contribution for L=           0  read in
    real space projection operators read in
  non local Contribution for L=           0  read in
    real space projection operators read in
  non local Contribution for L=           1  read in
    real space projection operators read in
  non local Contribution for L=           1  read in
    real space projection operators read in
    PAW grid and wavefunctions read in
 
   number of l-projection  operators is LMAX  =           4
   number of lm-projection operators is LMMAX =           8
 
 POTCAR:    PAW_PBE S 06Sep2000                   
  local pseudopotential read in
  partial core-charges read in
  partial kinetic energy density read in
  atomic valenz-charges read in
  non local Contribution for L=           0  read in
    real space projection operators read in
  non local Contribution for L=           0  read in
    real space projection operators read in
  non local Contribution for L=           1  read in
    real space projection operators read in
  non local Contribution for L=           1  read in
    real space projection operators read in
    PAW grid and wavefunctions read in
 
   number of l-projection  operators is LMAX  =           4
   number of lm-projection operators is LMMAX =           8
 
 POTCAR:    PAW_PBE Fe_pv 02Aug2007               
  local pseudopotential read in
  partial core-charges read in
  partial kinetic energy density read in
  atomic valenz-charges read in
  non local Contribution for L=           1  read in
    real space projection operators read in
  non local Contribution for L=           1  read in
    real space projection operators read in
  non local Contribution for L=           2  read in
    real space projection operators read in
  non local Contribution for L=           2  read in
    real space projection operators read in
  non local Contribution for L=           0  read in
    real space projection operators read in
  non local Contribution for L=           0  read in
    real space projection operators read in
    PAW grid and wavefunctions read in
 
   number of l-projection  operators is LMAX  =           6
   number of lm-projection operators is LMMAX =          18
 

 ----------------------------------------------------------------------------- 
|                                                                             |
|  ADVICE TO THIS USER RUNNING 'VASP/VAMP'   (HEAR YOUR MASTER'S VOICE ...):  |
|                                                                             |
|      You have a (more or less) 'large supercell' and for larger cells       |
|      it might be more efficient to use real space projection opertators     |
|      So try LREAL= Auto  in the INCAR   file.                               |
|      Mind:          For very  accurate calculation you might also keep the  |
|      reciprocal projection scheme          (i.e. LREAL=.FALSE.)             |
|                                                                             |
 ----------------------------------------------------------------------------- 

  PAW_PBE Li_sv 10Sep2004               :
 energy of atom  1       EATOM= -202.7858
 kinetic energy error for atom=    0.0072 (will be added to EATOM!!)
  PAW_PBE O 08Apr2002                   :
 energy of atom  2       EATOM= -432.3788
 kinetic energy error for atom=    0.0129 (will be added to EATOM!!)
  PAW_PBE S 06Sep2000                   :
 energy of atom  3       EATOM= -276.8230
 kinetic energy error for atom=    0.0008 (will be added to EATOM!!)
  PAW_PBE Fe_pv 02Aug2007               :
 energy of atom  4       EATOM=-2457.4239
 kinetic energy error for atom=    0.0041 (will be added to EATOM!!)
 
 
 POSCAR: # Compound: Li16O16S24Fe32. Old comment:
  positions in direct lattice
  No initial velocities read in
 exchange correlation table for  LEXCH =        8
   RHO(1)=    0.500       N(1)  =     2000
   RHO(2)=  100.500       N(2)  =     4000
 


--------------------------------------------------------------------------------------------------------


 ion  position               nearest neighbor table
   1  0.289  0.469  0.156-  27 2.00  29 2.00  55 2.53  49 2.53
   2  0.789  0.469  0.156-  28 2.00  30 2.00  56 2.53  50 2.53
   3  0.289  0.969  0.156-  25 2.00  31 2.00  53 2.53  51 2.53
   4  0.789  0.969  0.156-  26 2.00  32 2.00  54 2.53  52 2.53
   5  0.046  0.219  0.186-  30 1.98  25 1.98
   6  0.546  0.219  0.186-  29 1.98  26 1.98
   7  0.046  0.719  0.186-  32 1.98  27 1.98
   8  0.546  0.719  0.186-  31 1.98  28 1.98
   9  0.454  0.469  0.814-  20 1.98  21 1.98
  10  0.954  0.469  0.814-  19 1.98  22 1.98
  11  0.454  0.969  0.814-  18 1.98  23 1.98
  12  0.954  0.969  0.814-  24 1.98  17 1.99
  13  0.211  0.219  0.844-  17 1.99  21 2.00  49 2.53  53 2.53
  14  0.711  0.219  0.844-  22 2.00  18 2.00  50 2.53  54 2.53
  15  0.211  0.719  0.844-  23 2.00  19 2.00  51 2.53  55 2.53
  16  0.711  0.719  0.844-  24 2.00  20 2.00  52 2.53  56 2.53
  17  0.077  0.095  0.803-  13 1.99  12 1.99  83 2.01  57 2.01  86 2.02
  18  0.577  0.095  0.803-  11 1.98  14 2.00  58 2.01  84 2.01  85 2.01
  19  0.077  0.595  0.803-  10 1.98  15 2.00  59 2.01  81 2.01  88 2.01
  20  0.577  0.595  0.803-   9 1.98  16 2.00  60 2.01  82 2.01  87 2.01
  21  0.325  0.343  0.803-   9 1.98  13 2.00  61 2.01  81 2.01  85 2.01
  22  0.825  0.343  0.803-  10 1.98  14 2.00  62 2.01  82 2.01  86 2.01
  23  0.325  0.843  0.803-  11 1.98  15 2.00  63 2.01  83 2.01  87 2.01
  24  0.825  0.843  0.803-  12 1.98  16 2.00  64 2.01  84 2.01  88 2.01
  25  0.175  0.093  0.197-   5 1.98   3 2.00  65 2.01  77 2.01  75 2.01
  26  0.675  0.093  0.197-   6 1.98   4 2.00  66 2.01  78 2.01  76 2.01
  27  0.175  0.593  0.197-   7 1.98   1 2.00  67 2.01  79 2.01  73 2.01
  28  0.675  0.593  0.197-   8 1.98   2 2.00  68 2.01  80 2.01  74 2.01
  29  0.423  0.345  0.197-   6 1.98   1 2.00  69 2.01  77 2.01  74 2.01
  30  0.923  0.345  0.197-   5 1.98   2 2.00  70 2.01  78 2.01  73 2.01
  31  0.423  0.845  0.197-   8 1.98   3 2.00  71 2.01  79 2.01  76 2.01
  32  0.923  0.845  0.197-   7 1.98   4 2.00  72 2.01  80 2.01  75 2.01
  33  0.219  0.345  0.371-  61 2.41  67 2.65  69 2.65
  34  0.719  0.345  0.371-  62 2.41  68 2.65  70 2.65
  35  0.219  0.845  0.371-  63 2.41  65 2.65  71 2.65
  36  0.719  0.845  0.371-  64 2.41  66 2.65  72 2.65
  37  0.467  0.093  0.371-  58 2.41  71 2.65  65 2.65
  38  0.967  0.093  0.371-  57 2.41  72 2.65  66 2.65
  39  0.467  0.593  0.371-  60 2.41  69 2.65  67 2.65
  40  0.967  0.593  0.371-  59 2.41  70 2.65  68 2.65
  41  0.033  0.343  0.629-  70 2.41  57 2.65  61 2.65
  42  0.533  0.343  0.629-  69 2.41  58 2.65  62 2.65
  43  0.033  0.843  0.629-  72 2.41  59 2.65  63 2.65
  44  0.533  0.843  0.629-  71 2.41  60 2.65  64 2.65
  45  0.281  0.095  0.629-  65 2.41  61 2.65  57 2.65
  46  0.781  0.095  0.629-  66 2.41  62 2.65  58 2.65
  47  0.281  0.595  0.629-  67 2.41  63 2.65  59 2.65
  48  0.781  0.595  0.629-  68 2.41  64 2.65  60 2.65
  49  0.124  0.344  0.000-  73 2.51  86 2.51  81 2.52  77 2.52  13 2.53   1 2.53
  50  0.624  0.344  0.000-  74 2.51  85 2.51  82 2.52  78 2.52  14 2.53   2 2.53
  51  0.124  0.844  0.000-  75 2.51  88 2.51  83 2.52  79 2.52  15 2.53   3 2.53
  52  0.624  0.844  0.000-  76 2.51  87 2.51  84 2.52  80 2.52  16 2.53   4 2.53
  53  0.376  0.094  1.000-  85 2.51  76 2.51  77 2.52  83 2.52   3 2.53  13 2.53
  54  0.876  0.094  1.000-  86 2.51  75 2.51  78 2.52  84 2.52   4 2.53  14 2.53
  55  0.376  0.594  1.000-  87 2.51  74 2.51  79 2.52  81 2.52   1 2.53  15 2.53
  56  0.876  0.594  1.000-  88 2.51  73 2.51  80 2.52  82 2.52   2 2.53  16 2.53
  57  0.038  0.106  0.606-  17 2.01  38 2.41  41 2.65  45 2.65
  58  0.538  0.106  0.606-  18 2.01  37 2.41  42 2.65  46 2.65
  59  0.038  0.606  0.606-  19 2.01  40 2.41  43 2.65  47 2.65
  60  0.538  0.606  0.606-  20 2.01  39 2.41  44 2.65  48 2.65
  61  0.265  0.332  0.606-  21 2.01  33 2.41  45 2.65  41 2.65
  62  0.765  0.332  0.606-  22 2.01  34 2.41  46 2.65  42 2.65
  63  0.265  0.832  0.606-  23 2.01  35 2.41  47 2.65  43 2.65
  64  0.765  0.832  0.606-  24 2.01  36 2.41  48 2.65  44 2.65
  65  0.235  0.082  0.394-  25 2.01  45 2.41  35 2.65  37 2.65
  66  0.735  0.082  0.394-  26 2.01  46 2.41  36 2.65  38 2.65
  67  0.235  0.582  0.394-  27 2.01  47 2.41  33 2.65  39 2.65
  68  0.735  0.582  0.394-  28 2.01  48 2.41  34 2.65  40 2.65
  69  0.462  0.356  0.394-  29 2.01  42 2.41  39 2.65  33 2.65
  70  0.962  0.356  0.394-  30 2.01  41 2.41  40 2.65  34 2.65
  71  0.462  0.856  0.394-  31 2.01  44 2.41  37 2.65  35 2.65
  72  0.962  0.856  0.394-  32 2.01  43 2.41  38 2.65  36 2.65
  73  0.038  0.469  0.154-  30 2.01  27 2.01  49 2.51  56 2.51
  74  0.538  0.469  0.154-  29 2.01  28 2.01  50 2.51  55 2.51
  75  0.038  0.969  0.154-  32 2.01  25 2.01  51 2.51  54 2.51
  76  0.538  0.969  0.154-  31 2.01  26 2.01  52 2.51  53 2.51
  77  0.289  0.219  0.154-  25 2.01  29 2.01  53 2.52  49 2.52
  78  0.789  0.219  0.154-  26 2.01  30 2.01  54 2.52  50 2.52
  79  0.289  0.719  0.154-  27 2.01  31 2.01  55 2.52  51 2.52
  80  0.789  0.719  0.154-  28 2.01  32 2.01  56 2.52  52 2.52
  81  0.211  0.469  0.846-  21 2.01  19 2.01  49 2.52  55 2.52
  82  0.711  0.469  0.846-  22 2.01  20 2.01  50 2.52  56 2.52
  83  0.211  0.969  0.846-  17 2.01  23 2.01  51 2.52  53 2.52
  84  0.711  0.969  0.846-  24 2.01  18 2.01  52 2.52  54 2.52
  85  0.462  0.219  0.846-  18 2.01  21 2.01  53 2.51  50 2.51
  86  0.962  0.219  0.846-  22 2.01  17 2.02  54 2.51  49 2.51
  87  0.462  0.719  0.846-  20 2.01  23 2.01  55 2.51  52 2.51
  88  0.962  0.719  0.846-  19 2.01  24 2.01  56 2.51  51 2.51
 

IMPORTANT INFORMATION: All symmetrisations will be switched off!
NOSYMM: (Re-)initialisation of all symmetry stuff for point group C_1.

 
 
 KPOINTS: # No comment                            

Automatic generation of k-mesh.
Space group operators:
 irot       det(A)        alpha          n_x          n_y          n_z        tau_x        tau_y        tau_z
    1     1.000000     0.000000     1.000000     0.000000     0.000000     0.000000     0.000000     0.000000
 
 Subroutine IBZKPT returns following result:
 ===========================================
 
 Found     14 irreducible k-points:
 
 Following reciprocal coordinates:
            Coordinates               Weight
  0.000000  0.000000  0.000000      1.000000
  0.333333  0.000000  0.000000      2.000000
  0.000000  0.333333  0.000000      2.000000
  0.333333  0.333333  0.000000      2.000000
 -0.333333  0.333333 -0.000000      2.000000
  0.000000  0.000000  0.333333      2.000000
  0.333333  0.000000  0.333333      2.000000
 -0.333333  0.000000  0.333333      2.000000
  0.000000  0.333333  0.333333      2.000000
  0.333333  0.333333  0.333333      2.000000
 -0.333333  0.333333  0.333333      2.000000
  0.000000 -0.333333  0.333333      2.000000
  0.333333 -0.333333  0.333333      2.000000
 -0.333333 -0.333333  0.333333      2.000000
 
 Following cartesian coordinates:
            Coordinates               Weight
  0.000000  0.000000  0.000000      1.000000
  0.029997  0.000000  0.008162      2.000000
  0.000000  0.029983  0.000000      2.000000
  0.029997  0.029983  0.008162      2.000000
 -0.029997  0.029983 -0.008162      2.000000
  0.000001  0.000000  0.032684      2.000000
  0.029998  0.000000  0.040846      2.000000
 -0.029996  0.000000  0.024522      2.000000
  0.000001  0.029983  0.032684      2.000000
  0.029998  0.029983  0.040846      2.000000
 -0.029996  0.029983  0.024522      2.000000
  0.000001 -0.029983  0.032684      2.000000
  0.029998 -0.029983  0.040846      2.000000
 -0.029996 -0.029983  0.024522      2.000000
 


--------------------------------------------------------------------------------------------------------




 Dimension of arrays:
   k-points           NKPTS =     14   k-points in BZ     NKDIM =     14   number of bands    NBANDS=    538
   number of dos      NEDOS =    301   number of ions     NIONS =     88
   non local maximal  LDIM  =      6   non local SUM 2l+1 LMDIM =     18
   total plane-waves  NPLWV = 829440
   max r-space proj   IRMAX =      1   max aug-charges    IRDMAX= 166102
   dimension x,y,z NGX =    96 NGY =   96 NGZ =   90
   dimension x,y,z NGXF=   192 NGYF=  192 NGZF=  180
   support grid    NGXF=   384 NGYF=  384 NGZF=  360
   ions per type =              16  16  24  32
   NGX,Y,Z   is equivalent  to a cutoff of  14.36, 14.36, 14.16 a.u.
   NGXF,Y,Z  is equivalent  to a cutoff of  28.72, 28.71, 28.31 a.u.

 SYSTEM =  unknown system                          
 POSCAR =  # Compound: Li16O16S24Fe32. Old comment:

 Startparameter for this run:
   NWRITE =      1    write-flag & timer
   PREC   = accura    normal or accurate (medium, high low for compatibility)
   ISTART =      0    job   : 0-new  1-cont  2-samecut
   ICHARG =      1    charge: 1-file 2-atom 10-const
   ISPIN  =      2    spin polarized calculation?
   LNONCOLLINEAR =      F non collinear calculations
   LSORBIT =      F    spin-orbit coupling
   INIWAV =      1    electr: 0-lowe 1-rand  2-diag
   LASPH  =      T    aspherical Exc in radial PAW
   METAGGA=      F    non-selfconsistent MetaGGA calc.

 Electronic Relaxation 1
   ENCUT  =  650.0 eV  47.77 Ry    6.91 a.u.  23.10 23.11 21.97*2*pi/ulx,y,z
   ENINI  =  650.0     initial cutoff
   ENAUG  =  628.9 eV  augmentation charge cutoff
   NELM   =    200;   NELMIN=  8; NELMDL=  0     # of ELM steps 
   EDIFF  = 0.1E-05   stopping-criterion for ELM
   LREAL  =      F    real-space projection
   NLSPLINE    = F    spline interpolate recip. space projectors
   LCOMPAT=      F    compatible to vasp.4.4
   GGA_COMPAT  = T    GGA compatible to vasp.4.4-vasp.4.6
   LMAXPAW     = -100 max onsite density
   LMAXMIX     =    4 max onsite mixed and CHGCAR
   VOSKOWN=      0    Vosko Wilk Nusair interpolation
   ROPT   =    0.00000   0.00000   0.00000   0.00000
 Ionic relaxation
   EDIFFG = 0.1E-04   stopping-criterion for IOM
   NSW    =      0    number of steps for IOM
   NBLOCK =      1;   KBLOCK =      1    inner block; outer block 
   IBRION =     -1    ionic relax: 0-MD 1-quasi-New 2-CG
   NFREE  =      0    steps in history (QN), initial steepest desc. (CG)
   ISIF   =      2    stress and relaxation
   IWAVPR =     10    prediction:  0-non 1-charg 2-wave 3-comb
   ISYM   =      0    0-nonsym 1-usesym 2-fastsym
   LCORR  =      T    Harris-Foulkes like correction to forces

   POTIM  = 0.5000    time-step for ionic-motion
   TEIN   =    0.0    initial temperature
   TEBEG  =    0.0;   TEEND  =   0.0 temperature during run
   SMASS  =  -3.00    Nose mass-parameter (am)
   estimated Nose-frequenzy (Omega)   =  0.10E-29 period in steps =****** mass=  -0.282E-26a.u.
   SCALEE = 1.0000    scale energy and forces
   NPACO  =    256;   APACO  = 16.0  distance and # of slots for P.C.
   PSTRESS=    0.0 pullay stress

  Mass of Ions in am
   POMASS =   7.01 16.00 32.07 55.85
  Ionic Valenz
   ZVAL   =   3.00  6.00  6.00 14.00
  Atomic Wigner-Seitz radii
   RWIGS  =  -1.00 -1.00 -1.00 -1.00
  virtual crystal weights 
   VCA    =   1.00  1.00  1.00  1.00
   NELECT =     736.0000    total number of electrons
   NUPDOWN=      -1.0000    fix difference up-down

 DOS related values:
   EMIN   =  10.00;   EMAX   =-10.00  energy-range for DOS
   EFERMI =   0.00
   ISMEAR =     0;   SIGMA  =   0.05  broadening in eV -4-tet -1-fermi 0-gaus

 Electronic relaxation 2 (details)
   IALGO  =     38    algorithm
   LDIAG  =      T    sub-space diagonalisation (order eigenvalues)
   LSUBROT=      F    optimize rotation matrix (better conditioning)
   TURBO    =      0    0=normal 1=particle mesh
   IRESTART =      0    0=no restart 2=restart with 2 vectors
   NREBOOT  =      0    no. of reboots
   NMIN     =      0    reboot dimension
   EREF     =   0.00    reference energy to select bands
   IMIX   =      4    mixing-type and parameters
     AMIX     =   0.40;   BMIX     =  1.00
     AMIX_MAG =   1.60;   BMIX_MAG =  1.00
     AMIN     =   0.10
     WC   =   100.;   INIMIX=   1;  MIXPRE=   1;  MAXMIX= -45

 Intra band minimization:
   WEIMIN = 0.0000     energy-eigenvalue tresh-hold
   EBREAK =  0.46E-09  absolut break condition
   DEPER  =   0.30     relativ break condition  

   TIME   =   0.40     timestep for ELM

  volume/ion in A,a.u.               =      14.32        96.62
  Fermi-wavevector in a.u.,A,eV,Ry     =   1.368520  2.586127 25.481613  1.872846
  Thomas-Fermi vector in A             =   2.494476
 
 Write flags
   LWAVE        =      F    write WAVECAR
   LDOWNSAMPLE  =      F    k-point downsampling of WAVECAR
   LCHARG       =      T    write CHGCAR
   LVTOT        =      F    write LOCPOT, total local potential
   LVHAR        =      F    write LOCPOT, Hartree potential only
   LELF         =      F    write electronic localiz. function (ELF)
   LORBIT       =      0    0 simple, 1 ext, 2 COOP (PROOUT), +10 PAW based schemes


 Dipole corrections
   LMONO  =      F    monopole corrections only (constant potential shift)
   LDIPOL =      F    correct potential (dipole corrections)
   IDIPOL =      0    1-x, 2-y, 3-z, 4-all directions 
   EPSILON=  1.0000000 bulk dielectric constant

 LDA+U is selected, type is set to LDAUTYPE =  2
   angular momentum for each species LDAUL =    -1   -1   -1    2
   U (eV)           for each species LDAUU =   0.0  0.0  0.0  4.0
   J (eV)           for each species LDAUJ =   0.0  0.0  0.0  0.0
 Exchange correlation treatment:
   GGA     =    PE    GGA type
   LEXCH   =     8    internal setting for exchange type
   VOSKOWN=      0    Vosko Wilk Nusair interpolation
   LHFCALC =     F    Hartree Fock is set to
   LHFONE  =     F    Hartree Fock one center treatment
   AEXX    =    0.0000 exact exchange contribution

 Linear response parameters
   LEPSILON=     F    determine dielectric tensor
   LRPA    =     F    only Hartree local field effects (RPA)
   LNABLA  =     F    use nabla operator in PAW spheres
   LVEL    =     F    velocity operator in full k-point grid
   LINTERFAST=   F  fast interpolation
   KINTER  =     0    interpolate to denser k-point grid
   CSHIFT  =0.1000    complex shift for real part using Kramers Kronig
   OMEGAMAX=  -1.0    maximum frequency
   DEG_THRESHOLD= 0.2000000E-02 threshold for treating states as degnerate
   RTIME   =   -0.100 relaxation time in fs
  (WPLASMAI=    0.000 imaginary part of plasma frequency in eV, 0.658/RTIME)
   DFIELD  = 0.0000000 0.0000000 0.0000000 field for delta impulse in time
 
 Orbital magnetization related:
   ORBITALMAG=     F  switch on orbital magnetization
   LCHIMAG   =     F  perturbation theory with respect to B field
   DQ        =  0.001000  dq finite difference perturbation B field
   LLRAUG    =     F  two centre corrections for induced B field



--------------------------------------------------------------------------------------------------------


 Static calculation
 charge density and potential will be updated during run
 spin polarized calculation
 Variant of blocked Davidson
 Davidson routine will perform the subspace rotation
 perform sub-space diagonalisation
    after iterative eigenvector-optimisation
 modified Broyden-mixing scheme, WC =      100.0
 initial mixing is a Kerker type mixing with AMIX =  0.4000 and BMIX =      1.0000
 Hartree-type preconditioning will be used
 using additional bands          170
 reciprocal scheme for non local part
 use partial core corrections
 calculate Harris-corrections to forces 
   (improved forces if not selfconsistent)
 use gradient corrections 
 use of overlap-Matrix (Vanderbilt PP)
 Gauss-broadening in eV      SIGMA  =   0.05


--------------------------------------------------------------------------------------------------------


  energy-cutoff  :      650.00
  volume of cell :     1259.94
      direct lattice vectors                 reciprocal lattice vectors
    11.112233740  0.000000000 -0.000290340     0.089991547  0.000000000  0.024487024
     0.000000000 11.117451940  0.000000000     0.000000000  0.089948669  0.000000000
    -2.775108980  0.000000000 10.198722210     0.000002562  0.000000000  0.098052196

  length of vectors
    11.112233744 11.117451940 10.569539468     0.093263567  0.089948669  0.098052196


 
 k-points in units of 2pi/SCALE and weight: # No comment                            
   0.00000000  0.00000000  0.00000000       0.037
   0.02999718  0.00000000  0.00816234       0.074
   0.00000000  0.02998289  0.00000000       0.074
   0.02999718  0.02998289  0.00816234       0.074
  -0.02999718  0.02998289 -0.00816234       0.074
   0.00000085  0.00000000  0.03268407       0.074
   0.02999804  0.00000000  0.04084641       0.074
  -0.02999633  0.00000000  0.02452172       0.074
   0.00000085  0.02998289  0.03268407       0.074
   0.02999804  0.02998289  0.04084641       0.074
  -0.02999633  0.02998289  0.02452172       0.074
   0.00000085 -0.02998289  0.03268407       0.074
   0.02999804 -0.02998289  0.04084641       0.074
  -0.02999633 -0.02998289  0.02452172       0.074
 
 k-points in reciprocal lattice and weights: # No comment                            
   0.00000000  0.00000000  0.00000000       0.037
   0.33333333  0.00000000  0.00000000       0.074
   0.00000000  0.33333333  0.00000000       0.074
   0.33333333  0.33333333  0.00000000       0.074
  -0.33333333  0.33333333 -0.00000000       0.074
   0.00000000  0.00000000  0.33333333       0.074
   0.33333333  0.00000000  0.33333333       0.074
  -0.33333333  0.00000000  0.33333333       0.074
   0.00000000  0.33333333  0.33333333       0.074
   0.33333333  0.33333333  0.33333333       0.074
  -0.33333333  0.33333333  0.33333333       0.074
   0.00000000 -0.33333333  0.33333333       0.074
   0.33333333 -0.33333333  0.33333333       0.074
  -0.33333333 -0.33333333  0.33333333       0.074
 
 position of ions in fractional coordinates (direct lattice) 
   0.28894969  0.46933910  0.15583616
   0.78894969  0.46933910  0.15583616
   0.28894969  0.96933910  0.15583616
   0.78894969  0.96933910  0.15583616
   0.04646972  0.21934976  0.18586770
   0.54646972  0.21934976  0.18586770
   0.04646972  0.71934976  0.18586770
   0.54646972  0.71934976  0.18586770
   0.45353028  0.46934976  0.81413230
   0.95353028  0.46934976  0.81413230
   0.45353028  0.96934976  0.81413230
   0.95353028  0.96934976  0.81413230
   0.21105031  0.21933910  0.84416384
   0.71105031  0.21933910  0.84416384
   0.21105031  0.71933910  0.84416384
   0.71105031  0.71933910  0.84416384
   0.07744962  0.09530995  0.80250593
   0.57654971  0.09530995  0.80250593
   0.07654971  0.59530995  0.80250593
   0.57654971  0.59530995  0.80250593
   0.32470466  0.34338175  0.80250383
   0.82470466  0.34338175  0.80250383
   0.32470466  0.84338175  0.80250383
   0.82470466  0.84338175  0.80250383
   0.17529534  0.09338175  0.19749617
   0.67529534  0.09338175  0.19749617
   0.17529534  0.59338175  0.19749617
   0.67529534  0.59338175  0.19749617
   0.42345029  0.34530995  0.19749407
   0.92345029  0.34530995  0.19749407
   0.42345029  0.84530995  0.19749407
   0.92345029  0.84530995  0.19749407
   0.21868463  0.34523395  0.37102476
   0.71868463  0.34523395  0.37102476
   0.21868463  0.84523395  0.37102476
   0.71868463  0.84523395  0.37102476
   0.46681660  0.09344897  0.37102399
   0.96681660  0.09344897  0.37102399
   0.46681660  0.59344897  0.37102399
   0.96681660  0.59344897  0.37102399
   0.03318340  0.34344897  0.62897601
   0.53318340  0.34344897  0.62897601
   0.03318340  0.84344897  0.62897601
   0.53318340  0.84344897  0.62897601
   0.28131537  0.09523395  0.62897524
   0.78131537  0.09523395  0.62897524
   0.28131537  0.59523395  0.62897524
   0.78131537  0.59523395  0.62897524
   0.12439279  0.34434306  0.00000412
   0.62439279  0.34434306  0.00000412
   0.12439279  0.84434306  0.00000412
   0.62439279  0.84434306  0.00000412
   0.37560721  0.09434306  0.99999588
   0.87560721  0.09434306  0.99999588
   0.37560721  0.59434306  0.99999588
   0.87560721  0.59434306  0.99999588
   0.03824426  0.10634799  0.60632306
   0.53824426  0.10634799  0.60632306
   0.03824426  0.60634799  0.60632306
   0.53824426  0.60634799  0.60632306
   0.26492712  0.33232651  0.60632763
   0.76492712  0.33232651  0.60632763
   0.26492712  0.83232651  0.60632763
   0.76492712  0.83232651  0.60632763
   0.23507288  0.08232651  0.39367237
   0.73507288  0.08232651  0.39367237
   0.23507288  0.58232651  0.39367237
   0.73507288  0.58232651  0.39367237
   0.46175574  0.35634799  0.39367694
   0.96175574  0.35634799  0.39367694
   0.46175574  0.85634799  0.39367694
   0.96175574  0.85634799  0.39367694
   0.03848398  0.46936404  0.15397331
   0.53848398  0.46936404  0.15397331
   0.03848398  0.96936404  0.15397331
   0.53848398  0.96936404  0.15397331
   0.28861657  0.21935690  0.15447525
   0.78861657  0.21935690  0.15447525
   0.28861657  0.71935690  0.15447525
   0.78861657  0.71935690  0.15447525
   0.21138343  0.46935690  0.84552475
   0.71138343  0.46935690  0.84552475
   0.21138343  0.96935690  0.84552475
   0.71138343  0.96935690  0.84552475
   0.46151602  0.21936404  0.84602669
   0.96151602  0.21936404  0.84602669
   0.46151602  0.71936404  0.84602669
   0.96151602  0.71936404  0.84602669
 
 position of ions in cartesian coordinates  (Angst):
   2.77841422  5.21785483  1.58924581
   8.33453109  5.21785483  1.58910064
   2.77841422 10.77658080  1.58924581
   8.33453109 10.77658080  1.58910064
   0.00057921  2.43861041  1.89559955
   5.55669608  2.43861041  1.89545438
   0.00057921  7.99733638  1.89559955
   5.55669608  7.99733638  1.89545438
   2.78042868  5.21797340  8.30297749
   8.33654555  5.21797340  8.30283232
   2.78042868 10.77669937  8.30297749
   8.33654555 10.77669937  8.30283232
   0.00259367  2.43849185  8.60933123
   5.55871054  2.43849185  8.60918606
   0.00259367  7.99721782  8.60933123
   5.55871054  7.99721782  8.60918606
  -1.36640314  1.05960384  8.18451257
   4.17971373  1.05960384  8.18436766
  -1.37640314  6.61832981  8.18451283
   4.17971373  6.61832981  8.18436766
   1.38115855  3.81753010  8.18441936
   6.93727542  3.81753010  8.18427419
   1.38115855  9.37625607  8.18441936
   6.93727542  9.37625607  8.18427419
   1.39984934  1.03816712  2.01415768
   6.95596621  1.03816712  2.01401251
   1.39984934  6.59689309  2.01415768
   6.95596621  6.59689309  2.01401251
   4.15741103  3.83896683  2.01406421
   9.71352790  3.83896683  2.01391904
   4.15741103  9.39769280  2.01406421
   9.71352790  9.39769280  2.01391904
   1.40044058  3.83812185  3.78391497
   6.95655745  3.83812185  3.78376980
   1.40044058  9.39684782  3.78391497
   6.95655745  9.39684782  3.78376980
   4.15774317  1.03891443  3.78383507
   9.71386004  1.03891443  3.78368990
   4.15774317  6.59764040  3.78383507
   9.71386004  6.59764040  3.78368990
  -1.37673528  3.81827742  6.41474197
   4.17938159  3.81827742  6.41459680
  -1.37673528  9.37700339  6.41474197
   4.17938159  9.37700339  6.41459680
   1.38056731  1.05875886  6.41466207
   6.93668418  1.05875886  6.41451690
   1.38056731  6.61748483  6.41466207
   6.93668418  6.61748483  6.41451690
   1.38227032  3.82821742  0.00000590
   6.93838719  3.82821742 -0.00013927
   1.38227032  9.38694339  0.00000590
   6.93838719  9.38694339 -0.00013927
   1.39873757  1.04885444 10.19857114
   6.95485444  1.04885444 10.19842597
   1.39873757  6.60758041 10.19857114
   6.95485444  6.60758041 10.19842597
  -1.25763347  1.18231867  6.18370935
   4.29848340  1.18231867  6.18356418
  -1.25763347  6.74104464  6.18370935
   4.29848340  6.74104464  6.18356418
   1.26130689  3.69462400  6.18369015
   6.81742376  3.69462400  6.18354498
   1.26130689  9.25334997  6.18369015
   6.81742376  9.25334997  6.18354498
   1.51970100  0.91526102  4.01488689
   7.07581787  0.91526102  4.01474172
   1.51970100  6.47398699  4.01488689
   7.07581787  6.47398699  4.01474172
   4.03864136  3.96168165  4.01486769
   9.59475823  3.96168165  4.01472252
   4.03864136  9.52040762  4.01486769
   9.59475823  9.52040762  4.01472252
   0.00035027  5.21813216  1.57031984
   5.55646714  5.21813216  1.57017467
   0.00035027 10.77685813  1.57031984
   5.55646714 10.77685813  1.57017467
   2.77848919  2.43868979  1.57536637
   8.33460606  2.43868979  1.57522120
   2.77848919  7.99741576  1.57536637
   8.33460606  7.99741576  1.57522120
   0.00251870  5.21805278  8.62321067
   5.55863557  5.21805278  8.62306550
   0.00251870 10.77677875  8.62321067
   5.55863557 10.77677875  8.62306550
   2.78065762  2.43876917  8.62825720
   8.33677449  2.43876917  8.62811203
   2.78065762  7.99749514  8.62825720
   8.33677449  7.99749514  8.62811203
 


--------------------------------------------------------------------------------------------------------


 k-point  1 :   0.0000 0.0000 0.0000  plane waves:   47369
 k-point  2 :   0.3333 0.0000 0.0000  plane waves:   47373
 k-point  3 :   0.0000 0.3333 0.0000  plane waves:   47370
 k-point  4 :   0.3333 0.3333 0.0000  plane waves:   47404
 k-point  5 :  -0.3333 0.3333-0.0000  plane waves:   47404
 k-point  6 :   0.0000 0.0000 0.3333  plane waves:   47419
 k-point  7 :   0.3333 0.0000 0.3333  plane waves:   47399
 k-point  8 :  -0.3333 0.0000 0.3333  plane waves:   47417
 k-point  9 :   0.0000 0.3333 0.3333  plane waves:   47409
 k-point 10 :   0.3333 0.3333 0.3333  plane waves:   47422
 k-point 11 :  -0.3333 0.3333 0.3333  plane waves:   47440
 k-point 12 :   0.0000-0.3333 0.3333  plane waves:   47409
 k-point 13 :   0.3333-0.3333 0.3333  plane waves:   47422
 k-point 14 :  -0.3333-0.3333 0.3333  plane waves:   47440

 maximum and minimum number of plane-waves per node :      7942     7858

 maximum number of plane-waves:     47440
 maximum index in each direction: 
   IXMAX=   23   IYMAX=   23   IZMAX=   21
   IXMIN=  -23   IYMIN=  -23   IZMIN=  -22


 parallel 3D FFT for wavefunctions:
    minimum data exchange during FFTs selected (reduces bandwidth)
 parallel 3D FFT for charge:
    minimum data exchange during FFTs selected (reduces bandwidth)


 total amount of memory used by VASP MPI-rank0  1233264. kBytes
=======================================================================

   base      :      30000. kBytes
   nonl-proj :      75226. kBytes
   fftplans  :      85054. kBytes
   grid      :      64684. kBytes
   one-center:        466. kBytes
   wavefun   :     977834. kBytes
 
     INWAV:  cpu time    0.0000: real time    0.0000
 Broyden mixing: mesh for mixing (old mesh)
   NGX = 47   NGY = 47   NGZ = 43
  (NGX  =192   NGY  =192   NGZ  =180)
  gives a total of  94987 points

 initial charge density was supplied:
 number of electron     736.0000016 magnetization     127.9999885
 keeping initial charge density in first step


--------------------------------------------------------------------------------------------------------


 Maximum index for augmentation-charges        13229 (set IRDMAX)


--------------------------------------------------------------------------------------------------------


 First call to EWALD:  gamma=   0.164
 Maximum number of real-space cells 3x 3x 3
 Maximum number of reciprocal cells 3x 3x 3

    FEWALD:  cpu time    0.0044: real time    0.2930


--------------------------------------- Iteration      1(   1)  ---------------------------------------


    POTLOK:  cpu time    1.0552: real time    1.8969
    SETDIJ:  cpu time    2.2645: real time    2.2667
     EDDAV:  cpu time  310.6616: real time  316.3405
       DOS:  cpu time    0.0078: real time    0.0078
    --------------------------------------------
      LOOP:  cpu time  313.9892: real time  320.5119

 eigenvalue-minimisations  : 30944
 total energy-change (2. order) : 0.1040965E+05  (-0.4118847E+05)
 number of electron     736.0000016 magnetization     127.9999885
 augmentation part      736.0000016 magnetization     127.9999885

 Free energy of the ion-electron system (eV)
  ---------------------------------------------------
  alpha Z        PSCENC =      2314.49656628
  Ewald energy   TEWEN  =    -57722.87063147
  -Hartree energ DENC   =    -30349.03995348
  -exchange      EXHF   =         0.00000000
  -V(xc)+E(xc)   XCENC  =      3229.30004007
  PAW double counting   =     92679.89207989   -95535.38516353
  entropy T*S    EENTRO =        -0.01850917
  eigenvalues    EBANDS =       349.80074487
  atomic energy  EATOM  =     95443.47970955
  Solvation  Ediel_sol  =         0.00000000
  ---------------------------------------------------
  free energy    TOTEN  =     10409.65488301 eV

  energy without entropy =    10409.67339218  energy(sigma->0) =    10409.66413759


--------------------------------------------------------------------------------------------------------




--------------------------------------- Iteration      1(   2)  ---------------------------------------


     EDDAV:  cpu time  303.4082: real time  306.7694
       DOS:  cpu time    0.0082: real time    0.0082
    --------------------------------------------
      LOOP:  cpu time  303.4164: real time  306.7777

 eigenvalue-minimisations  : 30128
 total energy-change (2. order) :-0.9232168E+04  (-0.8658370E+04)
 number of electron     736.0000016 magnetization     127.9999885
 augmentation part      736.0000016 magnetization     127.9999885

 Free energy of the ion-electron system (eV)
  ---------------------------------------------------
  alpha Z        PSCENC =      2314.49656628
  Ewald energy   TEWEN  =    -57722.87063147
  -Hartree energ DENC   =    -30349.03995348
  -exchange      EXHF   =         0.00000000
  -V(xc)+E(xc)   XCENC  =      3229.30004007
  PAW double counting   =     92679.89207989   -95535.38516353
  entropy T*S    EENTRO =        -0.06597216
  eigenvalues    EBANDS =     -8882.31980742
  atomic energy  EATOM  =     95443.47970955
  Solvation  Ediel_sol  =         0.00000000
  ---------------------------------------------------
  free energy    TOTEN  =      1177.48686772 eV

  energy without entropy =     1177.55283988  energy(sigma->0) =     1177.51985380


--------------------------------------------------------------------------------------------------------




--------------------------------------- Iteration      1(   3)  ---------------------------------------


     EDDAV:  cpu time  321.7997: real time  326.0186
       DOS:  cpu time    0.0027: real time    0.0027
    --------------------------------------------
      LOOP:  cpu time  321.8024: real time  326.0213

 eigenvalue-minimisations  : 32352
 total energy-change (2. order) :-0.1485586E+04  (-0.1278938E+04)
 number of electron     736.0000016 magnetization     127.9999885
 augmentation part      736.0000016 magnetization     127.9999885

 Free energy of the ion-electron system (eV)
  ---------------------------------------------------
  alpha Z        PSCENC =      2314.49656628
  Ewald energy   TEWEN  =    -57722.87063147
  -Hartree energ DENC   =    -30349.03995348
  -exchange      EXHF   =         0.00000000
  -V(xc)+E(xc)   XCENC  =      3229.30004007
  PAW double counting   =     92679.89207989   -95535.38516353
  entropy T*S    EENTRO =        -0.00000000
  eigenvalues    EBANDS =    -10367.97203100
  atomic energy  EATOM  =     95443.47970955
  Solvation  Ediel_sol  =         0.00000000
  ---------------------------------------------------
  free energy    TOTEN  =      -308.09938369 eV

  energy without entropy =     -308.09938369  energy(sigma->0) =     -308.09938369


--------------------------------------------------------------------------------------------------------




--------------------------------------- Iteration      1(   4)  ---------------------------------------


     EDDAV:  cpu time  343.2041: real time  346.5377
       DOS:  cpu time    0.0025: real time    0.0025
    --------------------------------------------
      LOOP:  cpu time  343.2066: real time  346.5402

 eigenvalue-minimisations  : 35024
 total energy-change (2. order) :-0.1682018E+03  (-0.1654404E+03)
 number of electron     736.0000016 magnetization     127.9999885
 augmentation part      736.0000016 magnetization     127.9999885

 Free energy of the ion-electron system (eV)
  ---------------------------------------------------
  alpha Z        PSCENC =      2314.49656628
  Ewald energy   TEWEN  =    -57722.87063147
  -Hartree energ DENC   =    -30349.03995348
  -exchange      EXHF   =         0.00000000
  -V(xc)+E(xc)   XCENC  =      3229.30004007
  PAW double counting   =     92679.89207989   -95535.38516353
  entropy T*S    EENTRO =        -0.00000000
  eigenvalues    EBANDS =    -10536.17385232
  atomic energy  EATOM  =     95443.47970955
  Solvation  Ediel_sol  =         0.00000000
  ---------------------------------------------------
  free energy    TOTEN  =      -476.30120501 eV

  energy without entropy =     -476.30120501  energy(sigma->0) =     -476.30120501


--------------------------------------------------------------------------------------------------------




--------------------------------------- Iteration      1(   5)  ---------------------------------------


     EDDAV:  cpu time  454.7796: real time  459.4139
       DOS:  cpu time    0.0030: real time    0.0037
    CHARGE:  cpu time    9.2034: real time    9.3663
    MIXING:  cpu time    0.0356: real time    0.0356
    --------------------------------------------
      LOOP:  cpu time  464.0216: real time  468.8196

 eigenvalue-minimisations  : 49800
 total energy-change (2. order) :-0.1243233E+02  (-0.1230916E+02)
 number of electron     736.0000016 magnetization     127.9999932
 augmentation part      278.4635518 magnetization      84.1341013

 Broyden mixing:
  rms(total) = 0.20721E+00    rms(broyden)= 0.20705E+00
  rms(prec ) = 0.21074E+00
  weight for this iteration     100.00

 Free energy of the ion-electron system (eV)
  ---------------------------------------------------
  alpha Z        PSCENC =      2314.49656628
  Ewald energy   TEWEN  =    -57722.87063147
  -Hartree energ DENC   =    -30349.03995348
  -exchange      EXHF   =         0.00000000
  -V(xc)+E(xc)   XCENC  =      3229.30004007
  PAW double counting   =     92679.89207989   -95535.38516353
  entropy T*S    EENTRO =        -0.00000000
  eigenvalues    EBANDS =    -10548.60617919
  atomic energy  EATOM  =     95443.47970955
  Solvation  Ediel_sol  =         0.00000000
  ---------------------------------------------------
  free energy    TOTEN  =      -488.73353189 eV

  energy without entropy =     -488.73353189  energy(sigma->0) =     -488.73353189


--------------------------------------------------------------------------------------------------------




--------------------------------------- Iteration      1(   6)  ---------------------------------------


    POTLOK:  cpu time    1.0467: real time    1.0498
    SETDIJ:  cpu time    2.2875: real time    2.2888
     EDDAV:  cpu time  394.5988: real time  398.5711
       DOS:  cpu time    0.0028: real time    0.0028
    CHARGE:  cpu time    9.1866: real time    9.2899
    MIXING:  cpu time    0.0413: real time    0.0413
    --------------------------------------------
      LOOP:  cpu time  407.1637: real time  411.2437

 eigenvalue-minimisations  : 42000
 total energy-change (2. order) :-0.4668751E+00  (-0.4811750E+00)
 number of electron     736.0000016 magnetization     127.9999951
 augmentation part      277.9602435 magnetization      84.1632539

 Broyden mixing:
  rms(total) = 0.10233E+00    rms(broyden)= 0.10217E+00
  rms(prec ) = 0.10305E+00
  weight for this iteration     100.00

 eigenvalues of (default mixing * dielectric matrix)
  average eigenvalue GAMMA=   0.6575
  0.6575

 Free energy of the ion-electron system (eV)
  ---------------------------------------------------
  alpha Z        PSCENC =      2314.49656628
  Ewald energy   TEWEN  =    -57722.87063147
  -Hartree energ DENC   =    -30347.22576584
  -exchange      EXHF   =         0.00000000
  -V(xc)+E(xc)   XCENC  =      3229.00007597
  PAW double counting   =     92523.76665703   -95377.60694273
  entropy T*S    EENTRO =        -0.00000000
  eigenvalues    EBANDS =    -10552.24007577
  atomic energy  EATOM  =     95443.47970955
  Solvation  Ediel_sol  =         0.00000000
  ---------------------------------------------------
  free energy    TOTEN  =      -489.20040699 eV

  energy without entropy =     -489.20040699  energy(sigma->0) =     -489.20040699


--------------------------------------------------------------------------------------------------------




--------------------------------------- Iteration      1(   7)  ---------------------------------------


    POTLOK:  cpu time    1.0420: real time    1.0457
    SETDIJ:  cpu time    2.2964: real time    2.3060
     EDDAV:  cpu time  427.3137: real time  432.4585
       DOS:  cpu time    0.0027: real time    0.0027
    CHARGE:  cpu time    9.3992: real time    9.4360
    MIXING:  cpu time    0.0367: real time    0.0367
    --------------------------------------------
      LOOP:  cpu time  440.0907: real time  445.2856

 eigenvalue-minimisations  : 46344
 total energy-change (2. order) :-0.1656029E-01  (-0.1744401E-01)
 number of electron     736.0000016 magnetization     127.9999959
 augmentation part      277.8792997 magnetization      84.1547244

 Broyden mixing:
  rms(total) = 0.59316E-01    rms(broyden)= 0.59274E-01
  rms(prec ) = 0.60757E-01
  weight for this iteration     100.00

 eigenvalues of (default mixing * dielectric matrix)
  average eigenvalue GAMMA=   0.5680
  0.5680  0.5680

 Free energy of the ion-electron system (eV)
  ---------------------------------------------------
  alpha Z        PSCENC =      2314.49656628
  Ewald energy   TEWEN  =    -57722.87063147
  -Hartree energ DENC   =    -30348.15636375
  -exchange      EXHF   =         0.00000000
  -V(xc)+E(xc)   XCENC  =      3229.08553952
  PAW double counting   =     92581.04850578   -95435.46580014
  entropy T*S    EENTRO =        -0.00000000
  eigenvalues    EBANDS =    -10550.83449305
  atomic energy  EATOM  =     95443.47970955
  Solvation  Ediel_sol  =         0.00000000
  ---------------------------------------------------
  free energy    TOTEN  =      -489.21696728 eV

  energy without entropy =     -489.21696728  energy(sigma->0) =     -489.21696728


--------------------------------------------------------------------------------------------------------




--------------------------------------- Iteration      1(   8)  ---------------------------------------


    POTLOK:  cpu time    1.0397: real time    1.0520
    SETDIJ:  cpu time    2.3167: real time    2.3395
     EDDAV:  cpu time  401.8804: real time  406.6970
       DOS:  cpu time    0.0030: real time    0.0036
    CHARGE:  cpu time    9.0824: real time    9.4427
    MIXING:  cpu time    0.0457: real time    0.0464
    --------------------------------------------
      LOOP:  cpu time  414.3680: real time  419.5812

 eigenvalue-minimisations  : 42928
 total energy-change (2. order) : 0.4896160E-03  (-0.3483703E-03)
 number of electron     736.0000016 magnetization     127.9999964
 augmentation part      277.8713062 magnetization      84.1567517

 Broyden mixing:
  rms(total) = 0.52797E-01    rms(broyden)= 0.52794E-01
  rms(prec ) = 0.54066E-01
  weight for this iteration     100.00

 eigenvalues of (default mixing * dielectric matrix)
  average eigenvalue GAMMA=   0.5735
  0.6316  0.6316  0.4573

 Free energy of the ion-electron system (eV)
  ---------------------------------------------------
  alpha Z        PSCENC =      2314.49656628
  Ewald energy   TEWEN  =    -57722.87063147
  -Hartree energ DENC   =    -30348.11937310
  -exchange      EXHF   =         0.00000000
  -V(xc)+E(xc)   XCENC  =      3229.11417694
  PAW double counting   =     92594.45285004   -95449.00220645
  entropy T*S    EENTRO =        -0.00000000
  eigenvalues    EBANDS =    -10550.76756944
  atomic energy  EATOM  =     95443.47970955
  Solvation  Ediel_sol  =         0.00000000
  ---------------------------------------------------
  free energy    TOTEN  =      -489.21647766 eV

  energy without entropy =     -489.21647766  energy(sigma->0) =     -489.21647766


--------------------------------------------------------------------------------------------------------




--------------------------------------- Iteration      1(   9)  ---------------------------------------


    POTLOK:  cpu time    1.0307: real time    1.0547
    SETDIJ:  cpu time    2.3265: real time    2.3619
     EDDAV:  cpu time  443.9724: real time  448.8944
       DOS:  cpu time    0.0026: real time    0.0026
    CHARGE:  cpu time    9.4299: real time    9.4625
    MIXING:  cpu time    0.0302: real time    0.0313
    --------------------------------------------
      LOOP:  cpu time  456.7924: real time  461.8075

 eigenvalue-minimisations  : 48440
 total energy-change (2. order) : 0.5029362E-03  (-0.2194386E-04)
 number of electron     736.0000016 magnetization     127.9999987
 augmentation part      277.8737568 magnetization      84.1568246

 Broyden mixing:
  rms(total) = 0.45486E-01    rms(broyden)= 0.45486E-01
  rms(prec ) = 0.46536E-01
  weight for this iteration     100.00

 eigenvalues of (default mixing * dielectric matrix)
  average eigenvalue GAMMA=   0.8713
  1.1717  1.1717  0.5709  0.5709

 Free energy of the ion-electron system (eV)
  ---------------------------------------------------
  alpha Z        PSCENC =      2314.49656628
  Ewald energy   TEWEN  =    -57722.87063147
  -Hartree energ DENC   =    -30348.20706431
  -exchange      EXHF   =         0.00000000
  -V(xc)+E(xc)   XCENC  =      3229.14174398
  PAW double counting   =     92604.07860396   -95458.75631499
  entropy T*S    EENTRO =        -0.00000000
  eigenvalues    EBANDS =    -10550.57858773
  atomic energy  EATOM  =     95443.47970955
  Solvation  Ediel_sol  =         0.00000000
  ---------------------------------------------------
  free energy    TOTEN  =      -489.21597473 eV

  energy without entropy =     -489.21597473  energy(sigma->0) =     -489.21597473


--------------------------------------------------------------------------------------------------------




--------------------------------------- Iteration      1(  10)  ---------------------------------------


    POTLOK:  cpu time    1.0296: real time    1.0426
    SETDIJ:  cpu time    2.2774: real time    2.3024
     EDDAV:  cpu time  437.9544: real time  443.1150
       DOS:  cpu time    0.0030: real time    0.0032
    CHARGE:  cpu time    9.2792: real time    9.4369
    MIXING:  cpu time    0.0428: real time    0.0448
    --------------------------------------------
      LOOP:  cpu time  450.5864: real time  455.9448

 eigenvalue-minimisations  : 47632
 total energy-change (2. order) : 0.1032870E-02  (-0.1016477E-03)
 number of electron     736.0000016 magnetization     127.9999998
 augmentation part      277.8865365 magnetization      84.1583520

 Broyden mixing:
  rms(total) = 0.18694E-01    rms(broyden)= 0.18693E-01
  rms(prec ) = 0.18895E-01
  weight for this iteration     100.00

 eigenvalues of (default mixing * dielectric matrix)
  average eigenvalue GAMMA=   0.9316
  1.4883  1.4883  0.6153  0.6153  0.4509

 Free energy of the ion-electron system (eV)
  ---------------------------------------------------
  alpha Z        PSCENC =      2314.49656628
  Ewald energy   TEWEN  =    -57722.87063147
  -Hartree energ DENC   =    -30348.76710326
  -exchange      EXHF   =         0.00000000
  -V(xc)+E(xc)   XCENC  =      3229.25508516
  PAW double counting   =     92644.57010752   -95499.78440706
  entropy T*S    EENTRO =        -0.00000000
  eigenvalues    EBANDS =    -10549.59426858
  atomic energy  EATOM  =     95443.47970955
  Solvation  Ediel_sol  =         0.00000000
  ---------------------------------------------------
  free energy    TOTEN  =      -489.21494186 eV

  energy without entropy =     -489.21494186  energy(sigma->0) =     -489.21494186


--------------------------------------------------------------------------------------------------------




--------------------------------------- Iteration      1(  11)  ---------------------------------------


    POTLOK:  cpu time    1.0282: real time    1.0620
    SETDIJ:  cpu time    2.2504: real time    2.3029
     EDDAV:  cpu time  354.6115: real time  358.1042
       DOS:  cpu time    0.0024: real time    0.0024
    CHARGE:  cpu time    9.2302: real time    9.2825
    MIXING:  cpu time    0.0402: real time    0.0403
    --------------------------------------------
      LOOP:  cpu time  367.1629: real time  370.7942

 eigenvalue-minimisations  : 36680
 total energy-change (2. order) : 0.5590991E-04  (-0.4980258E-04)
 number of electron     736.0000016 magnetization     128.0000000
 augmentation part      277.8919079 magnetization      84.1584408

 Broyden mixing:
  rms(total) = 0.72195E-02    rms(broyden)= 0.72174E-02
  rms(prec ) = 0.72508E-02
  weight for this iteration     100.00

 eigenvalues of (default mixing * dielectric matrix)
  average eigenvalue GAMMA=   0.9016
  1.5094  1.5094  0.6599  0.6599  0.5353  0.5353

 Free energy of the ion-electron system (eV)
  ---------------------------------------------------
  alpha Z        PSCENC =      2314.49656628
  Ewald energy   TEWEN  =    -57722.87063147
  -Hartree energ DENC   =    -30349.00518694
  -exchange      EXHF   =         0.00000000
  -V(xc)+E(xc)   XCENC  =      3229.30234295
  PAW double counting   =     92665.68358106   -95521.13702298
  entropy T*S    EENTRO =        -0.00000000
  eigenvalues    EBANDS =    -10549.16424439
  atomic energy  EATOM  =     95443.47970955
  Solvation  Ediel_sol  =         0.00000000
  ---------------------------------------------------
  free energy    TOTEN  =      -489.21488595 eV

  energy without entropy =     -489.21488595  energy(sigma->0) =     -489.21488595


--------------------------------------------------------------------------------------------------------




--------------------------------------- Iteration      1(  12)  ---------------------------------------


    POTLOK:  cpu time    1.0408: real time    1.0419
    SETDIJ:  cpu time    2.3022: real time    2.3033
     EDDAV:  cpu time  394.3854: real time  398.4462
       DOS:  cpu time    0.0027: real time    0.0027
    CHARGE:  cpu time    9.1431: real time    9.1688
    MIXING:  cpu time    0.0386: real time    0.0387
    --------------------------------------------
      LOOP:  cpu time  406.9128: real time  411.0016

 eigenvalue-minimisations  : 41840
 total energy-change (2. order) :-0.1333067E-04  (-0.1156520E-04)
 number of electron     736.0000016 magnetization     128.0000001
 augmentation part      277.8944136 magnetization      84.1583030

 Broyden mixing:
  rms(total) = 0.57435E-02    rms(broyden)= 0.57420E-02
  rms(prec ) = 0.58028E-02
  weight for this iteration     100.00

 eigenvalues of (default mixing * dielectric matrix)
  average eigenvalue GAMMA=   0.9784
  1.4985  1.4985  1.0809  1.0809  0.5950  0.5950  0.4997

 Free energy of the ion-electron system (eV)
  ---------------------------------------------------
  alpha Z        PSCENC =      2314.49656628
  Ewald energy   TEWEN  =    -57722.87063147
  -Hartree energ DENC   =    -30349.02154967
  -exchange      EXHF   =         0.00000000
  -V(xc)+E(xc)   XCENC  =      3229.30426933
  PAW double counting   =     92669.39730909   -95524.86473207
  entropy T*S    EENTRO =        -0.00000000
  eigenvalues    EBANDS =    -10549.13584032
  atomic energy  EATOM  =     95443.47970955
  Solvation  Ediel_sol  =         0.00000000
  ---------------------------------------------------
  free energy    TOTEN  =      -489.21489928 eV

  energy without entropy =     -489.21489928  energy(sigma->0) =     -489.21489928


--------------------------------------------------------------------------------------------------------




--------------------------------------- Iteration      1(  13)  ---------------------------------------


    POTLOK:  cpu time    1.0422: real time    1.0431
    SETDIJ:  cpu time    2.2931: real time    2.2943
     EDDAV:  cpu time  270.7558: real time  273.4195
       DOS:  cpu time    0.0027: real time    0.0030
    CHARGE:  cpu time    9.0962: real time    9.1126
    MIXING:  cpu time    0.0500: real time    0.0501
    --------------------------------------------
      LOOP:  cpu time  283.2401: real time  285.9226

 eigenvalue-minimisations  : 25848
 total energy-change (2. order) :-0.2518427E-05  (-0.2925087E-06)
 number of electron     736.0000016 magnetization     128.0000004
 augmentation part      277.8945676 magnetization      84.1582080

 Broyden mixing:
  rms(total) = 0.41890E-02    rms(broyden)= 0.41875E-02
  rms(prec ) = 0.42139E-02
  weight for this iteration     100.00

 eigenvalues of (default mixing * dielectric matrix)
  average eigenvalue GAMMA=   1.2000
  2.5233  2.5233  1.0501  1.0501  0.6974  0.6974  0.5290  0.5290

 Free energy of the ion-electron system (eV)
  ---------------------------------------------------
  alpha Z        PSCENC =      2314.49656628
  Ewald energy   TEWEN  =    -57722.87063147
  -Hartree energ DENC   =    -30348.99732460
  -exchange      EXHF   =         0.00000000
  -V(xc)+E(xc)   XCENC  =      3229.29905677
  PAW double counting   =     92671.76557425   -95527.21797038
  entropy T*S    EENTRO =        -0.00000000
  eigenvalues    EBANDS =    -10549.16988218
  atomic energy  EATOM  =     95443.47970955
  Solvation  Ediel_sol  =         0.00000000
  ---------------------------------------------------
  free energy    TOTEN  =      -489.21490180 eV

  energy without entropy =     -489.21490180  energy(sigma->0) =     -489.21490180


--------------------------------------------------------------------------------------------------------




--------------------------------------- Iteration      1(  14)  ---------------------------------------


    POTLOK:  cpu time    1.0407: real time    1.0422
    SETDIJ:  cpu time    2.2776: real time    2.2983
     EDDAV:  cpu time  321.7684: real time  325.1806
       DOS:  cpu time    0.0026: real time    0.0026
    CHARGE:  cpu time    9.0800: real time    9.2137
    MIXING:  cpu time    0.0322: real time    0.5130
    --------------------------------------------
      LOOP:  cpu time  334.2016: real time  338.2505

 eigenvalue-minimisations  : 32600
 total energy-change (2. order) :-0.9996918E-05  (-0.8854805E-06)
 number of electron     736.0000016 magnetization     128.0000005
 augmentation part      277.8932270 magnetization      84.1580432

 Broyden mixing:
  rms(total) = 0.13659E-02    rms(broyden)= 0.13613E-02
  rms(prec ) = 0.14097E-02
  weight for this iteration     100.00

 eigenvalues of (default mixing * dielectric matrix)
  average eigenvalue GAMMA=   1.1262
  2.7822  1.5585  1.5585  0.9465  0.8030  0.8030  0.5458  0.5691  0.5691

 Free energy of the ion-electron system (eV)
  ---------------------------------------------------
  alpha Z        PSCENC =      2314.49656628
  Ewald energy   TEWEN  =    -57722.87063147
  -Hartree energ DENC   =    -30349.02723624
  -exchange      EXHF   =         0.00000000
  -V(xc)+E(xc)   XCENC  =      3229.29587472
  PAW double counting   =     92678.14985442   -95533.61154572
  entropy T*S    EENTRO =        -0.00000000
  eigenvalues    EBANDS =    -10549.12750332
  atomic energy  EATOM  =     95443.47970955
  Solvation  Ediel_sol  =         0.00000000
  ---------------------------------------------------
  free energy    TOTEN  =      -489.21491179 eV

  energy without entropy =     -489.21491179  energy(sigma->0) =     -489.21491179


--------------------------------------------------------------------------------------------------------




--------------------------------------- Iteration      1(  15)  ---------------------------------------


    POTLOK:  cpu time    1.0280: real time    1.0766
    SETDIJ:  cpu time    2.2706: real time    2.3005
     EDDAV:  cpu time  292.9819: real time  296.1733
       DOS:  cpu time    0.0026: real time    0.0026
    CHARGE:  cpu time    9.0385: real time    9.0951
    MIXING:  cpu time    0.0432: real time    0.0432
    --------------------------------------------
      LOOP:  cpu time  305.3647: real time  308.6914

 eigenvalue-minimisations  : 28744
 total energy-change (2. order) : 0.2598623E-05  (-0.3450767E-06)
 number of electron     736.0000016 magnetization     128.0000004
 augmentation part      277.8928129 magnetization      84.1580960

 Broyden mixing:
  rms(total) = 0.61368E-03    rms(broyden)= 0.60358E-03
  rms(prec ) = 0.62744E-03
  weight for this iteration     100.00

 eigenvalues of (default mixing * dielectric matrix)
  average eigenvalue GAMMA=   1.0946
  2.6659  1.5487  1.5487  1.1764  0.8553  0.8553  0.6138  0.6138  0.5342  0.5342

 Free energy of the ion-electron system (eV)
  ---------------------------------------------------
  alpha Z        PSCENC =      2314.49656628
  Ewald energy   TEWEN  =    -57722.87063147
  -Hartree energ DENC   =    -30349.05008664
  -exchange      EXHF   =         0.00000000
  -V(xc)+E(xc)   XCENC  =      3229.30057137
  PAW double counting   =     92679.46496624   -95534.95162991
  entropy T*S    EENTRO =        -0.00000000
  eigenvalues    EBANDS =    -10549.08437461
  atomic energy  EATOM  =     95443.47970955
  Solvation  Ediel_sol  =         0.00000000
  ---------------------------------------------------
  free energy    TOTEN  =      -489.21490919 eV

  energy without entropy =     -489.21490919  energy(sigma->0) =     -489.21490919


--------------------------------------------------------------------------------------------------------




--------------------------------------- Iteration      1(  16)  ---------------------------------------


    POTLOK:  cpu time    1.0394: real time    1.0439
    SETDIJ:  cpu time    2.3074: real time    2.3140
     EDDAV:  cpu time  219.5870: real time  221.8625
       DOS:  cpu time    0.0024: real time    0.0024
    --------------------------------------------
      LOOP:  cpu time  222.9362: real time  225.2228

 eigenvalue-minimisations  : 19008
 total energy-change (2. order) :-0.7199269E-06  (-0.1046625E-06)
 number of electron     736.0000016 magnetization     128.0000004
 augmentation part      277.8928129 magnetization      84.1580960

 Free energy of the ion-electron system (eV)
  ---------------------------------------------------
  alpha Z        PSCENC =      2314.49656628
  Ewald energy   TEWEN  =    -57722.87063147
  -Hartree energ DENC   =    -30349.04175616
  -exchange      EXHF   =         0.00000000
  -V(xc)+E(xc)   XCENC  =      3229.30021237
  PAW double counting   =     92679.59568439   -95535.08368412
  entropy T*S    EENTRO =        -0.00000000
  eigenvalues    EBANDS =    -10549.09101074
  atomic energy  EATOM  =     95443.47970955
  Solvation  Ediel_sol  =         0.00000000
  ---------------------------------------------------
  free energy    TOTEN  =      -489.21490991 eV

  energy without entropy =     -489.21490991  energy(sigma->0) =     -489.21490991


--------------------------------------------------------------------------------------------------------




 average (electrostatic) potential at core
  the test charge radii are     0.7079  0.7215  0.9698  0.9500
  (the norm of the test charge is              1.0000)
       1 -58.9489       2 -58.9489       3 -58.9475       4 -58.9500       5 -58.9485
       6 -58.9467       7 -58.9474       8 -58.9475       9 -58.9475      10 -58.9486
      11 -58.9458      12 -58.9600      13 -58.9369      14 -58.9504      15 -58.9477
      16 -58.9489      17 -69.8169      18 -69.8163      19 -69.8163      20 -69.8163
      21 -69.8152      22 -69.8194      23 -69.8134      24 -69.8174      25 -69.8160
      26 -69.8165      27 -69.8161      28 -69.8165      29 -69.8160      30 -69.8170
      31 -69.8156      32 -69.8166      33 -85.5795      34 -85.5804      35 -85.5791
      36 -85.5801      37 -85.5794      38 -85.5802      39 -85.5797      40 -85.5800
      41 -85.5806      42 -85.5800      43 -85.5791      44 -85.5797      45 -85.5749
      46 -85.5845      47 -85.5794      48 -85.5801      49 -85.6401      50 -85.6391
      51 -85.6376      52 -85.6388      53 -85.6343      54 -85.6434      55 -85.6386
      56 -85.6391      57 -78.5733      58 -78.5745      59 -78.5741      60 -78.5741
      61 -78.5733      62 -78.5755      63 -78.5728      64 -78.5746      65 -78.5725
      66 -78.5754      67 -78.5738      68 -78.5744      69 -78.5741      70 -78.5746
      71 -78.5738      72 -78.5740      73 -78.5823      74 -78.5820      75 -78.5826
      76 -78.5808      77 -78.5908      78 -78.5929      79 -78.5910      80 -78.5917
      81 -78.5916      82 -78.5923      83 -78.5794      84 -78.5928      85 -78.5807
      86 -78.5945      87 -78.5812      88 -78.5819
 
 
 
 E-fermi :   5.2029     XC(G=0): -10.4849     alpha+bet :-11.8156


 spin component 1

 k-point     1 :       0.0000    0.0000    0.0000
  band No.  band energies     occupation 
      1     -51.0581      1.00000
      2     -51.0554      1.00000
      3     -51.0550      1.00000
      4     -51.0546      1.00000
      5     -51.0540      1.00000
      6     -51.0538      1.00000
      7     -51.0537      1.00000
      8     -51.0534      1.00000
      9     -51.0531      1.00000
     10     -51.0527      1.00000
     11     -51.0524      1.00000
     12     -51.0521      1.00000
     13     -51.0519      1.00000
     14     -51.0510      1.00000
     15     -51.0508      1.00000
     16     -51.0500      1.00000
     17     -51.0488      1.00000
     18     -51.0453      1.00000
     19     -51.0450      1.00000
     20     -51.0448      1.00000
     21     -51.0442      1.00000
     22     -51.0439      1.00000
     23     -51.0436      1.00000
     24     -51.0433      1.00000
     25     -51.0397      1.00000
     26     -51.0397      1.00000
     27     -51.0394      1.00000
     28     -51.0394      1.00000
     29     -51.0386      1.00000
     30     -51.0384      1.00000
     31     -51.0383      1.00000
     32     -51.0316      1.00000
     33     -49.7067      1.00000
     34     -49.7029      1.00000
     35     -49.7028      1.00000
     36     -49.7023      1.00000
     37     -49.7017      1.00000
     38     -49.7017      1.00000
     39     -49.7011      1.00000
     40     -49.7008      1.00000
     41     -49.6946      1.00000
     42     -49.6943      1.00000
     43     -49.6941      1.00000
     44     -49.6939      1.00000
     45     -49.6933      1.00000
     46     -49.6929      1.00000
     47     -49.6928      1.00000
     48     -49.6893      1.00000
     49     -49.5988      1.00000
     50     -49.5981      1.00000
     51     -49.5979      1.00000
     52     -49.5975      1.00000
     53     -49.5973      1.00000
     54     -49.5970      1.00000
     55     -49.5969      1.00000
     56     -49.5967      1.00000
     57     -49.5964      1.00000
     58     -49.5963      1.00000
     59     -49.5961      1.00000
     60     -49.5960      1.00000
     61     -49.5957      1.00000
     62     -49.5956      1.00000
     63     -49.5952      1.00000
     64     -49.5948      1.00000
     65     -49.5677      1.00000
     66     -49.5668      1.00000
     67     -49.5666      1.00000
     68     -49.5663      1.00000
     69     -49.5660      1.00000
     70     -49.5657      1.00000
     71     -49.5655      1.00000
     72     -49.5651      1.00000
     73     -49.5648      1.00000
     74     -49.5645      1.00000
     75     -49.5645      1.00000
     76     -49.5644      1.00000
     77     -49.5640      1.00000
     78     -49.5634      1.00000
     79     -49.5633      1.00000
     80     -49.5630      1.00000
     81     -49.5556      1.00000
     82     -49.5555      1.00000
     83     -49.5549      1.00000
     84     -49.5543      1.00000
     85     -49.5543      1.00000
     86     -49.5536      1.00000
     87     -49.5533      1.00000
     88     -49.5510      1.00000
     89     -49.5429      1.00000
     90     -49.5401      1.00000
     91     -49.5398      1.00000
     92     -49.5395      1.00000
     93     -49.5393      1.00000
     94     -49.5388      1.00000
     95     -49.5382      1.00000
     96     -49.5381      1.00000
     97     -39.8768      1.00000
     98     -39.8667      1.00000
     99     -39.8662      1.00000
    100     -39.8656      1.00000
    101     -39.8655      1.00000
    102     -39.8652      1.00000
    103     -39.8651      1.00000
    104     -39.8650      1.00000
    105     -39.8643      1.00000
    106     -39.8643      1.00000
    107     -39.8642      1.00000
    108     -39.8639      1.00000
    109     -39.8636      1.00000
    110     -39.8634      1.00000
    111     -39.8626      1.00000
    112     -39.8531      1.00000
    113     -13.2250      1.00000
    114     -13.2248      1.00000
    115     -13.2105      1.00000
    116     -13.1836      1.00000
    117     -13.1014      1.00000
    118     -13.0992      1.00000
    119     -13.0987      1.00000
    120     -13.0930      1.00000
    121     -13.0863      1.00000
    122     -13.0805      1.00000
    123     -13.0799      1.00000
    124     -13.0776      1.00000
    125     -12.9882      1.00000
    126     -12.9775      1.00000
    127     -12.9420      1.00000
    128     -12.9418      1.00000
    129      -7.6453      1.00000
    130      -7.4069      1.00000
    131      -7.3265      1.00000
    132      -7.3262      1.00000
    133      -7.3096      1.00000
    134      -7.3091      1.00000
    135      -7.3086      1.00000
    136      -7.3072      1.00000
    137      -7.1696      1.00000
    138      -7.1573      1.00000
    139      -7.1239      1.00000
    140      -7.1238      1.00000
    141      -7.0367      1.00000
    142      -7.0219      1.00000
    143      -7.0021      1.00000
    144      -7.0020      1.00000
    145      -6.9409      1.00000
    146      -6.9409      1.00000
    147      -6.8872      1.00000
    148      -6.8872      1.00000
    149      -6.8656      1.00000
    150      -6.8616      1.00000
    151      -6.8345      1.00000
    152      -6.8038      1.00000
    153      -1.9358      1.00000
    154      -1.9353      1.00000
    155      -1.9105      1.00000
    156      -1.8936      1.00000
    157      -1.6669      1.00000
    158      -1.6661      1.00000
    159      -1.6586      1.00000
    160      -1.6575      1.00000
    161      -1.5997      1.00000
    162      -1.5982      1.00000
    163      -1.5866      1.00000
    164      -1.5859      1.00000
    165      -1.2983      1.00000
    166      -1.1746      1.00000
    167      -1.1743      1.00000
    168      -1.1138      1.00000
    169      -1.1134      1.00000
    170      -1.1072      1.00000
    171      -1.0494      1.00000
    172      -0.9811      1.00000
    173      -0.9647      1.00000
    174      -0.9596      1.00000
    175      -0.9578      1.00000
    176      -0.9575      1.00000
    177      -0.9471      1.00000
    178      -0.9449      1.00000
    179      -0.9228      1.00000
    180      -0.8713      1.00000
    181      -0.8712      1.00000
    182      -0.8037      1.00000
    183      -0.8026      1.00000
    184      -0.8025      1.00000
    185      -0.7753      1.00000
    186      -0.7744      1.00000
    187      -0.7737      1.00000
    188      -0.7607      1.00000
    189      -0.7167      1.00000
    190      -0.7165      1.00000
    191      -0.7065      1.00000
    192      -0.7050      1.00000
    193      -0.6992      1.00000
    194      -0.6990      1.00000
    195      -0.6086      1.00000
    196      -0.6084      1.00000
    197      -0.5615      1.00000
    198      -0.5614      1.00000
    199      -0.5498      1.00000
    200      -0.5480      1.00000
    201      -0.4081      1.00000
    202      -0.4079      1.00000
    203      -0.3572      1.00000
    204      -0.3488      1.00000
    205      -0.3297      1.00000
    206      -0.3294      1.00000
    207      -0.2988      1.00000
    208      -0.2984      1.00000
    209      -0.2812      1.00000
    210      -0.2693      1.00000
    211      -0.2628      1.00000
    212      -0.2555      1.00000
    213      -0.2549      1.00000
    214      -0.2088      1.00000
    215      -0.2085      1.00000
    216      -0.1888      1.00000
    217      -0.1868      1.00000
    218      -0.1865      1.00000
    219      -0.1758      1.00000
    220      -0.1582      1.00000
    221      -0.1258      1.00000
    222      -0.1254      1.00000
    223      -0.1091      1.00000
    224      -0.0708      1.00000
    225      -0.0703      1.00000
    226      -0.0605      1.00000
    227      -0.0433      1.00000
    228      -0.0176      1.00000
    229      -0.0174      1.00000
    230      -0.0114      1.00000
    231       0.0017      1.00000
    232       0.0019      1.00000
    233       0.0463      1.00000
    234       0.0492      1.00000
    235       0.0501      1.00000
    236       0.0907      1.00000
    237       0.0930      1.00000
    238       0.1182      1.00000
    239       0.1187      1.00000
    240       0.1575      1.00000
    241       0.1627      1.00000
    242       0.1766      1.00000
    243       0.1791      1.00000
    244       0.1818      1.00000
    245       0.1818      1.00000
    246       0.1856      1.00000
    247       0.1892      1.00000
    248       0.1934      1.00000
    249       0.1948      1.00000
    250       0.2008      1.00000
    251       0.2010      1.00000
    252       0.2388      1.00000
    253       0.2513      1.00000
    254       0.2569      1.00000
    255       0.2571      1.00000
    256       0.2770      1.00000
    257       0.3375      1.00000
    258       0.3474      1.00000
    259       0.3584      1.00000
    260       0.3590      1.00000
    261       0.3606      1.00000
    262       0.3610      1.00000
    263       0.3885      1.00000
    264       0.4013      1.00000
    265       0.4525      1.00000
    266       0.4529      1.00000
    267       0.5783      1.00000
    268       0.5795      1.00000
    269       0.5850      1.00000
    270       0.6020      1.00000
    271       0.6021      1.00000
    272       0.6056      1.00000
    273       0.6080      1.00000
    274       0.6407      1.00000
    275       0.6507      1.00000
    276       0.6521      1.00000
    277       0.6619      1.00000
    278       0.6626      1.00000
    279       0.6657      1.00000
    280       0.6731      1.00000
    281       0.6747      1.00000
    282       0.6749      1.00000
    283       0.6964      1.00000
    284       0.7227      1.00000
    285       0.7834      1.00000
    286       0.8194      1.00000
    287       0.8297      1.00000
    288       0.8321      1.00000
    289       0.8322      1.00000
    290       0.8613      1.00000
    291       0.8614      1.00000
    292       0.9094      1.00000
    293       0.9408      1.00000
    294       0.9481      1.00000
    295       0.9484      1.00000
    296       0.9832      1.00000
    297       1.0256      1.00000
    298       1.0705      1.00000
    299       1.2694      1.00000
    300       1.2978      1.00000
    301       1.2987      1.00000
    302       1.3119      1.00000
    303       1.3330      1.00000
    304       1.3333      1.00000
    305       1.3382      1.00000
    306       1.3844      1.00000
    307       1.4051      1.00000
    308       1.4287      1.00000
    309       1.4670      1.00000
    310       1.4674      1.00000
    311       1.4685      1.00000
    312       1.4815      1.00000
    313       1.5110      1.00000
    314       1.5114      1.00000
    315       1.5413      1.00000
    316       1.5605      1.00000
    317       1.5769      1.00000
    318       1.6464      1.00000
    319       1.6551      1.00000
    320       1.7561      1.00000
    321       1.7564      1.00000
    322       1.7629      1.00000
    323       1.7786      1.00000
    324       1.8030      1.00000
    325       1.8031      1.00000
    326       1.8107      1.00000
    327       1.8232      1.00000
    328       1.8361      1.00000
    329       1.8367      1.00000
    330       1.8461      1.00000
    331       1.8470      1.00000
    332       1.8784      1.00000
    333       1.8899      1.00000
    334       1.9472      1.00000
    335       1.9934      1.00000
    336       1.9942      1.00000
    337       2.0059      1.00000
    338       2.0068      1.00000
    339       2.0100      1.00000
    340       2.0184      1.00000
    341       2.0202      1.00000
    342       2.0203      1.00000
    343       2.0396      1.00000
    344       2.0468      1.00000
    345       2.0469      1.00000
    346       2.0573      1.00000
    347       2.0687      1.00000
    348       2.0689      1.00000
    349       2.0914      1.00000
    350       2.1129      1.00000
    351       2.1907      1.00000
    352       2.1908      1.00000
    353       2.2462      1.00000
    354       2.2481      1.00000
    355       2.2712      1.00000
    356       2.2725      1.00000
    357       2.2847      1.00000
    358       2.4278      1.00000
    359       2.4656      1.00000
    360       2.4667      1.00000
    361       2.4775      1.00000
    362       2.5036      1.00000
    363       2.5277      1.00000
    364       2.5542      1.00000
    365       2.5922      1.00000
    366       2.6266      1.00000
    367       2.6268      1.00000
    368       2.6562      1.00000
    369       2.7385      1.00000
    370       2.7388      1.00000
    371       2.7610      1.00000
    372       2.7610      1.00000
    373       2.8339      1.00000
    374       2.8726      1.00000
    375       2.9262      1.00000
    376       2.9342      1.00000
    377       2.9348      1.00000
    378       2.9691      1.00000
    379       3.0268      1.00000
    380       3.0278      1.00000
    381       3.0616      1.00000
    382       3.0971      1.00000
    383       3.3080      1.00000
    384       3.3100      1.00000
    385       3.3482      1.00000
    386       3.3757      1.00000
    387       3.4213      1.00000
    388       3.4218      1.00000
    389       3.4405      1.00000
    390       3.4584      1.00000
    391       3.4588      1.00000
    392       3.5316      1.00000
    393       3.7479      1.00000
    394       3.8079      1.00000
    395       3.8091      1.00000
    396       3.8150      1.00000
    397       3.8155      1.00000
    398       3.8820      1.00000
    399       3.8830      1.00000
    400       3.9318      1.00000
    401       3.9358      1.00000
    402       3.9403      1.00000
    403       3.9406      1.00000
    404       4.0388      1.00000
    405       4.0398      1.00000
    406       4.0706      1.00000
    407       4.1382      1.00000
    408       4.1491      1.00000
    409       4.1512      1.00000
    410       4.3141      1.00000
    411       4.3187      1.00000
    412       4.3379      1.00000
    413       4.3578      1.00000
    414       4.3591      1.00000
    415       4.4291      1.00000
    416       4.4444      1.00000
    417       4.4461      1.00000
    418       4.4537      1.00000
    419       4.4565      1.00000
    420       4.4567      1.00000
    421       4.6361      1.00000
    422       4.6364      1.00000
    423       4.7323      1.00000
    424       4.7330      1.00000
    425       4.7639      1.00000
    426       4.7642      1.00000
    427       4.7696      1.00000
    428       4.7696      1.00000
    429       4.8108      1.00000
    430       4.8533      1.00000
    431       4.8534      1.00000
    432       4.8573      1.00000
    433       7.3436      0.00000
    434       8.1284      0.00000
    435       8.4449      0.00000
    436       8.6417      0.00000
    437       8.6436      0.00000
    438       8.8581      0.00000
    439       9.0838      0.00000
    440       9.0853      0.00000
    441       9.2606      0.00000
    442       9.2741      0.00000
    443       9.2885      0.00000
    444       9.2896      0.00000
    445       9.7260      0.00000
    446       9.7716      0.00000
    447       9.7726      0.00000
    448       9.7916      0.00000
    449       9.8538      0.00000
    450       9.8557      0.00000
    451       9.8591      0.00000
    452       9.8789      0.00000
    453       9.8893      0.00000
    454      10.0603      0.00000
    455      10.0828      0.00000
    456      10.1361      0.00000
    457      10.1364      0.00000
    458      10.3046      0.00000
    459      10.3067      0.00000
    460      10.4167      0.00000
    461      10.5260      0.00000
    462      10.5700      0.00000
    463      10.5717      0.00000
    464      10.5719      0.00000
    465      10.5784      0.00000
    466      10.5785      0.00000
    467      10.6755      0.00000
    468      10.9762      0.00000
    469      11.0191      0.00000
    470      11.0192      0.00000
    471      11.0399      0.00000
    472      11.0413      0.00000
    473      11.0759      0.00000
    474      11.1282      0.00000
    475      11.1783      0.00000
[...]
   0.176E-01 0.270E-01 -.259E+02   -.160E-01 -.245E-01 0.257E+02   -.107E-02 -.173E-02 0.251E+00   -.158E-04 0.697E-04 -.173E-04
   -.742E-01 0.254E-01 -.259E+02   0.705E-01 -.246E-01 0.257E+02   0.196E-02 -.447E-03 0.251E+00   0.412E-04 -.598E-05 0.512E-05
   -.188E+00 -.521E+00 -.259E+02   0.175E+00 0.492E+00 0.256E+02   0.230E-01 0.328E-01 0.248E+00   -.538E-04 -.113E-03 0.264E-04
   -.154E+00 -.482E+00 -.422E+02   0.143E+00 0.456E+00 0.422E+02   0.204E-01 0.295E-01 0.218E-01   -.354E-04 -.995E-04 -.685E-04
   -.654E-01 0.354E-01 -.421E+02   0.620E-01 -.340E-01 0.420E+02   0.162E-02 -.110E-02 0.109E-01   0.259E-04 -.350E-05 -.895E-05
   0.241E-01 0.370E-01 -.421E+02   -.226E-01 -.340E-01 0.420E+02   -.119E-02 -.233E-02 0.111E-01   -.129E-04 0.624E-04 0.104E-04
   -.122E-01 0.300E-02 -.421E+02   0.116E-01 -.215E-02 0.420E+02   0.262E-03 -.879E-03 0.106E-01   -.107E-04 -.238E-04 0.118E-05
   0.180E+02 0.121E+02 -.126E+03   -.185E+02 -.124E+02 0.131E+03   0.356E+00 0.251E+00 -.463E+01   0.107E-02 0.899E-04 0.121E-03
   0.157E+02 0.149E+02 -.126E+03   -.161E+02 -.153E+02 0.131E+03   0.396E+00 0.380E+00 -.463E+01   0.368E-05 0.318E-04 0.742E-04
   0.159E+02 0.149E+02 -.126E+03   -.163E+02 -.153E+02 0.131E+03   0.386E+00 0.378E+00 -.463E+01   -.263E-04 0.108E-04 0.517E-04
   0.159E+02 0.149E+02 -.126E+03   -.162E+02 -.153E+02 0.131E+03   0.388E+00 0.379E+00 -.463E+01   -.251E-04 0.216E-04 0.505E-04
   -.160E+02 -.150E+02 -.126E+03   0.164E+02 0.154E+02 0.131E+03   -.387E+00 -.372E+00 -.463E+01   -.352E-04 -.573E-04 0.478E-04
   -.160E+02 -.148E+02 -.126E+03   0.164E+02 0.151E+02 0.131E+03   -.382E+00 -.390E+00 -.463E+01   -.152E-03 -.163E-03 -.118E-03
   -.160E+02 -.148E+02 -.126E+03   0.164E+02 0.151E+02 0.131E+03   -.383E+00 -.391E+00 -.463E+01   -.110E-03 -.169E-03 0.226E-03
   -.160E+02 -.150E+02 -.126E+03   0.164E+02 0.154E+02 0.131E+03   -.387E+00 -.372E+00 -.463E+01   -.279E-04 -.100E-03 0.633E-04
   0.160E+02 -.149E+02 0.126E+03   -.164E+02 0.153E+02 -.131E+03   0.385E+00 -.378E+00 0.463E+01   -.125E-03 -.696E-06 -.325E-04
   0.159E+02 -.149E+02 0.126E+03   -.163E+02 0.153E+02 -.131E+03   0.398E+00 -.378E+00 0.463E+01   -.110E-03 0.331E-04 -.417E-04
   0.159E+02 -.149E+02 0.126E+03   -.163E+02 0.153E+02 -.131E+03   0.389E+00 -.382E+00 0.463E+01   -.389E-04 -.427E-04 -.569E-04
   0.159E+02 -.149E+02 0.126E+03   -.163E+02 0.153E+02 -.131E+03   0.390E+00 -.380E+00 0.463E+01   -.481E-04 -.711E-05 -.489E-04
   -.159E+02 0.149E+02 0.126E+03   0.163E+02 -.153E+02 -.131E+03   -.387E+00 0.383E+00 0.463E+01   0.934E-04 0.241E-04 -.426E-04
   -.159E+02 0.149E+02 0.126E+03   0.163E+02 -.153E+02 -.131E+03   -.387E+00 0.378E+00 0.463E+01   0.366E-04 0.171E-04 -.118E-04
   -.159E+02 0.149E+02 0.126E+03   0.163E+02 -.153E+02 -.131E+03   -.386E+00 0.378E+00 0.463E+01   0.105E-03 0.498E-05 -.685E-04
   -.159E+02 0.149E+02 0.126E+03   0.163E+02 -.153E+02 -.131E+03   -.388E+00 0.382E+00 0.463E+01   0.386E-04 0.490E-04 -.314E-04
   0.280E+02 0.282E+02 0.334E+02   -.284E+02 -.285E+02 -.339E+02   0.350E+00 0.354E+00 0.518E+00   -.196E-04 0.721E-05 -.171E-04
   0.280E+02 0.282E+02 0.333E+02   -.283E+02 -.286E+02 -.338E+02   0.351E+00 0.352E+00 0.520E+00   -.201E-04 -.880E-05 -.206E-04
   0.280E+02 0.282E+02 0.334E+02   -.284E+02 -.286E+02 -.339E+02   0.350E+00 0.352E+00 0.518E+00   -.290E-04 0.286E-05 -.414E-04
   0.280E+02 0.282E+02 0.333E+02   -.283E+02 -.285E+02 -.338E+02   0.351E+00 0.354E+00 0.519E+00   -.254E-04 0.108E-04 -.341E-04
   -.280E+02 -.282E+02 0.333E+02   0.283E+02 0.286E+02 -.338E+02   -.345E+00 -.353E+00 0.520E+00   0.267E-04 -.198E-04 -.371E-04
   -.279E+02 -.282E+02 0.333E+02   0.282E+02 0.286E+02 -.339E+02   -.351E+00 -.353E+00 0.517E+00   -.142E-03 -.104E-04 0.647E-05
   -.279E+02 -.282E+02 0.333E+02   0.283E+02 0.286E+02 -.338E+02   -.349E+00 -.354E+00 0.519E+00   0.425E-04 -.910E-05 -.292E-04
   -.279E+02 -.282E+02 0.333E+02   0.283E+02 0.286E+02 -.338E+02   -.350E+00 -.355E+00 0.518E+00   0.205E-04 -.221E-05 -.239E-04
   0.281E+02 -.282E+02 -.333E+02   -.284E+02 0.286E+02 0.338E+02   0.343E+00 -.355E+00 -.517E+00   0.275E-04 0.236E-05 -.994E-06
   0.279E+02 -.282E+02 -.333E+02   -.282E+02 0.286E+02 0.338E+02   0.352E+00 -.354E+00 -.518E+00   -.334E-04 -.933E-05 0.296E-04
   0.281E+02 -.282E+02 -.333E+02   -.284E+02 0.286E+02 0.338E+02   0.344E+00 -.355E+00 -.521E+00   0.318E-04 -.418E-04 0.788E-05
   0.279E+02 -.282E+02 -.333E+02   -.282E+02 0.286E+02 0.338E+02   0.352E+00 -.354E+00 -.519E+00   -.387E-04 -.199E-04 0.896E-05
   -.282E+02 0.282E+02 -.331E+02   0.285E+02 -.285E+02 0.337E+02   -.329E+00 0.355E+00 -.534E+00   -.334E-04 0.469E-04 0.182E-03
   -.282E+02 0.282E+02 -.335E+02   0.285E+02 -.285E+02 0.340E+02   -.329E+00 0.354E+00 -.503E+00   -.599E-04 0.406E-04 -.107E-03
   -.280E+02 0.282E+02 -.333E+02   0.284E+02 -.285E+02 0.339E+02   -.351E+00 0.352E+00 -.519E+00   0.342E-04 0.492E-05 0.313E-04
   -.280E+02 0.282E+02 -.334E+02   0.284E+02 -.285E+02 0.339E+02   -.350E+00 0.352E+00 -.518E+00   0.338E-04 -.173E-06 0.129E-04
   0.100E+02 0.493E-01 -.264E-02   -.101E+02 -.488E-01 0.422E-02   0.110E+00 -.167E-02 -.318E-02   0.138E-03 -.390E-04 0.239E-04
   0.985E+01 0.471E-01 -.127E-01   -.996E+01 -.477E-01 0.123E-01   0.117E+00 0.517E-03 0.478E-03   -.151E-04 0.481E-05 -.965E-06
   0.100E+02 0.464E-01 -.499E-02   -.101E+02 -.462E-01 0.426E-02   0.110E+00 -.115E-02 0.206E-02   0.113E-03 -.582E-04 0.489E-05
   0.985E+01 0.468E-01 -.121E-01   -.996E+01 -.473E-01 0.123E-01   0.117E+00 0.557E-03 -.890E-04   -.210E-04 -.234E-05 0.245E-04
   -.101E+02 0.455E-01 -.176E+00   0.102E+02 -.484E-01 0.170E+00   -.101E+00 0.384E-02 0.120E-01   -.339E-04 -.167E-04 -.504E-04
   -.100E+02 0.441E-01 0.191E+00   0.102E+02 -.466E-01 -.186E+00   -.101E+00 0.345E-02 -.124E-01   -.345E-04 -.238E-04 0.871E-04
   -.990E+01 0.475E-01 -.220E-02   0.100E+02 -.473E-01 0.198E-02   -.115E+00 -.585E-03 0.369E-03   -.414E-05 0.960E-05 -.340E-06
   -.990E+01 0.478E-01 0.196E-01   0.100E+02 -.477E-01 -.196E-01   -.115E+00 -.526E-03 -.360E-03   -.624E-05 0.125E-04 0.143E-04
   0.205E+02 0.189E+02 0.185E+03   -.194E+02 -.178E+02 -.183E+03   -.111E+01 -.108E+01 -.242E+01   0.532E-04 -.143E-04 -.936E-04
   0.188E+02 0.189E+02 0.185E+03   -.177E+02 -.179E+02 -.183E+03   -.104E+01 -.108E+01 -.241E+01   -.520E-04 0.410E-04 -.647E-04
   0.191E+02 0.189E+02 0.185E+03   -.180E+02 -.179E+02 -.183E+03   -.106E+01 -.109E+01 -.241E+01   -.576E-04 0.267E-04 -.856E-04
   0.190E+02 0.189E+02 0.185E+03   -.179E+02 -.179E+02 -.183E+03   -.106E+01 -.108E+01 -.241E+01   0.682E-05 -.786E-05 -.439E-04
   -.190E+02 -.191E+02 0.185E+03   0.179E+02 0.180E+02 -.183E+03   0.106E+01 0.109E+01 -.241E+01   0.168E-04 0.167E-04 0.908E-04
   -.190E+02 -.187E+02 0.185E+03   0.179E+02 0.176E+02 -.183E+03   0.107E+01 0.108E+01 -.240E+01   0.277E-04 0.288E-04 -.883E-04
   -.189E+02 -.187E+02 0.185E+03   0.179E+02 0.176E+02 -.183E+03   0.106E+01 0.108E+01 -.241E+01   0.988E-05 -.483E-04 -.681E-04
   -.190E+02 -.190E+02 0.185E+03   0.179E+02 0.179E+02 -.183E+03   0.106E+01 0.109E+01 -.241E+01   -.123E-04 -.444E-04 -.229E-03
   0.189E+02 -.189E+02 -.185E+03   -.178E+02 0.178E+02 0.183E+03   -.107E+01 0.108E+01 0.239E+01   0.859E-04 0.239E-04 -.947E-04
   0.189E+02 -.189E+02 -.185E+03   -.178E+02 0.178E+02 0.183E+03   -.107E+01 0.109E+01 0.242E+01   0.145E-03 0.383E-04 0.160E-03
   0.189E+02 -.189E+02 -.185E+03   -.179E+02 0.178E+02 0.183E+03   -.106E+01 0.109E+01 0.241E+01   -.101E-04 0.430E-04 -.241E-04
   0.189E+02 -.189E+02 -.185E+03   -.178E+02 0.178E+02 0.183E+03   -.106E+01 0.108E+01 0.241E+01   0.802E-05 0.768E-05 0.115E-03
   -.191E+02 0.189E+02 -.185E+03   0.180E+02 -.178E+02 0.183E+03   0.106E+01 -.108E+01 0.241E+01   0.594E-04 0.418E-05 0.911E-04
   -.190E+02 0.190E+02 -.185E+03   0.179E+02 -.179E+02 0.183E+03   0.106E+01 -.108E+01 0.241E+01   -.114E-03 -.339E-04 0.151E-03
   -.191E+02 0.189E+02 -.185E+03   0.180E+02 -.179E+02 0.183E+03   0.106E+01 -.108E+01 0.241E+01   0.693E-04 0.126E-04 0.649E-06
   -.189E+02 0.189E+02 -.185E+03   0.179E+02 -.178E+02 0.183E+03   0.106E+01 -.108E+01 0.240E+01   -.587E-04 0.688E-04 0.763E-05
   0.655E-01 -.465E-01 0.209E+03   -.654E-01 0.466E-01 -.211E+03   0.515E-04 0.301E-03 0.206E+01   0.874E-04 0.101E-03 -.627E-04
   -.291E-01 -.841E-01 0.209E+03   0.259E-01 0.824E-01 -.211E+03   0.273E-02 0.181E-02 0.206E+01   0.398E-04 -.394E-04 -.684E-04
   0.126E+00 -.134E+00 0.209E+03   -.117E+00 0.124E+00 -.211E+03   -.758E-02 0.890E-02 0.206E+01   -.987E-04 0.945E-04 -.113E-04
   -.916E-01 -.409E-01 0.209E+03   0.812E-01 0.465E-01 -.211E+03   0.881E-02 -.450E-02 0.207E+01   -.934E-04 -.435E-04 -.833E-04
   0.103E+00 -.121E+00 0.199E+03   -.947E-01 0.111E+00 -.201E+03   -.661E-02 0.873E-02 0.207E+01   -.798E-04 0.170E-04 -.174E-03
   -.589E-01 -.188E-01 0.199E+03   0.511E-01 0.247E-01 -.201E+03   0.670E-02 -.485E-02 0.206E+01   -.556E-04 0.384E-04 -.960E-04
   0.498E-01 -.250E-01 0.199E+03   -.507E-01 0.255E-01 -.201E+03   0.718E-03 -.929E-05 0.206E+01   0.747E-04 0.310E-05 -.179E-03
   -.593E-02 -.705E-01 0.199E+03   0.518E-02 0.690E-01 -.201E+03   0.724E-03 0.136E-02 0.206E+01   0.466E-04 0.403E-04 -.151E-03
   0.627E-01 -.158E+00 -.199E+03   -.576E-01 0.156E+00 0.201E+03   -.423E-02 0.155E-02 -.206E+01   -.228E-04 -.906E-04 0.137E-03
   -.111E+00 0.473E-03 -.199E+03   0.103E+00 0.478E-02 0.201E+03   0.591E-02 -.376E-02 -.206E+01   0.182E-04 -.583E-04 0.133E-03
   -.706E+00 0.216E+01 -.200E+03   0.662E+00 -.207E+01 0.202E+03   0.719E-01 -.112E+00 -.202E+01   0.205E-03 -.390E-04 0.207E-04
   -.345E+00 -.162E+00 -.199E+03   0.335E+00 0.154E+00 0.201E+03   0.775E-02 0.631E-02 -.206E+01   -.154E-03 0.947E-04 0.238E-03
   -.349E+00 -.182E+00 -.209E+03   0.339E+00 0.174E+00 0.211E+03   0.766E-02 0.695E-02 -.207E+01   -.844E-04 0.946E-04 0.872E-04
   -.776E+00 0.212E+01 -.208E+03   0.727E+00 -.203E+01 0.210E+03   0.761E-01 -.113E+00 -.211E+01   0.147E-03 -.268E-04 0.300E-03
   -.108E+00 -.176E-01 -.209E+03   0.101E+00 0.220E-01 0.211E+03   0.554E-02 -.294E-02 -.206E+01   0.586E-04 -.565E-04 0.121E-03
   0.643E-01 -.174E+00 -.209E+03   -.585E-01 0.172E+00 0.211E+03   -.482E-02 0.194E-02 -.207E+01   0.333E-04 -.140E-03 0.851E-04
 -----------------------------------------------------------------------------------------------
   -.250E+00 0.281E+00 0.102E-01   0.865E-13 -.274E-13 0.171E-12   0.249E+00 -.282E+00 -.106E-01   0.886E-03 -.388E-03 0.381E-03
 
 
 POSITION                                       TOTAL-FORCE (eV/Angst)
 -----------------------------------------------------------------------------------
      2.77841      5.21785      1.58925         0.000357      0.000261      0.000307
      8.33453      5.21785      1.58910         0.000014      0.000166     -0.000098
      2.77841     10.77658      1.58925         0.000435      0.000323     -0.000945
      8.33453     10.77658      1.58910        -0.000611     -0.000836      0.000722
      0.00058      2.43861      1.89560         0.000507      0.000251      0.000873
      5.55670      2.43861      1.89545        -0.000893     -0.000785     -0.000855
      0.00058      7.99734      1.89560         0.000392      0.000262     -0.000179
      5.55670      7.99734      1.89545        -0.000293      0.000120     -0.000050
      2.78043      5.21797      8.30298        -0.000254     -0.000041     -0.000053
      8.33655      5.21797      8.30283         0.000480      0.000831     -0.000055
      2.78043     10.77670      8.30298        -0.001733      0.000305      0.000023
      8.33655     10.77670      8.30283         0.009931      0.003787     -0.000591
      0.00259      2.43849      8.60933         0.009520      0.003325      0.002343
      5.55871      2.43849      8.60919        -0.001785      0.000325     -0.000006
      0.00259      7.99722      8.60933         0.000306      0.000790     -0.000031
      5.55871      7.99722      8.60919        -0.000323     -0.000046      0.000071
     -1.36640      1.05960      8.18451        -0.107270      0.039437      0.002099
      4.17971      1.05960      8.18437         0.002998     -0.000459     -0.000021
     -1.37640      6.61833      8.18451        -0.000035     -0.000490     -0.000077
      4.17971      6.61833      8.18437         0.000788     -0.000539     -0.000032
      1.38116      3.81753      8.18442         0.000149      0.002053     -0.000415
      6.93728      3.81753      8.18427         0.003085     -0.004342      0.000731
      1.38116      9.37626      8.18442         0.002861     -0.004352     -0.000839
      6.93728      9.37626      8.18427         0.000285      0.002147      0.000142
      1.39985      1.03817      2.01416        -0.000998      0.000125     -0.000463
      6.95597      1.03817      2.01401         0.002833      0.000784      0.000451
      1.39985      6.59689      2.01416        -0.000128     -0.000679     -0.000147
      6.95597      6.59689      2.01401         0.000268     -0.000017      0.000253
      4.15741      3.83897      2.01406        -0.000117      0.000710      0.000416
      9.71353      3.83897      2.01392        -0.000456     -0.000761     -0.000426
      4.15741      9.39769      2.01406        -0.000104     -0.000659      0.000618
      9.71353      9.39769      2.01392        -0.000471      0.000577     -0.000356
      1.40044      3.83812      3.78391        -0.000381      0.000446     -0.000452
      6.95656      3.83812      3.78377         0.000143     -0.000586      0.000607
      1.40044      9.39685      3.78391        -0.000152     -0.000568     -0.000349
      6.95656      9.39685      3.78377        -0.000032      0.000361      0.000548
      4.15774      1.03891      3.78384         0.002358      0.000203      0.000837
      9.71386      1.03891      3.78369        -0.001058      0.000346     -0.000452
      4.15774      6.59764      3.78384         0.000318      0.000012      0.000328
      9.71386      6.59764      3.78369        -0.000142     -0.000288      0.000036
     -1.37674      3.81828      6.41474        -0.002475     -0.000293      0.001147
      4.17938      3.81828      6.41460         0.001170      0.000129      0.000019
     -1.37674      9.37700      6.41474        -0.002185     -0.000471     -0.001667
      4.17938      9.37700      6.41460         0.001019      0.000155     -0.000195
      1.38057      1.05876      6.41466         0.009414      0.000584     -0.009387
      6.93668      1.05876      6.41452         0.009355      0.000348      0.008032
      1.38057      6.61748      6.41466        -0.000028     -0.000520     -0.000374
      6.93668      6.61748      6.41452         0.000011     -0.000521      0.000157
      1.38227      3.82822      0.00001        -0.002334     -0.001232     -0.001576
      6.93839      3.82822     -0.00014         0.001007     -0.000021      0.000143
      1.38227      9.38694      0.00001        -0.002258     -0.001043      0.001332
      6.93839      9.38694     -0.00014         0.000995      0.000025      0.000170
      1.39874      1.04885     10.19857         0.006206      0.000894      0.006550
      6.95485      1.04885     10.19843         0.006126      0.000965     -0.006619
      1.39874      6.60758     10.19857        -0.000029     -0.000406      0.000152
      6.95485      6.60758     10.19843        -0.000108     -0.000374     -0.000316
     -1.25763      1.18232      6.18371         0.007201     -0.000205     -0.002946
      4.29848      1.18232      6.18356        -0.005072     -0.000051     -0.000076
     -1.25763      6.74104      6.18371        -0.000196      0.000584      0.000148
      4.29848      6.74104      6.18356        -0.000448      0.000130      0.000016
      1.26131      3.69462      6.18369         0.000494     -0.001819      0.000785
      6.81742      3.69462      6.18354        -0.000328      0.001599     -0.001725
      1.26131      9.25335      6.18369        -0.000076      0.001493      0.001911
      6.81742      9.25335      6.18354         0.000282     -0.001232     -0.000447
      1.51970      0.91526      4.01489         0.000286      0.000163      0.003239
      7.07582      0.91526      4.01474         0.000151     -0.000353     -0.003056
      1.51970      6.47399      4.01489        -0.000192      0.000038     -0.000003
      7.07582      6.47399      4.01474        -0.000238      0.000114     -0.000211
      4.03864      3.96168      4.01487         0.000022     -0.000047     -0.000375
      9.59476      3.96168      4.01472         0.000426      0.000110     -0.000221
      4.03864      9.52041      4.01487        -0.000028      0.000139     -0.000415
      9.59476      9.52041      4.01472         0.000509     -0.000237      0.000648
      0.00035      5.21813      1.57032         0.000194      0.000557      0.000472
      5.55647      5.21813      1.57017        -0.000488     -0.000008     -0.000056
      0.00035     10.77686      1.57032         0.001797     -0.001336      0.001123
      5.55647     10.77686      1.57017        -0.001702      0.001136     -0.001399
      2.77849      2.43869      1.57537         0.001430     -0.001446     -0.000902
      8.33461      2.43869      1.57522        -0.001147      0.001104      0.001347
      2.77849      7.99742      1.57537        -0.000074      0.000518     -0.000152
      8.33461      7.99742      1.57522         0.000015     -0.000019     -0.000176
      0.00252      5.21805      8.62321         0.000859     -0.000236     -0.000292
      5.55864      5.21805      8.62307        -0.001557      0.001442      0.000444
      0.00252     10.77678      8.62321         0.028496     -0.021941      0.007528
      5.55864     10.77678      8.62307        -0.002143     -0.001055     -0.000308
      2.78066      2.43877      8.62826        -0.002165     -0.001066      0.000229
      8.33677      2.43877      8.62811         0.027542     -0.019960     -0.007027
      2.78066      7.99750      8.62826        -0.001488      0.001387     -0.000501
      8.33677      7.99750      8.62811         0.000961     -0.000224      0.000320
 -----------------------------------------------------------------------------------
    total drift:                               -0.000172     -0.001119     -0.000060


--------------------------------------------------------------------------------------------------------



  FREE ENERGIE OF THE ION-ELECTRON SYSTEM (eV)
  ---------------------------------------------------
  free  energy   TOTEN  =      -489.21490991 eV

  energy  without entropy=     -489.21490991  energy(sigma->0) =     -489.21490991
 


--------------------------------------------------------------------------------------------------------


    POTLOK:  cpu time    3.2932: real time    3.3235


--------------------------------------------------------------------------------------------------------


     LOOP+:  cpu time 6357.7984: real time 6429.5906
    4ORBIT:  cpu time    0.0000: real time    0.0000

 total amount of memory used by VASP MPI-rank0  1233264. kBytes
=======================================================================

   base      :      30000. kBytes
   nonl-proj :      75226. kBytes
   fftplans  :      85054. kBytes
   grid      :      64684. kBytes
   one-center:        466. kBytes
   wavefun   :     977834. kBytes
 
  
  
 General timing and accounting informations for this job:
 ========================================================
  
                  Total CPU time used (sec):     6453.372
                            User time (sec):     6383.376
                          System time (sec):       69.996
                         Elapsed time (sec):     6528.049
  
                   Maximum memory used (kb):     1433628.
                   Average memory used (kb):           0.
  
                          Minor page faults:      1025167
                          Major page faults:           11
                 Voluntary context switches:        63382
