 vasp.6.2.0 18Jan21 (build Feb  9 2021 11:43:09) complex                         
 executed on       CrayXC_GCC_OMP date 2021.05.02  09:40:15
 running  512 mpi-ranks, with    1 threads/rank
 distrk:  each k-point on   64 cores,    8 groups
 distr:  one band on NCORE=   8 cores,    8 groups


--------------------------------------------------------------------------------------------------------


 INCAR:
   ALGO = all
   EDIFF = 0.000111
   EDIFFG = -0.03
   ENCUT = 520
   GGA = pe
   IBRION = 2
   ISIF = 2
   ISMEAR = 0
   ISPIN = 2
   KPAR = 8
   LASPH = .TRUE.
   LDAU = .TRUE.
   LDAUJ = 0.0 0.0 0.0 0.0
   LDAUL = 2 -1 -1 -1
   LDAUTYPE = 2
   LDAUU = 4.0 0.0 0.0 0.0
   LMAXMIX = 4
   LORBIT = 10
   LREAL = .FALSE.
   LVHAR = .TRUE.
   LWAVE = .FALSE.
   MAGMOM = 5 5 5 5 5 5 5 5 5 5 5 5 5 5 5 5 5 5 5 5 5 5 5 5 5 5 5 5 5 5 5 5 0.6 0.6 0.6 0.6 0.6 0.6 0.6 0.6 0.6 0.6 0.6 0.6 0.6 0.6 0.6 0.6 0.6 0.6 0.6 0.6 0.6 0.6 0.6 0.6 0.6 0.6 0.6 0.6 0.6 0.6 0.6 0.6 0.6 0.6 0.6 0.6 0.6 0.6 0.6 0.6 0.6 0.6 0.6 0.6 0.6 0.6 0.6 0.6 0.6 0.6 0.6 0.6 0.6 0.6 0.6 0.6 0.6 0.6 0.6 0.6 0.6 0.6 0.6 0.6 0.6 0.6 0.6 0.6 0.6 0.6 0.6 0.6 0.6 0.6 0.6 0.6 0.6 0.6 0.6
   NCORE = 8
   NEDOS = 2000
   NELECT = 828
   NELM = 200
   NELMIN = 4
   NSW = 60
   NWRITE = 1
   PREC = accurate
   SIGMA = 0.05

 POTCAR:    PAW_PBE Fe_pv 02Aug2007               
 POTCAR:    PAW_PBE Li_sv 10Sep2004               
 POTCAR:    PAW_PBE O 08Apr2002                   
 POTCAR:    PAW_PBE S 06Sep2000                   
 POTCAR:    PAW_PBE Fe_pv 02Aug2007               
  local pseudopotential read in
  partial core-charges read in
  partial kinetic energy density read in
  atomic valenz-charges read in
  non local Contribution for L=           1  read in
    real space projection operators read in
  non local Contribution for L=           1  read in
    real space projection operators read in
  non local Contribution for L=           2  read in
    real space projection operators read in
  non local Contribution for L=           2  read in
    real space projection operators read in
  non local Contribution for L=           0  read in
    real space projection operators read in
  non local Contribution for L=           0  read in
    real space projection operators read in
    PAW grid and wavefunctions read in

   number of l-projection  operators is LMAX  =           6
   number of lm-projection operators is LMMAX =          18

 POTCAR:    PAW_PBE Li_sv 10Sep2004               
  local pseudopotential read in
  atomic valenz-charges read in
  non local Contribution for L=           0  read in
    real space projection operators read in
  non local Contribution for L=           0  read in
    real space projection operators read in
  non local Contribution for L=           1  read in
    real space projection operators read in
    PAW grid and wavefunctions read in

   number of l-projection  operators is LMAX  =           3
   number of lm-projection operators is LMMAX =           5

 POTCAR:    PAW_PBE O 08Apr2002                   
  local pseudopotential read in
  partial core-charges read in
  partial kinetic energy density read in
  kinetic energy density of atom read in
  atomic valenz-charges read in
  non local Contribution for L=           0  read in
    real space projection operators read in
  non local Contribution for L=           0  read in
    real space projection operators read in
  non local Contribution for L=           1  read in
    real space projection operators read in
  non local Contribution for L=           1  read in
    real space projection operators read in
    PAW grid and wavefunctions read in

   number of l-projection  operators is LMAX  =           4
   number of lm-projection operators is LMMAX =           8

 POTCAR:    PAW_PBE S 06Sep2000                   
  local pseudopotential read in
  partial core-charges read in
  partial kinetic energy density read in
  atomic valenz-charges read in
  non local Contribution for L=           0  read in
    real space projection operators read in
  non local Contribution for L=           0  read in
    real space projection operators read in
  non local Contribution for L=           1  read in
    real space projection operators read in
  non local Contribution for L=           1  read in
    real space projection operators read in
    PAW grid and wavefunctions read in

   number of l-projection  operators is LMAX  =           4
   number of lm-projection operators is LMMAX =           8

 -----------------------------------------------------------------------------
|                                                                             |
|               ----> ADVICE to this user running VASP <----                  |
|                                                                             |
|     You have a (more or less) 'large supercell' and for larger cells it     |
|     might be more efficient to use real-space projection operators.         |
|     Therefore, try LREAL= Auto in the INCAR file.                           |
|     Mind: For very accurate calculation, you might also keep the            |
|     reciprocal projection scheme (i.e. LREAL=.FALSE.).                      |
|                                                                             |
 -----------------------------------------------------------------------------

  PAW_PBE Fe_pv 02Aug2007               :
 energy of atom  1       EATOM=-2457.4239
 kinetic energy error for atom=    0.0062 (will be added to EATOM!!)
  PAW_PBE Li_sv 10Sep2004               :
 energy of atom  2       EATOM= -202.7858
 kinetic energy error for atom=    0.0130 (will be added to EATOM!!)
  PAW_PBE O 08Apr2002                   :
 energy of atom  3       EATOM= -432.3788
 kinetic energy error for atom=    0.0208 (will be added to EATOM!!)
  PAW_PBE S 06Sep2000                   :
 energy of atom  4       EATOM= -276.8230
 kinetic energy error for atom=    0.0016 (will be added to EATOM!!)


 POSCAR: # Compound: Fe32Li31O16S32. Old comment:
  positions in direct lattice
  No initial velocities read in
 exchange correlation table for  LEXCH =        8
   RHO(1)=    0.500       N(1)  =     2000
   RHO(2)=  100.500       N(2)  =     4000



--------------------------------------------------------------------------------------------------------


 ion  position               nearest neighbor table
   1  0.974  0.080  0.159-  73 2.04  84 2.42  80 2.72  97 2.72  98 2.72  83 2.72
   2  0.223  0.329  0.159-  68 2.04  85 2.42  80 2.71  98 2.72  81 2.72  99 2.73
   3  0.723  0.328  0.159-  79 2.04  86 2.42  97 2.70  99 2.71  80 2.73  82 2.74
   4  0.975  0.579  0.158-  66 2.04  87 2.42  81 2.71  83 2.72  80 2.72  82 2.72
   5  0.964  0.431  0.347-  70 1.98  80 2.47  86 2.62  87 2.66
   6  0.225  0.670  0.341-  67 2.04  81 2.44 100 2.69  87 2.71  85 2.72 102 2.73
   7  0.732  0.664  0.347-  72 1.98  82 2.47  86 2.62  87 2.66
   8  0.973  0.922  0.341-  77 2.04  83 2.44  84 2.68  87 2.71 101 2.72 102 2.73
   9  0.973  0.080  0.659-  77 2.04  92 2.44  88 2.68  91 2.71 105 2.72 106 2.73
  10  0.223  0.330  0.659-  64 2.04  93 2.44  89 2.71  88 2.72 106 2.72 107 2.72
  11  0.724  0.328  0.659-  75 2.05  94 2.44 105 2.66  88 2.71  90 2.73 107 2.73
  12  0.964  0.584  0.653-  70 1.98  95 2.47  90 2.62  91 2.67
  13  0.974  0.421  0.841-  66 2.04  88 2.42  95 2.72  94 2.72  93 2.72  92 2.72
  14  0.223  0.670  0.841-  71 2.04  89 2.42  95 2.71  93 2.72 110 2.72 108 2.73
  15  0.723  0.669  0.841-  76 2.04  90 2.42  94 2.70 108 2.71  95 2.73 109 2.74
  16  0.975  0.921  0.842-  73 2.04  91 2.42 110 2.71  92 2.72  95 2.72 109 2.72
  17  0.475  0.580  0.159-  65 2.04 100 2.42  82 2.72  96 2.72  99 2.73  81 2.73
  18  0.724  0.829  0.159-  76 2.04 101 2.42  82 2.71  96 2.72  83 2.72  97 2.73
  19  0.224  0.829  0.159-  71 2.05 102 2.43  83 2.72  98 2.72  81 2.72  96 2.72
  20  0.474  0.079  0.159-  74 2.04 103 2.43  96 2.72  97 2.72  99 2.72  98 2.72
  21  0.474  0.920  0.341-  78 2.04  96 2.44 101 2.71 100 2.72 103 2.72 102 2.72
  22  0.724  0.169  0.341-  75 2.05  97 2.44 101 2.66  84 2.71  86 2.73 103 2.73
  23  0.223  0.171  0.341-  64 2.04  98 2.44  85 2.71  84 2.72 102 2.72 103 2.72
  24  0.473  0.421  0.341-  69 2.04  99 2.44  85 2.66 100 2.71  86 2.72 103 2.72
  25  0.473  0.580  0.659-  69 2.04 108 2.44  89 2.66 104 2.71  90 2.72 107 2.73
  26  0.732  0.817  0.653-  72 1.98 109 2.47  90 2.62  91 2.66
  27  0.225  0.828  0.659-  67 2.04 110 2.44 104 2.69  91 2.71  89 2.72 106 2.73
  28  0.474  0.079  0.659-  78 2.04 111 2.44 105 2.71 104 2.72 107 2.72 106 2.72
  29  0.475  0.920  0.841-  74 2.04 104 2.42 109 2.72 111 2.72 108 2.73 110 2.73
  30  0.724  0.170  0.841-  79 2.04 105 2.42 109 2.71 111 2.72  92 2.72  94 2.73
  31  0.224  0.171  0.841-  68 2.05 106 2.43 110 2.72  92 2.72  93 2.72 111 2.72
  32  0.474  0.420  0.841-  65 2.04 107 2.43 111 2.72  94 2.72  93 2.72 108 2.72
  33  0.081  0.143  0.001-  68 1.94  73 1.94  92 2.55  80 2.58
  34  0.868  0.856  1.000-  76 1.94  73 1.94  83 2.54  95 2.58
  35  0.868  0.357  0.000-  79 1.94  66 1.94  92 2.54  80 2.58
  36  0.081  0.643  0.999-  71 1.94  66 1.94  83 2.55  95 2.58
  37  0.120  0.394  0.500-  70 1.88  64 1.94  85 2.56  89 2.56
  38  0.332  0.607  0.500-  67 1.95  69 1.95  89 2.55  85 2.55
  39  0.590  0.639  0.500-  72 1.92  69 1.95 104 2.63 100 2.63
  40  0.619  0.394  0.500-  75 1.93  69 1.93  90 2.55  86 2.55
  41  0.080  0.143  0.500-  64 1.95  77 1.96  84 2.54  88 2.54
  42  0.871  0.849  0.500-  72 1.92  77 1.97  87 2.52  91 2.52
  43  0.863  0.365  0.500-  70 1.92  75 1.95  88 2.63  84 2.63
  44  0.073  0.647  0.500-  70 1.92  67 1.97  91 2.52  87 2.52
  45  0.117  0.393  1.000-  68 1.94  66 1.94  93 2.54  81 2.55
  46  0.331  0.607  0.000-  71 1.95  65 1.95  93 2.55  81 2.55
  47  0.831  0.607  0.001-  66 1.94  76 1.94  94 2.54  82 2.57
  48  0.618  0.393  0.001-  65 1.94  79 1.94  94 2.55  82 2.58
  49  0.581  0.643  0.000-  65 1.94  76 1.94 108 2.54  96 2.55
  50  0.367  0.357  0.001-  65 1.94  68 1.95  99 2.55 111 2.55
  51  0.367  0.857  0.999-  74 1.94  71 1.95 108 2.55  96 2.55
  52  0.581  0.143  1.000-  74 1.94  79 1.94  99 2.54 111 2.55
  53  0.619  0.896  0.500-  72 1.88  78 1.94 101 2.56 105 2.56
  54  0.831  0.108  0.500-  77 1.95  75 1.95 101 2.55 105 2.55
  55  0.331  0.107  0.500-  64 1.94  78 1.94 102 2.55 106 2.55
  56  0.118  0.894  0.500-  77 1.94  67 1.94 106 2.55 102 2.55
  57  0.368  0.356  0.500-  64 1.95  69 1.95 107 2.55 103 2.55
  58  0.367  0.856  0.500-  78 1.95  67 1.96 100 2.54 104 2.54
  59  0.581  0.144  0.500-  75 1.95  78 1.95 107 2.55 103 2.55
  60  0.618  0.893  0.999-  74 1.94  76 1.94  97 2.55 109 2.58
  61  0.831  0.106  0.999-  73 1.94  79 1.94  97 2.54 109 2.57
  62  0.331  0.107  1.000-  68 1.95  74 1.95  98 2.55 110 2.55
  63  0.117  0.894  0.000-  71 1.94  73 1.94  98 2.54 110 2.55
  64  0.224  0.250  0.500-  55 1.94  37 1.94  41 1.95  57 1.95  10 2.04  23 2.04
  65  0.474  0.500  0.000-  49 1.94  48 1.94  50 1.94  46 1.95  17 2.04  32 2.04
  66  0.974  0.500  1.000-  47 1.94  36 1.94  45 1.94  35 1.94   4 2.04  13 2.04
  67  0.222  0.749  0.500-  56 1.94  38 1.95  58 1.96  44 1.97  27 2.04   6 2.04
  68  0.224  0.250  0.000-  33 1.94  45 1.94  62 1.95  50 1.95   2 2.04  31 2.05
  69  0.476  0.500  0.500-  40 1.93  57 1.95  38 1.95  39 1.95  25 2.04  24 2.04
  70  0.980  0.497  0.500-  37 1.88  44 1.92  43 1.92   5 1.98  12 1.98
  71  0.224  0.750  1.000-  36 1.94  63 1.94  51 1.95  46 1.95  14 2.04  19 2.05
  72  0.721  0.757  0.500-  53 1.88  42 1.92  39 1.92   7 1.98  26 1.98
  73  0.974  0.000  0.000-  61 1.94  33 1.94  63 1.94  34 1.94  16 2.04   1 2.04
  74  0.474  1.000  0.999-  52 1.94  60 1.94  51 1.94  62 1.95  29 2.04  20 2.04
  75  0.724  0.251  0.500-  40 1.93  59 1.95  54 1.95  43 1.95  11 2.05  22 2.05
  76  0.724  0.750  0.000-  47 1.94  34 1.94  60 1.94  49 1.94  15 2.04  18 2.04
  77  0.973  0.998  0.500-  56 1.94  54 1.95  41 1.96  42 1.97   9 2.04   8 2.04
  78  0.474  0.000  0.500-  55 1.94  53 1.94  58 1.95  59 1.95  28 2.04  21 2.04
  79  0.724  0.250  1.000-  61 1.94  35 1.94  48 1.94  52 1.94   3 2.04  30 2.04
  80  0.974  0.328  0.155-   5 2.47  35 2.58  33 2.58   2 2.71   1 2.72   4 2.72   3 2.73
  81  0.224  0.576  0.152-   6 2.44  45 2.55  46 2.55   4 2.71  19 2.72   2 2.72  17 2.73
  82  0.724  0.578  0.155-   7 2.47  47 2.57  48 2.58  18 2.71  17 2.72   4 2.72   3 2.74
  83  0.974  0.826  0.151-   8 2.44  34 2.54  36 2.55   4 2.72  19 2.72  18 2.72   1 2.72
  84  0.974  0.172  0.348-   1 2.42  41 2.54  43 2.63   8 2.68  22 2.71  23 2.72
  85  0.228  0.423  0.347-   2 2.42  38 2.55  37 2.56  24 2.66  23 2.71   6 2.72
  86  0.723  0.422  0.347-   3 2.42  40 2.55   5 2.62   7 2.62  24 2.72  22 2.73
  87  0.976  0.675  0.346-   4 2.42  44 2.52  42 2.52   7 2.66   5 2.66   6 2.71   8 2.71
  88  0.974  0.324  0.652-  13 2.42  41 2.54  43 2.63   9 2.68  11 2.71  10 2.72
  89  0.228  0.575  0.653-  14 2.42  38 2.55  37 2.56  25 2.66  10 2.71  27 2.72
  90  0.723  0.576  0.653-  15 2.42  40 2.55  12 2.62  26 2.62  25 2.72  11 2.73
  91  0.976  0.829  0.654-  16 2.42  44 2.52  42 2.52  26 2.66  12 2.67  27 2.71   9 2.71
  92  0.974  0.174  0.849-   9 2.44  35 2.54  33 2.55  16 2.72  31 2.72  30 2.72  13 2.72
  93  0.224  0.424  0.849-  10 2.44  45 2.54  46 2.55  31 2.72  32 2.72  14 2.72  13 2.72
  94  0.724  0.425  0.849-  11 2.44  47 2.54  48 2.55  15 2.70  32 2.72  13 2.72  30 2.73
  95  0.974  0.673  0.845-  12 2.47  34 2.58  36 2.58  14 2.71  13 2.72  16 2.72  15 2.73
  96  0.474  0.826  0.151-  21 2.44  49 2.55  51 2.55  20 2.72  19 2.72  17 2.72  18 2.72
  97  0.724  0.075  0.151-  22 2.44  61 2.54  60 2.55   3 2.70  20 2.72   1 2.72  18 2.73
  98  0.224  0.075  0.151-  23 2.44  63 2.54  62 2.55  19 2.72  20 2.72   2 2.72   1 2.72
  99  0.474  0.325  0.151-  24 2.44  52 2.54  50 2.55   3 2.71  20 2.72  17 2.73   2 2.73
 100  0.472  0.673  0.348-  17 2.42  58 2.54  39 2.63   6 2.69  24 2.71  21 2.72
 101  0.723  0.928  0.347-  18 2.42  54 2.55  53 2.56  22 2.66  21 2.71   8 2.72
 102  0.224  0.924  0.348-  19 2.43  56 2.55  55 2.55  23 2.72  21 2.72   6 2.73   8 2.73
 103  0.474  0.173  0.348-  20 2.43  59 2.55  57 2.55  21 2.72  23 2.72  24 2.72  22 2.73
 104  0.472  0.826  0.652-  29 2.42  58 2.54  39 2.63  27 2.69  25 2.71  28 2.72
 105  0.723  0.081  0.653-  30 2.42  54 2.55  53 2.56  11 2.66  28 2.71   9 2.72
 106  0.224  0.076  0.652-  31 2.43  56 2.55  55 2.55  10 2.72  28 2.72  27 2.73   9 2.73
 107  0.474  0.326  0.652-  32 2.43  59 2.55  57 2.55  28 2.72  10 2.72  25 2.73  11 2.73
 108  0.474  0.674  0.849-  25 2.44  49 2.54  51 2.55  15 2.71  32 2.72  29 2.73  14 2.73
 109  0.724  0.922  0.845-  26 2.47  61 2.57  60 2.58  30 2.71  29 2.72  16 2.72  15 2.74
 110  0.224  0.924  0.848-  27 2.44  63 2.55  62 2.55  16 2.71  31 2.72  14 2.72  29 2.73
 111  0.474  0.174  0.849-  28 2.44  52 2.55  50 2.55  32 2.72  31 2.72  29 2.72  30 2.72

  LATTYP: Found a base centered orthorhombic cell.
 ALAT       =    10.8749739061
 B/A-ratio  =     2.3644048249
 C/A-ratio  =     1.0000101723
  
  Lattice vectors:
  
 A1 = (   3.8335882400,   3.8349345400, -12.8627506400)
 A2 = (   3.8548230400,   3.8561790800,  12.8500725900)
 A3 = (   7.6911861600,  -7.6885056400,   0.0000000100)


Analysis of symmetry for initial positions (statically):
=====================================================================
 Subroutine PRICEL returns:
 Original cell was already a primitive cell.
 

 Routine SETGRP: Setting up the symmetry group for a 
 base centered orthorhombic supercell.


 Subroutine GETGRP returns: Found  1 space group operations
 (whereof  1 operations were pure point group operations)
 out of a pool of  8 trial point group operations.


The static configuration has the point symmetry C_1 .


Analysis of symmetry for dynamics (positions and initial velocities):
=====================================================================
 Subroutine PRICEL returns:
 Original cell was already a primitive cell.
 

 Routine SETGRP: Setting up the symmetry group for a 
 base centered orthorhombic supercell.


 Subroutine GETGRP returns: Found  1 space group operations
 (whereof  1 operations were pure point group operations)
 out of a pool of  8 trial point group operations.


The dynamic configuration has the point symmetry C_1 .


Analysis of structural, dynamic, and magnetic symmetry:
=====================================================================
 Subroutine PRICEL returns:
 Original cell was already a primitive cell.
 

 Routine SETGRP: Setting up the symmetry group for a 
 base centered orthorhombic supercell.


 Subroutine GETGRP returns: Found  1 space group operations
 (whereof  1 operations were pure point group operations)
 out of a pool of  8 trial point group operations.


The overall configuration has the point symmetry C_1 .


 Subroutine INISYM returns: Found  1 space group operations
 (whereof  1 operations are pure point group operations),
 and found     1 'primitive' translations


----------------------------------------------------------------------------------------

                                     Primitive cell                                     

  volume of cell :    1520.4808

  direct lattice vectors                    reciprocal lattice vectors
     7.691186160 -7.688505640  0.000000010     0.065032232 -0.065009382  0.000000006
     7.688411280  7.691113620 -0.012678050     0.065042145  0.065064822  0.038783628
    -3.833588240 -3.834934540 12.862750640     0.000064108  0.000064131  0.077782096

  length of vectors
    10.875084530 10.874973906 13.958992648     0.091953308  0.099840280  0.077782149

  position of ions in fractional coordinates (direct lattice)
     0.973890740  0.080045430  0.159366460
     0.223087130  0.329454420  0.159217090
     0.723002390  0.327854040  0.158575880
     0.974512040  0.579465000  0.158117250
     0.964269050  0.430778220  0.346777660
     0.224961770  0.669598130  0.341349420
     0.731676950  0.663581470  0.346750660
     0.972757640  0.921571970  0.341117870
     0.972747140  0.080447750  0.658874320
     0.223451730  0.329576790  0.658842130
     0.724387180  0.328138770  0.659076390
     0.964281070  0.583976710  0.653237410
     0.973884480  0.420664920  0.840634390
     0.223090150  0.670233320  0.840783990
     0.723001570  0.669276070  0.841425670
     0.974500840  0.921312260  0.841880090
     0.474606150  0.579903590  0.159437370
     0.723915760  0.828868720  0.158993800
     0.223867930  0.829209250  0.158640920
     0.474106460  0.078966290  0.158508400
     0.474414990  0.920074310  0.341138890
     0.724395590  0.169038380  0.340924620
     0.223446450  0.170729650  0.341154920
     0.472905750  0.420693940  0.341151100
     0.472911920  0.579567510  0.658851590
     0.731667010  0.816896990  0.653265250
     0.224942610  0.828270590  0.658656430
     0.474407960  0.078959020  0.658855890
     0.474603970  0.920448260  0.840563150
     0.723927270  0.169868050  0.841007380
     0.223870840  0.170555400  0.841360470
     0.474111990  0.420441840  0.841493900
     0.080831070  0.143415970  0.000609450
     0.867609490  0.856164410  0.999650590
     0.867609260  0.356516370  0.000348790
     0.080833600  0.642800450  0.999385530
     0.119774900  0.394270600  0.499996700
     0.331959900  0.607384930  0.500001880
     0.589549120  0.638880050  0.500002810
     0.618542000  0.394250670  0.500010050
     0.080314650  0.143069430  0.499998900
     0.870833750  0.849365690  0.499990260
     0.863034760  0.365069900  0.500003030
     0.073212010  0.646774650  0.500006240
     0.117249090  0.393284680  0.999576240
     0.331276850  0.607198150  0.000018300
     0.830512950  0.606524840  0.000594880
     0.617583090  0.393362010  0.000568890
     0.580534310  0.643381540  0.000001760
     0.366853150  0.357433620  0.000518790
     0.366852520  0.856910010  0.999479980
     0.580539220  0.143379530  0.999999460
     0.618555600  0.895838760  0.499991210
     0.831346330  0.107766630  0.499997840
     0.330725020  0.106585160  0.499990590
     0.118107470  0.894230060  0.500006190
     0.368152360  0.356375460  0.500002700
     0.367217430  0.856429030  0.499997650
     0.580604490  0.144135440  0.500002890
     0.617579890  0.892792150  0.999437750
     0.830509490  0.105922010  0.999397920
     0.331277520  0.107180160  0.999980050
     0.117247700  0.893711360  0.000427190
     0.224215800  0.249549620  0.500002960
     0.474435240  0.500144510  0.000499830
     0.973845830  0.499969930  0.999641700
     0.222317370  0.749406670  0.500004150
     0.223631460  0.250244320  0.000427270
     0.475751960  0.499746480  0.500003970
     0.980426720  0.496854160  0.499989100
     0.223632940  0.749814970  0.999567460
     0.721132060  0.756582140  0.499969590
     0.973848600  0.000329120  0.000359630
     0.474431590  0.999640440  0.999496000
     0.723982980  0.251475460  0.500002320
     0.724323270  0.749735870  0.000114610
     0.973296370  0.998383720  0.499999430
     0.473848860  0.000258930  0.500000670
     0.724325970  0.249631970  0.999892840
     0.974171450  0.327940430  0.155194320
     0.223979980  0.575958730  0.151627700
     0.724261970  0.577603600  0.155108200
     0.974150240  0.825625840  0.151178110
     0.973553280  0.171712330  0.347946430
     0.228416170  0.422659660  0.347351330
     0.723267910  0.422378320  0.346539850
     0.976117580  0.675287590  0.346290810
     0.973553490  0.323767760  0.652052350
     0.228414630  0.575308450  0.652649590
     0.723270680  0.575846530  0.653467580
     0.976121810  0.829001190  0.653711860
     0.974151320  0.174450950  0.848820110
     0.224191210  0.423918310  0.848587250
     0.723871510  0.424581640  0.849101930
     0.974171660  0.672746650  0.844808240
     0.473702550  0.825665480  0.151333950
     0.723871360  0.075473680  0.150899400
     0.224190790  0.075325390  0.151412780
     0.474290020  0.325325530  0.151414970
     0.471791160  0.673443540  0.347929310
     0.723146590  0.927946690  0.347225130
     0.224041160  0.923925650  0.347804220
     0.473817840  0.173421630  0.347524280
     0.471786300  0.825512880  0.652072730
     0.723146840  0.080718020  0.652773580
     0.224041670  0.076117640  0.652192530
     0.473819960  0.325891650  0.652472560
     0.474289220  0.673915200  0.848588670
     0.724264340  0.922489150  0.844886190
     0.223980270  0.924332800  0.848375670
     0.473699190  0.174333570  0.848664020

  ion indices of the primitive-cell ions
   primitive index   ion index
                 1           1
                 2           2
                 3           3
                 4           4
                 5           5
                 6           6
                 7           7
                 8           8
                 9           9
                10          10
                11          11
                12          12
                13          13
                14          14
                15          15
                16          16
                17          17
                18          18
                19          19
                20          20
                21          21
                22          22
                23          23
                24          24
                25          25
                26          26
                27          27
                28          28
                29          29
                30          30
                31          31
                32          32
                33          33
                34          34
                35          35
                36          36
                37          37
                38          38
                39          39
                40          40
                41          41
                42          42
                43          43
                44          44
                45          45
                46          46
                47          47
                48          48
                49          49
                50          50
                51          51
                52          52
                53          53
                54          54
                55          55
                56          56
                57          57
                58          58
                59          59
                60          60
                61          61
                62          62
                63          63
                64          64
                65          65
                66          66
                67          67
                68          68
                69          69
                70          70
                71          71
                72          72
                73          73
                74          74
                75          75
                76          76
                77          77
                78          78
                79          79
                80          80
                81          81
                82          82
                83          83
                84          84
                85          85
                86          86
                87          87
                88          88
                89          89
                90          90
                91          91
                92          92
                93          93
                94          94
                95          95
                96          96
                97          97
                98          98
                99          99
               100         100
               101         101
               102         102
               103         103
               104         104
               105         105
               106         106
               107         107
               108         108
               109         109
               110         110
               111         111

----------------------------------------------------------------------------------------



 KPOINTS: # No comment                            

Automatic generation of k-mesh.
 Grid dimensions read from file:
 generate k-points for:    2    2    2

 Generating k-lattice:

  Cartesian coordinates                     Fractional coordinates (reciprocal lattice)
     0.032516116 -0.032504691  0.000000003     0.500000000 -0.000000000  0.000000000
     0.032521073  0.032532411  0.019391814    -0.000000000  0.500000000  0.000000000
     0.000032054  0.000032065  0.038891048     0.000000000 -0.000000000  0.500000000

  Length of vectors
     0.045976654  0.049920140  0.038891074

  Shift w.r.t. Gamma in fractional coordinates (k-lattice)
     0.000000000  0.000000000  0.000000000

 
 Subroutine IBZKPT returns following result:
 ===========================================
 
 Found      8 irreducible k-points:
 
 Following reciprocal coordinates:
            Coordinates               Weight
  0.000000  0.000000  0.000000      1.000000
  0.500000  0.000000  0.000000      1.000000
  0.000000  0.500000  0.000000      1.000000
  0.000000  0.500000  0.500000      1.000000
  0.500000  0.500000  0.000000      1.000000
  0.500000  0.500000  0.500000      1.000000
  0.000000  0.000000  0.500000      1.000000
  0.500000  0.000000  0.500000      1.000000
 
 Following cartesian coordinates:
            Coordinates               Weight
  0.000000  0.000000  0.000000      1.000000
  0.032516 -0.032505  0.000000      1.000000
  0.032521  0.032532  0.019392      1.000000
  0.032553  0.032564  0.058283      1.000000
  0.065037  0.000028  0.019392      1.000000
  0.065069  0.000060  0.058283      1.000000
  0.000032  0.000032  0.038891      1.000000
  0.032548 -0.032473  0.038891      1.000000
 


--------------------------------------------------------------------------------------------------------




 Dimension of arrays:
   k-points           NKPTS =      8   k-points in BZ     NKDIM =      8   number of bands    NBANDS=    600
   number of dos      NEDOS =   2000   number of ions     NIONS =    111
   non local maximal  LDIM  =      6   non local SUM 2l+1 LMDIM =     18
   total plane-waves  NPLWV = 762048
   max r-space proj   IRMAX =      1   max aug-charges    IRDMAX=  15988
   dimension x,y,z NGX =    84 NGY =   84 NGZ =  108
   dimension x,y,z NGXF=   168 NGYF=  168 NGZF=  216
   support grid    NGXF=   168 NGYF=  168 NGZF=  216
   ions per type =              32  31  16  32
   NGX,Y,Z   is equivalent  to a cutoff of  12.84, 12.84, 12.86 a.u.
   NGXF,Y,Z  is equivalent  to a cutoff of  25.68, 25.68, 25.72 a.u.

 SYSTEM =  unknown system                          
 POSCAR =  # Compound: Fe32Li31O16S32. Old comment:

 Startparameter for this run:
   NWRITE =      1    write-flag & timer
   PREC   = accura    normal or accurate (medium, high low for compatibility)
   ISTART =      0    job   : 0-new  1-cont  2-samecut
   ICHARG =      2    charge: 1-file 2-atom 10-const
   ISPIN  =      2    spin polarized calculation?
   LNONCOLLINEAR =      F non collinear calculations
   LSORBIT =      F    spin-orbit coupling
   INIWAV =      1    electr: 0-lowe 1-rand  2-diag
   LASPH  =      T    aspherical Exc in radial PAW
   METAGGA=      F    non-selfconsistent MetaGGA calc.

 Electronic Relaxation 1
   ENCUT  =  520.0 eV  38.22 Ry    6.18 a.u.  20.22 20.22 25.95*2*pi/ulx,y,z
   ENINI  =  520.0     initial cutoff
   ENAUG  =  628.9 eV  augmentation charge cutoff
   NELM   =    200;   NELMIN=  4; NELMDL= -5     # of ELM steps 
   EDIFF  = 0.1E-03   stopping-criterion for ELM
   LREAL  =      F    real-space projection
   NLSPLINE    = F    spline interpolate recip. space projectors
   LCOMPAT=      F    compatible to vasp.4.4
   GGA_COMPAT  = T    GGA compatible to vasp.4.4-vasp.4.6
   LMAXPAW     = -100 max onsite density
   LMAXMIX     =    4 max onsite mixed and CHGCAR
   VOSKOWN=      0    Vosko Wilk Nusair interpolation
   ROPT   =    0.00000   0.00000   0.00000   0.00000
 Ionic relaxation
   EDIFFG = -.3E-01   stopping-criterion for IOM
   NSW    =     60    number of steps for IOM
   NBLOCK =      1;   KBLOCK =     60    inner block; outer block 
   IBRION =      2    ionic relax: 0-MD 1-quasi-New 2-CG
   NFREE  =      1    steps in history (QN), initial steepest desc. (CG)
   ISIF   =      2    stress and relaxation
   IWAVPR =     11    prediction:  0-non 1-charg 2-wave 3-comb
   ISYM   =      2    0-nonsym 1-usesym 2-fastsym
   LCORR  =      T    Harris-Foulkes like correction to forces

   POTIM  = 0.5000    time-step for ionic-motion
   TEIN   =    0.0    initial temperature
   TEBEG  =    0.0;   TEEND  =   0.0 temperature during run
   SMASS  =  -3.00    Nose mass-parameter (am)
   estimated Nose-frequenzy (Omega)   =  0.10E-29 period in steps = 0.13E+47 mass=  -0.270E-26a.u.
   SCALEE = 1.0000    scale energy and forces
   NPACO  =    256;   APACO  = 16.0  distance and # of slots for P.C.
   PSTRESS=    0.0 pullay stress

  Mass of Ions in am
   POMASS =  55.85  7.01 16.00 32.07
  Ionic Valenz
   ZVAL   =  14.00  3.00  6.00  6.00
  Atomic Wigner-Seitz radii
   RWIGS  =  -1.00 -1.00 -1.00 -1.00
  virtual crystal weights 
   VCA    =   1.00  1.00  1.00  1.00
   NELECT =     828.0000    total number of electrons
   NUPDOWN=      -1.0000    fix difference up-down

 DOS related values:
   EMIN   =  10.00;   EMAX   =-10.00  energy-range for DOS
   EFERMI =   0.00
   ISMEAR =     0;   SIGMA  =   0.05  broadening in eV -4-tet -1-fermi 0-gaus

 Electronic relaxation 2 (details)
   IALGO  =     58    algorithm
   LDIAG  =      T    sub-space diagonalisation (order eigenvalues)
   LSUBROT=      F    optimize rotation matrix (better conditioning)
   TURBO    =      0    0=normal 1=particle mesh
   IRESTART =      0    0=no restart 2=restart with 2 vectors
   NREBOOT  =      0    no. of reboots
   NMIN     =      0    reboot dimension
   EREF     =   0.00    reference energy to select bands
   IMIX   =      4    mixing-type and parameters
     AMIX     =   0.40;   BMIX     =  1.00
     AMIX_MAG =   1.60;   BMIX_MAG =  1.00
     AMIN     =   0.10
     WC   =   100.;   INIMIX=   1;  MIXPRE=   1;  MAXMIX= -45

 Intra band minimization:
   WEIMIN = 0.0010     energy-eigenvalue tresh-hold
   EBREAK =  0.46E-07  absolut break condition
   DEPER  =   0.30     relativ break condition  

   TIME   =   0.40     timestep for ELM

  volume/ion in A,a.u.               =      13.70        92.44
  Fermi-wavevector in a.u.,A,eV,Ry     =   1.336877  2.526330 24.316861  1.787239
  Thomas-Fermi vector in A             =   2.465469

 Write flags
   LWAVE        =      F    write WAVECAR
   LDOWNSAMPLE  =      F    k-point downsampling of WAVECAR
   LCHARG       =      T    write CHGCAR
   LVTOT        =      F    write LOCPOT, total local potential
   LVHAR        =      T    write LOCPOT, Hartree potential only
   LELF         =      F    write electronic localiz. function (ELF)
   LORBIT       =     10    0 simple, 1 ext, 2 COOP (PROOUT), +10 PAW based schemes


 Dipole corrections
   LMONO  =      F    monopole corrections only (constant potential shift)
   LDIPOL =      F    correct potential (dipole corrections)
   IDIPOL =      0    1-x, 2-y, 3-z, 4-all directions 
   EPSILON=  1.0000000 bulk dielectric constant

 LDA+U is selected, type is set to LDAUTYPE =  2
   angular momentum for each species LDAUL =     2   -1   -1   -1
   U (eV)           for each species LDAUU =   4.0  0.0  0.0  0.0
   J (eV)           for each species LDAUJ =   0.0  0.0  0.0  0.0
 Exchange correlation treatment:
   GGA     =    PE    GGA type
   LEXCH   =     8    internal setting for exchange type
   VOSKOWN=      0    Vosko Wilk Nusair interpolation
   LHFCALC =     F    Hartree Fock is set to
   LHFONE  =     F    Hartree Fock one center treatment
   AEXX    =    0.0000 exact exchange contribution

 Linear response parameters
   LEPSILON=     F    determine dielectric tensor
   LRPA    =     F    only Hartree local field effects (RPA)
   LNABLA  =     F    use nabla operator in PAW spheres
   LVEL    =     F    velocity operator in full k-point grid
   LINTERFAST=   F  fast interpolation
   KINTER  =     0    interpolate to denser k-point grid
   CSHIFT  =0.1000    complex shift for real part using Kramers Kronig
   OMEGAMAX=  -1.0    maximum frequency
   DEG_THRESHOLD= 0.2000000E-02 threshold for treating states as degnerate
   RTIME   =   -0.100 relaxation time in fs
  (WPLASMAI=    0.000 imaginary part of plasma frequency in eV, 0.658/RTIME)
   DFIELD  = 0.0000000 0.0000000 0.0000000 field for delta impulse in time

 Orbital magnetization related:
   ORBITALMAG=     F  switch on orbital magnetization
   LCHIMAG   =     F  perturbation theory with respect to B field
   DQ        =  0.001000  dq finite difference perturbation B field
   LLRAUG    =     F  two centre corrections for induced B field



--------------------------------------------------------------------------------------------------------


 conjugate gradient relaxation of ions
 charge density and potential will be updated during run
 spin polarized calculation
 Conjugate gradient for all bands (Freysoldt, et al. PRB 79, 241103 (2009))
 preconditioned conjugated gradient                                        
 perform sub-space diagonalisation
    before iterative eigenvector-optimisation
 modified Broyden-mixing scheme, WC =      100.0
 initial mixing is a Kerker type mixing with AMIX =  0.4000 and BMIX =      1.0000
 Hartree-type preconditioning will be used
 using additional bands          186
 reciprocal scheme for non local part
 use partial core corrections
 no Harris-corrections to forces 
 use gradient corrections 
 use of overlap-Matrix (Vanderbilt PP)
 Gauss-broadening in eV      SIGMA  =   0.05


--------------------------------------------------------------------------------------------------------


  energy-cutoff  :      520.00
  volume of cell :     1520.48
      direct lattice vectors                 reciprocal lattice vectors
     7.691186160 -7.688505640  0.000000010     0.065032232 -0.065009382  0.000000006
     7.688411280  7.691113620 -0.012678050     0.065042145  0.065064822  0.038783628
    -3.833588240 -3.834934540 12.862750640     0.000064108  0.000064131  0.077782096

  length of vectors
    10.875084530 10.874973906 13.958992648     0.091953308  0.099840280  0.077782149



 k-points in units of 2pi/SCALE and weight: # No comment                            
   0.00000000  0.00000000  0.00000000       0.125
   0.03251612 -0.03250469  0.00000000       0.125
   0.03252107  0.03253241  0.01939181       0.125
   0.03255313  0.03256448  0.05828286       0.125
   0.06503719  0.00002772  0.01939182       0.125
   0.06506924  0.00005979  0.05828286       0.125
   0.00003205  0.00003207  0.03889105       0.125
   0.03254817 -0.03247263  0.03889105       0.125

 k-points in reciprocal lattice and weights: # No comment                            
   0.00000000  0.00000000  0.00000000       0.125
   0.50000000  0.00000000  0.00000000       0.125
   0.00000000  0.50000000  0.00000000       0.125
   0.00000000  0.50000000  0.50000000       0.125
   0.50000000  0.50000000  0.00000000       0.125
   0.50000000  0.50000000  0.50000000       0.125
   0.00000000  0.00000000  0.50000000       0.125
   0.50000000  0.00000000  0.50000000       0.125

 position of ions in fractional coordinates (direct lattice) 
   0.97389074  0.08004543  0.15936646
   0.22308713  0.32945442  0.15921709
   0.72300239  0.32785404  0.15857588
   0.97451204  0.57946500  0.15811725
   0.96426905  0.43077822  0.34677766
   0.22496177  0.66959813  0.34134942
   0.73167695  0.66358147  0.34675066
   0.97275764  0.92157197  0.34111787
   0.97274714  0.08044775  0.65887432
   0.22345173  0.32957679  0.65884213
   0.72438718  0.32813877  0.65907639
   0.96428107  0.58397671  0.65323741
   0.97388448  0.42066492  0.84063439
   0.22309015  0.67023332  0.84078399
   0.72300157  0.66927607  0.84142567
   0.97450084  0.92131226  0.84188009
   0.47460615  0.57990359  0.15943737
   0.72391576  0.82886872  0.15899380
   0.22386793  0.82920925  0.15864092
   0.47410646  0.07896629  0.15850840
   0.47441499  0.92007431  0.34113889
   0.72439559  0.16903838  0.34092462
   0.22344645  0.17072965  0.34115492
   0.47290575  0.42069394  0.34115110
   0.47291192  0.57956751  0.65885159
   0.73166701  0.81689699  0.65326525
   0.22494261  0.82827059  0.65865643
   0.47440796  0.07895902  0.65885589
   0.47460397  0.92044826  0.84056315
   0.72392727  0.16986805  0.84100738
   0.22387084  0.17055540  0.84136047
   0.47411199  0.42044184  0.84149390
   0.08083107  0.14341597  0.00060945
   0.86760949  0.85616441  0.99965059
   0.86760926  0.35651637  0.00034879
   0.08083360  0.64280045  0.99938553
   0.11977490  0.39427060  0.49999670
   0.33195990  0.60738493  0.50000188
   0.58954912  0.63888005  0.50000281
   0.61854200  0.39425067  0.50001005
   0.08031465  0.14306943  0.49999890
   0.87083375  0.84936569  0.49999026
   0.86303476  0.36506990  0.50000303
   0.07321201  0.64677465  0.50000624
   0.11724909  0.39328468  0.99957624
   0.33127685  0.60719815  0.00001830
   0.83051295  0.60652484  0.00059488
   0.61758309  0.39336201  0.00056889
   0.58053431  0.64338154  0.00000176
   0.36685315  0.35743362  0.00051879
   0.36685252  0.85691001  0.99947998
   0.58053922  0.14337953  0.99999946
   0.61855560  0.89583876  0.49999121
   0.83134633  0.10776663  0.49999784
   0.33072502  0.10658516  0.49999059
   0.11810747  0.89423006  0.50000619
   0.36815236  0.35637546  0.50000270
   0.36721743  0.85642903  0.49999765
   0.58060449  0.14413544  0.50000289
   0.61757989  0.89279215  0.99943775
   0.83050949  0.10592201  0.99939792
   0.33127752  0.10718016  0.99998005
   0.11724770  0.89371136  0.00042719
   0.22421580  0.24954962  0.50000296
   0.47443524  0.50014451  0.00049983
   0.97384583  0.49996993  0.99964170
   0.22231737  0.74940667  0.50000415
   0.22363146  0.25024432  0.00042727
   0.47575196  0.49974648  0.50000397
   0.98042672  0.49685416  0.49998910
   0.22363294  0.74981497  0.99956746
   0.72113206  0.75658214  0.49996959
   0.97384860  0.00032912  0.00035963
   0.47443159  0.99964044  0.99949600
   0.72398298  0.25147546  0.50000232
   0.72432327  0.74973587  0.00011461
   0.97329637  0.99838372  0.49999943
   0.47384886  0.00025893  0.50000067
   0.72432597  0.24963197  0.99989284
   0.97417145  0.32794043  0.15519432
   0.22397998  0.57595873  0.15162770
   0.72426197  0.57760360  0.15510820
   0.97415024  0.82562584  0.15117811
   0.97355328  0.17171233  0.34794643
   0.22841617  0.42265966  0.34735133
   0.72326791  0.42237832  0.34653985
   0.97611758  0.67528759  0.34629081
   0.97355349  0.32376776  0.65205235
   0.22841463  0.57530845  0.65264959
   0.72327068  0.57584653  0.65346758
   0.97612181  0.82900119  0.65371186
   0.97415132  0.17445095  0.84882011
   0.22419121  0.42391831  0.84858725
   0.72387151  0.42458164  0.84910193
   0.97417166  0.67274665  0.84480824
   0.47370255  0.82566548  0.15133395
   0.72387136  0.07547368  0.15089940
   0.22419079  0.07532539  0.15141278
   0.47429002  0.32532553  0.15141497
   0.47179116  0.67344354  0.34792931
   0.72314659  0.92794669  0.34722513
   0.22404116  0.92392565  0.34780422
   0.47381784  0.17342163  0.34752428
   0.47178630  0.82551288  0.65207273
   0.72314684  0.08071802  0.65277358
   0.22404167  0.07611764  0.65219253
   0.47381996  0.32589165  0.65247256
   0.47428922  0.67391520  0.84858867
   0.72426434  0.92248915  0.84488619
   0.22398027  0.92433280  0.84837567
   0.47369919  0.17433357  0.84866402

 position of ions in cartesian coordinates  (Angst):
   7.49485178 -7.48328589  2.04887623
   3.63841296  0.20807760  2.04379289
   7.47350805 -3.64537340  2.03556546
  11.34416233 -3.64217947  2.02647628
   9.39897014 -5.43049342  4.45505315
   5.56977555  2.11128278  4.38220327
   9.40005164 -1.85158796  4.45175436
  13.25937897 -1.69930257  4.37603037
   5.57424188 -9.38697897  8.47391617
   1.72680132 -1.70981379  8.47034364
   5.56763498 -5.57321717  8.47337510
   9.40207509 -5.42757192  8.39502624
   7.50192564 -7.47611248 10.80753734
   3.64563768  0.21525918 10.80629756
   7.48072980 -3.63813572 10.81456347
  11.35107333 -3.63509297 10.81721323
   7.49760433  0.19966046  2.04345109
  11.33093773  0.19936228  2.03458917
   7.48894771  4.04795517  2.03004584
   3.64591042 -3.64570082  2.03785289
   9.41493767  2.12060842  4.37631973
   5.56413331 -5.57684979  4.38308530
   1.72336052 -1.71317494  4.38602615
   5.56384135 -1.70862577  4.38280796
   5.56744129 -1.70511911  8.46729593
   9.40367723 -1.84780784  8.39243136
   5.57314289  2.11494640  8.46163256
   1.73004716 -5.56687469  8.47369798
   7.50467926  0.20677219 10.80028471
   3.64979883 -7.48465268 10.81551463
  -0.19229724 -3.63603358 10.82004762
   3.65307224 -3.63862077 10.81859582
   1.72199139  0.47922118  0.00602097
   9.42324146 -3.91935728 12.84740178
   9.41265170 -3.92994837 -0.00003352
   1.73258788  0.48978362 12.84669741
   2.03574411  0.19403537  6.42633429
   5.30618921  0.20171646  6.42369905
   7.52949972 -1.53653073  6.42331172
   5.87165032 -3.64094277  6.42650627
  -0.19909836 -1.43459945  6.42954733
  11.31126046 -2.08027209  6.42048174
   7.52776280 -5.74513243  6.42678593
   3.61893867  2.49403517  6.42325574
   0.09355523 -1.70998258 12.85231384
   7.21623087  2.12293585 -0.00746270
  11.04856160 -1.72283337 -0.00003775
   7.77209454 -1.72508081  0.00233043
   9.41157259  0.48487246 -0.00813418
   5.56764372 -0.07347946  0.00214151
   5.57821291 -0.06289572 12.84519781
   1.73380984 -7.19566328 12.86092593
   9.72824267  0.21679591  6.41990477
   5.30580772 -7.48042454  6.42998127
   1.44638020 -3.64045379  6.42990299
   5.86677717  4.05206404  6.42011785
   3.65468497 -2.00709497  6.42689191
   7.49213112  1.84608144  6.42048725
   3.65690456 -5.27289720  6.42958514
   7.78264233 -1.71447895 12.84419970
   3.37069496 -9.40334429 12.85366336
  -0.46154953 -5.55755233 12.86113520
   7.77135672  5.97053776 -0.00583568
   1.72632010 -1.72204858  6.42824959
   7.49237030  0.19705342  0.00008834
   7.50178935 -7.47565410 12.85180328
   5.55482094  2.13700031  6.42192769
   3.64233447  0.20362720  0.00232326
   5.58454402 -1.73169716  6.42509058
   9.44391121 -5.63408004  6.42493598
   3.65295839  0.21423323 12.84768080
   9.44659804 -1.64281936  6.42139218
   7.49120261 -7.48628831  0.00462167
   7.50293240  0.20767651 12.84359433
   5.58493163 -5.54969706  6.42821695
  11.33474346  0.19690069 -0.00803098
  13.24499629 -1.72197709  6.41871044
   1.72965387 -5.55866801  6.43138066
   3.65702170 -7.48356005 12.85820743
   9.41892375 -5.56285564  1.99206820
   5.56960115  2.12621039  1.94304726
   9.41666670 -1.72090712  1.98779522
  13.26056724 -1.71953563  1.93409902
   7.47409119 -7.49886263  4.47337120
   3.67477061  0.16247484  4.46253504
   7.48171529 -3.64124740  4.45210075
  11.37185437 -3.63917453  4.44569102
   7.47734061 -7.49561495  8.38308205
   3.67799762  0.16572703  8.38757514
   7.48502877 -3.63797501  8.39808993
  11.37517456 -3.63591789  8.39802254
   5.57960301 -9.40321540 10.91594973
   1.73042055 -1.71756805 10.90979174
   5.57668164 -5.55623487 10.91640353
   9.42624159 -5.55553768 10.85802862
   9.41123824  2.12786650  1.93610304
   5.56921591 -5.56370171  1.94002450
   1.72297143 -1.72501412  1.94662986
   5.56862666 -1.72513238  1.94348851
   7.47252684  0.21787566  4.46679001
  11.36517267  0.24544115  4.45450572
   7.49332449  4.04966901  4.46200538
   3.64529304 -3.64187854  4.46791951
   7.47570045  0.22112549  8.37698304
   3.67998518 -7.44245104  8.39544044
  -0.19186770 -3.63823189  8.38802486
   3.64851542 -3.63868728  8.38846017
   5.57604436 -1.71769897 10.90664053
   9.42398209 -1.71362483 10.85586502
   5.57700169  2.13360986 10.90072596
   1.73022843 -5.55579056 10.91394346



--------------------------------------------------------------------------------------------------------


 k-point   1 :   0.0000 0.0000 0.0000  plane waves:   40887
 k-point   2 :   0.5000 0.0000 0.0000  plane waves:   40892
 k-point   3 :   0.0000 0.5000 0.0000  plane waves:   40934
 k-point   4 :   0.0000 0.5000 0.5000  plane waves:   40934
 k-point   5 :   0.5000 0.5000 0.0000  plane waves:   40932
 k-point   6 :   0.5000 0.5000 0.5000  plane waves:   40932
 k-point   7 :   0.0000 0.0000 0.5000  plane waves:   40952
 k-point   8 :   0.5000 0.0000 0.5000  plane waves:   40976

 maximum and minimum number of plane-waves per node :      5179     5066

 maximum number of plane-waves:     40976
 maximum index in each direction: 
   IXMAX=   20   IYMAX=   20   IZMAX=   25
   IXMIN=  -20   IYMIN=  -20   IZMIN=  -26


 parallel 3D FFT for wavefunctions:
    minimum data exchange during FFTs selected (reduces bandwidth)
 parallel 3D FFT for charge:
    minimum data exchange during FFTs selected (reduces bandwidth)


 total amount of memory used by VASP MPI-rank0   392450. kBytes
=======================================================================

   base      :      30000. kBytes
   nonl-proj :      32788. kBytes
   fftplans  :       6555. kBytes
   grid      :      18544. kBytes
   one-center:        435. kBytes
   wavefun   :     304128. kBytes

     INWAV:  cpu time    0.0001: real time    0.0001
 Broyden mixing: mesh for mixing (old mesh)
   NGX = 41   NGY = 41   NGZ = 51
  (NGX  =168   NGY  =168   NGZ  =216)
  gives a total of  85731 points

 initial charge density was supplied:
 charge density of overlapping atoms calculated
 number of electron     829.0000000 magnetization     207.4000000
 keeping initial charge density in first step


--------------------------------------------------------------------------------------------------------


 Maximum index for augmentation-charges          711 (set IRDMAX)


--------------------------------------------------------------------------------------------------------


 First call to EWALD:  gamma=   0.154
 Maximum number of real-space cells 3x 3x 3
 Maximum number of reciprocal cells 3x 3x 3

    FEWALD:  cpu time    0.1146: real time    0.1147


--------------------------------------- Iteration      1(   1)  ---------------------------------------


    POTLOK:  cpu time    0.2633: real time    0.2635
    SETDIJ:  cpu time    0.8422: real time    0.8428
    TRIAL :  cpu time   12.3281: real time   12.3323
    CORREC:  cpu time    0.0034: real time    0.0034
    --------------------------------------------
      LOOP:  cpu time   13.6990: real time   13.7040

 eigenvalue-minimisations  : 19992
 total energy-change (2. order) : 0.1077339E+05  (-0.4173332E+05)
 number of electron     829.0000000 magnetization     207.4000000
 augmentation part      829.0000000 magnetization     207.4000000

 Free energy of the ion-electron system (eV)
  ---------------------------------------------------
  alpha Z        PSCENC =      2332.72493728
  Ewald energy   TEWEN  =    -61290.21044808
  -Hartree energ DENC   =    -32041.40391959
  -exchange      EXHF   =         0.00000000
  -V(xc)+E(xc)   XCENC  =      3557.10814986
  PAW double counting   =     78939.49469920   -81928.53671730
  entropy T*S    EENTRO =        -0.03277000
  eigenvalues    EBANDS =       504.90593653
  atomic energy  EATOM  =    100699.33914061
  ---------------------------------------------------
  free energy    TOTEN  =     10773.38900850 eV

  energy without entropy =    10773.42177850  energy(sigma->0) =    10773.40539350


--------------------------------------------------------------------------------------------------------




--------------------------------------- Iteration      1(   2)  ---------------------------------------


    TRIAL :  cpu time   11.8764: real time   11.8811
    CORREC:  cpu time    0.0027: real time    0.0027
    --------------------------------------------
      LOOP:  cpu time   11.8875: real time   11.9124

 eigenvalue-minimisations  : 19200
 total energy-change (2. order) :-0.9665661E+04  (-0.8887497E+04)
 number of electron     829.0000000 magnetization     207.4000000
 augmentation part      829.0000000 magnetization     207.4000000

 Free energy of the ion-electron system (eV)
  ---------------------------------------------------
  alpha Z        PSCENC =      2332.72493728
  Ewald energy   TEWEN  =    -61290.21044808
  -Hartree energ DENC   =    -32041.40391959
  -exchange      EXHF   =         0.00000000
  -V(xc)+E(xc)   XCENC  =      3557.10814986
  PAW double counting   =     78939.49469920   -81928.53671730
  entropy T*S    EENTRO =        -0.08119877
  eigenvalues    EBANDS =     -9160.70665315
  atomic energy  EATOM  =    100699.33914061
  ---------------------------------------------------
  free energy    TOTEN  =      1107.72799005 eV

  energy without entropy =     1107.80918882  energy(sigma->0) =     1107.76858944


--------------------------------------------------------------------------------------------------------




--------------------------------------- Iteration      1(   3)  ---------------------------------------


    TRIAL :  cpu time   12.6275: real time   12.6324
    CORREC:  cpu time    0.0030: real time    0.0030
    --------------------------------------------
      LOOP:  cpu time   12.6408: real time   12.6632

 eigenvalue-minimisations  : 20688
 total energy-change (2. order) :-0.1577045E+04  (-0.1472975E+04)
 number of electron     829.0000000 magnetization     207.4000000
 augmentation part      829.0000000 magnetization     207.4000000

 Free energy of the ion-electron system (eV)
  ---------------------------------------------------
  alpha Z        PSCENC =      2332.72493728
  Ewald energy   TEWEN  =    -61290.21044808
  -Hartree energ DENC   =    -32041.40391959
  -exchange      EXHF   =         0.00000000
  -V(xc)+E(xc)   XCENC  =      3557.10814986
  PAW double counting   =     78939.49469920   -81928.53671730
  entropy T*S    EENTRO =        -0.05678089
  eigenvalues    EBANDS =    -10737.77591227
  atomic energy  EATOM  =    100699.33914061
  ---------------------------------------------------
  free energy    TOTEN  =      -469.31685119 eV

  energy without entropy =     -469.26007030  energy(sigma->0) =     -469.28846074


--------------------------------------------------------------------------------------------------------




--------------------------------------- Iteration      1(   4)  ---------------------------------------


    TRIAL :  cpu time   14.6382: real time   14.6444
    CORREC:  cpu time    0.0031: real time    0.0031
    --------------------------------------------
      LOOP:  cpu time   14.6497: real time   14.6772

 eigenvalue-minimisations  : 25088
 total energy-change (2. order) :-0.1774768E+03  (-0.1738868E+03)
 number of electron     829.0000000 magnetization     207.4000000
 augmentation part      829.0000000 magnetization     207.4000000

 Free energy of the ion-electron system (eV)
  ---------------------------------------------------
  alpha Z        PSCENC =      2332.72493728
  Ewald energy   TEWEN  =    -61290.21044808
  -Hartree energ DENC   =    -32041.40391959
  -exchange      EXHF   =         0.00000000
  -V(xc)+E(xc)   XCENC  =      3557.10814986
  PAW double counting   =     78939.49469920   -81928.53671730
  entropy T*S    EENTRO =        -0.06414627
  eigenvalues    EBANDS =    -10915.24535369
  atomic energy  EATOM  =    100699.33914061
  ---------------------------------------------------
  free energy    TOTEN  =      -646.79365799 eV

  energy without entropy =     -646.72951172  energy(sigma->0) =     -646.76158485


--------------------------------------------------------------------------------------------------------




--------------------------------------- Iteration      1(   5)  ---------------------------------------


    TRIAL :  cpu time   18.5397: real time   18.5477
    CORREC:  cpu time    0.0033: real time    0.0033
    CHARGE:  cpu time    0.2276: real time    0.2277
    --------------------------------------------
      LOOP:  cpu time   18.7826: real time   18.8082

 eigenvalue-minimisations  : 33376
 total energy-change (2. order) :-0.2021638E+02  (-0.1984065E+02)
 number of electron     828.0000029 magnetization     149.0782766
 augmentation part      262.8374604 magnetization      92.0109131

 Free energy of the ion-electron system (eV)
  ---------------------------------------------------
  alpha Z        PSCENC =      2332.72493728
  Ewald energy   TEWEN  =    -61290.21044808
  -Hartree energ DENC   =    -32041.40391959
  -exchange      EXHF   =         0.00000000
  -V(xc)+E(xc)   XCENC  =      3557.10814986
  PAW double counting   =     78939.49469920   -81928.53671730
  entropy T*S    EENTRO =        -0.07815928
  eigenvalues    EBANDS =    -10935.44772312
  atomic energy  EATOM  =    100699.33914061
  ---------------------------------------------------
  free energy    TOTEN  =      -667.01004042 eV

  energy without entropy =     -666.93188115  energy(sigma->0) =     -666.97096078


--------------------------------------------------------------------------------------------------------




--------------------------------------- Iteration      1(   6)  ---------------------------------------


    POTLOK:  cpu time    0.2516: real time    0.2516
    SETDIJ:  cpu time    0.8301: real time    0.8304
    TRIAL :  cpu time    6.8308: real time    6.8339
    CORREC:  cpu time    2.5992: real time    2.5996
    CHARGE:  cpu time    0.2273: real time    0.2275
    --------------------------------------------
      LOOP:  cpu time   10.7503: real time   10.7732

 eigenvalue-minimisations  :     0
 total energy-change (2. order) : 0.6331796E+03  (-0.4248745E+03)
 number of electron     828.0000026 magnetization     132.4274256
 augmentation part      288.2366389 magnetization      94.0761165

 Free energy of the ion-electron system (eV)
  ---------------------------------------------------
  alpha Z        PSCENC =      2332.72493728
  Ewald energy   TEWEN  =    -61290.21044808
  -Hartree energ DENC   =    -26975.46024337
  -exchange      EXHF   =         0.00000000
  -V(xc)+E(xc)   XCENC  =      3425.62948505
  PAW double counting   =     87789.46685639   -90453.37337015
  entropy T*S    EENTRO =        -0.07250465
  eigenvalues    EBANDS =    -15561.86861054
  atomic energy  EATOM  =    100699.33914061
  ---------------------------------------------------
  free energy    TOTEN  =       -33.83041209 eV

  energy without entropy =      -33.75790744  energy(sigma->0) =      -33.79415977


--------------------------------------------------------------------------------------------------------




--------------------------------------- Iteration      1(   7)  ---------------------------------------


    POTLOK:  cpu time    0.2532: real time    0.2532
    SETDIJ:  cpu time    0.8273: real time    0.8274
    TRIAL :  cpu time    6.6979: real time    6.7013
    CORREC:  cpu time    2.5907: real time    2.5912
    CHARGE:  cpu time    0.2261: real time    0.2261
    --------------------------------------------
      LOOP:  cpu time   10.6053: real time   10.6297

 eigenvalue-minimisations  :     0
 total energy-change (2. order) :-0.4317512E+03  (-0.4910051E+02)
 number of electron     828.0000025 magnetization     131.0004388
 augmentation part      287.7416993 magnetization      93.2434449

 Free energy of the ion-electron system (eV)
  ---------------------------------------------------
  alpha Z        PSCENC =      2332.72493728
  Ewald energy   TEWEN  =    -61290.21044808
  -Hartree energ DENC   =    -30517.25917039
  -exchange      EXHF   =         0.00000000
  -V(xc)+E(xc)   XCENC  =      3531.03096647
  PAW double counting   =     97421.77956644  -100723.00212748
  entropy T*S    EENTRO =        -0.07569313
  eigenvalues    EBANDS =    -11919.91196728
  atomic energy  EATOM  =    100699.33914061
  ---------------------------------------------------
  free energy    TOTEN  =      -465.58160710 eV

  energy without entropy =     -465.50591396  energy(sigma->0) =     -465.54376053


--------------------------------------------------------------------------------------------------------




--------------------------------------- Iteration      1(   8)  ---------------------------------------


    POTLOK:  cpu time    0.2515: real time    0.2516
    SETDIJ:  cpu time    0.8290: real time    0.8295
    TRIAL :  cpu time    6.6794: real time    6.6819
    CORREC:  cpu time    2.6007: real time    2.6014
    CHARGE:  cpu time    0.2250: real time    0.2250
    --------------------------------------------
      LOOP:  cpu time   10.5962: real time   10.6215

 eigenvalue-minimisations  :     0
 total energy-change (2. order) :-0.4257400E+02  (-0.1592826E+02)
 number of electron     828.0000023 magnetization     130.7506600
 augmentation part      286.3540861 magnetization      92.6712763

 Free energy of the ion-electron system (eV)
  ---------------------------------------------------
  alpha Z        PSCENC =      2332.72493728
  Ewald energy   TEWEN  =    -61290.21044808
  -Hartree energ DENC   =    -30676.88808225
  -exchange      EXHF   =         0.00000000
  -V(xc)+E(xc)   XCENC  =      3522.89906951
  PAW double counting   =     99208.03395203  -102466.60186206
  entropy T*S    EENTRO =        -0.11057838
  eigenvalues    EBANDS =    -11837.37662474
  atomic energy  EATOM  =    100699.33914061
  ---------------------------------------------------
  free energy    TOTEN  =      -508.15561083 eV

  energy without entropy =     -508.04503245  energy(sigma->0) =     -508.10032164


--------------------------------------------------------------------------------------------------------




--------------------------------------- Iteration      1(   9)  ---------------------------------------


    POTLOK:  cpu time    0.2515: real time    0.2515
    SETDIJ:  cpu time    0.8254: real time    0.8259
    TRIAL :  cpu time    6.8455: real time    6.8483
    CORREC:  cpu time    2.5914: real time    2.5918
    CHARGE:  cpu time    0.2238: real time    0.2239
    --------------------------------------------
      LOOP:  cpu time   10.7476: real time   10.7709

 eigenvalue-minimisations  :     0
 total energy-change (2. order) :-0.2153973E+02  (-0.5784959E+01)
 number of electron     828.0000023 magnetization     130.3833866
 augmentation part      285.4988972 magnetization      91.9809082

 Free energy of the ion-electron system (eV)
  ---------------------------------------------------
  alpha Z        PSCENC =      2332.72493728
  Ewald energy   TEWEN  =    -61290.21044808
  -Hartree energ DENC   =    -30590.78425322
  -exchange      EXHF   =         0.00000000
  -V(xc)+E(xc)   XCENC  =      3513.42770315
  PAW double counting   =     99534.30716859  -102737.13443281
  entropy T*S    EENTRO =        -0.11566311
  eigenvalues    EBANDS =    -11991.25457929
  atomic energy  EATOM  =    100699.33914061
  ---------------------------------------------------
  free energy    TOTEN  =      -529.69534216 eV

  energy without entropy =     -529.57967905  energy(sigma->0) =     -529.63751061


--------------------------------------------------------------------------------------------------------




--------------------------------------- Iteration      1(  10)  ---------------------------------------


    POTLOK:  cpu time    0.2517: real time    0.2518
    SETDIJ:  cpu time    0.8246: real time    0.8247
    TRIAL :  cpu time    6.6786: real time    6.6811
    CORREC:  cpu time    2.5904: real time    2.5909
    CHARGE:  cpu time    0.2242: real time    0.2243
    --------------------------------------------
      LOOP:  cpu time   10.5986: real time   10.6020

 eigenvalue-minimisations  :     0
 total energy-change (2. order) :-0.5554009E+01  (-0.6600983E+01)
 number of electron     828.0000023 magnetization     130.0000084
 augmentation part      283.9883509 magnetization      90.6343865

 Free energy of the ion-electron system (eV)
  ---------------------------------------------------
  alpha Z        PSCENC =      2332.72493728
  Ewald energy   TEWEN  =    -61290.21044808
  -Hartree energ DENC   =    -30546.50624754
  -exchange      EXHF   =         0.00000000
  -V(xc)+E(xc)   XCENC  =      3509.13128888
  PAW double counting   =     99287.49589642  -102450.65041113
  entropy T*S    EENTRO =        -0.12568742
  eigenvalues    EBANDS =    -12076.45784467
  atomic energy  EATOM  =    100699.33914061
  ---------------------------------------------------
  free energy    TOTEN  =      -535.24935135 eV

  energy without entropy =     -535.12366393  energy(sigma->0) =     -535.18650764


--------------------------------------------------------------------------------------------------------




--------------------------------------- Iteration      1(  11)  ---------------------------------------


    POTLOK:  cpu time    0.2504: real time    0.2507
    SETDIJ:  cpu time    0.8275: real time    0.8280
    TRIAL :  cpu time    6.7229: real time    6.7258
    CORREC:  cpu time    2.5943: real time    2.5949
    CHARGE:  cpu time    0.2236: real time    0.2236
    --------------------------------------------
      LOOP:  cpu time   10.6300: real time   10.6503

 eigenvalue-minimisations  :     0
 total energy-change (2. order) :-0.6159508E+01  (-0.6232458E+01)
 number of electron     828.0000024 magnetization     130.0000041
 augmentation part      282.5855780 magnetization      89.2721590

 Free energy of the ion-electron system (eV)
  ---------------------------------------------------
  alpha Z        PSCENC =      2332.72493728
  Ewald energy   TEWEN  =    -61290.21044808
  -Hartree energ DENC   =    -30478.92313444
  -exchange      EXHF   =         0.00000000
  -V(xc)+E(xc)   XCENC  =      3502.41102089
  PAW double counting   =     98732.25970862  -101827.73226573
  entropy T*S    EENTRO =        -0.09852432
  eigenvalues    EBANDS =    -12211.15213155
  atomic energy  EATOM  =    100699.33914061
  ---------------------------------------------------
  free energy    TOTEN  =      -541.40885981 eV

  energy without entropy =     -541.31033549  energy(sigma->0) =     -541.35959765


--------------------------------------------------------------------------------------------------------




--------------------------------------- Iteration      1(  12)  ---------------------------------------


    POTLOK:  cpu time    0.2517: real time    0.2517
    SETDIJ:  cpu time    0.8286: real time    0.8287
    TRIAL :  cpu time    6.6787: real time    6.6810
    CORREC:  cpu time    2.5956: real time    2.5962
    CHARGE:  cpu time    0.2226: real time    0.2228
    --------------------------------------------
      LOOP:  cpu time   10.5893: real time   10.6114

 eigenvalue-minimisations  :     0
 total energy-change (2. order) :-0.3947145E+01  (-0.2989150E+01)
 number of electron     828.0000025 magnetization     130.0000040
 augmentation part      282.7734049 magnetization      88.5025200

 Free energy of the ion-electron system (eV)
  ---------------------------------------------------
  alpha Z        PSCENC =      2332.72493728
  Ewald energy   TEWEN  =    -61290.21044808
  -Hartree energ DENC   =    -30428.45559379
  -exchange      EXHF   =         0.00000000
  -V(xc)+E(xc)   XCENC  =      3496.80518044
  PAW double counting   =     98297.84198509  -101336.74030432
  entropy T*S    EENTRO =        -0.06746880
  eigenvalues    EBANDS =    -12316.56237781
  atomic energy  EATOM  =    100699.33914061
  ---------------------------------------------------
  free energy    TOTEN  =      -545.35600491 eV

  energy without entropy =     -545.28853611  energy(sigma->0) =     -545.32227051


--------------------------------------------------------------------------------------------------------




--------------------------------------- Iteration      1(  13)  ---------------------------------------


    POTLOK:  cpu time    0.2502: real time    0.2502
    SETDIJ:  cpu time    0.8287: real time    0.8288
    TRIAL :  cpu time    6.6746: real time    6.6774
    CORREC:  cpu time    2.6000: real time    2.6006
    CHARGE:  cpu time    0.2248: real time    0.2248
    --------------------------------------------
      LOOP:  cpu time   10.5892: real time   10.6118

 eigenvalue-minimisations  :     0
 total energy-change (2. order) :-0.2441439E+01  (-0.2201480E+01)
 number of electron     828.0000025 magnetization     130.0000040
 augmentation part      283.6987212 magnetization      88.0012034

 Free energy of the ion-electron system (eV)
  ---------------------------------------------------
  alpha Z        PSCENC =      2332.72493728
  Ewald energy   TEWEN  =    -61290.21044808
  -Hartree energ DENC   =    -30520.89655621
  -exchange      EXHF   =         0.00000000
  -V(xc)+E(xc)   XCENC  =      3498.72788004
  PAW double counting   =     98219.49990494  -101257.56401709
  entropy T*S    EENTRO =        -0.09955782
  eigenvalues    EBANDS =    -12229.35081702
  atomic energy  EATOM  =    100699.33914061
  ---------------------------------------------------
  free energy    TOTEN  =      -547.79744434 eV

  energy without entropy =     -547.69788652  energy(sigma->0) =     -547.74766543


--------------------------------------------------------------------------------------------------------




--------------------------------------- Iteration      1(  14)  ---------------------------------------


    POTLOK:  cpu time    0.2506: real time    0.2507
    SETDIJ:  cpu time    0.8303: real time    0.8309
    TRIAL :  cpu time    6.6825: real time    6.6850
    CORREC:  cpu time    2.5985: real time    2.5992
    CHARGE:  cpu time    0.2228: real time    0.2228
    --------------------------------------------
      LOOP:  cpu time   10.5957: real time   10.6188

 eigenvalue-minimisations  :     0
 total energy-change (2. order) :-0.2981464E+01  (-0.1903068E+01)
 number of electron     828.0000025 magnetization     130.0000041
 augmentation part      284.5942693 magnetization      87.6896152

 Free energy of the ion-electron system (eV)
  ---------------------------------------------------
  alpha Z        PSCENC =      2332.72493728
  Ewald energy   TEWEN  =    -61290.21044808
  -Hartree energ DENC   =    -30685.93765373
  -exchange      EXHF   =         0.00000000
  -V(xc)+E(xc)   XCENC  =      3504.17129826
  PAW double counting   =     98257.15113797  -101319.48617735
  entropy T*S    EENTRO =        -0.15261916
  eigenvalues    EBANDS =    -12048.43158541
  atomic energy  EATOM  =    100699.33914061
  ---------------------------------------------------
  free energy    TOTEN  =      -550.77890827 eV

  energy without entropy =     -550.62628911  energy(sigma->0) =     -550.70259869


--------------------------------------------------------------------------------------------------------




--------------------------------------- Iteration      1(  15)  ---------------------------------------


    POTLOK:  cpu time    0.2510: real time    0.2511
    SETDIJ:  cpu time    0.8300: real time    0.8301
    TRIAL :  cpu time    6.6663: real time    6.6690
    CORREC:  cpu time    2.6008: real time    2.6013
    CHARGE:  cpu time    0.2250: real time    0.2251
    --------------------------------------------
      LOOP:  cpu time   10.5854: real time   10.6050

 eigenvalue-minimisations  :     0
 total energy-change (2. order) :-0.1654530E+01  (-0.2167089E+01)
 number of electron     828.0000025 magnetization     130.0000041
 augmentation part      284.6157941 magnetization      87.6691959

 Free energy of the ion-electron system (eV)
  ---------------------------------------------------
  alpha Z        PSCENC =      2332.72493728
  Ewald energy   TEWEN  =    -61290.21044808
  -Hartree energ DENC   =    -30829.92737286
  -exchange      EXHF   =         0.00000000
  -V(xc)+E(xc)   XCENC  =      3509.18674023
  PAW double counting   =     98253.82305204  -101342.11099030
  entropy T*S    EENTRO =        -0.13797964
  eigenvalues    EBANDS =    -11885.10587805
  atomic energy  EATOM  =    100699.33914061
  ---------------------------------------------------
  free energy    TOTEN  =      -552.43343830 eV

  energy without entropy =     -552.29545866  energy(sigma->0) =     -552.36444848


--------------------------------------------------------------------------------------------------------




--------------------------------------- Iteration      1(  16)  ---------------------------------------


    POTLOK:  cpu time    0.2519: real time    0.2520
    SETDIJ:  cpu time    0.8281: real time    0.8286
    TRIAL :  cpu time    6.6680: real time    6.6711
    CORREC:  cpu time    2.5786: real time    2.5791
    CHARGE:  cpu time    0.2241: real time    0.2241
    --------------------------------------------
      LOOP:  cpu time   10.5636: real time   10.5850

 eigenvalue-minimisations  :     0
 total energy-change (2. order) :-0.1319280E+01  (-0.1731328E+01)
 number of electron     828.0000024 magnetization     130.0000042
 augmentation part      284.6963724 magnetization      87.5833068

 Free energy of the ion-electron system (eV)
  ---------------------------------------------------
  alpha Z        PSCENC =      2332.72493728
  Ewald energy   TEWEN  =    -61290.21044808
  -Hartree energ DENC   =    -30825.18357614
  -exchange      EXHF   =         0.00000000
  -V(xc)+E(xc)   XCENC  =      3509.22152101
  PAW double counting   =     98133.96472578  -101223.82276637
  entropy T*S    EENTRO =        -0.13930295
  eigenvalues    EBANDS =    -11889.64827231
  atomic energy  EATOM  =    100699.33914061
  ---------------------------------------------------
  free energy    TOTEN  =      -553.75271789 eV

  energy without entropy =     -553.61341494  energy(sigma->0) =     -553.68306641


--------------------------------------------------------------------------------------------------------




--------------------------------------- Iteration      1(  17)  ---------------------------------------


    POTLOK:  cpu time    0.2522: real time    0.2522
    SETDIJ:  cpu time    0.8265: real time    0.8270
    TRIAL :  cpu time    6.6601: real time    6.6632
    CORREC:  cpu time    2.5940: real time    2.5945
    CHARGE:  cpu time    0.2236: real time    0.2237
    --------------------------------------------
      LOOP:  cpu time   10.5662: real time   10.5911

 eigenvalue-minimisations  :     0
 total energy-change (2. order) :-0.1678564E+01  (-0.1867500E+01)
 number of electron     828.0000023 magnetization     130.0000044
 augmentation part      284.7978782 magnetization      87.4738286

 Free energy of the ion-electron system (eV)
  ---------------------------------------------------
  alpha Z        PSCENC =      2332.72493728
  Ewald energy   TEWEN  =    -61290.21044808
  -Hartree energ DENC   =    -30815.21849452
  -exchange      EXHF   =         0.00000000
  -V(xc)+E(xc)   XCENC  =      3509.40449762
  PAW double counting   =     97718.10379240  -100812.92445326
  entropy T*S    EENTRO =        -0.11655122
  eigenvalues    EBANDS =    -11896.51095142
  atomic energy  EATOM  =    100699.33914061
  ---------------------------------------------------
  free energy    TOTEN  =      -555.43128232 eV

  energy without entropy =     -555.31473111  energy(sigma->0) =     -555.37300671


--------------------------------------------------------------------------------------------------------




--------------------------------------- Iteration      1(  18)  ---------------------------------------


    POTLOK:  cpu time    0.2511: real time    0.2511
    SETDIJ:  cpu time    0.8276: real time    0.8277
    TRIAL :  cpu time    6.6572: real time    6.6598
    CORREC:  cpu time    2.5897: real time    2.5903
    CHARGE:  cpu time    0.2238: real time    0.2239
    --------------------------------------------
      LOOP:  cpu time   10.5785: real time   10.5823

 eigenvalue-minimisations  :     0
 total energy-change (2. order) :-0.9116832E+00  (-0.1350045E+01)
 number of electron     828.0000022 magnetization     130.0000045
 augmentation part      284.8905647 magnetization      87.3585276

 Free energy of the ion-electron system (eV)
  ---------------------------------------------------
  alpha Z        PSCENC =      2332.72493728
  Ewald energy   TEWEN  =    -61290.21044808
  -Hartree energ DENC   =    -30810.14500756
  -exchange      EXHF   =         0.00000000
  -V(xc)+E(xc)   XCENC  =      3509.74055256
  PAW double counting   =     97356.79397907  -100456.24353161
  entropy T*S    EENTRO =        -0.07451671
  eigenvalues    EBANDS =    -11898.22603657
  atomic energy  EATOM  =    100699.33914061
  ---------------------------------------------------
  free energy    TOTEN  =      -556.34296552 eV

  energy without entropy =     -556.26844882  energy(sigma->0) =     -556.30570717


--------------------------------------------------------------------------------------------------------




--------------------------------------- Iteration      1(  19)  ---------------------------------------


    POTLOK:  cpu time    0.2499: real time    0.2499
    SETDIJ:  cpu time    0.8322: real time    0.8323
    TRIAL :  cpu time    6.6553: real time    6.6578
    CORREC:  cpu time    2.5894: real time    2.5901
    CHARGE:  cpu time    0.2236: real time    0.2238
    --------------------------------------------
      LOOP:  cpu time   10.5597: real time   10.5807

 eigenvalue-minimisations  :     0
 total energy-change (2. order) :-0.1005722E+01  (-0.4003919E+00)
 number of electron     828.0000022 magnetization     130.0000045
 augmentation part      284.9019066 magnetization      87.3221225

 Free energy of the ion-electron system (eV)
  ---------------------------------------------------
  alpha Z        PSCENC =      2332.72493728
  Ewald energy   TEWEN  =    -61290.21044808
  -Hartree energ DENC   =    -30800.08197448
  -exchange      EXHF   =         0.00000000
  -V(xc)+E(xc)   XCENC  =      3509.96450885
  PAW double counting   =     96954.40769996  -100059.29392097
  entropy T*S    EENTRO =        -0.05589744
  eigenvalues    EBANDS =    -11904.12411379
  atomic energy  EATOM  =    100699.33914061
  ---------------------------------------------------
  free energy    TOTEN  =      -557.34868733 eV

  energy without entropy =     -557.29278990  energy(sigma->0) =     -557.32073862


--------------------------------------------------------------------------------------------------------




--------------------------------------- Iteration      1(  20)  ---------------------------------------


    POTLOK:  cpu time    0.2531: real time    0.2532
    SETDIJ:  cpu time    0.8284: real time    0.8287
    TRIAL :  cpu time    6.6613: real time    6.6642
    CORREC:  cpu time    2.5915: real time    2.5922
    CHARGE:  cpu time    0.2233: real time    0.2233
    --------------------------------------------
      LOOP:  cpu time   10.5702: real time   10.5926

 eigenvalue-minimisations  :     0
 total energy-change (2. order) :-0.3814956E+00  (-0.5730786E+00)
 number of electron     828.0000022 magnetization     130.0000045
 augmentation part      284.8798522 magnetization      87.2571835

 Free energy of the ion-electron system (eV)
  ---------------------------------------------------
  alpha Z        PSCENC =      2332.72493728
  Ewald energy   TEWEN  =    -61290.21044808
  -Hartree energ DENC   =    -30803.07247448
  -exchange      EXHF   =         0.00000000
  -V(xc)+E(xc)   XCENC  =      3509.94086474
  PAW double counting   =     96936.61368233  -100041.28790108
  entropy T*S    EENTRO =        -0.02980030
  eigenvalues    EBANDS =    -11901.72208683
  atomic energy  EATOM  =    100699.33914061
  ---------------------------------------------------
  free energy    TOTEN  =      -557.73018295 eV

  energy without entropy =     -557.70038265  energy(sigma->0) =     -557.71528280


--------------------------------------------------------------------------------------------------------




--------------------------------------- Iteration      1(  21)  ---------------------------------------


    POTLOK:  cpu time    0.2515: real time    0.2517
    SETDIJ:  cpu time    0.8309: real time    0.8309
    TRIAL :  cpu time    6.6649: real time    6.6679
    CORREC:  cpu time    2.6104: real time    2.6114
    CHARGE:  cpu time    0.2257: real time    0.2257
    --------------------------------------------
      LOOP:  cpu time   10.5923: real time   10.6172

 eigenvalue-minimisations  :     0
 total energy-change (2. order) :-0.5860940E+00  (-0.4414328E+00)
 number of electron     828.0000022 magnetization     130.0000045
 augmentation part      284.8181692 magnetization      87.2022537

 Free energy of the ion-electron system (eV)
  ---------------------------------------------------
  alpha Z        PSCENC =      2332.72493728
  Ewald energy   TEWEN  =    -61290.21044808
  -Hartree energ DENC   =    -30809.00089882
  -exchange      EXHF   =         0.00000000
  -V(xc)+E(xc)   XCENC  =      3509.67651144
  PAW double counting   =     97017.19300994  -100119.34891547
  entropy T*S    EENTRO =        -0.01991190
  eigenvalues    EBANDS =    -11898.65981351
  atomic energy  EATOM  =    100699.33914061
  ---------------------------------------------------
  free energy    TOTEN  =      -558.31627691 eV

  energy without entropy =     -558.29636502  energy(sigma->0) =     -558.30632097


--------------------------------------------------------------------------------------------------------




--------------------------------------- Iteration      1(  22)  ---------------------------------------


    POTLOK:  cpu time    0.2527: real time    0.2527
    SETDIJ:  cpu time    0.8320: real time    0.8322
    TRIAL :  cpu time    6.6732: real time    6.6765
    CORREC:  cpu time    2.6139: real time    2.6144
[...]
      5.56747     -1.70531      8.46730        -0.005350     -0.001079     -0.011905
      9.40345     -1.84860      8.39290        -0.001685     -0.021447     -0.002825
      5.57352      2.11476      8.46128         0.003118     -0.004550     -0.010359
      1.72993     -5.56763      8.47381        -0.004503     -0.015130     -0.007901
      7.50534      0.20629     10.80017         0.010317     -0.010063     -0.006296
      3.64907     -7.48484     10.81506        -0.012284     -0.004491     -0.009529
     -0.19214     -3.63599     10.82021        -0.002283      0.000137     -0.005469
      3.65286     -3.63865     10.81888        -0.000774     -0.000999     -0.001844
      1.72228      0.47943      0.00644        -0.000338      0.002489      0.003957
      9.42310     -3.91959     12.84709        -0.000732     -0.004535     -0.002317
      9.41256     -3.93021      0.00023        -0.001207     -0.004393      0.001735
      1.73270      0.48990     12.84642        -0.000196      0.002550     -0.003214
      2.03599      0.19316      6.42630         0.006725     -0.008889      0.000026
      5.30660      0.20162      6.42370         0.006650     -0.001531     -0.000683
      7.52970     -1.53759      6.42336         0.004111     -0.015629     -0.000801
      5.87131     -3.64139      6.42650        -0.008542     -0.000075     -0.000286
     -0.19926     -1.43403      6.42955         0.002636      0.007245     -0.000724
     11.31162     -2.08078      6.42048         0.000917     -0.007769      0.000710
      7.52753     -5.74418      6.42678         0.004041      0.015614     -0.000268
      3.61888      2.49472      6.42315         0.000786      0.007398      0.000454
      0.09350     -1.71026     12.85227        -0.000356     -0.001464     -0.001691
      7.21636      2.12293     -0.00752         0.001933      0.000610      0.001511
     11.04822     -1.72287      0.00012        -0.004436      0.000320      0.001616
      7.77220     -1.72480      0.00263         0.002833      0.001846      0.004175
      9.41132      0.48482     -0.00790        -0.000424     -0.000266      0.003196
      5.56764     -0.07340      0.00235         0.000043      0.002239      0.004537
      5.57833     -0.06281     12.84487         0.000734      0.002258     -0.004458
      1.73355     -7.19568     12.86059        -0.001068     -0.000866     -0.001900
      9.72862      0.21765      6.41995         0.002988      0.007064     -0.001082
      5.30626     -7.48045      6.43004         0.006895     -0.000723     -0.000188
      1.44626     -3.64042      6.42993        -0.001040     -0.000275     -0.000177
      5.86731      4.05245      6.42012         0.011089      0.000226      0.000077
      3.65453     -2.00696      6.42687        -0.001182      0.002906      0.000252
      7.49229      1.84558      6.42062         0.002418     -0.008851     -0.001041
      3.65710     -5.27312      6.42960        -0.001774     -0.000449     -0.000242
      7.78274     -1.71410     12.84378         0.002421      0.001906     -0.003486
      3.37041     -9.40320     12.85347        -0.005436     -0.000324     -0.001630
     -0.46135     -5.55756     12.86110         0.001790     -0.000042     -0.000542
      7.77133      5.97023     -0.00576        -0.000265     -0.000939      0.001681
      1.72665     -1.72227      6.42825         0.003812     -0.000310     -0.000993
      7.49246      0.19686     -0.00022         0.002230      0.001040      0.001957
      7.50129     -7.47562     12.85208        -0.000657      0.000872     -0.000233
      5.55483      2.13642      6.42191         0.003601     -0.007123     -0.000722
      3.64218      0.20376      0.00218        -0.000791      0.002139     -0.002520
      5.58436     -1.73151      6.42517        -0.002727      0.001805     -0.001316
      9.44474     -5.63427      6.42505         0.010875     -0.001318      0.000909
      3.65287      0.21438     12.84794        -0.001577      0.001447      0.002769
      9.44670     -1.64280      6.42178         0.003072     -0.001203      0.000672
      7.49092     -7.48596      0.00434        -0.002098     -0.000382      0.000948
      7.50327      0.20762     12.84358         0.000941     -0.000826      0.001462
      5.58485     -5.54937      6.42828        -0.002619      0.004215     -0.001015
     11.33494      0.19682     -0.00848        -0.001304     -0.001504     -0.001507
     13.24523     -1.72211      6.41877         0.005262     -0.000975     -0.001196
      1.72944     -5.55845      6.43151        -0.003158      0.000216     -0.001876
      3.65710     -7.48375     12.85832        -0.000862     -0.000901      0.004057
      9.41912     -5.56280      1.99273         0.001085     -0.003495      0.014039
      5.56928      2.12627      1.94306         0.003088     -0.000745      0.007652
      9.41685     -1.72111      1.98842         0.000107      0.005531      0.013525
     13.26031     -1.71966      1.93375        -0.000431     -0.000909      0.000746
      7.47481     -7.49851      4.47356         0.007237      0.007708      0.002735
      3.67457      0.16282      4.46347         0.004756      0.007577      0.015024
      7.48190     -3.64122      4.45238        -0.002198      0.001617      0.006440
     11.37179     -3.63935      4.44591         0.004645     -0.003361      0.005812
      7.47788     -7.49531      8.38306         0.007978      0.009154     -0.005023
      3.67797      0.16585      8.38643         0.004508      0.008074     -0.014075
      7.48506     -3.63767      8.39784        -0.001064      0.001649     -0.008438
     11.37514     -3.63585      8.39759         0.002909     -0.003982     -0.005051
      5.57954     -9.40301     10.91640         0.000007     -0.001174      0.000251
      1.73019     -1.71765     10.90934         0.000291      0.002054     -0.003779
      5.57650     -5.55630     10.91677        -0.000805      0.003493     -0.002795
      9.42600     -5.55551     10.85737         0.001680     -0.003085     -0.013812
      9.41138      2.12817      1.93630        -0.003007      0.001153      0.007066
      5.56910     -5.56343      1.93951        -0.002307      0.002033      0.005160
      1.72315     -1.72496      1.94702        -0.001546      0.000702      0.005248
      5.56843     -1.72533      1.94361         0.001017     -0.000283      0.007948
      7.47293      0.21731      4.46783         0.004857     -0.006266      0.011939
     11.36492      0.24486      4.45461        -0.002601     -0.006932      0.000896
      7.49381      4.04988      4.46268         0.003957     -0.002327      0.007902
      3.64469     -3.64153      4.46856        -0.005223      0.001500      0.011955
      7.47622      0.22059      8.37642         0.003743     -0.006884     -0.017917
      3.67955     -7.44299      8.39566        -0.002531     -0.008554     -0.005156
     -0.19123     -3.63812      8.38751         0.003977     -0.001826     -0.010220
      3.64791     -3.63843      8.38781        -0.004644      0.002425     -0.012531
      5.57634     -1.71770     10.90622        -0.000041     -0.000328     -0.005002
      9.42390     -1.71317     10.85519        -0.000263      0.003347     -0.010689
      5.57747      2.13346     10.90071         0.000372     -0.001700     -0.006997
      1.73007     -5.55596     10.91361        -0.002685      0.002470     -0.003839
 -----------------------------------------------------------------------------------
    total drift:                               -0.030257      0.003385      0.002453


--------------------------------------------------------------------------------------------------------



  FREE ENERGIE OF THE ION-ELECTRON SYSTEM (eV)
  ---------------------------------------------------
  free  energy   TOTEN  =      -585.31127082 eV

  energy  without entropy=     -585.28216645  energy(sigma->0) =     -585.29671864

 d Force = 0.8474855E-03[ 0.673E-03, 0.102E-02]  d Energy = 0.1027881E-02-0.180E-03
 d Force = 0.4489814E+00[ 0.437E+00, 0.461E+00]  d Ewald  = 0.4489805E+00 0.916E-06


--------------------------------------------------------------------------------------------------------


    POTLOK:  cpu time    1.0932: real time    1.0936


--------------------------------------------------------------------------------------------------------


 Steepest descent step on ions:
 trial-energy change:   -0.001028  1 .order   -0.000847   -0.001022   -0.000673
  (g-gl).g = 0.102E-02      g.g   = 0.102E-02  gl.gl    = 0.000E+00
 g(Force)  = 0.102E-02   g(Stress)= 0.000E+00 ortho     = 0.000E+00
 gamma     =   0.00000
 trial     =   1.00000
 opt step  =   2.92397  (harmonic =   2.92397) maximal distance =0.00454868
 next E    =  -585.311738   (d E  =  -0.00149)


--------------------------------------------------------------------------------------------------------


  
 reached required accuracy - stopping structural energy minimisation
     LOOP+:  cpu time   93.2486: real time   93.4932
    4ORBIT:  cpu time    0.0000: real time    0.0000



 total charge

# of ion       s       p       d       tot
------------------------------------------
    1        0.241   6.210   5.908  12.359
    2        0.242   6.211   5.909  12.362
    3        0.244   6.214   5.910  12.367
    4        0.242   6.213   5.911  12.367
    5        0.243   6.213   5.906  12.361
    6        0.241   6.211   5.907  12.359
    7        0.243   6.213   5.906  12.361
    8        0.240   6.210   5.908  12.359
    9        0.240   6.210   5.908  12.359
   10        0.240   6.209   5.908  12.358
   11        0.241   6.211   5.908  12.360
   12        0.243   6.213   5.906  12.361
   13        0.241   6.210   5.908  12.359
   14        0.242   6.211   5.909  12.362
   15        0.244   6.214   5.910  12.367
   16        0.242   6.213   5.911  12.366
   17        0.241   6.210   5.909  12.360
   18        0.242   6.211   5.908  12.361
   19        0.241   6.210   5.909  12.359
   20        0.241   6.210   5.909  12.360
   21        0.240   6.209   5.908  12.357
   22        0.241   6.211   5.908  12.360
   23        0.240   6.209   5.908  12.357
   24        0.242   6.212   5.907  12.361
   25        0.242   6.213   5.907  12.361
   26        0.243   6.213   5.906  12.361
   27        0.241   6.211   5.907  12.359
   28        0.240   6.209   5.908  12.357
   29        0.241   6.210   5.909  12.360
   30        0.242   6.211   5.908  12.361
   31        0.241   6.210   5.909  12.359
   32        0.241   6.210   5.909  12.360
   33        2.025   0.064   0.000   2.090
   34        2.025   0.064   0.000   2.089
   35        2.025   0.064   0.000   2.089
   36        2.025   0.064   0.000   2.090
   37        2.028   0.067   0.000   2.095
   38        2.025   0.063   0.000   2.088
   39        2.024   0.062   0.000   2.086
   40        2.026   0.065   0.000   2.092
   41        2.025   0.064   0.000   2.089
   42        2.026   0.065   0.000   2.090
   43        2.025   0.062   0.000   2.087
   44        2.026   0.064   0.000   2.090
   45        2.026   0.065   0.000   2.090
   46        2.025   0.064   0.000   2.089
   47        2.026   0.064   0.000   2.090
   48        2.025   0.064   0.000   2.089
   49        2.026   0.065   0.000   2.090
   50        2.025   0.064   0.000   2.089
   51        2.025   0.064   0.000   2.089
   52        2.026   0.065   0.000   2.090
   53        2.028   0.067   0.000   2.095
   54        2.025   0.063   0.000   2.088
   55        2.026   0.065   0.000   2.090
   56        2.026   0.065   0.000   2.091
   57        2.025   0.064   0.000   2.089
   58        2.025   0.064   0.000   2.089
   59        2.025   0.064   0.000   2.089
   60        2.025   0.064   0.000   2.089
   61        2.026   0.064   0.000   2.090
   62        2.025   0.064   0.000   2.089
   63        2.026   0.065   0.000   2.090
   64        1.549   3.501   0.000   5.050
   65        1.549   3.501   0.000   5.050
   66        1.549   3.502   0.000   5.050
   67        1.549   3.496   0.000   5.045
   68        1.549   3.501   0.000   5.050
   69        1.549   3.498   0.000   5.047
   70        1.551   3.496   0.000   5.047
   71        1.549   3.501   0.000   5.050
   72        1.550   3.497   0.000   5.047
   73        1.549   3.502   0.000   5.050
   74        1.549   3.501   0.000   5.050
   75        1.549   3.499   0.000   5.048
   76        1.549   3.500   0.000   5.049
   77        1.549   3.497   0.000   5.046
   78        1.549   3.501   0.000   5.050
   79        1.549   3.500   0.000   5.049
   80        1.320   2.420   0.000   3.740
   81        1.320   2.427   0.000   3.747
   82        1.320   2.420   0.000   3.740
   83        1.320   2.428   0.000   3.748
   84        1.321   2.423   0.000   3.744
   85        1.322   2.423   0.000   3.745
   86        1.322   2.420   0.000   3.742
   87        1.320   2.433   0.000   3.753
   88        1.321   2.423   0.000   3.744
   89        1.322   2.423   0.000   3.745
   90        1.322   2.420   0.000   3.742
   91        1.320   2.433   0.000   3.753
   92        1.320   2.428   0.000   3.748
   93        1.320   2.429   0.000   3.749
   94        1.320   2.428   0.000   3.748
   95        1.320   2.420   0.000   3.740
   96        1.320   2.428   0.000   3.748
   97        1.320   2.427   0.000   3.748
   98        1.320   2.429   0.000   3.749
   99        1.320   2.427   0.000   3.747
  100        1.321   2.421   0.000   3.743
  101        1.321   2.425   0.000   3.746
  102        1.320   2.428   0.000   3.748
  103        1.320   2.428   0.000   3.748
  104        1.321   2.422   0.000   3.743
  105        1.321   2.425   0.000   3.746
  106        1.320   2.428   0.000   3.748
  107        1.320   2.428   0.000   3.748
  108        1.320   2.427   0.000   3.747
  109        1.320   2.420   0.000   3.740
  110        1.320   2.427   0.000   3.747
  111        1.320   2.428   0.000   3.748
--------------------------------------------------
tot        137.557 334.356 189.060 660.973



 magnetization (x)

# of ion       s       p       d       tot
------------------------------------------
    1        0.041   0.030   3.570   3.640
    2        0.041   0.030   3.568   3.639
    3        0.042   0.030   3.560   3.631
    4        0.041   0.030   3.567   3.637
    5        0.043   0.031   3.547   3.621
    6        0.040   0.030   3.561   3.630
    7        0.043   0.031   3.549   3.623
    8        0.040   0.030   3.567   3.636
    9        0.040   0.030   3.567   3.636
   10        0.040   0.030   3.572   3.642
   11        0.039   0.030   3.563   3.632
   12        0.043   0.031   3.547   3.621
   13        0.041   0.030   3.570   3.640
   14        0.041   0.030   3.568   3.639
   15        0.042   0.030   3.560   3.631
   16        0.041   0.030   3.567   3.637
   17        0.041   0.030   3.570   3.640
   18        0.041   0.030   3.565   3.636
   19        0.040   0.030   3.571   3.641
   20        0.040   0.030   3.571   3.641
   21        0.040   0.030   3.573   3.643
   22        0.039   0.030   3.563   3.632
   23        0.040   0.030   3.572   3.642
   24        0.040   0.030   3.556   3.626
   25        0.040   0.030   3.556   3.626
   26        0.043   0.031   3.549   3.623
   27        0.040   0.030   3.561   3.630
   28        0.040   0.030   3.573   3.643
   29        0.041   0.030   3.570   3.640
   30        0.041   0.030   3.565   3.636
   31        0.040   0.030   3.571   3.641
   32        0.040   0.030   3.571   3.641
   33       -0.000   0.001   0.000   0.001
   34        0.000   0.001   0.000   0.001
   35        0.000   0.001   0.000   0.001
   36       -0.000   0.001   0.000   0.001
   37        0.000   0.001   0.000   0.002
   38       -0.000   0.001   0.000   0.001
   39       -0.000   0.001   0.000   0.001
   40        0.000   0.001   0.000   0.001
   41        0.000   0.001   0.000   0.001
   42        0.000   0.001   0.000   0.001
   43       -0.000   0.001   0.000   0.001
   44        0.000   0.001   0.000   0.001
   45        0.000   0.001   0.000   0.001
   46        0.000   0.001   0.000   0.001
   47        0.000   0.001   0.000   0.001
   48        0.000   0.001   0.000   0.001
   49        0.000   0.001   0.000   0.001
   50        0.000   0.001   0.000   0.001
   51        0.000   0.001   0.000   0.001
   52        0.000   0.001   0.000   0.001
   53        0.000   0.001   0.000   0.002
   54       -0.000   0.001   0.000   0.001
   55        0.000   0.001   0.000   0.001
   56        0.000   0.001   0.000   0.001
   57        0.000   0.001   0.000   0.001
   58        0.000   0.001   0.000   0.001
   59        0.000   0.001   0.000   0.001
   60        0.000   0.001   0.000   0.001
   61        0.000   0.001   0.000   0.001
   62        0.000   0.001   0.000   0.001
   63        0.000   0.001   0.000   0.001
   64        0.009   0.099   0.000   0.108
   65        0.009   0.096   0.000   0.105
   66        0.009   0.094   0.000   0.103
   67        0.009   0.092   0.000   0.101
   68        0.009   0.095   0.000   0.104
   69        0.009   0.090   0.000   0.099
   70        0.008   0.098   0.000   0.106
   71        0.009   0.095   0.000   0.104
   72        0.008   0.099   0.000   0.107
   73        0.009   0.094   0.000   0.103
   74        0.009   0.096   0.000   0.105
   75        0.009   0.095   0.000   0.104
   76        0.009   0.090   0.000   0.099
   77        0.009   0.096   0.000   0.105
   78        0.009   0.100   0.000   0.108
   79        0.009   0.090   0.000   0.099
   80        0.015   0.054   0.000   0.070
   81        0.016   0.063   0.000   0.079
   82        0.015   0.054   0.000   0.069
   83        0.016   0.063   0.000   0.079
   84        0.015   0.060   0.000   0.075
   85        0.015   0.052   0.000   0.067
   86        0.015   0.044   0.000   0.059
   87        0.016   0.052   0.000   0.068
   88        0.015   0.060   0.000   0.075
   89        0.015   0.052   0.000   0.067
   90        0.015   0.044   0.000   0.059
   91        0.016   0.052   0.000   0.068
   92        0.016   0.063   0.000   0.079
   93        0.016   0.066   0.000   0.082
   94        0.016   0.061   0.000   0.077
   95        0.015   0.054   0.000   0.070
   96        0.016   0.065   0.000   0.081
   97        0.016   0.061   0.000   0.077
   98        0.016   0.066   0.000   0.082
   99        0.016   0.061   0.000   0.077
  100        0.015   0.056   0.000   0.071
  101        0.015   0.057   0.000   0.072
  102        0.016   0.066   0.000   0.082
  103        0.016   0.065   0.000   0.081
  104        0.015   0.056   0.000   0.071
  105        0.015   0.057   0.000   0.072
  106        0.016   0.066   0.000   0.082
  107        0.016   0.065   0.000   0.081
  108        0.016   0.061   0.000   0.077
  109        0.015   0.054   0.000   0.069
  110        0.016   0.063   0.000   0.079
  111        0.016   0.065   0.000   0.081
--------------------------------------------------
tot          1.936   4.382 114.057 120.375


 total amount of memory used by VASP MPI-rank0   392450. kBytes
=======================================================================

   base      :      30000. kBytes
   nonl-proj :      32788. kBytes
   fftplans  :       6555. kBytes
   grid      :      18544. kBytes
   one-center:        435. kBytes
   wavefun   :     304128. kBytes

  
  
 General timing and accounting informations for this job:
 ========================================================
  
                  Total CPU time used (sec):     1679.758
                            User time (sec):     1667.702
                          System time (sec):       12.055
                         Elapsed time (sec):     1688.792
  
                   Maximum memory used (kb):      767532.
                   Average memory used (kb):          N/A
  
                          Minor page faults:       864393
                          Major page faults:            0
                 Voluntary context switches:        14258
