 224 224   0   0
  0.1357572E+02  0.1537960E-08  0.1537962E-08  0.1395899E-08  0.5000000E-15
  1.000000000000000E-004
  CAR 
 unknown system                          
     17.69880560    -54.43862111  301      5.25509949      1.00000000
    -54.439  0.0000E+00  0.0000E+00  0.0000E+00  0.0000E+00
    -54.198  0.0000E+00  0.0000E+00  0.0000E+00  0.0000E+00
    -53.958  0.0000E+00  0.0000E+00  0.0000E+00  0.0000E+00
    -53.717  0.0000E+00  0.0000E+00  0.0000E+00  0.0000E+00
    -53.477  0.0000E+00  0.0000E+00  0.0000E+00  0.0000E+00
    -53.236  0.0000E+00  0.0000E+00  0.0000E+00  0.0000E+00
    -52.996  0.0000E+00  0.0000E+00  0.0000E+00  0.0000E+00
    -52.755  0.0000E+00  0.0000E+00  0.0000E+00  0.0000E+00
    -52.515  0.0000E+00  0.0000E+00  0.0000E+00  0.0000E+00
    -52.274  0.0000E+00  0.0000E+00  0.0000E+00  0.0000E+00
    -52.034  0.0000E+00  0.0000E+00  0.0000E+00  0.0000E+00
    -51.794  0.0000E+00  0.0000E+00  0.0000E+00  0.0000E+00
    -51.553  0.0000E+00  0.0000E+00  0.0000E+00  0.0000E+00
    -51.313  0.1734E-03  0.0000E+00  0.4169E-04  0.0000E+00
    -51.072  0.2588E+03  0.0000E+00  0.6223E+02  0.0000E+00
    -50.832  0.7362E+01  0.0000E+00  0.6400E+02  0.0000E+00
    -50.591  0.0000E+00  0.0000E+00  0.6400E+02  0.0000E+00
    -50.351  0.0000E+00  0.0000E+00  0.6400E+02  0.0000E+00
    -50.110  0.0000E+00  0.0000E+00  0.6400E+02  0.0000E+00
    -49.870  0.7679E-07  0.0000E+00  0.6400E+02  0.0000E+00
    -49.629  0.3595E+03  0.0000E+00  0.1504E+03  0.0000E+00
    -49.389  0.1728E+03  0.0000E+00  0.1920E+03  0.0000E+00
    -49.149  0.0000E+00  0.0000E+00  0.1920E+03  0.0000E+00
    -48.908  0.0000E+00  0.0000E+00  0.1920E+03  0.0000E+00
    -48.668  0.0000E+00  0.0000E+00  0.1920E+03  0.0000E+00
    -48.427  0.0000E+00  0.0000E+00  0.1920E+03  0.0000E+00
    -48.187  0.0000E+00  0.0000E+00  0.1920E+03  0.0000E+00
    -47.946  0.0000E+00  0.0000E+00  0.1920E+03  0.0000E+00
    -47.706  0.0000E+00  0.0000E+00  0.1920E+03  0.0000E+00
    -47.465  0.0000E+00  0.0000E+00  0.1920E+03  0.0000E+00
    -47.225  0.0000E+00  0.0000E+00  0.1920E+03  0.0000E+00
    -46.984  0.0000E+00  0.0000E+00  0.1920E+03  0.0000E+00
    -46.744  0.0000E+00  0.0000E+00  0.1920E+03  0.0000E+00
    -46.504  0.0000E+00  0.1725E+00  0.1920E+03  0.4148E-01
    -46.263  0.0000E+00  0.2659E+03  0.1920E+03  0.6399E+02
    -46.023  0.0000E+00  0.1966E+01  0.1920E+03  0.6446E+02
    -45.782  0.0000E+00  0.5304E+03  0.1920E+03  0.1920E+03
    -45.542  0.0000E+00  0.1168E-01  0.1920E+03  0.1920E+03
    -45.301  0.0000E+00  0.0000E+00  0.1920E+03  0.1920E+03
    -45.061  0.0000E+00  0.0000E+00  0.1920E+03  0.1920E+03
    -44.820  0.0000E+00  0.0000E+00  0.1920E+03  0.1920E+03
    -44.580  0.0000E+00  0.0000E+00  0.1920E+03  0.1920E+03
    -44.339  0.0000E+00  0.0000E+00  0.1920E+03  0.1920E+03
    -44.099  0.0000E+00  0.0000E+00  0.1920E+03  0.1920E+03
    -43.858  0.0000E+00  0.0000E+00  0.1920E+03  0.1920E+03
    -43.618  0.0000E+00  0.0000E+00  0.1920E+03  0.1920E+03
    -43.378  0.0000E+00  0.0000E+00  0.1920E+03  0.1920E+03
    -43.137  0.0000E+00  0.0000E+00  0.1920E+03  0.1920E+03
    -42.897  0.0000E+00  0.0000E+00  0.1920E+03  0.1920E+03
    -42.656  0.0000E+00  0.0000E+00  0.1920E+03  0.1920E+03
    -42.416  0.0000E+00  0.0000E+00  0.1920E+03  0.1920E+03
    -42.175  0.0000E+00  0.0000E+00  0.1920E+03  0.1920E+03
    -41.935  0.0000E+00  0.0000E+00  0.1920E+03  0.1920E+03
    -41.694  0.0000E+00  0.0000E+00  0.1920E+03  0.1920E+03
    -41.454  0.0000E+00  0.0000E+00  0.1920E+03  0.1920E+03
    -41.213  0.0000E+00  0.0000E+00  0.1920E+03  0.1920E+03
    -40.973  0.0000E+00  0.0000E+00  0.1920E+03  0.1920E+03
    -40.733  0.0000E+00  0.0000E+00  0.1920E+03  0.1920E+03
    -40.492  0.0000E+00  0.0000E+00  0.1920E+03  0.1920E+03
    -40.252  0.0000E+00  0.0000E+00  0.1920E+03  0.1920E+03
    -40.011  0.0000E+00  0.0000E+00  0.1920E+03  0.1920E+03
    -39.771  0.4366E-02  0.3945E-02  0.1920E+03  0.1920E+03
    -39.530  0.2633E+03  0.2631E+03  0.2553E+03  0.2553E+03
    -39.290  0.2878E+01  0.3034E+01  0.2560E+03  0.2560E+03
    -39.049  0.0000E+00  0.0000E+00  0.2560E+03  0.2560E+03
    -38.809  0.0000E+00  0.0000E+00  0.2560E+03  0.2560E+03
    -38.568  0.0000E+00  0.0000E+00  0.2560E+03  0.2560E+03
    -38.328  0.0000E+00  0.0000E+00  0.2560E+03  0.2560E+03
    -38.087  0.0000E+00  0.0000E+00  0.2560E+03  0.2560E+03
    -37.847  0.0000E+00  0.0000E+00  0.2560E+03  0.2560E+03
    -37.607  0.0000E+00  0.0000E+00  0.2560E+03  0.2560E+03
    -37.366  0.0000E+00  0.0000E+00  0.2560E+03  0.2560E+03
    -37.126  0.0000E+00  0.0000E+00  0.2560E+03  0.2560E+03
    -36.885  0.0000E+00  0.0000E+00  0.2560E+03  0.2560E+03
    -36.645  0.0000E+00  0.0000E+00  0.2560E+03  0.2560E+03
    -36.404  0.0000E+00  0.0000E+00  0.2560E+03  0.2560E+03
    -36.164  0.0000E+00  0.0000E+00  0.2560E+03  0.2560E+03
    -35.923  0.0000E+00  0.0000E+00  0.2560E+03  0.2560E+03
    -35.683  0.0000E+00  0.0000E+00  0.2560E+03  0.2560E+03
    -35.442  0.0000E+00  0.0000E+00  0.2560E+03  0.2560E+03
    -35.202  0.0000E+00  0.0000E+00  0.2560E+03  0.2560E+03
    -34.962  0.0000E+00  0.0000E+00  0.2560E+03  0.2560E+03
    -34.721  0.0000E+00  0.0000E+00  0.2560E+03  0.2560E+03
    -34.481  0.0000E+00  0.0000E+00  0.2560E+03  0.2560E+03
    -34.240  0.0000E+00  0.0000E+00  0.2560E+03  0.2560E+03
    -34.000  0.0000E+00  0.0000E+00  0.2560E+03  0.2560E+03
    -33.759  0.0000E+00  0.0000E+00  0.2560E+03  0.2560E+03
    -33.519  0.0000E+00  0.0000E+00  0.2560E+03  0.2560E+03
    -33.278  0.0000E+00  0.0000E+00  0.2560E+03  0.2560E+03
    -33.038  0.0000E+00  0.0000E+00  0.2560E+03  0.2560E+03
    -32.797  0.0000E+00  0.0000E+00  0.2560E+03  0.2560E+03
    -32.557  0.0000E+00  0.0000E+00  0.2560E+03  0.2560E+03
    -32.316  0.0000E+00  0.0000E+00  0.2560E+03  0.2560E+03
    -32.076  0.0000E+00  0.0000E+00  0.2560E+03  0.2560E+03
    -31.836  0.0000E+00  0.0000E+00  0.2560E+03  0.2560E+03
    -31.595  0.0000E+00  0.0000E+00  0.2560E+03  0.2560E+03
    -31.355  0.0000E+00  0.0000E+00  0.2560E+03  0.2560E+03
    -31.114  0.0000E+00  0.0000E+00  0.2560E+03  0.2560E+03
    -30.874  0.0000E+00  0.0000E+00  0.2560E+03  0.2560E+03
    -30.633  0.0000E+00  0.0000E+00  0.2560E+03  0.2560E+03
    -30.393  0.0000E+00  0.0000E+00  0.2560E+03  0.2560E+03
    -30.152  0.0000E+00  0.0000E+00  0.2560E+03  0.2560E+03
    -29.912  0.0000E+00  0.0000E+00  0.2560E+03  0.2560E+03
    -29.671  0.0000E+00  0.0000E+00  0.2560E+03  0.2560E+03
    -29.431  0.0000E+00  0.0000E+00  0.2560E+03  0.2560E+03
    -29.191  0.0000E+00  0.0000E+00  0.2560E+03  0.2560E+03
    -28.950  0.0000E+00  0.0000E+00  0.2560E+03  0.2560E+03
    -28.710  0.0000E+00  0.0000E+00  0.2560E+03  0.2560E+03
    -28.469  0.0000E+00  0.0000E+00  0.2560E+03  0.2560E+03
    -28.229  0.0000E+00  0.0000E+00  0.2560E+03  0.2560E+03
    -27.988  0.0000E+00  0.0000E+00  0.2560E+03  0.2560E+03
    -27.748  0.0000E+00  0.0000E+00  0.2560E+03  0.2560E+03
    -27.507  0.0000E+00  0.0000E+00  0.2560E+03  0.2560E+03
    -27.267  0.0000E+00  0.0000E+00  0.2560E+03  0.2560E+03
    -27.026  0.0000E+00  0.0000E+00  0.2560E+03  0.2560E+03
    -26.786  0.0000E+00  0.0000E+00  0.2560E+03  0.2560E+03
    -26.545  0.0000E+00  0.0000E+00  0.2560E+03  0.2560E+03
    -26.305  0.0000E+00  0.0000E+00  0.2560E+03  0.2560E+03
    -26.065  0.0000E+00  0.0000E+00  0.2560E+03  0.2560E+03
    -25.824  0.0000E+00  0.0000E+00  0.2560E+03  0.2560E+03
    -25.584  0.0000E+00  0.0000E+00  0.2560E+03  0.2560E+03
    -25.343  0.0000E+00  0.0000E+00  0.2560E+03  0.2560E+03
    -25.103  0.0000E+00  0.0000E+00  0.2560E+03  0.2560E+03
    -24.862  0.0000E+00  0.0000E+00  0.2560E+03  0.2560E+03
    -24.622  0.0000E+00  0.0000E+00  0.2560E+03  0.2560E+03
    -24.381  0.0000E+00  0.0000E+00  0.2560E+03  0.2560E+03
    -24.141  0.0000E+00  0.0000E+00  0.2560E+03  0.2560E+03
    -23.900  0.0000E+00  0.0000E+00  0.2560E+03  0.2560E+03
    -23.660  0.0000E+00  0.0000E+00  0.2560E+03  0.2560E+03
    -23.420  0.0000E+00  0.0000E+00  0.2560E+03  0.2560E+03
    -23.179  0.0000E+00  0.0000E+00  0.2560E+03  0.2560E+03
    -22.939  0.0000E+00  0.0000E+00  0.2560E+03  0.2560E+03
    -22.698  0.0000E+00  0.0000E+00  0.2560E+03  0.2560E+03
    -22.458  0.0000E+00  0.0000E+00  0.2560E+03  0.2560E+03
    -22.217  0.0000E+00  0.0000E+00  0.2560E+03  0.2560E+03
    -21.977  0.0000E+00  0.0000E+00  0.2560E+03  0.2560E+03
    -21.736  0.0000E+00  0.0000E+00  0.2560E+03  0.2560E+03
    -21.496  0.0000E+00  0.0000E+00  0.2560E+03  0.2560E+03
    -21.255  0.0000E+00  0.0000E+00  0.2560E+03  0.2560E+03
    -21.015  0.0000E+00  0.0000E+00  0.2560E+03  0.2560E+03
    -20.774  0.0000E+00  0.0000E+00  0.2560E+03  0.2560E+03
    -20.534  0.0000E+00  0.0000E+00  0.2560E+03  0.2560E+03
    -20.294  0.0000E+00  0.0000E+00  0.2560E+03  0.2560E+03
    -20.053  0.0000E+00  0.0000E+00  0.2560E+03  0.2560E+03
    -19.813  0.0000E+00  0.0000E+00  0.2560E+03  0.2560E+03
    -19.572  0.0000E+00  0.0000E+00  0.2560E+03  0.2560E+03
    -19.332  0.0000E+00  0.0000E+00  0.2560E+03  0.2560E+03
    -19.091  0.0000E+00  0.0000E+00  0.2560E+03  0.2560E+03
    -18.851  0.0000E+00  0.0000E+00  0.2560E+03  0.2560E+03
    -18.610  0.0000E+00  0.0000E+00  0.2560E+03  0.2560E+03
    -18.370  0.0000E+00  0.0000E+00  0.2560E+03  0.2560E+03
    -18.129  0.0000E+00  0.0000E+00  0.2560E+03  0.2560E+03
    -17.889  0.0000E+00  0.0000E+00  0.2560E+03  0.2560E+03
    -17.649  0.0000E+00  0.0000E+00  0.2560E+03  0.2560E+03
    -17.408  0.0000E+00  0.0000E+00  0.2560E+03  0.2560E+03
    -17.168  0.0000E+00  0.0000E+00  0.2560E+03  0.2560E+03
    -16.927  0.0000E+00  0.0000E+00  0.2560E+03  0.2560E+03
    -16.687  0.0000E+00  0.0000E+00  0.2560E+03  0.2560E+03
    -16.446  0.0000E+00  0.0000E+00  0.2560E+03  0.2560E+03
    -16.206  0.0000E+00  0.0000E+00  0.2560E+03  0.2560E+03
    -15.965  0.0000E+00  0.0000E+00  0.2560E+03  0.2560E+03
    -15.725  0.0000E+00  0.0000E+00  0.2560E+03  0.2560E+03
    -15.484  0.0000E+00  0.0000E+00  0.2560E+03  0.2560E+03
    -15.244  0.0000E+00  0.0000E+00  0.2560E+03  0.2560E+03
    -15.003  0.0000E+00  0.0000E+00  0.2560E+03  0.2560E+03
    -14.763  0.0000E+00  0.0000E+00  0.2560E+03  0.2560E+03
    -14.523  0.0000E+00  0.0000E+00  0.2560E+03  0.2560E+03
    -14.282  0.0000E+00  0.0000E+00  0.2560E+03  0.2560E+03
    -14.042  0.0000E+00  0.0000E+00  0.2560E+03  0.2560E+03
    -13.801  0.0000E+00  0.0000E+00  0.2560E+03  0.2560E+03
    -13.561  0.0000E+00  0.0000E+00  0.2560E+03  0.2560E+03
    -13.320  0.0000E+00  0.0000E+00  0.2560E+03  0.2560E+03
    -13.080  0.0000E+00  0.0000E+00  0.2560E+03  0.2560E+03
    -12.839  0.4405E-01  0.0000E+00  0.2560E+03  0.2560E+03
    -12.599  0.1315E+03  0.7291E-03  0.2876E+03  0.2560E+03
    -12.358  0.1567E+01  0.1206E+03  0.2880E+03  0.2850E+03
    -12.118  0.0000E+00  0.1244E+02  0.2880E+03  0.2880E+03
    -11.878  0.0000E+00  0.0000E+00  0.2880E+03  0.2880E+03
    -11.637  0.0000E+00  0.0000E+00  0.2880E+03  0.2880E+03
    -11.397  0.0000E+00  0.0000E+00  0.2880E+03  0.2880E+03
    -11.156  0.0000E+00  0.0000E+00  0.2880E+03  0.2880E+03
    -10.916  0.0000E+00  0.0000E+00  0.2880E+03  0.2880E+03
    -10.675  0.0000E+00  0.0000E+00  0.2880E+03  0.2880E+03
    -10.435  0.0000E+00  0.0000E+00  0.2880E+03  0.2880E+03
    -10.194  0.0000E+00  0.0000E+00  0.2880E+03  0.2880E+03
     -9.954  0.0000E+00  0.0000E+00  0.2880E+03  0.2880E+03
     -9.713  0.0000E+00  0.0000E+00  0.2880E+03  0.2880E+03
     -9.473  0.0000E+00  0.0000E+00  0.2880E+03  0.2880E+03
     -9.233  0.0000E+00  0.0000E+00  0.2880E+03  0.2880E+03
     -8.992  0.0000E+00  0.0000E+00  0.2880E+03  0.2880E+03
     -8.752  0.0000E+00  0.0000E+00  0.2880E+03  0.2880E+03
     -8.511  0.0000E+00  0.0000E+00  0.2880E+03  0.2880E+03
     -8.271  0.0000E+00  0.0000E+00  0.2880E+03  0.2880E+03
     -8.030  0.1981E-10  0.0000E+00  0.2880E+03  0.2880E+03
     -7.790  0.8016E+00  0.1867E-07  0.2882E+03  0.2880E+03
     -7.549  0.1866E+02  0.2534E+01  0.2927E+03  0.2886E+03
     -7.309  0.2784E+02  0.2190E+02  0.2994E+03  0.2939E+03
     -7.068  0.5245E+02  0.3074E+02  0.3120E+03  0.3013E+03
     -6.828  0.1468E+03  0.4870E+02  0.3473E+03  0.3130E+03
     -6.587  0.1961E+02  0.1386E+03  0.3520E+03  0.3463E+03
     -6.347  0.0000E+00  0.2367E+02  0.3520E+03  0.3520E+03
     -6.107  0.0000E+00  0.2088E-04  0.3520E+03  0.3520E+03
     -5.866  0.0000E+00  0.0000E+00  0.3520E+03  0.3520E+03
     -5.626  0.0000E+00  0.0000E+00  0.3520E+03  0.3520E+03
     -5.385  0.0000E+00  0.0000E+00  0.3520E+03  0.3520E+03
     -5.145  0.0000E+00  0.0000E+00  0.3520E+03  0.3520E+03
     -4.904  0.0000E+00  0.0000E+00  0.3520E+03  0.3520E+03
     -4.664  0.0000E+00  0.0000E+00  0.3520E+03  0.3520E+03
     -4.423  0.0000E+00  0.0000E+00  0.3520E+03  0.3520E+03
     -4.183  0.0000E+00  0.0000E+00  0.3520E+03  0.3520E+03
     -3.942  0.0000E+00  0.0000E+00  0.3520E+03  0.3520E+03
     -3.702  0.0000E+00  0.0000E+00  0.3520E+03  0.3520E+03
     -3.462  0.0000E+00  0.0000E+00  0.3520E+03  0.3520E+03
     -3.221  0.0000E+00  0.0000E+00  0.3520E+03  0.3520E+03
     -2.981  0.0000E+00  0.0000E+00  0.3520E+03  0.3520E+03
     -2.740  0.0000E+00  0.0000E+00  0.3520E+03  0.3520E+03
     -2.500  0.0000E+00  0.0000E+00  0.3520E+03  0.3520E+03
     -2.259  0.0000E+00  0.0000E+00  0.3520E+03  0.3520E+03
     -2.019  0.0000E+00  0.0000E+00  0.3520E+03  0.3520E+03
     -1.778  0.2422E-12  0.0000E+00  0.3520E+03  0.3520E+03
     -1.538  0.1058E+01  0.0000E+00  0.3523E+03  0.3520E+03
     -1.297  0.9838E+02  0.0000E+00  0.3759E+03  0.3520E+03
     -1.057  0.3364E+02  0.0000E+00  0.3840E+03  0.3520E+03
     -0.816  0.1197E+02  0.0000E+00  0.3869E+03  0.3520E+03
     -0.576  0.8816E+02  0.5122E-05  0.4081E+03  0.3520E+03
     -0.336  0.2215E+03  0.3832E+01  0.4613E+03  0.3529E+03
     -0.095  0.2026E+03  0.2483E+02  0.5101E+03  0.3589E+03
      0.145  0.1772E+03  0.4069E+02  0.5527E+03  0.3687E+03
      0.386  0.1522E+03  0.4203E+02  0.5893E+03  0.3788E+03
      0.626  0.1207E+03  0.7153E+02  0.6183E+03  0.3960E+03
      0.867  0.5497E+02  0.6115E+02  0.6315E+03  0.4107E+03
      1.107  0.6870E+02  0.6480E+02  0.6480E+03  0.4263E+03
      1.348  0.7403E+02  0.6763E+02  0.6658E+03  0.4425E+03
      1.588  0.6796E+02  0.7770E+02  0.6822E+03  0.4612E+03
      1.829  0.1094E+03  0.1105E+03  0.7085E+03  0.4878E+03
      2.069  0.2139E+03  0.6337E+02  0.7599E+03  0.5030E+03
      2.309  0.1403E+03  0.3745E+02  0.7937E+03  0.5120E+03
      2.550  0.8480E+02  0.7704E+02  0.8141E+03  0.5306E+03
      2.790  0.6892E+02  0.1038E+03  0.8306E+03  0.5555E+03
      3.031  0.3550E+02  0.7084E+02  0.8392E+03  0.5726E+03
      3.271  0.4016E+02  0.1309E+03  0.8488E+03  0.6040E+03
      3.512  0.5196E+02  0.1183E+03  0.8613E+03  0.6325E+03
      3.752  0.6739E+02  0.2518E+02  0.8775E+03  0.6385E+03
      3.993  0.7920E+02  0.4342E+02  0.8966E+03  0.6490E+03
      4.233  0.8018E+02  0.1783E+03  0.9159E+03  0.6918E+03
      4.474  0.7611E+02  0.4885E+02  0.9342E+03  0.7036E+03
      4.714  0.2875E+02  0.1738E+01  0.9411E+03  0.7040E+03
      4.955  0.6476E+02  0.0000E+00  0.9566E+03  0.7040E+03
      5.195  0.1397E+02  0.0000E+00  0.9600E+03  0.7040E+03
      5.435  0.0000E+00  0.0000E+00  0.9600E+03  0.7040E+03
      5.676  0.0000E+00  0.0000E+00  0.9600E+03  0.7040E+03
      5.916  0.0000E+00  0.0000E+00  0.9600E+03  0.7040E+03
      6.157  0.0000E+00  0.6832E-07  0.9600E+03  0.7040E+03
      6.397  0.0000E+00  0.1021E+01  0.9600E+03  0.7042E+03
      6.638  0.0000E+00  0.1007E+02  0.9600E+03  0.7067E+03
      6.878  0.0000E+00  0.2631E+02  0.9600E+03  0.7130E+03
      7.119  0.2886E-16  0.6559E+02  0.9600E+03  0.7288E+03
      7.359  0.5388E-01  0.1112E+03  0.9600E+03  0.7555E+03
      7.600  0.1506E+01  0.1392E+03  0.9604E+03  0.7890E+03
      7.840  0.5057E+01  0.1183E+03  0.9616E+03  0.8174E+03
      8.080  0.7084E+01  0.1783E+03  0.9633E+03  0.8603E+03
      8.321  0.9309E+01  0.1464E+03  0.9655E+03  0.8955E+03
      8.561  0.1251E+02  0.6168E+02  0.9685E+03  0.9103E+03
      8.802  0.1436E+02  0.8263E+02  0.9720E+03  0.9302E+03
      9.042  0.2719E+02  0.7312E+02  0.9785E+03  0.9478E+03
      9.283  0.3340E+02  0.5735E+02  0.9866E+03  0.9616E+03
      9.523  0.3517E+02  0.2330E+02  0.9950E+03  0.9672E+03
      9.764  0.5340E+02  0.3405E+02  0.1008E+04  0.9754E+03
     10.004  0.5110E+02  0.2267E+02  0.1020E+04  0.9808E+03
     10.245  0.3402E+02  0.3866E+02  0.1028E+04  0.9901E+03
     10.485  0.2151E+02  0.4349E+02  0.1034E+04  0.1001E+04
     10.726  0.4556E+02  0.6097E+02  0.1044E+04  0.1015E+04
     10.966  0.3308E+02  0.4355E+02  0.1052E+04  0.1026E+04
     11.206  0.4348E+02  0.4021E+02  0.1063E+04  0.1035E+04
     11.447  0.7796E+02  0.3447E+02  0.1082E+04  0.1044E+04
     11.687  0.4291E+02  0.4376E+02  0.1092E+04  0.1054E+04
     11.928  0.6448E+02  0.5184E+02  0.1107E+04  0.1067E+04
     12.168  0.6669E+02  0.5752E+02  0.1123E+04  0.1080E+04
     12.409  0.6931E+02  0.5325E+02  0.1140E+04  0.1093E+04
     12.649  0.6090E+02  0.6691E+02  0.1155E+04  0.1109E+04
     12.890  0.5272E+02  0.7974E+02  0.1167E+04  0.1129E+04
     13.130  0.5856E+02  0.6462E+02  0.1182E+04  0.1144E+04
     13.371  0.4845E+02  0.6625E+02  0.1193E+04  0.1160E+04
     13.611  0.4022E+02  0.6459E+02  0.1203E+04  0.1176E+04
     13.851  0.1882E+02  0.5726E+02  0.1207E+04  0.1189E+04
     14.092  0.2557E+01  0.5306E+02  0.1208E+04  0.1202E+04
     14.332  0.0000E+00  0.2151E+02  0.1208E+04  0.1207E+04
     14.573  0.0000E+00  0.3107E+01  0.1208E+04  0.1208E+04
     14.813  0.0000E+00  0.3911E-05  0.1208E+04  0.1208E+04
     15.054  0.0000E+00  0.0000E+00  0.1208E+04  0.1208E+04
     15.294  0.0000E+00  0.0000E+00  0.1208E+04  0.1208E+04
     15.535  0.0000E+00  0.0000E+00  0.1208E+04  0.1208E+04
     15.775  0.0000E+00  0.0000E+00  0.1208E+04  0.1208E+04
     16.016  0.0000E+00  0.0000E+00  0.1208E+04  0.1208E+04
     16.256  0.0000E+00  0.0000E+00  0.1208E+04  0.1208E+04
     16.497  0.0000E+00  0.0000E+00  0.1208E+04  0.1208E+04
     16.737  0.0000E+00  0.0000E+00  0.1208E+04  0.1208E+04
     16.977  0.0000E+00  0.0000E+00  0.1208E+04  0.1208E+04
     17.218  0.0000E+00  0.0000E+00  0.1208E+04  0.1208E+04
     17.458  0.0000E+00  0.0000E+00  0.1208E+04  0.1208E+04
     17.699  0.0000E+00  0.0000E+00  0.1208E+04  0.1208E+04
