  224  224    1    2
  0.1357572E+02  0.1537960E-08  0.1537962E-08  0.1395899E-08  0.5000000E-15
  1.000000000000000E-004
  CAR 
 unknown system                          
   1664      8   1208
 
  0.0000000E+00  0.0000000E+00  0.0000000E+00  0.1250000E+00
    1      -51.159645    -46.406720   1.000000   1.000000
    2      -51.142707    -46.391927   1.000000   1.000000
    3      -51.142435    -46.391611   1.000000   1.000000
    4      -51.142385    -46.391555   1.000000   1.000000
    5      -51.142013    -46.391176   1.000000   1.000000
    6      -51.141962    -46.391084   1.000000   1.000000
    7      -51.141851    -46.391017   1.000000   1.000000
    8      -51.141811    -46.390879   1.000000   1.000000
    9      -51.141770    -46.390872   1.000000   1.000000
   10      -51.141653    -46.390641   1.000000   1.000000
   11      -51.141460    -46.390537   1.000000   1.000000
   12      -51.141446    -46.390461   1.000000   1.000000
   13      -51.141320    -46.390379   1.000000   1.000000
   14      -51.141263    -46.390349   1.000000   1.000000
   15      -51.141148    -46.390226   1.000000   1.000000
   16      -51.141129    -46.390136   1.000000   1.000000
   17      -51.141064    -46.390120   1.000000   1.000000
   18      -51.140980    -46.390004   1.000000   1.000000
   19      -51.140849    -46.389875   1.000000   1.000000
   20      -51.140770    -46.389812   1.000000   1.000000
   21      -51.140740    -46.389764   1.000000   1.000000
   22      -51.140721    -46.389739   1.000000   1.000000
   23      -51.140706    -46.389719   1.000000   1.000000
   24      -51.140674    -46.389714   1.000000   1.000000
   25      -51.140655    -46.389698   1.000000   1.000000
   26      -51.140653    -46.389675   1.000000   1.000000
   27      -51.140603    -46.389635   1.000000   1.000000
   28      -51.140602    -46.389610   1.000000   1.000000
   29      -51.140534    -46.389574   1.000000   1.000000
   30      -51.140496    -46.389409   1.000000   1.000000
   31      -51.140448    -46.389304   1.000000   1.000000
   32      -51.140423    -46.389301   1.000000   1.000000
   33      -51.140200    -46.389117   1.000000   1.000000
   34      -51.140162    -46.389101   1.000000   1.000000
   35      -51.140142    -46.389045   1.000000   1.000000
   36      -51.140114    -46.388865   1.000000   1.000000
   37      -51.140014    -46.388772   1.000000   1.000000
   38      -51.139999    -46.388724   1.000000   1.000000
   39      -51.139993    -46.388713   1.000000   1.000000
   40      -51.139914    -46.388673   1.000000   1.000000
   41      -51.139896    -46.388663   1.000000   1.000000
   42      -51.139851    -46.388627   1.000000   1.000000
   43      -51.139835    -46.388624   1.000000   1.000000
   44      -51.139828    -46.388601   1.000000   1.000000
   45      -51.139821    -46.388577   1.000000   1.000000
   46      -51.139774    -46.388559   1.000000   1.000000
   47      -51.139653    -46.388466   1.000000   1.000000
   48      -51.139519    -46.388267   1.000000   1.000000
   49      -51.139469    -46.388242   1.000000   1.000000
   50      -51.139447    -46.388144   1.000000   1.000000
   51      -51.139370    -46.388065   1.000000   1.000000
   52      -51.139299    -46.388017   1.000000   1.000000
   53      -51.139187    -46.387951   1.000000   1.000000
   54      -51.139179    -46.387899   1.000000   1.000000
   55      -51.138972    -46.387749   1.000000   1.000000
   56      -51.138883    -46.387580   1.000000   1.000000
   57      -51.138819    -46.387558   1.000000   1.000000
   58      -51.138762    -46.387454   1.000000   1.000000
   59      -51.138713    -46.387386   1.000000   1.000000
   60      -51.138629    -46.387302   1.000000   1.000000
   61      -51.138286    -46.386951   1.000000   1.000000
   62      -51.138250    -46.386903   1.000000   1.000000
   63      -51.138001    -46.386640   1.000000   1.000000
   64      -51.121021    -46.371851   1.000000   1.000000
   65      -49.662484    -45.943022   1.000000   1.000000
   66      -49.661493    -45.942245   1.000000   1.000000
   67      -49.648859    -45.930305   1.000000   1.000000
   68      -49.648836    -45.930220   1.000000   1.000000
   69      -49.648749    -45.929939   1.000000   1.000000
   70      -49.648519    -45.929874   1.000000   1.000000
   71      -49.648335    -45.929796   1.000000   1.000000
   72      -49.648294    -45.929672   1.000000   1.000000
   73      -49.648061    -45.929451   1.000000   1.000000
   74      -49.648009    -45.929354   1.000000   1.000000
   75      -49.647918    -45.929349   1.000000   1.000000
   76      -49.647845    -45.929286   1.000000   1.000000
   77      -49.647755    -45.929241   1.000000   1.000000
   78      -49.647717    -45.929230   1.000000   1.000000
   79      -49.647682    -45.929095   1.000000   1.000000
   80      -49.647637    -45.929030   1.000000   1.000000
   81      -49.647585    -45.928972   1.000000   1.000000
   82      -49.647534    -45.928914   1.000000   1.000000
   83      -49.647472    -45.928876   1.000000   1.000000
   84      -49.647318    -45.928815   1.000000   1.000000
   85      -49.647284    -45.928765   1.000000   1.000000
   86      -49.647239    -45.928756   1.000000   1.000000
   87      -49.647140    -45.928663   1.000000   1.000000
   88      -49.647077    -45.928513   1.000000   1.000000
   89      -49.646986    -45.928483   1.000000   1.000000
   90      -49.646969    -45.928472   1.000000   1.000000
   91      -49.646911    -45.928425   1.000000   1.000000
   92      -49.646909    -45.928399   1.000000   1.000000
   93      -49.646884    -45.928283   1.000000   1.000000
   94      -49.646832    -45.928222   1.000000   1.000000
   95      -49.646772    -45.928192   1.000000   1.000000
   96      -49.646763    -45.928147   1.000000   1.000000
   97      -49.646743    -45.928068   1.000000   1.000000
   98      -49.646718    -45.928055   1.000000   1.000000
   99      -49.646698    -45.928053   1.000000   1.000000
  100      -49.646659    -45.928014   1.000000   1.000000
  101      -49.646578    -45.927998   1.000000   1.000000
  102      -49.646571    -45.927977   1.000000   1.000000
  103      -49.646544    -45.927972   1.000000   1.000000
  104      -49.646528    -45.927941   1.000000   1.000000
  105      -49.646487    -45.927932   1.000000   1.000000
  106      -49.646470    -45.927861   1.000000   1.000000
  107      -49.646340    -45.927818   1.000000   1.000000
  108      -49.646318    -45.927809   1.000000   1.000000
  109      -49.646280    -45.927798   1.000000   1.000000
  110      -49.646265    -45.927784   1.000000   1.000000
  111      -49.646252    -45.927735   1.000000   1.000000
  112      -49.646178    -45.927676   1.000000   1.000000
  113      -49.646133    -45.927625   1.000000   1.000000
  114      -49.646075    -45.927618   1.000000   1.000000
  115      -49.646060    -45.927593   1.000000   1.000000
  116      -49.646034    -45.927537   1.000000   1.000000
  117      -49.645999    -45.927512   1.000000   1.000000
  118      -49.645963    -45.927490   1.000000   1.000000
  119      -49.645926    -45.927457   1.000000   1.000000
  120      -49.645897    -45.927424   1.000000   1.000000
  121      -49.645838    -45.927402   1.000000   1.000000
  122      -49.645806    -45.927392   1.000000   1.000000
  123      -49.645788    -45.927379   1.000000   1.000000
  124      -49.645739    -45.927369   1.000000   1.000000
  125      -49.645722    -45.927351   1.000000   1.000000
  126      -49.645689    -45.927317   1.000000   1.000000
  127      -49.645676    -45.927288   1.000000   1.000000
  128      -49.645638    -45.927250   1.000000   1.000000
  129      -49.645571    -45.927201   1.000000   1.000000
  130      -49.645550    -45.927138   1.000000   1.000000
  131      -49.645532    -45.927118   1.000000   1.000000
  132      -49.645485    -45.927075   1.000000   1.000000
  133      -49.645437    -45.927027   1.000000   1.000000
  134      -49.645423    -45.926987   1.000000   1.000000
  135      -49.645420    -45.926949   1.000000   1.000000
  136      -49.645382    -45.926873   1.000000   1.000000
  137      -49.645318    -45.926853   1.000000   1.000000
  138      -49.645282    -45.926848   1.000000   1.000000
  139      -49.645188    -45.926835   1.000000   1.000000
  140      -49.645122    -45.926795   1.000000   1.000000
  141      -49.645110    -45.926783   1.000000   1.000000
  142      -49.645080    -45.926724   1.000000   1.000000
  143      -49.645060    -45.926710   1.000000   1.000000
  144      -49.645018    -45.926688   1.000000   1.000000
  145      -49.644985    -45.926660   1.000000   1.000000
  146      -49.644963    -45.926649   1.000000   1.000000
  147      -49.644912    -45.926595   1.000000   1.000000
  148      -49.644898    -45.926579   1.000000   1.000000
  149      -49.644822    -45.926553   1.000000   1.000000
  150      -49.644783    -45.926545   1.000000   1.000000
  151      -49.644752    -45.926480   1.000000   1.000000
  152      -49.644736    -45.926452   1.000000   1.000000
  153      -49.644724    -45.926396   1.000000   1.000000
  154      -49.644712    -45.926378   1.000000   1.000000
  155      -49.644699    -45.926328   1.000000   1.000000
  156      -49.644637    -45.926299   1.000000   1.000000
  157      -49.644558    -45.926285   1.000000   1.000000
  158      -49.644522    -45.926278   1.000000   1.000000
  159      -49.644463    -45.926221   1.000000   1.000000
  160      -49.644416    -45.926151   1.000000   1.000000
  161      -49.644378    -45.926133   1.000000   1.000000
  162      -49.644362    -45.926117   1.000000   1.000000
  163      -49.644332    -45.926076   1.000000   1.000000
  164      -49.644297    -45.926012   1.000000   1.000000
  165      -49.644244    -45.925946   1.000000   1.000000
  166      -49.644186    -45.925935   1.000000   1.000000
  167      -49.644170    -45.925923   1.000000   1.000000
  168      -49.644129    -45.925901   1.000000   1.000000
  169      -49.644077    -45.925820   1.000000   1.000000
  170      -49.643998    -45.925767   1.000000   1.000000
  171      -49.643965    -45.925724   1.000000   1.000000
  172      -49.643957    -45.925661   1.000000   1.000000
  173      -49.643936    -45.925619   1.000000   1.000000
  174      -49.643913    -45.925572   1.000000   1.000000
  175      -49.643803    -45.925529   1.000000   1.000000
  176      -49.643736    -45.925451   1.000000   1.000000
  177      -49.643672    -45.925438   1.000000   1.000000
  178      -49.643628    -45.925405   1.000000   1.000000
  179      -49.643488    -45.925296   1.000000   1.000000
  180      -49.643452    -45.925228   1.000000   1.000000
  181      -49.643372    -45.925140   1.000000   1.000000
  182      -49.643325    -45.925055   1.000000   1.000000
  183      -49.643158    -45.925009   1.000000   1.000000
  184      -49.643073    -45.924956   1.000000   1.000000
  185      -49.643017    -45.924759   1.000000   1.000000
  186      -49.642983    -45.924683   1.000000   1.000000
  187      -49.642706    -45.924605   1.000000   1.000000
  188      -49.642666    -45.924485   1.000000   1.000000
  189      -49.642351    -45.924388   1.000000   1.000000
  190      -49.642180    -45.924141   1.000000   1.000000
  191      -49.629747    -45.912233   1.000000   1.000000
  192      -49.628752    -45.911439   1.000000   1.000000
  193      -39.641254    -39.640338   1.000000   1.000000
  194      -39.641063    -39.640144   1.000000   1.000000
  195      -39.634633    -39.633764   1.000000   1.000000
  196      -39.633638    -39.632765   1.000000   1.000000
  197      -39.633543    -39.632668   1.000000   1.000000
  198      -39.633517    -39.632642   1.000000   1.000000
  199      -39.633295    -39.632421   1.000000   1.000000
  200      -39.633276    -39.632404   1.000000   1.000000
  201      -39.633258    -39.632385   1.000000   1.000000
  202      -39.632838    -39.631965   1.000000   1.000000
  203      -39.628605    -39.627767   1.000000   1.000000
  204      -39.627923    -39.627086   1.000000   1.000000
  205      -39.627813    -39.626974   1.000000   1.000000
  206      -39.627776    -39.626937   1.000000   1.000000
  207      -39.627767    -39.626928   1.000000   1.000000
  208      -39.627751    -39.626913   1.000000   1.000000
  209      -39.627698    -39.626859   1.000000   1.000000
  210      -39.627009    -39.626169   1.000000   1.000000
  211      -39.617762    -39.616994   1.000000   1.000000
  212      -39.616884    -39.616111   1.000000   1.000000
  213      -39.616108    -39.615330   1.000000   1.000000
  214      -39.616013    -39.615235   1.000000   1.000000
  215      -39.615946    -39.615170   1.000000   1.000000
  216      -39.615838    -39.615062   1.000000   1.000000
  217      -39.615728    -39.614947   1.000000   1.000000
  218      -39.615593    -39.614812   1.000000   1.000000
  219      -39.615346    -39.614571   1.000000   1.000000
  220      -39.615310    -39.614540   1.000000   1.000000
  221      -39.615277    -39.614508   1.000000   1.000000
  222      -39.615264    -39.614495   1.000000   1.000000
  223      -39.615256    -39.614482   1.000000   1.000000
  224      -39.615199    -39.614430   1.000000   1.000000
  225      -39.615171    -39.614403   1.000000   1.000000
  226      -39.615162    -39.614393   1.000000   1.000000
  227      -39.615004    -39.614235   1.000000   1.000000
  228      -39.614983    -39.614215   1.000000   1.000000
  229      -39.614946    -39.614177   1.000000   1.000000
  230      -39.614940    -39.614171   1.000000   1.000000
  231      -39.614868    -39.614099   1.000000   1.000000
  232      -39.614841    -39.614070   1.000000   1.000000
  233      -39.614584    -39.613822   1.000000   1.000000
  234      -39.614518    -39.613756   1.000000   1.000000
  235      -39.614252    -39.613493   1.000000   1.000000
  236      -39.614213    -39.613454   1.000000   1.000000
  237      -39.613479    -39.612709   1.000000   1.000000
  238      -39.612762    -39.611986   1.000000   1.000000
  239      -39.604613    -39.603893   1.000000   1.000000
  240      -39.603887    -39.603167   1.000000   1.000000
  241      -39.603844    -39.603124   1.000000   1.000000
  242      -39.603825    -39.603103   1.000000   1.000000
  243      -39.603805    -39.603085   1.000000   1.000000
  244      -39.603772    -39.603052   1.000000   1.000000
  245      -39.603658    -39.602936   1.000000   1.000000
  246      -39.603057    -39.602335   1.000000   1.000000
  247      -39.600094    -39.599387   1.000000   1.000000
  248      -39.599715    -39.599009   1.000000   1.000000
  249      -39.599679    -39.598971   1.000000   1.000000
  250      -39.599668    -39.598960   1.000000   1.000000
  251      -39.599449    -39.598742   1.000000   1.000000
  252      -39.599422    -39.598716   1.000000   1.000000
  253      -39.599324    -39.598616   1.000000   1.000000
  254      -39.598306    -39.597593   1.000000   1.000000
  255      -39.593285    -39.592601   1.000000   1.000000
  256      -39.593068    -39.592382   1.000000   1.000000
  257      -12.747190    -12.467715   1.000000   1.000000
  258      -12.747176    -12.467706   1.000000   1.000000
  259      -12.719451    -12.439692   1.000000   1.000000
  260      -12.719447    -12.439689   1.000000   1.000000
  261      -12.719440    -12.439685   1.000000   1.000000
  262      -12.719418    -12.439657   1.000000   1.000000
  263      -12.719250    -12.439486   1.000000   1.000000
  264      -12.719179    -12.439424   1.000000   1.000000
  265      -12.719165    -12.439423   1.000000   1.000000
  266      -12.719162    -12.439419   1.000000   1.000000
  267      -12.697182    -12.417008   1.000000   1.000000
  268      -12.697163    -12.416984   1.000000   1.000000
  269      -12.694804    -12.415192   1.000000   1.000000
  270      -12.694741    -12.415134   1.000000   1.000000
  271      -12.694724    -12.415116   1.000000   1.000000
  272      -12.694696    -12.415084   1.000000   1.000000
  273      -12.692401    -12.413325   1.000000   1.000000
  274      -12.692333    -12.413281   1.000000   1.000000
  275      -12.691249    -12.411204   1.000000   1.000000
  276      -12.691229    -12.411195   1.000000   1.000000
  277      -12.691226    -12.411191   1.000000   1.000000
  278      -12.691175    -12.411172   1.000000   1.000000
  279      -12.672698    -12.392682   1.000000   1.000000
  280      -12.672666    -12.392646   1.000000   1.000000
  281      -12.672650    -12.392642   1.000000   1.000000
  282      -12.672644    -12.392621   1.000000   1.000000
  283      -12.667611    -12.388718   1.000000   1.000000
  284      -12.667591    -12.388695   1.000000   1.000000
  285      -12.667577    -12.388690   1.000000   1.000000
  286      -12.667573    -12.388674   1.000000   1.000000
  287      -12.654524    -12.374569   1.000000   1.000000
  288      -12.643745    -12.366019   1.000000   1.000000
  289       -7.800057     -7.599060   1.000000   1.000000
  290       -7.748214     -7.551490   1.000000   1.000000
  291       -7.506059     -7.319463   1.000000   1.000000
  292       -7.505695     -7.319351   1.000000   1.000000
  293       -7.505554     -7.319169   1.000000   1.000000
  294       -7.505343     -7.319006   1.000000   1.000000
  295       -7.500965     -7.308907   1.000000   1.000000
  296       -7.500775     -7.308776   1.000000   1.000000
  297       -7.500598     -7.308547   1.000000   1.000000
  298       -7.500225     -7.308412   1.000000   1.000000
  299       -7.315194     -7.117733   1.000000   1.000000
  300       -7.315171     -7.117717   1.000000   1.000000
  301       -7.297997     -7.094708   1.000000   1.000000
  302       -7.297829     -7.094568   1.000000   1.000000
  303       -7.295804     -7.092498   1.000000   1.000000
  304       -7.295630     -7.092352   1.000000   1.000000
  305       -7.269209     -7.061917   1.000000   1.000000
  306       -7.269208     -7.061915   1.000000   1.000000
  307       -7.088672     -6.893873   1.000000   1.000000
  308       -7.084680     -6.893857   1.000000   1.000000
  309       -7.084669     -6.893856   1.000000   1.000000
  310       -7.084654     -6.893839   1.000000   1.000000
  311       -7.084638     -6.796835   1.000000   1.000000
  312       -7.046558     -6.783723   1.000000   1.000000
  313       -7.000177     -6.768324   1.000000   1.000000
  314       -7.000065     -6.768304   1.000000   1.000000
  315       -6.999923     -6.767991   1.000000   1.000000
  316       -6.999843     -6.767918   1.000000   1.000000
  317       -6.999742     -6.766295   1.000000   1.000000
  318       -6.999622     -6.766258   1.000000   1.000000
  319       -6.999513     -6.766229   1.000000   1.000000
  320       -6.999483     -6.766089   1.000000   1.000000
  321       -6.994355     -6.765922   1.000000   1.000000
  322       -6.994311     -6.765838   1.000000   1.000000
  323       -6.994045     -6.765701   1.000000   1.000000
  324       -6.994013     -6.765541   1.000000   1.000000
  325       -6.955767     -6.745064   1.000000   1.000000
  326       -6.955755     -6.744999   1.000000   1.000000
  327       -6.955739     -6.744791   1.000000   1.000000
  328       -6.955725     -6.744704   1.000000   1.000000
  329       -6.948379     -6.697553   1.000000   1.000000
  330       -6.948311     -6.697506   1.000000   1.000000
  331       -6.928751     -6.689207   1.000000   1.000000
  332       -6.928690     -6.689115   1.000000   1.000000
  333       -6.928443     -6.688882   1.000000   1.000000
  334       -6.928427     -6.688859   1.000000   1.000000
  335       -6.911388     -6.640034   1.000000   1.000000
  336       -6.911321     -6.639721   1.000000   1.000000
  337       -6.886819     -6.639194   1.000000   1.000000
  338       -6.886644     -6.639173   1.000000   1.000000
  339       -6.884666     -6.639037   1.000000   1.000000
  340       -6.884486     -6.638974   1.000000   1.000000
  341       -6.877073     -6.638929   1.000000   1.000000
  342       -6.877060     -6.638864   1.000000   1.000000
  343       -6.876960     -6.638837   1.000000   1.000000
  344       -6.876843     -6.638694   1.000000   1.000000
  345       -6.876751     -6.637213   1.000000   1.000000
  346       -6.876657     -6.637098   1.000000   1.000000
  347       -6.876506     -6.628062   1.000000   1.000000
  348       -6.876368     -6.627912   1.000000   1.000000
  349       -6.832582     -6.586621   1.000000   1.000000
  350       -6.832581     -6.586618   1.000000   1.000000
  351       -6.794261     -6.499085   1.000000   1.000000
  352       -6.794238     -6.499060   1.000000   1.000000
  353       -1.525501     -0.414581   1.000000   1.000000
  354       -1.467854     -0.414564   1.000000   1.000000
  355       -1.467688     -0.414456   1.000000   1.000000
  356       -1.467605     -0.414436   1.000000   1.000000
  357       -1.467461      0.026243   1.000000   1.000000
  358       -1.460313      0.026323   1.000000   1.000000
  359       -1.460304      0.026423   1.000000   1.000000
  360       -1.460178      0.026513   1.000000   1.000000
  361       -1.460171      0.037782   1.000000   1.000000
  362       -1.421356      0.037890   1.000000   1.000000
  363       -1.421344      0.037901   1.000000   1.000000
  364       -1.382884      0.037987   1.000000   1.000000
  365       -1.382772      0.038130   1.000000   1.000000
  366       -1.382743      0.038195   1.000000   1.000000
  367       -1.382639      0.038261   1.000000   1.000000
  368       -1.332703      0.038326   1.000000   1.000000
  369       -1.332644      0.102902   1.000000   1.000000
  370       -1.332604      0.102915   1.000000   1.000000
  371       -1.332576      0.207358   1.000000   1.000000
  372       -1.332394      0.207448   1.000000   1.000000
  373       -1.332375      0.207659   1.000000   1.000000
  374       -1.332317      0.207752   1.000000   1.000000
  375       -1.332275      0.304174   1.000000   1.000000
  376       -1.292528      0.392492   1.000000   1.000000
  377       -1.292487      0.392558   1.000000   1.000000
  378       -1.292433      0.392662   1.000000   1.000000
  379       -1.292399      0.392708   1.000000   1.000000
  380       -1.256785      0.490893   1.000000   1.000000
  381       -1.256772      0.490912   1.000000   1.000000
  382       -1.232165      0.497549   1.000000   1.000000
  383       -1.232146      0.497671   1.000000   1.000000
  384       -1.220376      0.497735   1.000000   1.000000
  385       -0.822760      0.497849   1.000000   1.000000
  386       -0.822729      0.510668   1.000000   1.000000
  387       -0.822663      0.510703   1.000000   1.000000
  388       -0.822626      0.531199   1.000000   1.000000
  389       -0.722667      0.531217   1.000000   1.000000
  390       -0.722614      0.531292   1.000000   1.000000
  391       -0.699181      0.531306   1.000000   1.000000
  392       -0.699082      0.574149   1.000000   1.000000
  393       -0.698967      0.574246   1.000000   1.000000
  394       -0.698929      0.574346   1.000000   1.000000
  395       -0.688450      0.574374   1.000000   1.000000
  396       -0.688421      0.574387   1.000000   1.000000
  397       -0.688177      0.574410   1.000000   1.000000
  398       -0.688147      0.574522   1.000000   1.000000
  399       -0.666685      0.574644   1.000000   1.000000
  400       -0.666672      0.638624   1.000000   1.000000
  401       -0.666403      0.666311   1.000000   1.000000
  402       -0.666364      0.666330   1.000000   1.000000
  403       -0.651978      0.733094   1.000000   1.000000
  404       -0.651870      0.733116   1.000000   1.000000
  405       -0.651784      0.931381   1.000000   1.000000
  406       -0.651754      0.932557   1.000000   1.000000
  407       -0.589417      0.935604   1.000000   1.000000
  408       -0.589386      0.935655   1.000000   1.000000
  409       -0.576968      0.948844   1.000000   1.000000
  410       -0.576907      0.948896   1.000000   1.000000
  411       -0.576151      0.949005   1.000000   1.000000
  412       -0.576105      0.949076   1.000000   1.000000
  413       -0.553416      0.985790   1.000000   1.000000
  414       -0.553325      0.985937   1.000000   1.000000
  415       -0.553084      0.986482   1.000000   1.000000
  416       -0.552960      0.986634   1.000000   1.000000
  417       -0.497617      0.992782   1.000000   1.000000
  418       -0.496865      0.992968   1.000000   1.000000
  419       -0.472892      1.008936   1.000000   1.000000
  420       -0.472667      1.008943   1.000000   1.000000
  421       -0.461616      1.008961   1.000000   1.000000
  422       -0.461509      1.008966   1.000000   1.000000
  423       -0.461249      1.018475   1.000000   1.000000
  424       -0.461115      1.049089   1.000000   1.000000
  425       -0.459798      1.049136   1.000000   1.000000
  426       -0.459695      1.051657   1.000000   1.000000
  427       -0.459435      1.051702   1.000000   1.000000
  428       -0.459324      1.051774   1.000000   1.000000
  429       -0.410020      1.051834   1.000000   1.000000
  430       -0.409985      1.078660   1.000000   1.000000
  431       -0.407675      1.078813   1.000000   1.000000
  432       -0.407554      1.078856   1.000000   1.000000
  433       -0.407483      1.078955   1.000000   1.000000
  434       -0.407392      1.079336   1.000000   1.000000
  435       -0.407351      1.079619   1.000000   1.000000
  436       -0.407272      1.080122   1.000000   1.000000
  437       -0.383326      1.080443   1.000000   1.000000
  438       -0.383262      1.192851   1.000000   1.000000
  439       -0.378172      1.192888   1.000000   1.000000
  440       -0.369149      1.376471   1.000000   1.000000
  441       -0.369138      1.390364   1.000000   1.000000
  442       -0.368759      1.391168   1.000000   1.000000
  443       -0.368724      1.391206   1.000000   1.000000
  444       -0.368621      1.391314   1.000000   1.000000
  445       -0.368606      1.391382   1.000000   1.000000
  446       -0.368248      1.437320   1.000000   1.000000
  447       -0.368246      1.450214   1.000000   1.000000
  448       -0.353528      1.526245   1.000000   1.000000
  449       -0.353512      1.526393   1.000000   1.000000
  450       -0.349029      1.526439   1.000000   1.000000
  451       -0.341771      1.526551   1.000000   1.000000
  452       -0.335884      1.528869   1.000000   1.000000
  453       -0.335800      1.528944   1.000000   1.000000
  454       -0.335456      1.528964   1.000000   1.000000
  455       -0.335376      1.529100   1.000000   1.000000
  456       -0.334251      1.557943   1.000000   1.000000
  457       -0.334177      1.558039   1.000000   1.000000
  458       -0.333922      1.558602   1.000000   1.000000
  459       -0.333885      1.558725   1.000000   1.000000
  460       -0.324259      1.566624   1.000000   1.000000
  461       -0.324217      1.566731   1.000000   1.000000
  462       -0.323852      1.566932   1.000000   1.000000
  463       -0.323823      1.566981   1.000000   1.000000
  464       -0.321647      1.568173   1.000000   1.000000
  465       -0.321633      1.568283   1.000000   1.000000
  466       -0.321187      1.568428   1.000000   1.000000
  467       -0.321161      1.568659   1.000000   1.000000
  468       -0.303829      1.586597   1.000000   1.000000
  469       -0.295898      1.586644   1.000000   1.000000
  470       -0.288193      1.695709   1.000000   1.000000
  471       -0.287885      1.695725   1.000000   1.000000
  472       -0.287774      1.740838   1.000000   1.000000
  473       -0.287539      1.740966   1.000000   1.000000
  474       -0.280378      1.741272   1.000000   1.000000
  475       -0.280368      1.741386   1.000000   1.000000
  476       -0.275060      1.746876   1.000000   1.000000
  477       -0.275048      1.746885   1.000000   1.000000
  478       -0.274814      1.746915   1.000000   1.000000
  479       -0.274797      1.746945   1.000000   1.000000
  480       -0.241911      1.779033   1.000000   1.000000
  481       -0.241709      1.780620   1.000000   1.000000
  482       -0.241639      1.780652   1.000000   1.000000
  483       -0.241553      1.836812   1.000000   1.000000
  484       -0.241351      1.836927   1.000000   1.000000
  485       -0.241282      1.837329   1.000000   1.000000
  486       -0.241205      1.837414   1.000000   1.000000
  487       -0.241057      1.837738   1.000000   1.000000
  488       -0.207369      1.837840   1.000000   1.000000
  489       -0.207363      1.838429   1.000000   1.000000
  490       -0.200148      1.838544   1.000000   1.000000
  491       -0.199777      1.866212   1.000000   1.000000
  492       -0.199319      1.866414   1.000000   1.000000
  493       -0.198954      1.913300   1.000000   1.000000
  494       -0.194016      1.913468   1.000000   1.000000
  495       -0.193971      1.913500   1.000000   1.000000
  496       -0.163988      1.913549   1.000000   1.000000
  497       -0.163914      1.913567   1.000000   1.000000
  498       -0.163781      1.913642   1.000000   1.000000
  499       -0.163707      1.913746   1.000000   1.000000
  500       -0.156700      1.913851   1.000000   1.000000
  501       -0.156550      1.926280   1.000000   1.000000
  502       -0.156230      1.926656   1.000000   1.000000
  503       -0.156072      1.927403   1.000000   1.000000
  504       -0.139031      1.927821   1.000000   1.000000
  505       -0.139003      2.133229   1.000000   1.000000
  506       -0.138831      2.133268   1.000000   1.000000
  507       -0.138795      2.191260   1.000000   1.000000
  508       -0.090955      2.193184   1.000000   1.000000
  509       -0.090926      2.300612   1.000000   1.000000
  510       -0.082591      2.300714   1.000000   1.000000
  511       -0.082493      2.301145   1.000000   1.000000
  512       -0.082465      2.301228   1.000000   1.000000