 224 224   0   0
  0.1357572E+02  0.1537960E-08  0.1537962E-08  0.1395899E-08  0.5000000E-15
  1.000000000000000E-004
  CAR 
 unknown system                          
     17.69668972    -54.42103955  301      5.25638142      1.00000000
    -54.421  0.0000E+00  0.0000E+00  0.0000E+00  0.0000E+00
    -54.181  0.0000E+00  0.0000E+00  0.0000E+00  0.0000E+00
    -53.940  0.0000E+00  0.0000E+00  0.0000E+00  0.0000E+00
    -53.700  0.0000E+00  0.0000E+00  0.0000E+00  0.0000E+00
    -53.459  0.0000E+00  0.0000E+00  0.0000E+00  0.0000E+00
    -53.219  0.0000E+00  0.0000E+00  0.0000E+00  0.0000E+00
    -52.979  0.0000E+00  0.0000E+00  0.0000E+00  0.0000E+00
    -52.738  0.0000E+00  0.0000E+00  0.0000E+00  0.0000E+00
    -52.498  0.0000E+00  0.0000E+00  0.0000E+00  0.0000E+00
    -52.258  0.0000E+00  0.0000E+00  0.0000E+00  0.0000E+00
    -52.017  0.0000E+00  0.0000E+00  0.0000E+00  0.0000E+00
    -51.777  0.0000E+00  0.0000E+00  0.0000E+00  0.0000E+00
    -51.536  0.0000E+00  0.0000E+00  0.0000E+00  0.0000E+00
    -51.296  0.1446E-02  0.0000E+00  0.3475E-03  0.0000E+00
    -51.056  0.2640E+03  0.0000E+00  0.6347E+02  0.0000E+00
    -50.815  0.2199E+01  0.0000E+00  0.6400E+02  0.0000E+00
    -50.575  0.0000E+00  0.0000E+00  0.6400E+02  0.0000E+00
    -50.334  0.0000E+00  0.0000E+00  0.6400E+02  0.0000E+00
    -50.094  0.0000E+00  0.0000E+00  0.6400E+02  0.0000E+00
    -49.854  0.1112E-05  0.0000E+00  0.6400E+02  0.0000E+00
    -49.613  0.4368E+03  0.0000E+00  0.1690E+03  0.0000E+00
    -49.373  0.9566E+02  0.0000E+00  0.1920E+03  0.0000E+00
    -49.132  0.0000E+00  0.0000E+00  0.1920E+03  0.0000E+00
    -48.892  0.0000E+00  0.0000E+00  0.1920E+03  0.0000E+00
    -48.652  0.0000E+00  0.0000E+00  0.1920E+03  0.0000E+00
    -48.411  0.0000E+00  0.0000E+00  0.1920E+03  0.0000E+00
    -48.171  0.0000E+00  0.0000E+00  0.1920E+03  0.0000E+00
    -47.930  0.0000E+00  0.0000E+00  0.1920E+03  0.0000E+00
    -47.690  0.0000E+00  0.0000E+00  0.1920E+03  0.0000E+00
    -47.450  0.0000E+00  0.0000E+00  0.1920E+03  0.0000E+00
    -47.209  0.0000E+00  0.0000E+00  0.1920E+03  0.0000E+00
    -46.969  0.0000E+00  0.0000E+00  0.1920E+03  0.0000E+00
    -46.728  0.0000E+00  0.0000E+00  0.1920E+03  0.0000E+00
    -46.488  0.0000E+00  0.6921E+00  0.1920E+03  0.1664E+00
    -46.248  0.0000E+00  0.2655E+03  0.1920E+03  0.6400E+02
    -46.007  0.0000E+00  0.6289E+01  0.1920E+03  0.6551E+02
    -45.767  0.0000E+00  0.5262E+03  0.1920E+03  0.1920E+03
    -45.527  0.0000E+00  0.5690E-03  0.1920E+03  0.1920E+03
    -45.286  0.0000E+00  0.0000E+00  0.1920E+03  0.1920E+03
    -45.046  0.0000E+00  0.0000E+00  0.1920E+03  0.1920E+03
    -44.805  0.0000E+00  0.0000E+00  0.1920E+03  0.1920E+03
    -44.565  0.0000E+00  0.0000E+00  0.1920E+03  0.1920E+03
    -44.325  0.0000E+00  0.0000E+00  0.1920E+03  0.1920E+03
    -44.084  0.0000E+00  0.0000E+00  0.1920E+03  0.1920E+03
    -43.844  0.0000E+00  0.0000E+00  0.1920E+03  0.1920E+03
    -43.603  0.0000E+00  0.0000E+00  0.1920E+03  0.1920E+03
    -43.363  0.0000E+00  0.0000E+00  0.1920E+03  0.1920E+03
    -43.123  0.0000E+00  0.0000E+00  0.1920E+03  0.1920E+03
    -42.882  0.0000E+00  0.0000E+00  0.1920E+03  0.1920E+03
    -42.642  0.0000E+00  0.0000E+00  0.1920E+03  0.1920E+03
    -42.401  0.0000E+00  0.0000E+00  0.1920E+03  0.1920E+03
    -42.161  0.0000E+00  0.0000E+00  0.1920E+03  0.1920E+03
    -41.921  0.0000E+00  0.0000E+00  0.1920E+03  0.1920E+03
    -41.680  0.0000E+00  0.0000E+00  0.1920E+03  0.1920E+03
    -41.440  0.0000E+00  0.0000E+00  0.1920E+03  0.1920E+03
    -41.199  0.0000E+00  0.0000E+00  0.1920E+03  0.1920E+03
    -40.959  0.0000E+00  0.0000E+00  0.1920E+03  0.1920E+03
    -40.719  0.0000E+00  0.0000E+00  0.1920E+03  0.1920E+03
    -40.478  0.0000E+00  0.0000E+00  0.1920E+03  0.1920E+03
    -40.238  0.0000E+00  0.0000E+00  0.1920E+03  0.1920E+03
    -39.997  0.0000E+00  0.0000E+00  0.1920E+03  0.1920E+03
    -39.757  0.2024E-01  0.1845E-01  0.1920E+03  0.1920E+03
    -39.517  0.2652E+03  0.2651E+03  0.2558E+03  0.2557E+03
    -39.276  0.1033E+01  0.1095E+01  0.2560E+03  0.2560E+03
    -39.036  0.0000E+00  0.0000E+00  0.2560E+03  0.2560E+03
    -38.796  0.0000E+00  0.0000E+00  0.2560E+03  0.2560E+03
    -38.555  0.0000E+00  0.0000E+00  0.2560E+03  0.2560E+03
    -38.315  0.0000E+00  0.0000E+00  0.2560E+03  0.2560E+03
    -38.074  0.0000E+00  0.0000E+00  0.2560E+03  0.2560E+03
    -37.834  0.0000E+00  0.0000E+00  0.2560E+03  0.2560E+03
    -37.594  0.0000E+00  0.0000E+00  0.2560E+03  0.2560E+03
    -37.353  0.0000E+00  0.0000E+00  0.2560E+03  0.2560E+03
    -37.113  0.0000E+00  0.0000E+00  0.2560E+03  0.2560E+03
    -36.872  0.0000E+00  0.0000E+00  0.2560E+03  0.2560E+03
    -36.632  0.0000E+00  0.0000E+00  0.2560E+03  0.2560E+03
    -36.392  0.0000E+00  0.0000E+00  0.2560E+03  0.2560E+03
    -36.151  0.0000E+00  0.0000E+00  0.2560E+03  0.2560E+03
    -35.911  0.0000E+00  0.0000E+00  0.2560E+03  0.2560E+03
    -35.670  0.0000E+00  0.0000E+00  0.2560E+03  0.2560E+03
    -35.430  0.0000E+00  0.0000E+00  0.2560E+03  0.2560E+03
    -35.190  0.0000E+00  0.0000E+00  0.2560E+03  0.2560E+03
    -34.949  0.0000E+00  0.0000E+00  0.2560E+03  0.2560E+03
    -34.709  0.0000E+00  0.0000E+00  0.2560E+03  0.2560E+03
    -34.468  0.0000E+00  0.0000E+00  0.2560E+03  0.2560E+03
    -34.228  0.0000E+00  0.0000E+00  0.2560E+03  0.2560E+03
    -33.988  0.0000E+00  0.0000E+00  0.2560E+03  0.2560E+03
    -33.747  0.0000E+00  0.0000E+00  0.2560E+03  0.2560E+03
    -33.507  0.0000E+00  0.0000E+00  0.2560E+03  0.2560E+03
    -33.267  0.0000E+00  0.0000E+00  0.2560E+03  0.2560E+03
    -33.026  0.0000E+00  0.0000E+00  0.2560E+03  0.2560E+03
    -32.786  0.0000E+00  0.0000E+00  0.2560E+03  0.2560E+03
    -32.545  0.0000E+00  0.0000E+00  0.2560E+03  0.2560E+03
    -32.305  0.0000E+00  0.0000E+00  0.2560E+03  0.2560E+03
    -32.065  0.0000E+00  0.0000E+00  0.2560E+03  0.2560E+03
    -31.824  0.0000E+00  0.0000E+00  0.2560E+03  0.2560E+03
    -31.584  0.0000E+00  0.0000E+00  0.2560E+03  0.2560E+03
    -31.343  0.0000E+00  0.0000E+00  0.2560E+03  0.2560E+03
    -31.103  0.0000E+00  0.0000E+00  0.2560E+03  0.2560E+03
    -30.863  0.0000E+00  0.0000E+00  0.2560E+03  0.2560E+03
    -30.622  0.0000E+00  0.0000E+00  0.2560E+03  0.2560E+03
    -30.382  0.0000E+00  0.0000E+00  0.2560E+03  0.2560E+03
    -30.141  0.0000E+00  0.0000E+00  0.2560E+03  0.2560E+03
    -29.901  0.0000E+00  0.0000E+00  0.2560E+03  0.2560E+03
    -29.661  0.0000E+00  0.0000E+00  0.2560E+03  0.2560E+03
    -29.420  0.0000E+00  0.0000E+00  0.2560E+03  0.2560E+03
    -29.180  0.0000E+00  0.0000E+00  0.2560E+03  0.2560E+03
    -28.939  0.0000E+00  0.0000E+00  0.2560E+03  0.2560E+03
    -28.699  0.0000E+00  0.0000E+00  0.2560E+03  0.2560E+03
    -28.459  0.0000E+00  0.0000E+00  0.2560E+03  0.2560E+03
    -28.218  0.0000E+00  0.0000E+00  0.2560E+03  0.2560E+03
    -27.978  0.0000E+00  0.0000E+00  0.2560E+03  0.2560E+03
    -27.737  0.0000E+00  0.0000E+00  0.2560E+03  0.2560E+03
    -27.497  0.0000E+00  0.0000E+00  0.2560E+03  0.2560E+03
    -27.257  0.0000E+00  0.0000E+00  0.2560E+03  0.2560E+03
    -27.016  0.0000E+00  0.0000E+00  0.2560E+03  0.2560E+03
    -26.776  0.0000E+00  0.0000E+00  0.2560E+03  0.2560E+03
    -26.536  0.0000E+00  0.0000E+00  0.2560E+03  0.2560E+03
    -26.295  0.0000E+00  0.0000E+00  0.2560E+03  0.2560E+03
    -26.055  0.0000E+00  0.0000E+00  0.2560E+03  0.2560E+03
    -25.814  0.0000E+00  0.0000E+00  0.2560E+03  0.2560E+03
    -25.574  0.0000E+00  0.0000E+00  0.2560E+03  0.2560E+03
    -25.334  0.0000E+00  0.0000E+00  0.2560E+03  0.2560E+03
    -25.093  0.0000E+00  0.0000E+00  0.2560E+03  0.2560E+03
    -24.853  0.0000E+00  0.0000E+00  0.2560E+03  0.2560E+03
    -24.612  0.0000E+00  0.0000E+00  0.2560E+03  0.2560E+03
    -24.372  0.0000E+00  0.0000E+00  0.2560E+03  0.2560E+03
    -24.132  0.0000E+00  0.0000E+00  0.2560E+03  0.2560E+03
    -23.891  0.0000E+00  0.0000E+00  0.2560E+03  0.2560E+03
    -23.651  0.0000E+00  0.0000E+00  0.2560E+03  0.2560E+03
    -23.410  0.0000E+00  0.0000E+00  0.2560E+03  0.2560E+03
    -23.170  0.0000E+00  0.0000E+00  0.2560E+03  0.2560E+03
    -22.930  0.0000E+00  0.0000E+00  0.2560E+03  0.2560E+03
    -22.689  0.0000E+00  0.0000E+00  0.2560E+03  0.2560E+03
    -22.449  0.0000E+00  0.0000E+00  0.2560E+03  0.2560E+03
    -22.208  0.0000E+00  0.0000E+00  0.2560E+03  0.2560E+03
    -21.968  0.0000E+00  0.0000E+00  0.2560E+03  0.2560E+03
    -21.728  0.0000E+00  0.0000E+00  0.2560E+03  0.2560E+03
    -21.487  0.0000E+00  0.0000E+00  0.2560E+03  0.2560E+03
    -21.247  0.0000E+00  0.0000E+00  0.2560E+03  0.2560E+03
    -21.006  0.0000E+00  0.0000E+00  0.2560E+03  0.2560E+03
    -20.766  0.0000E+00  0.0000E+00  0.2560E+03  0.2560E+03
    -20.526  0.0000E+00  0.0000E+00  0.2560E+03  0.2560E+03
    -20.285  0.0000E+00  0.0000E+00  0.2560E+03  0.2560E+03
    -20.045  0.0000E+00  0.0000E+00  0.2560E+03  0.2560E+03
    -19.805  0.0000E+00  0.0000E+00  0.2560E+03  0.2560E+03
    -19.564  0.0000E+00  0.0000E+00  0.2560E+03  0.2560E+03
    -19.324  0.0000E+00  0.0000E+00  0.2560E+03  0.2560E+03
    -19.083  0.0000E+00  0.0000E+00  0.2560E+03  0.2560E+03
    -18.843  0.0000E+00  0.0000E+00  0.2560E+03  0.2560E+03
    -18.603  0.0000E+00  0.0000E+00  0.2560E+03  0.2560E+03
    -18.362  0.0000E+00  0.0000E+00  0.2560E+03  0.2560E+03
    -18.122  0.0000E+00  0.0000E+00  0.2560E+03  0.2560E+03
    -17.881  0.0000E+00  0.0000E+00  0.2560E+03  0.2560E+03
    -17.641  0.0000E+00  0.0000E+00  0.2560E+03  0.2560E+03
    -17.401  0.0000E+00  0.0000E+00  0.2560E+03  0.2560E+03
    -17.160  0.0000E+00  0.0000E+00  0.2560E+03  0.2560E+03
    -16.920  0.0000E+00  0.0000E+00  0.2560E+03  0.2560E+03
    -16.679  0.0000E+00  0.0000E+00  0.2560E+03  0.2560E+03
    -16.439  0.0000E+00  0.0000E+00  0.2560E+03  0.2560E+03
    -16.199  0.0000E+00  0.0000E+00  0.2560E+03  0.2560E+03
    -15.958  0.0000E+00  0.0000E+00  0.2560E+03  0.2560E+03
    -15.718  0.0000E+00  0.0000E+00  0.2560E+03  0.2560E+03
    -15.477  0.0000E+00  0.0000E+00  0.2560E+03  0.2560E+03
    -15.237  0.0000E+00  0.0000E+00  0.2560E+03  0.2560E+03
    -14.997  0.0000E+00  0.0000E+00  0.2560E+03  0.2560E+03
    -14.756  0.0000E+00  0.0000E+00  0.2560E+03  0.2560E+03
    -14.516  0.0000E+00  0.0000E+00  0.2560E+03  0.2560E+03
    -14.276  0.0000E+00  0.0000E+00  0.2560E+03  0.2560E+03
    -14.035  0.0000E+00  0.0000E+00  0.2560E+03  0.2560E+03
    -13.795  0.0000E+00  0.0000E+00  0.2560E+03  0.2560E+03
    -13.554  0.0000E+00  0.0000E+00  0.2560E+03  0.2560E+03
    -13.314  0.0000E+00  0.0000E+00  0.2560E+03  0.2560E+03
    -13.074  0.0000E+00  0.0000E+00  0.2560E+03  0.2560E+03
    -12.833  0.7694E-01  0.0000E+00  0.2560E+03  0.2560E+03
    -12.593  0.1320E+03  0.1497E-02  0.2877E+03  0.2560E+03
    -12.352  0.1044E+01  0.1236E+03  0.2880E+03  0.2857E+03
    -12.112  0.0000E+00  0.9489E+01  0.2880E+03  0.2880E+03
    -11.872  0.0000E+00  0.0000E+00  0.2880E+03  0.2880E+03
    -11.631  0.0000E+00  0.0000E+00  0.2880E+03  0.2880E+03
    -11.391  0.0000E+00  0.0000E+00  0.2880E+03  0.2880E+03
    -11.150  0.0000E+00  0.0000E+00  0.2880E+03  0.2880E+03
    -10.910  0.0000E+00  0.0000E+00  0.2880E+03  0.2880E+03
    -10.670  0.0000E+00  0.0000E+00  0.2880E+03  0.2880E+03
    -10.429  0.0000E+00  0.0000E+00  0.2880E+03  0.2880E+03
    -10.189  0.0000E+00  0.0000E+00  0.2880E+03  0.2880E+03
     -9.948  0.0000E+00  0.0000E+00  0.2880E+03  0.2880E+03
     -9.708  0.0000E+00  0.0000E+00  0.2880E+03  0.2880E+03
     -9.468  0.0000E+00  0.0000E+00  0.2880E+03  0.2880E+03
     -9.227  0.0000E+00  0.0000E+00  0.2880E+03  0.2880E+03
     -8.987  0.0000E+00  0.0000E+00  0.2880E+03  0.2880E+03
     -8.746  0.0000E+00  0.0000E+00  0.2880E+03  0.2880E+03
     -8.506  0.0000E+00  0.0000E+00  0.2880E+03  0.2880E+03
     -8.266  0.0000E+00  0.0000E+00  0.2880E+03  0.2880E+03
     -8.025  0.4931E-10  0.0000E+00  0.2880E+03  0.2880E+03
     -7.785  0.9280E+00  0.3964E-07  0.2882E+03  0.2880E+03
     -7.545  0.1879E+02  0.2844E+01  0.2927E+03  0.2887E+03
     -7.304  0.2816E+02  0.2233E+02  0.2995E+03  0.2941E+03
     -7.064  0.5371E+02  0.3103E+02  0.3124E+03  0.3015E+03
     -6.823  0.1469E+03  0.4887E+02  0.3477E+03  0.3133E+03
     -6.583  0.1774E+02  0.1389E+03  0.3520E+03  0.3467E+03
     -6.343  0.0000E+00  0.2224E+02  0.3520E+03  0.3520E+03
     -6.102  0.0000E+00  0.1181E-04  0.3520E+03  0.3520E+03
     -5.862  0.0000E+00  0.0000E+00  0.3520E+03  0.3520E+03
     -5.621  0.0000E+00  0.0000E+00  0.3520E+03  0.3520E+03
     -5.381  0.0000E+00  0.0000E+00  0.3520E+03  0.3520E+03
     -5.141  0.0000E+00  0.0000E+00  0.3520E+03  0.3520E+03
     -4.900  0.0000E+00  0.0000E+00  0.3520E+03  0.3520E+03
     -4.660  0.0000E+00  0.0000E+00  0.3520E+03  0.3520E+03
     -4.419  0.0000E+00  0.0000E+00  0.3520E+03  0.3520E+03
     -4.179  0.0000E+00  0.0000E+00  0.3520E+03  0.3520E+03
     -3.939  0.0000E+00  0.0000E+00  0.3520E+03  0.3520E+03
     -3.698  0.0000E+00  0.0000E+00  0.3520E+03  0.3520E+03
     -3.458  0.0000E+00  0.0000E+00  0.3520E+03  0.3520E+03
     -3.217  0.0000E+00  0.0000E+00  0.3520E+03  0.3520E+03
     -2.977  0.0000E+00  0.0000E+00  0.3520E+03  0.3520E+03
     -2.737  0.0000E+00  0.0000E+00  0.3520E+03  0.3520E+03
     -2.496  0.0000E+00  0.0000E+00  0.3520E+03  0.3520E+03
     -2.256  0.0000E+00  0.0000E+00  0.3520E+03  0.3520E+03
     -2.015  0.0000E+00  0.0000E+00  0.3520E+03  0.3520E+03
     -1.775  0.4699E-12  0.0000E+00  0.3520E+03  0.3520E+03
     -1.535  0.1229E+01  0.0000E+00  0.3523E+03  0.3520E+03
     -1.294  0.9984E+02  0.0000E+00  0.3763E+03  0.3520E+03
     -1.054  0.3205E+02  0.0000E+00  0.3840E+03  0.3520E+03
     -0.814  0.1241E+02  0.0000E+00  0.3870E+03  0.3520E+03
     -0.573  0.8931E+02  0.7532E-05  0.4085E+03  0.3520E+03
     -0.333  0.2235E+03  0.4041E+01  0.4622E+03  0.3530E+03
     -0.092  0.2018E+03  0.2470E+02  0.5107E+03  0.3589E+03
      0.148  0.1768E+03  0.4101E+02  0.5532E+03  0.3688E+03
      0.388  0.1518E+03  0.4233E+02  0.5897E+03  0.3789E+03
      0.629  0.1199E+03  0.7188E+02  0.6185E+03  0.3962E+03
      0.869  0.5449E+02  0.6057E+02  0.6316E+03  0.4108E+03
      1.110  0.6952E+02  0.6527E+02  0.6483E+03  0.4265E+03
      1.350  0.7353E+02  0.6771E+02  0.6660E+03  0.4427E+03
      1.590  0.6801E+02  0.7763E+02  0.6823E+03  0.4614E+03
      1.831  0.1104E+03  0.1109E+03  0.7089E+03  0.4881E+03
      2.071  0.2136E+03  0.6234E+02  0.7602E+03  0.5031E+03
      2.312  0.1399E+03  0.3777E+02  0.7939E+03  0.5121E+03
      2.552  0.8456E+02  0.7739E+02  0.8142E+03  0.5307E+03
      2.792  0.6873E+02  0.1039E+03  0.8307E+03  0.5557E+03
      3.033  0.3533E+02  0.7078E+02  0.8392E+03  0.5727E+03
      3.273  0.4037E+02  0.1312E+03  0.8489E+03  0.6043E+03
      3.514  0.5192E+02  0.1175E+03  0.8614E+03  0.6325E+03
      3.754  0.6739E+02  0.2514E+02  0.8776E+03  0.6386E+03
      3.994  0.7963E+02  0.4381E+02  0.8968E+03  0.6491E+03
      4.235  0.8009E+02  0.1785E+03  0.9160E+03  0.6920E+03
      4.475  0.7587E+02  0.4812E+02  0.9342E+03  0.7036E+03
      4.715  0.2871E+02  0.1686E+01  0.9411E+03  0.7040E+03
      4.956  0.6465E+02  0.0000E+00  0.9567E+03  0.7040E+03
      5.196  0.1378E+02  0.0000E+00  0.9600E+03  0.7040E+03
      5.437  0.0000E+00  0.0000E+00  0.9600E+03  0.7040E+03
      5.677  0.0000E+00  0.0000E+00  0.9600E+03  0.7040E+03
      5.917  0.0000E+00  0.0000E+00  0.9600E+03  0.7040E+03
      6.158  0.0000E+00  0.8024E-07  0.9600E+03  0.7040E+03
      6.398  0.0000E+00  0.1028E+01  0.9600E+03  0.7042E+03
      6.639  0.0000E+00  0.1011E+02  0.9600E+03  0.7067E+03
      6.879  0.0000E+00  0.2644E+02  0.9600E+03  0.7130E+03
      7.119  0.2886E-16  0.6574E+02  0.9600E+03  0.7288E+03
      7.360  0.5622E-01  0.1113E+03  0.9600E+03  0.7556E+03
      7.600  0.1504E+01  0.1393E+03  0.9604E+03  0.7891E+03
      7.841  0.5094E+01  0.1182E+03  0.9616E+03  0.8175E+03
      8.081  0.7082E+01  0.1784E+03  0.9633E+03  0.8604E+03
      8.321  0.9304E+01  0.1461E+03  0.9655E+03  0.8955E+03
      8.562  0.1252E+02  0.6178E+02  0.9685E+03  0.9104E+03
      8.802  0.1439E+02  0.8261E+02  0.9720E+03  0.9302E+03
      9.043  0.2718E+02  0.7308E+02  0.9785E+03  0.9478E+03
      9.283  0.3341E+02  0.5735E+02  0.9866E+03  0.9616E+03
      9.523  0.3520E+02  0.2327E+02  0.9950E+03  0.9672E+03
      9.764  0.5338E+02  0.3405E+02  0.1008E+04  0.9754E+03
     10.004  0.5110E+02  0.2267E+02  0.1020E+04  0.9808E+03
     10.245  0.3402E+02  0.3865E+02  0.1028E+04  0.9901E+03
     10.485  0.2150E+02  0.4351E+02  0.1033E+04  0.1001E+04
     10.725  0.4556E+02  0.6094E+02  0.1044E+04  0.1015E+04
     10.966  0.3308E+02  0.4358E+02  0.1052E+04  0.1026E+04
     11.206  0.4343E+02  0.4022E+02  0.1063E+04  0.1035E+04
     11.446  0.7794E+02  0.3445E+02  0.1082E+04  0.1044E+04
     11.687  0.4296E+02  0.4376E+02  0.1092E+04  0.1054E+04
     11.927  0.6447E+02  0.5175E+02  0.1107E+04  0.1067E+04
     12.168  0.6668E+02  0.5760E+02  0.1123E+04  0.1080E+04
     12.408  0.6936E+02  0.5326E+02  0.1140E+04  0.1093E+04
     12.648  0.6089E+02  0.6685E+02  0.1155E+04  0.1109E+04
     12.889  0.5279E+02  0.7976E+02  0.1167E+04  0.1129E+04
     13.129  0.5867E+02  0.6474E+02  0.1182E+04  0.1144E+04
     13.370  0.4847E+02  0.6624E+02  0.1193E+04  0.1160E+04
     13.610  0.4027E+02  0.6471E+02  0.1203E+04  0.1176E+04
     13.850  0.1890E+02  0.5737E+02  0.1207E+04  0.1189E+04
     14.091  0.2431E+01  0.5314E+02  0.1208E+04  0.1202E+04
     14.331  0.0000E+00  0.2145E+02  0.1208E+04  0.1207E+04
     14.572  0.0000E+00  0.3060E+01  0.1208E+04  0.1208E+04
     14.812  0.0000E+00  0.3933E-05  0.1208E+04  0.1208E+04
     15.052  0.0000E+00  0.0000E+00  0.1208E+04  0.1208E+04
     15.293  0.0000E+00  0.0000E+00  0.1208E+04  0.1208E+04
     15.533  0.0000E+00  0.0000E+00  0.1208E+04  0.1208E+04
     15.774  0.0000E+00  0.0000E+00  0.1208E+04  0.1208E+04
     16.014  0.0000E+00  0.0000E+00  0.1208E+04  0.1208E+04
     16.254  0.0000E+00  0.0000E+00  0.1208E+04  0.1208E+04
     16.495  0.0000E+00  0.0000E+00  0.1208E+04  0.1208E+04
     16.735  0.0000E+00  0.0000E+00  0.1208E+04  0.1208E+04
     16.976  0.0000E+00  0.0000E+00  0.1208E+04  0.1208E+04
     17.216  0.0000E+00  0.0000E+00  0.1208E+04  0.1208E+04
     17.456  0.0000E+00  0.0000E+00  0.1208E+04  0.1208E+04
     17.697  0.0000E+00  0.0000E+00  0.1208E+04  0.1208E+04
