  224  224    1    2
  0.1357572E+02  0.1537960E-08  0.1537962E-08  0.1395899E-08  0.5000000E-15
  1.000000000000000E-004
  CAR 
 unknown system                          
   1664      8   1208
 
  0.0000000E+00  0.0000000E+00  0.0000000E+00  0.1250000E+00
    1      -51.142960    -46.392224   1.000000   1.000000
    2      -51.142738    -46.391833   1.000000   1.000000
    3      -51.142531    -46.391569   1.000000   1.000000
    4      -51.142121    -46.391122   1.000000   1.000000
    5      -51.141987    -46.390983   1.000000   1.000000
    6      -51.141618    -46.390910   1.000000   1.000000
    7      -51.141425    -46.390638   1.000000   1.000000
    8      -51.141309    -46.390511   1.000000   1.000000
    9      -51.141234    -46.390500   1.000000   1.000000
   10      -51.141214    -46.390408   1.000000   1.000000
   11      -51.141145    -46.390315   1.000000   1.000000
   12      -51.141109    -46.390233   1.000000   1.000000
   13      -51.141044    -46.390190   1.000000   1.000000
   14      -51.140990    -46.390138   1.000000   1.000000
   15      -51.140956    -46.390057   1.000000   1.000000
   16      -51.140913    -46.389987   1.000000   1.000000
   17      -51.140874    -46.389965   1.000000   1.000000
   18      -51.140843    -46.389935   1.000000   1.000000
   19      -51.140821    -46.389874   1.000000   1.000000
   20      -51.140751    -46.389752   1.000000   1.000000
   21      -51.140702    -46.389690   1.000000   1.000000
   22      -51.140633    -46.389614   1.000000   1.000000
   23      -51.140571    -46.389582   1.000000   1.000000
   24      -51.140532    -46.389553   1.000000   1.000000
   25      -51.140524    -46.389507   1.000000   1.000000
   26      -51.140486    -46.389496   1.000000   1.000000
   27      -51.140478    -46.389465   1.000000   1.000000
   28      -51.140463    -46.389444   1.000000   1.000000
   29      -51.140420    -46.389412   1.000000   1.000000
   30      -51.140407    -46.389327   1.000000   1.000000
   31      -51.140361    -46.389262   1.000000   1.000000
   32      -51.140337    -46.389196   1.000000   1.000000
   33      -51.140280    -46.389169   1.000000   1.000000
   34      -51.140255    -46.389128   1.000000   1.000000
   35      -51.140225    -46.389062   1.000000   1.000000
   36      -51.140217    -46.389008   1.000000   1.000000
   37      -51.140181    -46.388994   1.000000   1.000000
   38      -51.140146    -46.388947   1.000000   1.000000
   39      -51.140112    -46.388887   1.000000   1.000000
   40      -51.140099    -46.388871   1.000000   1.000000
   41      -51.140076    -46.388829   1.000000   1.000000
   42      -51.140041    -46.388805   1.000000   1.000000
   43      -51.140012    -46.388772   1.000000   1.000000
   44      -51.139944    -46.388735   1.000000   1.000000
   45      -51.139886    -46.388700   1.000000   1.000000
   46      -51.139866    -46.388611   1.000000   1.000000
   47      -51.139852    -46.388602   1.000000   1.000000
   48      -51.139805    -46.388552   1.000000   1.000000
   49      -51.139776    -46.388505   1.000000   1.000000
   50      -51.139749    -46.388421   1.000000   1.000000
   51      -51.139728    -46.388405   1.000000   1.000000
   52      -51.139643    -46.388290   1.000000   1.000000
   53      -51.139598    -46.388216   1.000000   1.000000
   54      -51.139545    -46.388182   1.000000   1.000000
   55      -51.139505    -46.388130   1.000000   1.000000
   56      -51.139426    -46.388100   1.000000   1.000000
   57      -51.139367    -46.387970   1.000000   1.000000
   58      -51.139329    -46.387930   1.000000   1.000000
   59      -51.139149    -46.387737   1.000000   1.000000
   60      -51.138590    -46.387395   1.000000   1.000000
   61      -51.138538    -46.387365   1.000000   1.000000
   62      -51.138278    -46.387023   1.000000   1.000000
   63      -51.138050    -46.386754   1.000000   1.000000
   64      -51.137734    -46.386323   1.000000   1.000000
   65      -49.649638    -45.930570   1.000000   1.000000
   66      -49.649406    -45.930373   1.000000   1.000000
   67      -49.648754    -45.930164   1.000000   1.000000
   68      -49.648515    -45.929798   1.000000   1.000000
   69      -49.647896    -45.929686   1.000000   1.000000
   70      -49.647753    -45.929462   1.000000   1.000000
   71      -49.647681    -45.929266   1.000000   1.000000
   72      -49.647611    -45.929221   1.000000   1.000000
   73      -49.647516    -45.929191   1.000000   1.000000
   74      -49.647477    -45.929062   1.000000   1.000000
   75      -49.647384    -45.928888   1.000000   1.000000
   76      -49.647356    -45.928882   1.000000   1.000000
   77      -49.647324    -45.928787   1.000000   1.000000
   78      -49.647316    -45.928756   1.000000   1.000000
   79      -49.647288    -45.928704   1.000000   1.000000
   80      -49.647274    -45.928658   1.000000   1.000000
   81      -49.647238    -45.928654   1.000000   1.000000
   82      -49.647221    -45.928589   1.000000   1.000000
   83      -49.647143    -45.928566   1.000000   1.000000
   84      -49.647096    -45.928561   1.000000   1.000000
   85      -49.647072    -45.928492   1.000000   1.000000
   86      -49.647040    -45.928485   1.000000   1.000000
   87      -49.647000    -45.928460   1.000000   1.000000
   88      -49.646996    -45.928414   1.000000   1.000000
   89      -49.646967    -45.928396   1.000000   1.000000
   90      -49.646941    -45.928362   1.000000   1.000000
   91      -49.646923    -45.928340   1.000000   1.000000
   92      -49.646907    -45.928302   1.000000   1.000000
   93      -49.646874    -45.928281   1.000000   1.000000
   94      -49.646849    -45.928264   1.000000   1.000000
   95      -49.646841    -45.928237   1.000000   1.000000
   96      -49.646798    -45.928234   1.000000   1.000000
   97      -49.646714    -45.928181   1.000000   1.000000
   98      -49.646686    -45.928158   1.000000   1.000000
   99      -49.646671    -45.928074   1.000000   1.000000
  100      -49.646611    -45.928036   1.000000   1.000000
  101      -49.646591    -45.928012   1.000000   1.000000
  102      -49.646553    -45.927984   1.000000   1.000000
  103      -49.646513    -45.927909   1.000000   1.000000
  104      -49.646453    -45.927882   1.000000   1.000000
  105      -49.646386    -45.927874   1.000000   1.000000
  106      -49.646364    -45.927864   1.000000   1.000000
  107      -49.646336    -45.927828   1.000000   1.000000
  108      -49.646298    -45.927812   1.000000   1.000000
  109      -49.646255    -45.927793   1.000000   1.000000
  110      -49.646227    -45.927775   1.000000   1.000000
  111      -49.646219    -45.927681   1.000000   1.000000
  112      -49.646190    -45.927561   1.000000   1.000000
  113      -49.646133    -45.927499   1.000000   1.000000
  114      -49.646121    -45.927454   1.000000   1.000000
  115      -49.646044    -45.927440   1.000000   1.000000
  116      -49.646029    -45.927413   1.000000   1.000000
  117      -49.645965    -45.927396   1.000000   1.000000
  118      -49.645933    -45.927376   1.000000   1.000000
  119      -49.645854    -45.927367   1.000000   1.000000
  120      -49.645837    -45.927354   1.000000   1.000000
  121      -49.645830    -45.927324   1.000000   1.000000
  122      -49.645797    -45.927312   1.000000   1.000000
  123      -49.645786    -45.927277   1.000000   1.000000
  124      -49.645703    -45.927257   1.000000   1.000000
  125      -49.645669    -45.927243   1.000000   1.000000
  126      -49.645630    -45.927186   1.000000   1.000000
  127      -49.645622    -45.927121   1.000000   1.000000
  128      -49.645561    -45.927103   1.000000   1.000000
  129      -49.645536    -45.927083   1.000000   1.000000
  130      -49.645514    -45.927078   1.000000   1.000000
  131      -49.645470    -45.927069   1.000000   1.000000
  132      -49.645455    -45.927038   1.000000   1.000000
  133      -49.645423    -45.927031   1.000000   1.000000
  134      -49.645402    -45.927008   1.000000   1.000000
  135      -49.645372    -45.926998   1.000000   1.000000
  136      -49.645359    -45.926975   1.000000   1.000000
  137      -49.645331    -45.926956   1.000000   1.000000
  138      -49.645314    -45.926914   1.000000   1.000000
  139      -49.645269    -45.926899   1.000000   1.000000
  140      -49.645256    -45.926882   1.000000   1.000000
  141      -49.645216    -45.926836   1.000000   1.000000
  142      -49.645201    -45.926815   1.000000   1.000000
  143      -49.645150    -45.926752   1.000000   1.000000
  144      -49.645118    -45.926737   1.000000   1.000000
  145      -49.645096    -45.926690   1.000000   1.000000
  146      -49.645084    -45.926653   1.000000   1.000000
  147      -49.645072    -45.926631   1.000000   1.000000
  148      -49.645041    -45.926621   1.000000   1.000000
  149      -49.645016    -45.926593   1.000000   1.000000
  150      -49.644992    -45.926555   1.000000   1.000000
  151      -49.644975    -45.926543   1.000000   1.000000
  152      -49.644955    -45.926533   1.000000   1.000000
  153      -49.644942    -45.926520   1.000000   1.000000
  154      -49.644801    -45.926498   1.000000   1.000000
  155      -49.644799    -45.926480   1.000000   1.000000
  156      -49.644796    -45.926451   1.000000   1.000000
  157      -49.644708    -45.926431   1.000000   1.000000
  158      -49.644697    -45.926393   1.000000   1.000000
  159      -49.644667    -45.926387   1.000000   1.000000
  160      -49.644617    -45.926368   1.000000   1.000000
  161      -49.644547    -45.926348   1.000000   1.000000
  162      -49.644515    -45.926319   1.000000   1.000000
  163      -49.644474    -45.926292   1.000000   1.000000
  164      -49.644448    -45.926261   1.000000   1.000000
  165      -49.644417    -45.926254   1.000000   1.000000
  166      -49.644388    -45.926193   1.000000   1.000000
  167      -49.644370    -45.926185   1.000000   1.000000
  168      -49.644314    -45.926142   1.000000   1.000000
  169      -49.644297    -45.926105   1.000000   1.000000
  170      -49.644184    -45.926097   1.000000   1.000000
  171      -49.644171    -45.926063   1.000000   1.000000
  172      -49.644125    -45.925998   1.000000   1.000000
  173      -49.644095    -45.925976   1.000000   1.000000
  174      -49.644054    -45.925953   1.000000   1.000000
  175      -49.644034    -45.925875   1.000000   1.000000
  176      -49.644024    -45.925772   1.000000   1.000000
  177      -49.643981    -45.925756   1.000000   1.000000
  178      -49.643938    -45.925720   1.000000   1.000000
  179      -49.643902    -45.925669   1.000000   1.000000
  180      -49.643888    -45.925631   1.000000   1.000000
  181      -49.643780    -45.925599   1.000000   1.000000
  182      -49.643738    -45.925559   1.000000   1.000000
  183      -49.643577    -45.925538   1.000000   1.000000
  184      -49.643538    -45.925415   1.000000   1.000000
  185      -49.643393    -45.925264   1.000000   1.000000
  186      -49.643376    -45.925118   1.000000   1.000000
  187      -49.643314    -45.925047   1.000000   1.000000
  188      -49.643217    -45.924935   1.000000   1.000000
  189      -49.642799    -45.924666   1.000000   1.000000
  190      -49.642530    -45.924546   1.000000   1.000000
  191      -49.642358    -45.924387   1.000000   1.000000
  192      -49.642169    -45.923777   1.000000   1.000000
  193      -39.641191    -39.640275   1.000000   1.000000
  194      -39.641060    -39.640142   1.000000   1.000000
  195      -39.634086    -39.633220   1.000000   1.000000
  196      -39.633539    -39.632666   1.000000   1.000000
  197      -39.633475    -39.632603   1.000000   1.000000
  198      -39.633423    -39.632551   1.000000   1.000000
  199      -39.633419    -39.632546   1.000000   1.000000
  200      -39.633397    -39.632524   1.000000   1.000000
  201      -39.633334    -39.632461   1.000000   1.000000
  202      -39.632867    -39.631992   1.000000   1.000000
  203      -39.628113    -39.627279   1.000000   1.000000
  204      -39.627957    -39.627119   1.000000   1.000000
  205      -39.627812    -39.626974   1.000000   1.000000
  206      -39.627788    -39.626949   1.000000   1.000000
  207      -39.627742    -39.626904   1.000000   1.000000
  208      -39.627699    -39.626861   1.000000   1.000000
  209      -39.627506    -39.626667   1.000000   1.000000
  210      -39.627347    -39.626506   1.000000   1.000000
  211      -39.616908    -39.616147   1.000000   1.000000
  212      -39.616631    -39.615857   1.000000   1.000000
  213      -39.616124    -39.615348   1.000000   1.000000
  214      -39.615978    -39.615201   1.000000   1.000000
  215      -39.615967    -39.615190   1.000000   1.000000
  216      -39.615760    -39.614984   1.000000   1.000000
  217      -39.615675    -39.614898   1.000000   1.000000
  218      -39.615612    -39.614831   1.000000   1.000000
  219      -39.615523    -39.614752   1.000000   1.000000
  220      -39.615331    -39.614561   1.000000   1.000000
  221      -39.615315    -39.614548   1.000000   1.000000
  222      -39.615225    -39.614455   1.000000   1.000000
  223      -39.615168    -39.614401   1.000000   1.000000
  224      -39.615158    -39.614391   1.000000   1.000000
  225      -39.615155    -39.614388   1.000000   1.000000
  226      -39.615149    -39.614382   1.000000   1.000000
  227      -39.615006    -39.614237   1.000000   1.000000
  228      -39.614988    -39.614219   1.000000   1.000000
  229      -39.614967    -39.614199   1.000000   1.000000
  230      -39.614956    -39.614189   1.000000   1.000000
  231      -39.614922    -39.614154   1.000000   1.000000
  232      -39.614876    -39.614107   1.000000   1.000000
  233      -39.614829    -39.614061   1.000000   1.000000
  234      -39.614398    -39.613630   1.000000   1.000000
  235      -39.614329    -39.613570   1.000000   1.000000
  236      -39.614161    -39.613401   1.000000   1.000000
  237      -39.613765    -39.613003   1.000000   1.000000
  238      -39.613026    -39.612252   1.000000   1.000000
  239      -39.604271    -39.603554   1.000000   1.000000
  240      -39.604023    -39.603304   1.000000   1.000000
  241      -39.603891    -39.603173   1.000000   1.000000
  242      -39.603846    -39.603127   1.000000   1.000000
  243      -39.603789    -39.603070   1.000000   1.000000
  244      -39.603768    -39.603049   1.000000   1.000000
  245      -39.603645    -39.602925   1.000000   1.000000
  246      -39.603454    -39.602731   1.000000   1.000000
  247      -39.600043    -39.599339   1.000000   1.000000
  248      -39.599633    -39.598928   1.000000   1.000000
  249      -39.599566    -39.598860   1.000000   1.000000
  250      -39.599544    -39.598838   1.000000   1.000000
  251      -39.599524    -39.598818   1.000000   1.000000
  252      -39.599487    -39.598781   1.000000   1.000000
  253      -39.599366    -39.598660   1.000000   1.000000
  254      -39.598840    -39.598127   1.000000   1.000000
  255      -39.593291    -39.592609   1.000000   1.000000
  256      -39.593100    -39.592415   1.000000   1.000000
  257      -12.747209    -12.467740   1.000000   1.000000
  258      -12.747193    -12.467723   1.000000   1.000000
  259      -12.719657    -12.439908   1.000000   1.000000
  260      -12.719404    -12.439644   1.000000   1.000000
  261      -12.719344    -12.439593   1.000000   1.000000
  262      -12.719339    -12.439582   1.000000   1.000000
  263      -12.719321    -12.439570   1.000000   1.000000
  264      -12.719312    -12.439564   1.000000   1.000000
  265      -12.719240    -12.439497   1.000000   1.000000
  266      -12.718998    -12.439244   1.000000   1.000000
  267      -12.697180    -12.417007   1.000000   1.000000
  268      -12.697171    -12.416999   1.000000   1.000000
  269      -12.694774    -12.415164   1.000000   1.000000
  270      -12.694767    -12.415160   1.000000   1.000000
  271      -12.694744    -12.415136   1.000000   1.000000
  272      -12.694737    -12.415128   1.000000   1.000000
  273      -12.692375    -12.413310   1.000000   1.000000
  274      -12.692353    -12.413305   1.000000   1.000000
  275      -12.691263    -12.411230   1.000000   1.000000
  276      -12.691256    -12.411226   1.000000   1.000000
  277      -12.691231    -12.411198   1.000000   1.000000
  278      -12.691152    -12.411136   1.000000   1.000000
  279      -12.672857    -12.392844   1.000000   1.000000
  280      -12.672683    -12.392658   1.000000   1.000000
  281      -12.672623    -12.392608   1.000000   1.000000
  282      -12.672482    -12.392476   1.000000   1.000000
  283      -12.667784    -12.388894   1.000000   1.000000
  284      -12.667614    -12.388714   1.000000   1.000000
  285      -12.667555    -12.388665   1.000000   1.000000
  286      -12.667408    -12.388523   1.000000   1.000000
  287      -12.654512    -12.374559   1.000000   1.000000
  288      -12.643738    -12.366013   1.000000   1.000000
  289       -7.800035     -7.599035   1.000000   1.000000
  290       -7.748243     -7.551522   1.000000   1.000000
  291       -7.506280     -7.319941   1.000000   1.000000
  292       -7.505386     -7.319131   1.000000   1.000000
  293       -7.505345     -7.319092   1.000000   1.000000
  294       -7.504695     -7.318383   1.000000   1.000000
  295       -7.501597     -7.309524   1.000000   1.000000
  296       -7.500973     -7.308828   1.000000   1.000000
  297       -7.500931     -7.308787   1.000000   1.000000
  298       -7.500042     -7.307973   1.000000   1.000000
  299       -7.315216     -7.117762   1.000000   1.000000
  300       -7.315150     -7.117683   1.000000   1.000000
  301       -7.296885     -7.093621   1.000000   1.000000
  302       -7.296828     -7.093545   1.000000   1.000000
  303       -7.296793     -7.093509   1.000000   1.000000
  304       -7.296748     -7.093452   1.000000   1.000000
  305       -7.269259     -7.061971   1.000000   1.000000
  306       -7.269187     -7.061882   1.000000   1.000000
  307       -7.088764     -6.893892   1.000000   1.000000
  308       -7.084708     -6.893877   1.000000   1.000000
  309       -7.084669     -6.893848   1.000000   1.000000
  310       -7.084640     -6.893793   1.000000   1.000000
  311       -7.084529     -6.796771   1.000000   1.000000
  312       -7.046590     -6.783864   1.000000   1.000000
  313       -7.001314     -6.768851   1.000000   1.000000
  314       -6.999973     -6.767986   1.000000   1.000000
  315       -6.999904     -6.767919   1.000000   1.000000
  316       -6.999783     -6.767871   1.000000   1.000000
  317       -6.999760     -6.766897   1.000000   1.000000
  318       -6.999746     -6.766217   1.000000   1.000000
  319       -6.999622     -6.766133   1.000000   1.000000
  320       -6.998496     -6.766089   1.000000   1.000000
  321       -6.994830     -6.766050   1.000000   1.000000
  322       -6.994187     -6.766043   1.000000   1.000000
  323       -6.994036     -6.765912   1.000000   1.000000
  324       -6.993348     -6.764482   1.000000   1.000000
  325       -6.955830     -6.745572   1.000000   1.000000
  326       -6.955801     -6.744900   1.000000   1.000000
  327       -6.955766     -6.744850   1.000000   1.000000
  328       -6.955721     -6.744078   1.000000   1.000000
  329       -6.948343     -6.697499   1.000000   1.000000
  330       -6.948259     -6.697475   1.000000   1.000000
  331       -6.929342     -6.689786   1.000000   1.000000
  332       -6.928661     -6.689088   1.000000   1.000000
  333       -6.928599     -6.689052   1.000000   1.000000
  334       -6.927803     -6.688276   1.000000   1.000000
  335       -6.911320     -6.640768   1.000000   1.000000
  336       -6.911282     -6.639698   1.000000   1.000000
  337       -6.885741     -6.639208   1.000000   1.000000
  338       -6.885730     -6.639063   1.000000   1.000000
  339       -6.885640     -6.639062   1.000000   1.000000
  340       -6.885637     -6.639000   1.000000   1.000000
  341       -6.878099     -6.638918   1.000000   1.000000
  342       -6.876958     -6.638596   1.000000   1.000000
  343       -6.876840     -6.638368   1.000000   1.000000
  344       -6.876800     -6.638361   1.000000   1.000000
  345       -6.876788     -6.637616   1.000000   1.000000
  346       -6.876674     -6.637048   1.000000   1.000000
  347       -6.876643     -6.628067   1.000000   1.000000
  348       -6.875244     -6.627882   1.000000   1.000000
  349       -6.832578     -6.586613   1.000000   1.000000
  350       -6.832547     -6.586591   1.000000   1.000000
  351       -6.794269     -6.499090   1.000000   1.000000
  352       -6.794205     -6.499047   1.000000   1.000000
  353       -1.525515     -0.414605   1.000000   1.000000
  354       -1.467843     -0.414551   1.000000   1.000000
  355       -1.467766     -0.414465   1.000000   1.000000
  356       -1.467650     -0.414440   1.000000   1.000000
  357       -1.467420      0.026172   1.000000   1.000000
  358       -1.460334      0.026295   1.000000   1.000000
  359       -1.460321      0.026454   1.000000   1.000000
  360       -1.460211      0.026534   1.000000   1.000000
  361       -1.460102      0.037557   1.000000   1.000000
  362       -1.421393      0.037837   1.000000   1.000000
  363       -1.421323      0.037880   1.000000   1.000000
  364       -1.382804      0.037969   1.000000   1.000000
  365       -1.382786      0.038114   1.000000   1.000000
  366       -1.382767      0.038145   1.000000   1.000000
  367       -1.382732      0.038247   1.000000   1.000000
  368       -1.332818      0.038692   1.000000   1.000000
  369       -1.332769      0.102886   1.000000   1.000000
  370       -1.332552      0.102926   1.000000   1.000000
  371       -1.332521      0.207532   1.000000   1.000000
  372       -1.332476      0.207540   1.000000   1.000000
  373       -1.332431      0.207557   1.000000   1.000000
  374       -1.332205      0.207566   1.000000   1.000000
  375       -1.332189      0.304167   1.000000   1.000000
  376       -1.292682      0.392412   1.000000   1.000000
  377       -1.292572      0.392514   1.000000   1.000000
  378       -1.292432      0.392692   1.000000   1.000000
  379       -1.292212      0.392760   1.000000   1.000000
  380       -1.256789      0.490881   1.000000   1.000000
  381       -1.256782      0.490904   1.000000   1.000000
  382       -1.232200      0.497361   1.000000   1.000000
  383       -1.232126      0.497653   1.000000   1.000000
  384       -1.220378      0.497694   1.000000   1.000000
  385       -0.822819      0.498058   1.000000   1.000000
  386       -0.822683      0.510645   1.000000   1.000000
  387       -0.822657      0.510694   1.000000   1.000000
  388       -0.822634      0.531176   1.000000   1.000000
  389       -0.722691      0.531200   1.000000   1.000000
  390       -0.722618      0.531279   1.000000   1.000000
  391       -0.699245      0.531324   1.000000   1.000000
  392       -0.699087      0.573485   1.000000   1.000000
  393       -0.698972      0.574208   1.000000   1.000000
  394       -0.698926      0.574269   1.000000   1.000000
  395       -0.688546      0.574370   1.000000   1.000000
  396       -0.688340      0.574397   1.000000   1.000000
  397       -0.688203      0.574432   1.000000   1.000000
  398       -0.688163      0.574606   1.000000   1.000000
  399       -0.666817      0.575358   1.000000   1.000000
  400       -0.666571      0.638617   1.000000   1.000000
  401       -0.666416      0.666292   1.000000   1.000000
  402       -0.666301      0.666350   1.000000   1.000000
  403       -0.652028      0.733087   1.000000   1.000000
  404       -0.651882      0.733108   1.000000   1.000000
  405       -0.651795      0.931371   1.000000   1.000000
  406       -0.651743      0.932545   1.000000   1.000000
  407       -0.589439      0.935602   1.000000   1.000000
  408       -0.589387      0.935647   1.000000   1.000000
  409       -0.576594      0.948801   1.000000   1.000000
  410       -0.576548      0.948902   1.000000   1.000000
  411       -0.576528      0.949013   1.000000   1.000000
  412       -0.576492      0.949108   1.000000   1.000000
  413       -0.553423      0.986138   1.000000   1.000000
  414       -0.553358      0.986196   1.000000   1.000000
  415       -0.553122      0.986214   1.000000   1.000000
  416       -0.552830      0.986292   1.000000   1.000000
  417       -0.497626      0.992780   1.000000   1.000000
  418       -0.496873      0.992972   1.000000   1.000000
  419       -0.472905      1.008879   1.000000   1.000000
  420       -0.472681      1.008928   1.000000   1.000000
  421       -0.461569      1.008955   1.000000   1.000000
  422       -0.461452      1.009016   1.000000   1.000000
  423       -0.461308      1.018476   1.000000   1.000000
  424       -0.461085      1.049075   1.000000   1.000000
  425       -0.459870      1.049104   1.000000   1.000000
  426       -0.459764      1.051588   1.000000   1.000000
  427       -0.459495      1.051641   1.000000   1.000000
  428       -0.459253      1.051838   1.000000   1.000000
  429       -0.410039      1.051901   1.000000   1.000000
  430       -0.409975      1.078689   1.000000   1.000000
  431       -0.407607      1.078746   1.000000   1.000000
  432       -0.407564      1.078795   1.000000   1.000000
  433       -0.407494      1.078884   1.000000   1.000000
  434       -0.407406      1.079828   1.000000   1.000000
  435       -0.407354      1.079918   1.000000   1.000000
  436       -0.407328      1.079928   1.000000   1.000000
  437       -0.383334      1.080050   1.000000   1.000000
  438       -0.383232      1.192849   1.000000   1.000000
  439       -0.378176      1.192883   1.000000   1.000000
  440       -0.369222      1.376462   1.000000   1.000000
  441       -0.368936      1.390363   1.000000   1.000000
  442       -0.368742      1.390978   1.000000   1.000000
  443       -0.368717      1.391232   1.000000   1.000000
  444       -0.368624      1.391255   1.000000   1.000000
  445       -0.368614      1.391527   1.000000   1.000000
  446       -0.368511      1.437315   1.000000   1.000000
  447       -0.368173      1.450206   1.000000   1.000000
  448       -0.353534      1.526322   1.000000   1.000000
  449       -0.353531      1.526360   1.000000   1.000000
  450       -0.349053      1.526437   1.000000   1.000000
  451       -0.341783      1.526442   1.000000   1.000000
  452       -0.335911      1.528822   1.000000   1.000000
  453       -0.335752      1.528950   1.000000   1.000000
  454       -0.335374      1.528971   1.000000   1.000000
  455       -0.335348      1.529039   1.000000   1.000000
  456       -0.334243      1.558244   1.000000   1.000000
  457       -0.334190      1.558310   1.000000   1.000000
  458       -0.334056      1.558325   1.000000   1.000000
  459       -0.333968      1.558369   1.000000   1.000000
  460       -0.324285      1.566382   1.000000   1.000000
  461       -0.324133      1.566850   1.000000   1.000000
  462       -0.323874      1.567024   1.000000   1.000000
  463       -0.323842      1.567068   1.000000   1.000000
  464       -0.321791      1.567950   1.000000   1.000000
  465       -0.321532      1.568375   1.000000   1.000000
  466       -0.321190      1.568538   1.000000   1.000000
  467       -0.321162      1.568755   1.000000   1.000000
  468       -0.303829      1.586603   1.000000   1.000000
  469       -0.295901      1.586674   1.000000   1.000000
  470       -0.288019      1.695669   1.000000   1.000000
  471       -0.287951      1.695763   1.000000   1.000000
  472       -0.287797      1.740866   1.000000   1.000000
  473       -0.287649      1.741051   1.000000   1.000000
  474       -0.280413      1.741230   1.000000   1.000000
  475       -0.280353      1.741427   1.000000   1.000000
  476       -0.275075      1.746860   1.000000   1.000000
  477       -0.275065      1.746870   1.000000   1.000000
  478       -0.274853      1.746898   1.000000   1.000000
  479       -0.274752      1.746905   1.000000   1.000000
  480       -0.241881      1.779032   1.000000   1.000000
  481       -0.241687      1.780599   1.000000   1.000000
  482       -0.241588      1.780663   1.000000   1.000000
  483       -0.241537      1.836752   1.000000   1.000000
  484       -0.241439      1.836981   1.000000   1.000000
  485       -0.241388      1.837031   1.000000   1.000000
  486       -0.241191      1.837501   1.000000   1.000000
  487       -0.241150      1.837732   1.000000   1.000000
  488       -0.207394      1.837772   1.000000   1.000000
  489       -0.207387      1.838471   1.000000   1.000000
  490       -0.199640      1.838727   1.000000   1.000000
  491       -0.199590      1.866212   1.000000   1.000000
  492       -0.199519      1.866415   1.000000   1.000000
  493       -0.199488      1.913320   1.000000   1.000000
  494       -0.194069      1.913447   1.000000   1.000000
  495       -0.193947      1.913497   1.000000   1.000000
  496       -0.163963      1.913578   1.000000   1.000000
  497       -0.163952      1.913610   1.000000   1.000000
  498       -0.163854      1.913663   1.000000   1.000000
  499       -0.163586      1.913738   1.000000   1.000000
  500       -0.156682      1.913868   1.000000   1.000000
  501       -0.156641      1.926940   1.000000   1.000000
  502       -0.156391      1.927003   1.000000   1.000000
  503       -0.156011      1.927038   1.000000   1.000000
  504       -0.139092      1.927149   1.000000   1.000000
  505       -0.138982      2.133223   1.000000   1.000000
  506       -0.138840      2.133276   1.000000   1.000000
  507       -0.138803      2.191256   1.000000   1.000000
  508       -0.091023      2.193183   1.000000   1.000000
  509       -0.090897      2.300520   1.000000   1.000000
  510       -0.082687      2.300819   1.000000   1.000000
  511       -0.082487      2.301068   1.000000   1.000000
  512       -0.082433      2.301390   1.000000   1.000000