  224  224    1    2
  0.1357572E+02  0.1537960E-08  0.1537962E-08  0.1395899E-08  0.5000000E-15
  1.000000000000000E-004
  CAR 
 unknown system                          
   1664      8   1208
 
  0.0000000E+00  0.0000000E+00  0.0000000E+00  0.1250000E+00
    1      -51.145559    -46.394347   1.000000   1.000000
    2      -51.145465    -46.394169   1.000000   1.000000
    3      -51.141995    -46.391316   1.000000   1.000000
    4      -51.141839    -46.390964   1.000000   1.000000
    5      -51.141680    -46.390894   1.000000   1.000000
    6      -51.141617    -46.390805   1.000000   1.000000
    7      -51.141538    -46.390636   1.000000   1.000000
    8      -51.141360    -46.390543   1.000000   1.000000
    9      -51.141293    -46.390521   1.000000   1.000000
   10      -51.141194    -46.390382   1.000000   1.000000
   11      -51.141140    -46.390274   1.000000   1.000000
   12      -51.141119    -46.390211   1.000000   1.000000
   13      -51.141018    -46.390159   1.000000   1.000000
   14      -51.141010    -46.390070   1.000000   1.000000
   15      -51.140962    -46.390025   1.000000   1.000000
   16      -51.140909    -46.390000   1.000000   1.000000
   17      -51.140898    -46.389975   1.000000   1.000000
   18      -51.140833    -46.389938   1.000000   1.000000
   19      -51.140782    -46.389870   1.000000   1.000000
   20      -51.140769    -46.389799   1.000000   1.000000
   21      -51.140693    -46.389699   1.000000   1.000000
   22      -51.140673    -46.389686   1.000000   1.000000
   23      -51.140616    -46.389579   1.000000   1.000000
   24      -51.140542    -46.389568   1.000000   1.000000
   25      -51.140510    -46.389539   1.000000   1.000000
   26      -51.140503    -46.389523   1.000000   1.000000
   27      -51.140486    -46.389465   1.000000   1.000000
   28      -51.140458    -46.389432   1.000000   1.000000
   29      -51.140440    -46.389359   1.000000   1.000000
   30      -51.140430    -46.389349   1.000000   1.000000
   31      -51.140399    -46.389270   1.000000   1.000000
   32      -51.140372    -46.389210   1.000000   1.000000
   33      -51.140329    -46.389170   1.000000   1.000000
   34      -51.140302    -46.389159   1.000000   1.000000
   35      -51.140245    -46.389113   1.000000   1.000000
   36      -51.140180    -46.389070   1.000000   1.000000
   37      -51.140169    -46.389042   1.000000   1.000000
   38      -51.140150    -46.388941   1.000000   1.000000
   39      -51.140116    -46.388903   1.000000   1.000000
   40      -51.140107    -46.388872   1.000000   1.000000
   41      -51.140072    -46.388839   1.000000   1.000000
   42      -51.140040    -46.388826   1.000000   1.000000
   43      -51.139949    -46.388728   1.000000   1.000000
   44      -51.139922    -46.388682   1.000000   1.000000
   45      -51.139913    -46.388628   1.000000   1.000000
   46      -51.139859    -46.388602   1.000000   1.000000
   47      -51.139831    -46.388549   1.000000   1.000000
   48      -51.139789    -46.388490   1.000000   1.000000
   49      -51.139761    -46.388474   1.000000   1.000000
   50      -51.139687    -46.388423   1.000000   1.000000
   51      -51.139612    -46.388330   1.000000   1.000000
   52      -51.139604    -46.388291   1.000000   1.000000
   53      -51.139566    -46.388249   1.000000   1.000000
   54      -51.139527    -46.388171   1.000000   1.000000
   55      -51.139504    -46.388141   1.000000   1.000000
   56      -51.139404    -46.388127   1.000000   1.000000
   57      -51.139366    -46.388064   1.000000   1.000000
   58      -51.139203    -46.387945   1.000000   1.000000
   59      -51.139138    -46.387734   1.000000   1.000000
   60      -51.139086    -46.387695   1.000000   1.000000
   61      -51.138960    -46.387609   1.000000   1.000000
   62      -51.138806    -46.387337   1.000000   1.000000
   63      -51.135174    -46.384259   1.000000   1.000000
   64      -51.135093    -46.384154   1.000000   1.000000
   65      -49.652689    -45.933295   1.000000   1.000000
   66      -49.652127    -45.932931   1.000000   1.000000
   67      -49.649980    -45.931936   1.000000   1.000000
   68      -49.649165    -45.931564   1.000000   1.000000
   69      -49.648167    -45.929456   1.000000   1.000000
   70      -49.648119    -45.929426   1.000000   1.000000
   71      -49.647868    -45.929336   1.000000   1.000000
   72      -49.647652    -45.929280   1.000000   1.000000
   73      -49.647635    -45.928952   1.000000   1.000000
   74      -49.647615    -45.928929   1.000000   1.000000
   75      -49.647510    -45.928922   1.000000   1.000000
   76      -49.647491    -45.928855   1.000000   1.000000
   77      -49.647445    -45.928763   1.000000   1.000000
   78      -49.647410    -45.928754   1.000000   1.000000
   79      -49.647389    -45.928735   1.000000   1.000000
   80      -49.647383    -45.928720   1.000000   1.000000
   81      -49.647366    -45.928684   1.000000   1.000000
   82      -49.647327    -45.928658   1.000000   1.000000
   83      -49.647302    -45.928630   1.000000   1.000000
   84      -49.647296    -45.928540   1.000000   1.000000
   85      -49.647185    -45.928513   1.000000   1.000000
   86      -49.647171    -45.928482   1.000000   1.000000
   87      -49.647135    -45.928432   1.000000   1.000000
   88      -49.647074    -45.928399   1.000000   1.000000
   89      -49.647011    -45.928364   1.000000   1.000000
   90      -49.647003    -45.928320   1.000000   1.000000
   91      -49.646974    -45.928299   1.000000   1.000000
   92      -49.646963    -45.928252   1.000000   1.000000
   93      -49.646896    -45.928231   1.000000   1.000000
   94      -49.646862    -45.928210   1.000000   1.000000
   95      -49.646788    -45.928185   1.000000   1.000000
   96      -49.646753    -45.928146   1.000000   1.000000
   97      -49.646700    -45.928132   1.000000   1.000000
   98      -49.646672    -45.928089   1.000000   1.000000
   99      -49.646632    -45.928042   1.000000   1.000000
  100      -49.646579    -45.928028   1.000000   1.000000
  101      -49.646569    -45.927987   1.000000   1.000000
  102      -49.646482    -45.927967   1.000000   1.000000
  103      -49.646448    -45.927955   1.000000   1.000000
  104      -49.646414    -45.927916   1.000000   1.000000
  105      -49.646380    -45.927905   1.000000   1.000000
  106      -49.646343    -45.927864   1.000000   1.000000
  107      -49.646305    -45.927859   1.000000   1.000000
  108      -49.646249    -45.927842   1.000000   1.000000
  109      -49.646211    -45.927741   1.000000   1.000000
  110      -49.646180    -45.927716   1.000000   1.000000
  111      -49.646160    -45.927688   1.000000   1.000000
  112      -49.646100    -45.927654   1.000000   1.000000
  113      -49.646076    -45.927636   1.000000   1.000000
  114      -49.646053    -45.927541   1.000000   1.000000
  115      -49.646038    -45.927518   1.000000   1.000000
  116      -49.645952    -45.927461   1.000000   1.000000
  117      -49.645951    -45.927441   1.000000   1.000000
  118      -49.645947    -45.927432   1.000000   1.000000
  119      -49.645912    -45.927375   1.000000   1.000000
  120      -49.645833    -45.927363   1.000000   1.000000
  121      -49.645809    -45.927320   1.000000   1.000000
  122      -49.645808    -45.927292   1.000000   1.000000
  123      -49.645752    -45.927260   1.000000   1.000000
  124      -49.645710    -45.927207   1.000000   1.000000
  125      -49.645701    -45.927193   1.000000   1.000000
  126      -49.645640    -45.927178   1.000000   1.000000
  127      -49.645625    -45.927153   1.000000   1.000000
  128      -49.645579    -45.927122   1.000000   1.000000
  129      -49.645521    -45.927106   1.000000   1.000000
  130      -49.645500    -45.927081   1.000000   1.000000
  131      -49.645438    -45.927069   1.000000   1.000000
  132      -49.645424    -45.927048   1.000000   1.000000
  133      -49.645378    -45.927010   1.000000   1.000000
  134      -49.645373    -45.927005   1.000000   1.000000
  135      -49.645298    -45.927004   1.000000   1.000000
  136      -49.645283    -45.926933   1.000000   1.000000
  137      -49.645282    -45.926928   1.000000   1.000000
  138      -49.645254    -45.926904   1.000000   1.000000
  139      -49.645227    -45.926890   1.000000   1.000000
  140      -49.645225    -45.926867   1.000000   1.000000
  141      -49.645195    -45.926835   1.000000   1.000000
  142      -49.645182    -45.926824   1.000000   1.000000
  143      -49.645146    -45.926799   1.000000   1.000000
  144      -49.645142    -45.926769   1.000000   1.000000
  145      -49.645128    -45.926740   1.000000   1.000000
  146      -49.645116    -45.926721   1.000000   1.000000
  147      -49.645067    -45.926664   1.000000   1.000000
  148      -49.644999    -45.926634   1.000000   1.000000
  149      -49.644998    -45.926613   1.000000   1.000000
  150      -49.644945    -45.926598   1.000000   1.000000
  151      -49.644911    -45.926593   1.000000   1.000000
  152      -49.644908    -45.926572   1.000000   1.000000
  153      -49.644879    -45.926532   1.000000   1.000000
  154      -49.644838    -45.926488   1.000000   1.000000
  155      -49.644814    -45.926478   1.000000   1.000000
  156      -49.644730    -45.926473   1.000000   1.000000
  157      -49.644718    -45.926443   1.000000   1.000000
  158      -49.644676    -45.926393   1.000000   1.000000
  159      -49.644648    -45.926388   1.000000   1.000000
  160      -49.644554    -45.926379   1.000000   1.000000
  161      -49.644547    -45.926360   1.000000   1.000000
  162      -49.644534    -45.926343   1.000000   1.000000
  163      -49.644525    -45.926308   1.000000   1.000000
  164      -49.644476    -45.926229   1.000000   1.000000
  165      -49.644420    -45.926224   1.000000   1.000000
  166      -49.644408    -45.926174   1.000000   1.000000
  167      -49.644382    -45.926125   1.000000   1.000000
  168      -49.644330    -45.926108   1.000000   1.000000
  169      -49.644278    -45.926094   1.000000   1.000000
  170      -49.644257    -45.926067   1.000000   1.000000
  171      -49.644217    -45.926041   1.000000   1.000000
  172      -49.644172    -45.926004   1.000000   1.000000
  173      -49.644167    -45.925949   1.000000   1.000000
  174      -49.644115    -45.925939   1.000000   1.000000
  175      -49.644059    -45.925936   1.000000   1.000000
  176      -49.644042    -45.925891   1.000000   1.000000
  177      -49.644014    -45.925869   1.000000   1.000000
  178      -49.643922    -45.925809   1.000000   1.000000
  179      -49.643875    -45.925713   1.000000   1.000000
  180      -49.643831    -45.925600   1.000000   1.000000
  181      -49.643756    -45.925542   1.000000   1.000000
  182      -49.643742    -45.925528   1.000000   1.000000
  183      -49.643671    -45.925468   1.000000   1.000000
  184      -49.643502    -45.925415   1.000000   1.000000
  185      -49.643449    -45.925357   1.000000   1.000000
  186      -49.643337    -45.925352   1.000000   1.000000
  187      -49.643103    -45.925293   1.000000   1.000000
  188      -49.642920    -45.925137   1.000000   1.000000
  189      -49.641315    -45.922919   1.000000   1.000000
  190      -49.641006    -45.922333   1.000000   1.000000
  191      -49.639661    -45.921506   1.000000   1.000000
  192      -49.639071    -45.921239   1.000000   1.000000
  193      -39.641164    -39.640247   1.000000   1.000000
  194      -39.641074    -39.640156   1.000000   1.000000
  195      -39.634074    -39.633202   1.000000   1.000000
  196      -39.633619    -39.632747   1.000000   1.000000
  197      -39.633483    -39.632610   1.000000   1.000000
  198      -39.633436    -39.632564   1.000000   1.000000
  199      -39.633421    -39.632548   1.000000   1.000000
  200      -39.633404    -39.632531   1.000000   1.000000
  201      -39.633193    -39.632319   1.000000   1.000000
  202      -39.632878    -39.632005   1.000000   1.000000
  203      -39.628030    -39.627193   1.000000   1.000000
  204      -39.627916    -39.627078   1.000000   1.000000
  205      -39.627853    -39.627016   1.000000   1.000000
  206      -39.627829    -39.626992   1.000000   1.000000
  207      -39.627702    -39.626863   1.000000   1.000000
  208      -39.627633    -39.626794   1.000000   1.000000
  209      -39.627572    -39.626734   1.000000   1.000000
  210      -39.627466    -39.626627   1.000000   1.000000
  211      -39.616937    -39.616167   1.000000   1.000000
  212      -39.616184    -39.615408   1.000000   1.000000
  213      -39.616169    -39.615394   1.000000   1.000000
  214      -39.616055    -39.615278   1.000000   1.000000
  215      -39.616039    -39.615262   1.000000   1.000000
  216      -39.615859    -39.615083   1.000000   1.000000
  217      -39.615828    -39.615057   1.000000   1.000000
  218      -39.615541    -39.614761   1.000000   1.000000
  219      -39.615450    -39.614672   1.000000   1.000000
  220      -39.615365    -39.614597   1.000000   1.000000
  221      -39.615330    -39.614559   1.000000   1.000000
  222      -39.615262    -39.614495   1.000000   1.000000
  223      -39.615240    -39.614472   1.000000   1.000000
  224      -39.615223    -39.614456   1.000000   1.000000
  225      -39.615149    -39.614381   1.000000   1.000000
  226      -39.615100    -39.614333   1.000000   1.000000
  227      -39.615008    -39.614239   1.000000   1.000000
  228      -39.614924    -39.614155   1.000000   1.000000
  229      -39.614909    -39.614140   1.000000   1.000000
  230      -39.614876    -39.614110   1.000000   1.000000
  231      -39.614862    -39.614093   1.000000   1.000000
  232      -39.614811    -39.614043   1.000000   1.000000
  233      -39.614801    -39.614031   1.000000   1.000000
  234      -39.614573    -39.613808   1.000000   1.000000
  235      -39.614113    -39.613353   1.000000   1.000000
  236      -39.614100    -39.613337   1.000000   1.000000
  237      -39.613840    -39.613077   1.000000   1.000000
  238      -39.613410    -39.612644   1.000000   1.000000
  239      -39.604147    -39.603428   1.000000   1.000000
  240      -39.604014    -39.603295   1.000000   1.000000
  241      -39.603952    -39.603233   1.000000   1.000000
  242      -39.603853    -39.603134   1.000000   1.000000
  243      -39.603765    -39.603045   1.000000   1.000000
  244      -39.603737    -39.603017   1.000000   1.000000
  245      -39.603657    -39.602937   1.000000   1.000000
  246      -39.603537    -39.602816   1.000000   1.000000
  247      -39.600039    -39.599333   1.000000   1.000000
  248      -39.599759    -39.599054   1.000000   1.000000
  249      -39.599557    -39.598851   1.000000   1.000000
  250      -39.599529    -39.598823   1.000000   1.000000
  251      -39.599514    -39.598807   1.000000   1.000000
  252      -39.599461    -39.598754   1.000000   1.000000
  253      -39.599345    -39.598638   1.000000   1.000000
  254      -39.598870    -39.598162   1.000000   1.000000
  255      -39.593271    -39.592588   1.000000   1.000000
  256      -39.593145    -39.592461   1.000000   1.000000
  257      -12.747251    -12.467786   1.000000   1.000000
  258      -12.747199    -12.467729   1.000000   1.000000
  259      -12.720358    -12.440669   1.000000   1.000000
  260      -12.719503    -12.439747   1.000000   1.000000
  261      -12.719389    -12.439644   1.000000   1.000000
  262      -12.719347    -12.439593   1.000000   1.000000
  263      -12.719333    -12.439581   1.000000   1.000000
  264      -12.719311    -12.439561   1.000000   1.000000
  265      -12.719153    -12.439405   1.000000   1.000000
  266      -12.718378    -12.438575   1.000000   1.000000
  267      -12.697294    -12.417159   1.000000   1.000000
  268      -12.697248    -12.417109   1.000000   1.000000
  269      -12.694919    -12.415302   1.000000   1.000000
  270      -12.694767    -12.415158   1.000000   1.000000
  271      -12.694752    -12.415144   1.000000   1.000000
  272      -12.694750    -12.415142   1.000000   1.000000
  273      -12.692517    -12.413358   1.000000   1.000000
  274      -12.692304    -12.413222   1.000000   1.000000
  275      -12.691255    -12.411220   1.000000   1.000000
  276      -12.691227    -12.411199   1.000000   1.000000
  277      -12.691106    -12.411104   1.000000   1.000000
  278      -12.690940    -12.410955   1.000000   1.000000
  279      -12.673227    -12.393249   1.000000   1.000000
  280      -12.672672    -12.392654   1.000000   1.000000
  281      -12.672587    -12.392572   1.000000   1.000000
  282      -12.672190    -12.392167   1.000000   1.000000
  283      -12.668100    -12.389217   1.000000   1.000000
  284      -12.667605    -12.388711   1.000000   1.000000
  285      -12.667518    -12.388627   1.000000   1.000000
  286      -12.667032    -12.388092   1.000000   1.000000
  287      -12.654491    -12.374534   1.000000   1.000000
  288      -12.643724    -12.365995   1.000000   1.000000
  289       -7.800026     -7.599027   1.000000   1.000000
  290       -7.748234     -7.551512   1.000000   1.000000
  291       -7.505560     -7.319316   1.000000   1.000000
  292       -7.505381     -7.319129   1.000000   1.000000
  293       -7.505311     -7.319057   1.000000   1.000000
  294       -7.505160     -7.318893   1.000000   1.000000
  295       -7.501141     -7.309004   1.000000   1.000000
  296       -7.500973     -7.308836   1.000000   1.000000
  297       -7.500901     -7.308762   1.000000   1.000000
  298       -7.500763     -7.308609   1.000000   1.000000
  299       -7.315279     -7.117836   1.000000   1.000000
  300       -7.315028     -7.117565   1.000000   1.000000
  301       -7.297084     -7.093822   1.000000   1.000000
  302       -7.296828     -7.093546   1.000000   1.000000
  303       -7.296793     -7.093509   1.000000   1.000000
  304       -7.296550     -7.093245   1.000000   1.000000
  305       -7.269378     -7.062091   1.000000   1.000000
  306       -7.269092     -7.061782   1.000000   1.000000
  307       -7.088643     -6.894032   1.000000   1.000000
  308       -7.084820     -6.893838   1.000000   1.000000
  309       -7.084642     -6.893836   1.000000   1.000000
  310       -7.084636     -6.893663   1.000000   1.000000
  311       -7.084482     -6.796734   1.000000   1.000000
  312       -7.046571     -6.783804   1.000000   1.000000
  313       -7.000365     -6.768130   1.000000   1.000000
  314       -7.000143     -6.767990   1.000000   1.000000
  315       -6.999906     -6.767962   1.000000   1.000000
  316       -6.999774     -6.767753   1.000000   1.000000
  317       -6.999758     -6.766676   1.000000   1.000000
  318       -6.999656     -6.766428   1.000000   1.000000
  319       -6.999400     -6.766202   1.000000   1.000000
  320       -6.999201     -6.766087   1.000000   1.000000
  321       -6.994479     -6.766058   1.000000   1.000000
  322       -6.994189     -6.765943   1.000000   1.000000
  323       -6.994115     -6.765667   1.000000   1.000000
  324       -6.993823     -6.765409   1.000000   1.000000
  325       -6.955943     -6.745221   1.000000   1.000000
  326       -6.955757     -6.744901   1.000000   1.000000
  327       -6.955746     -6.744824   1.000000   1.000000
  328       -6.955599     -6.744492   1.000000   1.000000
  329       -6.948340     -6.697481   1.000000   1.000000
  330       -6.948283     -6.697429   1.000000   1.000000
  331       -6.928912     -6.689401   1.000000   1.000000
  332       -6.928670     -6.689128   1.000000   1.000000
  333       -6.928585     -6.689042   1.000000   1.000000
  334       -6.928285     -6.688712   1.000000   1.000000
  335       -6.911321     -6.639866   1.000000   1.000000
  336       -6.911298     -6.639467   1.000000   1.000000
  337       -6.885747     -6.639322   1.000000   1.000000
  338       -6.885647     -6.639095   1.000000   1.000000
  339       -6.885639     -6.639021   1.000000   1.000000
  340       -6.885583     -6.638955   1.000000   1.000000
  341       -6.877377     -6.638817   1.000000   1.000000
  342       -6.877170     -6.638600   1.000000   1.000000
  343       -6.876925     -6.638345   1.000000   1.000000
  344       -6.876812     -6.638308   1.000000   1.000000
  345       -6.876801     -6.638110   1.000000   1.000000
  346       -6.876668     -6.637796   1.000000   1.000000
  347       -6.876426     -6.628056   1.000000   1.000000
  348       -6.876189     -6.628038   1.000000   1.000000
  349       -6.832629     -6.586669   1.000000   1.000000
  350       -6.832555     -6.586589   1.000000   1.000000
  351       -6.794267     -6.499089   1.000000   1.000000
  352       -6.794249     -6.499069   1.000000   1.000000
  353       -1.525524     -0.414634   1.000000   1.000000
  354       -1.468207     -0.414578   1.000000   1.000000
  355       -1.467706     -0.414505   1.000000   1.000000
  356       -1.467601     -0.414341   1.000000   1.000000
  357       -1.467261      0.025931   1.000000   1.000000
  358       -1.460318      0.026261   1.000000   1.000000
  359       -1.460283      0.026465   1.000000   1.000000
  360       -1.460203      0.026693   1.000000   1.000000
  361       -1.460168      0.037768   1.000000   1.000000
  362       -1.421388      0.037804   1.000000   1.000000
  363       -1.421338      0.037927   1.000000   1.000000
  364       -1.382808      0.037981   1.000000   1.000000
  365       -1.382788      0.038072   1.000000   1.000000
  366       -1.382765      0.038215   1.000000   1.000000
  367       -1.382743      0.038275   1.000000   1.000000
  368       -1.333338      0.038392   1.000000   1.000000
  369       -1.332720      0.102891   1.000000   1.000000
  370       -1.332562      0.102912   1.000000   1.000000
  371       -1.332533      0.207404   1.000000   1.000000
  372       -1.332487      0.207547   1.000000   1.000000
  373       -1.332437      0.207554   1.000000   1.000000
  374       -1.332296      0.207682   1.000000   1.000000
  375       -1.331634      0.304165   1.000000   1.000000
  376       -1.292972      0.392198   1.000000   1.000000
  377       -1.292518      0.392497   1.000000   1.000000
  378       -1.292385      0.392696   1.000000   1.000000
  379       -1.291993      0.393150   1.000000   1.000000
  380       -1.256793      0.490794   1.000000   1.000000
  381       -1.256778      0.490995   1.000000   1.000000
  382       -1.232169      0.497481   1.000000   1.000000
  383       -1.232155      0.497678   1.000000   1.000000
  384       -1.220370      0.497740   1.000000   1.000000
  385       -0.822808      0.498049   1.000000   1.000000
  386       -0.822743      0.510668   1.000000   1.000000
  387       -0.822664      0.510702   1.000000   1.000000
  388       -0.822570      0.531044   1.000000   1.000000
  389       -0.722711      0.531266   1.000000   1.000000
  390       -0.722593      0.531292   1.000000   1.000000
  391       -0.699196      0.531396   1.000000   1.000000
  392       -0.699035      0.574115   1.000000   1.000000
  393       -0.698948      0.574214   1.000000   1.000000
  394       -0.698831      0.574255   1.000000   1.000000
  395       -0.688468      0.574375   1.000000   1.000000
  396       -0.688432      0.574411   1.000000   1.000000
  397       -0.688200      0.574441   1.000000   1.000000
  398       -0.688141      0.574545   1.000000   1.000000
  399       -0.666802      0.574714   1.000000   1.000000
  400       -0.666686      0.638615   1.000000   1.000000
  401       -0.666483      0.666303   1.000000   1.000000
  402       -0.666253      0.666337   1.000000   1.000000
  403       -0.651980      0.733082   1.000000   1.000000
  404       -0.651970      0.733101   1.000000   1.000000
  405       -0.651784      0.931364   1.000000   1.000000
  406       -0.651611      0.932550   1.000000   1.000000
  407       -0.589428      0.935489   1.000000   1.000000
  408       -0.589395      0.935754   1.000000   1.000000
  409       -0.576619      0.948589   1.000000   1.000000
  410       -0.576554      0.948890   1.000000   1.000000
  411       -0.576552      0.948990   1.000000   1.000000
  412       -0.576440      0.949082   1.000000   1.000000
  413       -0.553546      0.986022   1.000000   1.000000
  414       -0.553312      0.986155   1.000000   1.000000
  415       -0.553036      0.986238   1.000000   1.000000
  416       -0.552980      0.986418   1.000000   1.000000
  417       -0.497630      0.992781   1.000000   1.000000
  418       -0.496878      0.992975   1.000000   1.000000
  419       -0.472915      1.008773   1.000000   1.000000
  420       -0.472688      1.008944   1.000000   1.000000
  421       -0.461644      1.008956   1.000000   1.000000
  422       -0.461472      1.009115   1.000000   1.000000
  423       -0.461262      1.018467   1.000000   1.000000
  424       -0.461150      1.049092   1.000000   1.000000
  425       -0.459844      1.049151   1.000000   1.000000
  426       -0.459686      1.051591   1.000000   1.000000
  427       -0.459426      1.051662   1.000000   1.000000
  428       -0.459309      1.051771   1.000000   1.000000
  429       -0.410029      1.051876   1.000000   1.000000
  430       -0.409990      1.078708   1.000000   1.000000
  431       -0.407587      1.078711   1.000000   1.000000
  432       -0.407538      1.078812   1.000000   1.000000
  433       -0.407504      1.078995   1.000000   1.000000
  434       -0.407436      1.079791   1.000000   1.000000
  435       -0.407384      1.079854   1.000000   1.000000
  436       -0.407314      1.079884   1.000000   1.000000
  437       -0.383305      1.080002   1.000000   1.000000
  438       -0.383265      1.192811   1.000000   1.000000
  439       -0.378166      1.192914   1.000000   1.000000
  440       -0.368989      1.376459   1.000000   1.000000
  441       -0.368875      1.390361   1.000000   1.000000
  442       -0.368783      1.390879   1.000000   1.000000
  443       -0.368741      1.391090   1.000000   1.000000
  444       -0.368696      1.391316   1.000000   1.000000
  445       -0.368636      1.391545   1.000000   1.000000
  446       -0.368481      1.437311   1.000000   1.000000
  447       -0.368376      1.450203   1.000000   1.000000
  448       -0.353560      1.526187   1.000000   1.000000
  449       -0.353519      1.526356   1.000000   1.000000
  450       -0.349052      1.526364   1.000000   1.000000
  451       -0.341792      1.526621   1.000000   1.000000
  452       -0.335803      1.528790   1.000000   1.000000
  453       -0.335766      1.528895   1.000000   1.000000
  454       -0.335420      1.529000   1.000000   1.000000
  455       -0.335384      1.529204   1.000000   1.000000
  456       -0.334224      1.558281   1.000000   1.000000
  457       -0.334107      1.558319   1.000000   1.000000
  458       -0.334070      1.558365   1.000000   1.000000
  459       -0.334056      1.558377   1.000000   1.000000
  460       -0.324247      1.566540   1.000000   1.000000
  461       -0.324235      1.566679   1.000000   1.000000
  462       -0.324088      1.566903   1.000000   1.000000
  463       -0.323647      1.567173   1.000000   1.000000
  464       -0.321657      1.568102   1.000000   1.000000
  465       -0.321645      1.568213   1.000000   1.000000
  466       -0.321374      1.568442   1.000000   1.000000
  467       -0.320912      1.568814   1.000000   1.000000
  468       -0.303824      1.586366   1.000000   1.000000
  469       -0.295898      1.586865   1.000000   1.000000
  470       -0.288200      1.695608   1.000000   1.000000
  471       -0.287930      1.695832   1.000000   1.000000
  472       -0.287787      1.741003   1.000000   1.000000
  473       -0.287616      1.741059   1.000000   1.000000
  474       -0.280404      1.741369   1.000000   1.000000
  475       -0.280367      1.741428   1.000000   1.000000
  476       -0.275160      1.746855   1.000000   1.000000
  477       -0.274990      1.746858   1.000000   1.000000
  478       -0.274824      1.746896   1.000000   1.000000
  479       -0.274773      1.746911   1.000000   1.000000
  480       -0.241822      1.779032   1.000000   1.000000
  481       -0.241690      1.780579   1.000000   1.000000
  482       -0.241542      1.780684   1.000000   1.000000
  483       -0.241492      1.836753   1.000000   1.000000
  484       -0.241397      1.837014   1.000000   1.000000
  485       -0.241348      1.837377   1.000000   1.000000
  486       -0.241280      1.837403   1.000000   1.000000
  487       -0.241083      1.837837   1.000000   1.000000
  488       -0.207398      1.837955   1.000000   1.000000
  489       -0.207391      1.838424   1.000000   1.000000
  490       -0.199718      1.838455   1.000000   1.000000
  491       -0.199560      1.866212   1.000000   1.000000
  492       -0.199547      1.866416   1.000000   1.000000
  493       -0.199419      1.913107   1.000000   1.000000
  494       -0.194067      1.913170   1.000000   1.000000
  495       -0.193934      1.913389   1.000000   1.000000
  496       -0.164117      1.913525   1.000000   1.000000
  497       -0.163929      1.913583   1.000000   1.000000
  498       -0.163749      1.913782   1.000000   1.000000
  499       -0.163625      1.913851   1.000000   1.000000
  500       -0.156809      1.913931   1.000000   1.000000
  501       -0.156437      1.926603   1.000000   1.000000
  502       -0.156177      1.926983   1.000000   1.000000
  503       -0.156167      1.927066   1.000000   1.000000
  504       -0.139047      1.927467   1.000000   1.000000
  505       -0.139019      2.133168   1.000000   1.000000
  506       -0.138860      2.133330   1.000000   1.000000
  507       -0.138792      2.191257   1.000000   1.000000
  508       -0.090981      2.193190   1.000000   1.000000
  509       -0.090940      2.300221   1.000000   1.000000
  510       -0.082529      2.300761   1.000000   1.000000
  511       -0.082513      2.301153   1.000000   1.000000
  512       -0.082498      2.301207   1.000000   1.000000