 vasp.5.4.4.18Apr17-6-g9f103f2a35 (build Oct 25 2017 14:42:18) complex          
  
 executed on             LinuxIFC date 2021.04.28  23:18:36
 running on   48 total cores
 distrk:  each k-point on   24 cores,    2 groups
 distr:  one band on NCORES_PER_BAND=   6 cores,    4 groups


--------------------------------------------------------------------------------------------------------


 INCAR:
 POTCAR:    PAW_PBE Li_sv 10Sep2004               
 POTCAR:    PAW_PBE O 08Apr2002                   
 POTCAR:    PAW_PBE S 06Sep2000                   
 POTCAR:    PAW_PBE Fe_pv 02Aug2007               

 ----------------------------------------------------------------------------- 
|                                                                             |
|           W    W    AA    RRRRR   N    N  II  N    N   GGGG   !!!           |
|           W    W   A  A   R    R  NN   N  II  NN   N  G    G  !!!           |
|           W    W  A    A  R    R  N N  N  II  N N  N  G       !!!           |
|           W WW W  AAAAAA  RRRRR   N  N N  II  N  N N  G  GGG   !            |
|           WW  WW  A    A  R   R   N   NN  II  N   NN  G    G                |
|           W    W  A    A  R    R  N    N  II  N    N   GGGG   !!!           |
|                                                                             |
|      You have enabled k-point parallelism (KPAR>1).                         |
|      This developmental code was originally  written by Paul Kent at ORNL,  |
|      and carefully double checked in Vienna.                                |
|      GW as well as linear response parallelism added by Martijn Marsman     |
|      and Georg Kresse.                                                      |
|      Carefully verify results versus KPAR=1.                                |
|      Report problems to Paul Kent and Vienna.                               |
|                                                                             |
 ----------------------------------------------------------------------------- 

 POTCAR:    PAW_PBE Li_sv 10Sep2004               
  local pseudopotential read in
  atomic valenz-charges read in
  non local Contribution for L=           0  read in
    real space projection operators read in
  non local Contribution for L=           0  read in
    real space projection operators read in
  non local Contribution for L=           1  read in
    real space projection operators read in
    PAW grid and wavefunctions read in
 
   number of l-projection  operators is LMAX  =           3
   number of lm-projection operators is LMMAX =           5
 
 POTCAR:    PAW_PBE O 08Apr2002                   
  local pseudopotential read in
  partial core-charges read in
  partial kinetic energy density read in
  kinetic energy density of atom read in
  atomic valenz-charges read in
  non local Contribution for L=           0  read in
    real space projection operators read in
  non local Contribution for L=           0  read in
    real space projection operators read in
  non local Contribution for L=           1  read in
    real space projection operators read in
  non local Contribution for L=           1  read in
    real space projection operators read in
    PAW grid and wavefunctions read in
 
   number of l-projection  operators is LMAX  =           4
   number of lm-projection operators is LMMAX =           8
 
 POTCAR:    PAW_PBE S 06Sep2000                   
  local pseudopotential read in
  partial core-charges read in
  partial kinetic energy density read in
  atomic valenz-charges read in
  non local Contribution for L=           0  read in
    real space projection operators read in
  non local Contribution for L=           0  read in
    real space projection operators read in
  non local Contribution for L=           1  read in
    real space projection operators read in
  non local Contribution for L=           1  read in
    real space projection operators read in
    PAW grid and wavefunctions read in
 
   number of l-projection  operators is LMAX  =           4
   number of lm-projection operators is LMMAX =           8
 
 POTCAR:    PAW_PBE Fe_pv 02Aug2007               
  local pseudopotential read in
  partial core-charges read in
  partial kinetic energy density read in
  atomic valenz-charges read in
  non local Contribution for L=           1  read in
    real space projection operators read in
  non local Contribution for L=           1  read in
    real space projection operators read in
  non local Contribution for L=           2  read in
    real space projection operators read in
  non local Contribution for L=           2  read in
    real space projection operators read in
  non local Contribution for L=           0  read in
    real space projection operators read in
  non local Contribution for L=           0  read in
    real space projection operators read in
    PAW grid and wavefunctions read in
 
   number of l-projection  operators is LMAX  =           6
   number of lm-projection operators is LMMAX =          18
 

 ----------------------------------------------------------------------------- 
|                                                                             |
|  ADVICE TO THIS USER RUNNING 'VASP/VAMP'   (HEAR YOUR MASTER'S VOICE ...):  |
|                                                                             |
|      You have a (more or less) 'large supercell' and for larger cells       |
|      it might be more efficient to use real space projection opertators     |
|      So try LREAL= Auto  in the INCAR   file.                               |
|      Mind:          For very  accurate calculation you might also keep the  |
|      reciprocal projection scheme          (i.e. LREAL=.FALSE.)             |
|                                                                             |
 ----------------------------------------------------------------------------- 

  PAW_PBE Li_sv 10Sep2004               :
 energy of atom  1       EATOM= -202.7858
 kinetic energy error for atom=    0.0072 (will be added to EATOM!!)
  PAW_PBE O 08Apr2002                   :
 energy of atom  2       EATOM= -432.3788
 kinetic energy error for atom=    0.0129 (will be added to EATOM!!)
  PAW_PBE S 06Sep2000                   :
 energy of atom  3       EATOM= -276.8230
 kinetic energy error for atom=    0.0008 (will be added to EATOM!!)
  PAW_PBE Fe_pv 02Aug2007               :
 energy of atom  4       EATOM=-2457.4239
 kinetic energy error for atom=    0.0041 (will be added to EATOM!!)
 
 
 POSCAR: # Compound: Li64O32S64Fe64. Old comment:
  positions in direct lattice
  No initial velocities read in
 exchange correlation table for  LEXCH =        8
   RHO(1)=    0.500       N(1)  =     2000
   RHO(2)=  100.500       N(2)  =     4000
 


--------------------------------------------------------------------------------------------------------


 ion  position               nearest neighbor table
   1  0.112  0.031  0.000-  69 1.94  74 1.94  97 2.55 133 2.55
   2  0.612  0.031  0.000-  70 1.94  73 1.94  98 2.55 134 2.55
   3  0.112  0.531  0.000-  71 1.94  76 1.94  99 2.55 135 2.55
   4  0.612  0.531  0.000-  72 1.94  75 1.94 100 2.55 136 2.55
   5  0.112  0.031  0.500-  65 1.94  78 1.94 101 2.55 129 2.55
   6  0.612  0.031  0.500-  66 1.94  77 1.94 102 2.55 130 2.55
   7  0.112  0.531  0.500-  67 1.94  80 1.94 103 2.55 131 2.55
   8  0.612  0.531  0.500-  68 1.94  79 1.94 104 2.55 132 2.55
   9  0.362  0.495  0.000-  75 1.94  71 1.94 121 2.55 157 2.55
  10  0.862  0.495  0.000-  76 1.94  72 1.94 122 2.55 158 2.55
  11  0.362  0.995  0.000-  73 1.94  69 1.94 123 2.55 159 2.55
  12  0.862  0.995  0.000-  74 1.94  70 1.94 124 2.55 160 2.55
  13  0.362  0.495  0.500-  79 1.94  67 1.94 125 2.55 153 2.55
  14  0.862  0.495  0.500-  80 1.94  68 1.94 126 2.55 154 2.55
  15  0.362  0.995  0.500-  77 1.94  65 1.94 127 2.55 155 2.55
  16  0.862  0.995  0.500-  78 1.94  66 1.94 128 2.55 156 2.55
  17  0.112  0.245  0.000-  81 1.94  94 1.94  97 2.55 133 2.55
  18  0.612  0.245  0.000-  82 1.94  93 1.94  98 2.55 134 2.55
  19  0.112  0.745  0.000-  83 1.94  96 1.94  99 2.55 135 2.55
  20  0.612  0.745  0.000-  84 1.94  95 1.94 100 2.55 136 2.55
  21  0.112  0.245  0.500-  85 1.94  90 1.94 101 2.55 129 2.55
  22  0.612  0.245  0.500-  86 1.94  89 1.94 102 2.55 130 2.55
  23  0.112  0.745  0.500-  87 1.94  92 1.94 103 2.55 131 2.55
  24  0.612  0.745  0.500-  88 1.94  91 1.94 104 2.55 132 2.55
  25  0.362  0.281  0.000-  93 1.94  81 1.94 121 2.55 157 2.55
  26  0.862  0.281  0.000-  94 1.94  82 1.94 122 2.55 158 2.55
  27  0.362  0.781  0.000-  95 1.94  83 1.94 123 2.55 159 2.55
  28  0.862  0.781  0.000-  96 1.94  84 1.94 124 2.55 160 2.55
  29  0.362  0.281  0.500-  89 1.94  85 1.94 125 2.55 153 2.55
  30  0.862  0.281  0.500-  90 1.94  86 1.94 126 2.55 154 2.55
  31  0.362  0.781  0.500-  91 1.94  87 1.94 127 2.55 155 2.55
  32  0.862  0.781  0.500-  92 1.94  88 1.94 128 2.55 156 2.55
  33  0.255  0.138  0.500-  65 1.94  85 1.94 137 2.55 109 2.55
  34  0.755  0.138  0.500-  66 1.94  86 1.94 138 2.55 110 2.55
  35  0.255  0.638  0.500-  67 1.94  87 1.94 139 2.55 111 2.55
  36  0.755  0.638  0.500-  68 1.94  88 1.94 140 2.55 112 2.55
  37  0.255  0.138  1.000-  69 1.94  81 1.94 141 2.55 105 2.55
  38  0.755  0.138  1.000-  70 1.94  82 1.94 142 2.55 106 2.55
  39  0.255  0.638  1.000-  71 1.94  83 1.94 143 2.55 107 2.55
  40  0.755  0.638  1.000-  72 1.94  84 1.94 144 2.55 108 2.55
  41  0.469  0.138  0.500-  77 1.94  89 1.94 137 2.55 109 2.55
  42  0.969  0.138  0.500-  78 1.94  90 1.94 138 2.55 110 2.55
  43  0.469  0.638  0.500-  79 1.94  91 1.94 139 2.55 111 2.55
  44  0.969  0.638  0.500-  80 1.94  92 1.94 140 2.55 112 2.55
  45  0.469  0.138  1.000-  73 1.94  93 1.94 141 2.55 105 2.55
  46  0.969  0.138  1.000-  74 1.94  94 1.94 142 2.55 106 2.55
  47  0.469  0.638  1.000-  75 1.94  95 1.94 143 2.55 107 2.55
  48  0.969  0.638  1.000-  76 1.94  96 1.94 144 2.55 108 2.55
  49  0.219  0.388  0.500-  85 1.94  67 1.94 145 2.55 117 2.55
  50  0.719  0.388  0.500-  86 1.94  68 1.94 146 2.55 118 2.55
  51  0.219  0.888  0.500-  87 1.94  65 1.94 147 2.55 119 2.55
  52  0.719  0.888  0.500-  88 1.94  66 1.94 148 2.55 120 2.55
  53  0.219  0.388  1.000-  81 1.94  71 1.94 149 2.55 113 2.55
  54  0.719  0.388  1.000-  82 1.94  72 1.94 150 2.55 114 2.55
  55  0.219  0.888  1.000-  83 1.94  69 1.94 151 2.55 115 2.55
  56  0.719  0.888  1.000-  84 1.94  70 1.94 152 2.55 116 2.55
  57  0.005  0.388  0.500-  90 1.94  80 1.94 145 2.55 117 2.55
  58  0.505  0.388  0.500-  89 1.94  79 1.94 146 2.55 118 2.55
  59  0.005  0.888  0.500-  92 1.94  78 1.94 147 2.55 119 2.55
  60  0.505  0.888  0.500-  91 1.94  77 1.94 148 2.55 120 2.55
  61  0.005  0.388  1.000-  94 1.94  76 1.94 149 2.55 113 2.55
  62  0.505  0.388  1.000-  93 1.94  75 1.94 150 2.55 114 2.55
  63  0.005  0.888  1.000-  96 1.94  74 1.94 151 2.55 115 2.55
  64  0.505  0.888  1.000-  95 1.94  73 1.94 152 2.55 116 2.55
  65  0.237  0.013  0.500-   5 1.94  33 1.94  51 1.94  15 1.94 173 2.04 211 2.04
  66  0.737  0.013  0.500-   6 1.94  34 1.94  52 1.94  16 1.94 174 2.04 212 2.04
  67  0.237  0.513  0.500-   7 1.94  35 1.94  49 1.94  13 1.94 175 2.04 209 2.04
  68  0.737  0.513  0.500-   8 1.94  36 1.94  50 1.94  14 1.94 176 2.04 210 2.04
  69  0.237  0.013  1.000-   1 1.94  37 1.94  55 1.94  11 1.94 169 2.04 215 2.04
  70  0.737  0.013  1.000-   2 1.94  38 1.94  56 1.94  12 1.94 170 2.04 216 2.04
  71  0.237  0.513  1.000-   3 1.94  39 1.94  53 1.94   9 1.94 171 2.04 213 2.04
  72  0.737  0.513  1.000-   4 1.94  40 1.94  54 1.94  10 1.94 172 2.04 214 2.04
  73  0.487  0.013  0.000-  45 1.94   2 1.94  11 1.94  64 1.94 223 2.04 162 2.04
  74  0.987  0.013  0.000-  46 1.94   1 1.94  12 1.94  63 1.94 224 2.04 161 2.04
  75  0.487  0.513  0.000-  47 1.94   4 1.94   9 1.94  62 1.94 221 2.04 164 2.04
  76  0.987  0.513  0.000-  48 1.94   3 1.94  10 1.94  61 1.94 222 2.04 163 2.04
  77  0.487  0.013  0.500-  41 1.94   6 1.94  15 1.94  60 1.94 219 2.04 166 2.04
  78  0.987  0.013  0.500-  42 1.94   5 1.94  16 1.94  59 1.94 220 2.04 165 2.04
  79  0.487  0.513  0.500-  43 1.94   8 1.94  13 1.94  58 1.94 217 2.04 168 2.04
  80  0.987  0.513  0.500-  44 1.94   7 1.94  14 1.94  57 1.94 218 2.04 167 2.04
  81  0.237  0.263  0.000-  53 1.94  25 1.94  17 1.94  37 1.94 197 2.04 185 2.04
  82  0.737  0.263  0.000-  54 1.94  26 1.94  18 1.94  38 1.94 198 2.04 186 2.04
  83  0.237  0.763  0.000-  55 1.94  27 1.94  19 1.94  39 1.94 199 2.04 187 2.04
  84  0.737  0.763  0.000-  56 1.94  28 1.94  20 1.94  40 1.94 200 2.04 188 2.04
  85  0.237  0.263  0.500-  49 1.94  29 1.94  21 1.94  33 1.94 193 2.04 189 2.04
  86  0.737  0.263  0.500-  50 1.94  30 1.94  22 1.94  34 1.94 194 2.04 190 2.04
  87  0.237  0.763  0.500-  51 1.94  31 1.94  23 1.94  35 1.94 195 2.04 191 2.04
  88  0.737  0.763  0.500-  52 1.94  32 1.94  24 1.94  36 1.94 196 2.04 192 2.04
  89  0.487  0.263  0.500-  29 1.94  58 1.94  41 1.94  22 1.94 182 2.04 201 2.04
  90  0.987  0.263  0.500-  30 1.94  57 1.94  42 1.94  21 1.94 181 2.04 202 2.04
  91  0.487  0.763  0.500-  31 1.94  60 1.94  43 1.94  24 1.94 184 2.04 203 2.04
  92  0.987  0.763  0.500-  32 1.94  59 1.94  44 1.94  23 1.94 183 2.04 204 2.04
  93  0.487  0.263  1.000-  25 1.94  62 1.94  45 1.94  18 1.94 178 2.04 205 2.04
  94  0.987  0.263  1.000-  26 1.94  61 1.94  46 1.94  17 1.94 177 2.04 206 2.04
  95  0.487  0.763  1.000-  27 1.94  64 1.94  47 1.94  20 1.94 180 2.04 207 2.04
  96  0.987  0.763  1.000-  28 1.94  63 1.94  48 1.94  19 1.94 179 2.04 208 2.04
  97  0.150  0.176  0.151- 193 2.44  17 2.55   1 2.55 169 2.72 161 2.72 185 2.72 177 2.72
  98  0.650  0.176  0.151- 194 2.44  18 2.55   2 2.55 170 2.72 162 2.72 186 2.72 178 2.72
  99  0.150  0.676  0.151- 195 2.44  19 2.55   3 2.55 171 2.72 163 2.72 187 2.72 179 2.72
 100  0.650  0.676  0.151- 196 2.44  20 2.55   4 2.55 172 2.72 164 2.72 188 2.72 180 2.72
 101  0.150  0.176  0.651- 197 2.44  21 2.55   5 2.55 173 2.72 165 2.72 189 2.72 181 2.72
 102  0.650  0.176  0.651- 198 2.44  22 2.55   6 2.55 174 2.72 166 2.72 190 2.72 182 2.72
 103  0.150  0.676  0.651- 199 2.44  23 2.55   7 2.55 175 2.72 167 2.72 191 2.72 183 2.72
 104  0.650  0.676  0.651- 200 2.44  24 2.55   8 2.55 176 2.72 168 2.72 192 2.72 184 2.72
 105  0.400  0.176  0.151- 201 2.44  37 2.55  45 2.55 178 2.71 185 2.71 162 2.73 169 2.73
 106  0.900  0.176  0.151- 202 2.44  38 2.55  46 2.55 161 2.72 177 2.72 170 2.72 186 2.72
 107  0.400  0.676  0.151- 203 2.44  39 2.55  47 2.55 164 2.72 180 2.72 171 2.72 187 2.72
 108  0.900  0.676  0.151- 204 2.44  40 2.55  48 2.55 163 2.72 179 2.72 172 2.72 188 2.72
 109  0.400  0.176  0.651- 205 2.44  33 2.55  41 2.55 166 2.72 182 2.72 173 2.72 189 2.72
 110  0.900  0.176  0.651- 206 2.44  34 2.55  42 2.55 165 2.72 181 2.72 174 2.72 190 2.72
 111  0.400  0.676  0.651- 207 2.44  35 2.55  43 2.55 168 2.72 184 2.72 175 2.72 191 2.72
 112  0.900  0.676  0.651- 208 2.44  36 2.55  44 2.55 167 2.72 183 2.72 176 2.72 192 2.72
 113  0.150  0.426  0.151- 209 2.44  61 2.55  53 2.55 185 2.72 171 2.72 177 2.72 163 2.72
 114  0.650  0.426  0.151- 210 2.44  62 2.55  54 2.55 186 2.72 172 2.72 178 2.72 164 2.72
 115  0.150  0.926  0.151- 211 2.44  63 2.55  55 2.55 187 2.72 169 2.72 179 2.72 161 2.72
 116  0.650  0.926  0.151- 212 2.44  64 2.55  56 2.55 188 2.72 170 2.72 180 2.72 162 2.72
 117  0.150  0.426  0.651- 213 2.44  57 2.55  49 2.55 189 2.72 175 2.72 181 2.72 167 2.72
 118  0.650  0.426  0.651- 214 2.44  58 2.55  50 2.55 190 2.72 176 2.72 182 2.72 168 2.72
 119  0.150  0.926  0.651- 215 2.44  59 2.55  51 2.55 191 2.72 173 2.72 183 2.72 165 2.72
 120  0.650  0.926  0.651- 216 2.44  60 2.55  52 2.55 192 2.72 174 2.72 184 2.72 166 2.72
 121  0.400  0.426  0.151- 217 2.44   9 2.55  25 2.55 178 2.72 185 2.72 164 2.72 171 2.72
 122  0.900  0.426  0.151- 218 2.44  10 2.55  26 2.55 177 2.72 186 2.72 163 2.72 172 2.72
 123  0.400  0.926  0.151- 219 2.44  11 2.55  27 2.55 180 2.72 187 2.72 162 2.72 169 2.72
 124  0.900  0.926  0.151- 220 2.44  12 2.55  28 2.55 179 2.72 188 2.72 161 2.72 170 2.72
 125  0.400  0.426  0.651- 221 2.44  13 2.55  29 2.55 182 2.72 189 2.72 168 2.72 175 2.72
 126  0.900  0.426  0.651- 222 2.44  14 2.55  30 2.55 181 2.72 190 2.72 167 2.72 176 2.72
 127  0.400  0.926  0.651- 223 2.44  15 2.55  31 2.55 184 2.72 191 2.72 166 2.72 173 2.72
 128  0.900  0.926  0.651- 224 2.44  16 2.55  32 2.55 183 2.72 192 2.72 165 2.72 174 2.72
 129  0.074  0.100  0.349- 161 2.44  21 2.55   5 2.55 211 2.72 220 2.72 193 2.72 202 2.72
 130  0.574  0.100  0.349- 162 2.44  22 2.55   6 2.55 212 2.72 219 2.72 194 2.72 201 2.72
 131  0.074  0.600  0.349- 163 2.44  23 2.55   7 2.55 209 2.72 218 2.72 195 2.72 204 2.72
 132  0.574  0.600  0.349- 164 2.44  24 2.55   8 2.55 210 2.72 217 2.72 196 2.72 203 2.72
 133  0.074  0.100  0.849- 165 2.44  17 2.55   1 2.55 215 2.72 224 2.72 197 2.72 206 2.72
 134  0.574  0.100  0.849- 166 2.44  18 2.55   2 2.55 216 2.72 223 2.72 198 2.72 205 2.72
 135  0.074  0.600  0.849- 167 2.44  19 2.55   3 2.55 213 2.72 222 2.72 199 2.72 208 2.72
 136  0.574  0.600  0.849- 168 2.44  20 2.55   4 2.55 214 2.72 221 2.72 200 2.72 207 2.72
 137  0.324  0.100  0.349- 169 2.44  33 2.55  41 2.55 219 2.72 201 2.72 211 2.72 193 2.72
 138  0.824  0.100  0.349- 170 2.44  34 2.55  42 2.55 220 2.72 202 2.72 212 2.72 194 2.72
 139  0.324  0.600  0.349- 171 2.44  35 2.55  43 2.55 217 2.72 203 2.72 209 2.72 195 2.72
 140  0.824  0.600  0.349- 172 2.44  36 2.55  44 2.55 218 2.72 204 2.72 210 2.72 196 2.72
 141  0.324  0.100  0.849- 173 2.44  37 2.55  45 2.55 223 2.72 205 2.72 215 2.72 197 2.72
 142  0.824  0.100  0.849- 174 2.44  38 2.55  46 2.55 224 2.72 206 2.72 216 2.72 198 2.72
 143  0.324  0.600  0.849- 175 2.44  39 2.55  47 2.55 221 2.72 207 2.72 213 2.72 199 2.72
 144  0.824  0.600  0.849- 176 2.44  40 2.55  48 2.55 222 2.72 208 2.72 214 2.72 200 2.72
 145  0.074  0.350  0.349- 177 2.44  57 2.55  49 2.55 193 2.72 209 2.72 202 2.72 218 2.72
 146  0.574  0.350  0.349- 178 2.44  58 2.55  50 2.55 194 2.72 210 2.72 201 2.72 217 2.72
 147  0.074  0.850  0.349- 179 2.44  59 2.55  51 2.55 195 2.72 211 2.72 204 2.72 220 2.72
 148  0.574  0.850  0.349- 180 2.44  60 2.55  52 2.55 196 2.72 212 2.72 203 2.72 219 2.72
 149  0.074  0.350  0.849- 181 2.44  61 2.55  53 2.55 197 2.72 213 2.72 206 2.72 222 2.72
 150  0.574  0.350  0.849- 182 2.44  62 2.55  54 2.55 198 2.72 214 2.72 205 2.72 221 2.72
 151  0.074  0.850  0.849- 183 2.44  63 2.55  55 2.55 199 2.72 215 2.72 208 2.72 224 2.72
 152  0.574  0.850  0.849- 184 2.44  64 2.55  56 2.55 200 2.72 216 2.72 207 2.72 223 2.72
 153  0.324  0.350  0.349- 185 2.44  13 2.55  29 2.55 201 2.72 193 2.72 217 2.72 209 2.72
 154  0.824  0.350  0.349- 186 2.44  14 2.55  30 2.55 202 2.72 194 2.72 218 2.72 210 2.72
 155  0.324  0.850  0.349- 187 2.44  15 2.55  31 2.55 203 2.72 195 2.72 219 2.72 211 2.72
 156  0.824  0.850  0.349- 188 2.44  16 2.55  32 2.55 204 2.72 196 2.72 220 2.72 212 2.72
 157  0.324  0.350  0.849- 189 2.44   9 2.55  25 2.55 205 2.72 197 2.72 221 2.72 213 2.72
 158  0.824  0.350  0.849- 190 2.44  10 2.55  26 2.55 206 2.72 198 2.72 222 2.72 214 2.72
 159  0.324  0.850  0.849- 191 2.44  11 2.55  27 2.55 207 2.72 199 2.72 223 2.72 215 2.72
 160  0.824  0.850  0.849- 192 2.44  12 2.55  28 2.55 208 2.72 200 2.72 224 2.72 216 2.72
 161  0.027  0.053  0.159-  74 2.04 129 2.44 106 2.72  97 2.72 124 2.72 115 2.72
 162  0.527  0.053  0.159-  73 2.04 130 2.44  98 2.72 123 2.72 116 2.72 105 2.73
 163  0.027  0.553  0.159-  76 2.04 131 2.44 108 2.72  99 2.72 122 2.72 113 2.72
 164  0.527  0.553  0.159-  75 2.04 132 2.44 107 2.72 100 2.72 121 2.72 114 2.72
 165  0.027  0.053  0.659-  78 2.04 133 2.44 110 2.72 101 2.72 128 2.72 119 2.72
 166  0.527  0.053  0.659-  77 2.04 134 2.44 109 2.72 102 2.72 127 2.72 120 2.72
 167  0.027  0.553  0.659-  80 2.04 135 2.44 112 2.72 103 2.72 126 2.72 117 2.72
 168  0.527  0.553  0.659-  79 2.04 136 2.44 111 2.72 104 2.72 125 2.72 118 2.72
 169  0.277  0.053  0.159-  69 2.04 137 2.44  97 2.72 115 2.72 123 2.72 105 2.73
 170  0.777  0.053  0.159-  70 2.04 138 2.44  98 2.72 116 2.72 106 2.72 124 2.72
 171  0.277  0.553  0.159-  71 2.04 139 2.44  99 2.72 113 2.72 107 2.72 121 2.72
 172  0.777  0.553  0.159-  72 2.04 140 2.44 100 2.72 114 2.72 108 2.72 122 2.72
 173  0.277  0.053  0.659-  65 2.04 141 2.44 101 2.72 119 2.72 109 2.72 127 2.72
 174  0.777  0.053  0.659-  66 2.04 142 2.44 102 2.72 120 2.72 110 2.72 128 2.72
 175  0.277  0.553  0.659-  67 2.04 143 2.44 103 2.72 117 2.72 111 2.72 125 2.72
 176  0.777  0.553  0.659-  68 2.04 144 2.44 104 2.72 118 2.72 112 2.72 126 2.72
 177  0.027  0.303  0.159-  94 2.04 145 2.44 122 2.72 106 2.72 113 2.72  97 2.72
 178  0.527  0.303  0.159-  93 2.04 146 2.44 105 2.71 121 2.72 114 2.72  98 2.72
 179  0.027  0.803  0.159-  96 2.04 147 2.44 124 2.72 108 2.72 115 2.72  99 2.72
 180  0.527  0.803  0.159-  95 2.04 148 2.44 123 2.72 107 2.72 116 2.72 100 2.72
 181  0.027  0.303  0.659-  90 2.04 149 2.44 126 2.72 110 2.72 117 2.72 101 2.72
 182  0.527  0.303  0.659-  89 2.04 150 2.44 125 2.72 109 2.72 118 2.72 102 2.72
 183  0.027  0.803  0.659-  92 2.04 151 2.44 128 2.72 112 2.72 119 2.72 103 2.72
 184  0.527  0.803  0.659-  91 2.04 152 2.44 127 2.72 111 2.72 120 2.72 104 2.72
 185  0.277  0.303  0.159-  81 2.04 153 2.44 105 2.71 113 2.72 121 2.72  97 2.72
 186  0.777  0.303  0.159-  82 2.04 154 2.44 114 2.72 122 2.72  98 2.72 106 2.72
 187  0.277  0.803  0.159-  83 2.04 155 2.44 115 2.72 123 2.72  99 2.72 107 2.72
 188  0.777  0.803  0.159-  84 2.04 156 2.44 116 2.72 124 2.72 100 2.72 108 2.72
 189  0.277  0.303  0.659-  85 2.04 157 2.44 117 2.72 125 2.72 101 2.72 109 2.72
 190  0.777  0.303  0.659-  86 2.04 158 2.44 118 2.72 126 2.72 102 2.72 110 2.72
 191  0.277  0.803  0.659-  87 2.04 159 2.44 119 2.72 127 2.72 103 2.72 111 2.72
 192  0.777  0.803  0.659-  88 2.04 160 2.44 120 2.72 128 2.72 104 2.72 112 2.72
 193  0.197  0.223  0.341-  85 2.04  97 2.44 145 2.72 153 2.72 129 2.72 137 2.72
 194  0.697  0.223  0.341-  86 2.04  98 2.44 146 2.72 154 2.72 130 2.72 138 2.72
 195  0.197  0.723  0.341-  87 2.04  99 2.44 147 2.72 155 2.72 131 2.72 139 2.72
 196  0.697  0.723  0.341-  88 2.04 100 2.44 148 2.72 156 2.72 132 2.72 140 2.72
 197  0.197  0.223  0.841-  81 2.04 101 2.44 149 2.72 157 2.72 133 2.72 141 2.72
 198  0.697  0.223  0.841-  82 2.04 102 2.44 150 2.72 158 2.72 134 2.72 142 2.72
 199  0.197  0.723  0.841-  83 2.04 103 2.44 151 2.72 159 2.72 135 2.72 143 2.72
 200  0.697  0.723  0.841-  84 2.04 104 2.44 152 2.72 160 2.72 136 2.72 144 2.72
 201  0.447  0.223  0.341-  89 2.04 105 2.44 153 2.72 137 2.72 146 2.72 130 2.72
 202  0.947  0.223  0.341-  90 2.04 106 2.44 154 2.72 138 2.72 145 2.72 129 2.72
 203  0.447  0.723  0.341-  91 2.04 107 2.44 155 2.72 139 2.72 148 2.72 132 2.72
 204  0.947  0.723  0.341-  92 2.04 108 2.44 156 2.72 140 2.72 147 2.72 131 2.72
 205  0.447  0.223  0.841-  93 2.04 109 2.44 157 2.72 141 2.72 150 2.72 134 2.72
 206  0.947  0.223  0.841-  94 2.04 110 2.44 158 2.72 142 2.72 149 2.72 133 2.72
 207  0.447  0.723  0.841-  95 2.04 111 2.44 159 2.72 143 2.72 152 2.72 136 2.72
 208  0.947  0.723  0.841-  96 2.04 112 2.44 160 2.72 144 2.72 151 2.72 135 2.72
 209  0.197  0.473  0.341-  67 2.04 113 2.44 131 2.72 145 2.72 139 2.72 153 2.72
 210  0.697  0.473  0.341-  68 2.04 114 2.44 132 2.72 146 2.72 140 2.72 154 2.72
 211  0.197  0.973  0.341-  65 2.04 115 2.44 129 2.72 147 2.72 137 2.72 155 2.72
 212  0.697  0.973  0.341-  66 2.04 116 2.44 130 2.72 148 2.72 138 2.72 156 2.72
 213  0.197  0.473  0.841-  71 2.04 117 2.44 135 2.72 149 2.72 143 2.72 157 2.72
 214  0.697  0.473  0.841-  72 2.04 118 2.44 136 2.72 150 2.72 144 2.72 158 2.72
 215  0.197  0.973  0.841-  69 2.04 119 2.44 133 2.72 151 2.72 141 2.72 159 2.72
 216  0.697  0.973  0.841-  70 2.04 120 2.44 134 2.72 152 2.72 142 2.72 160 2.72
 217  0.447  0.473  0.341-  79 2.04 121 2.44 139 2.72 132 2.72 153 2.72 146 2.72
 218  0.947  0.473  0.341-  80 2.04 122 2.44 140 2.72 131 2.72 154 2.72 145 2.72
 219  0.447  0.973  0.341-  77 2.04 123 2.44 137 2.72 130 2.72 155 2.72 148 2.72
 220  0.947  0.973  0.341-  78 2.04 124 2.44 138 2.72 129 2.72 156 2.72 147 2.72
 221  0.447  0.473  0.841-  75 2.04 125 2.44 143 2.72 136 2.72 157 2.72 150 2.72
 222  0.947  0.473  0.841-  76 2.04 126 2.44 144 2.72 135 2.72 158 2.72 149 2.72
 223  0.447  0.973  0.841-  73 2.04 127 2.44 141 2.72 134 2.72 159 2.72 152 2.72
 224  0.947  0.973  0.841-  74 2.04 128 2.44 142 2.72 133 2.72 160 2.72 151 2.72
 

IMPORTANT INFORMATION: All symmetrisations will be switched off!
NOSYMM: (Re-)initialisation of all symmetry stuff for point group C_1.

 
 
 KPOINTS: # No comment                            

Automatic generation of k-mesh.
Space group operators:
 irot       det(A)        alpha          n_x          n_y          n_z        tau_x        tau_y        tau_z
    1     1.000000     0.000001     1.000000     0.000000     0.000000     0.000000     0.000000     0.000000
 
 Subroutine IBZKPT returns following result:
 ===========================================
 
 Found      8 irreducible k-points:
 
 Following reciprocal coordinates:
            Coordinates               Weight
  0.000000  0.000000  0.000000      1.000000
  0.500000  0.000000  0.000000      1.000000
  0.000000  0.500000  0.000000      1.000000
  0.500000  0.500000  0.000000      1.000000
  0.000000 -0.000000  0.500000      1.000000
  0.500000  0.000000  0.500000      1.000000
 -0.000000  0.500000  0.500000      1.000000
  0.500000  0.500000  0.500000      1.000000
 
 Following cartesian coordinates:
            Coordinates               Weight
  0.000000  0.000000  0.000000      1.000000
  0.032519  0.000014  0.009696      1.000000
  0.000002  0.032519  0.009696      1.000000
  0.032521  0.032532  0.019392      1.000000
  0.000032  0.000032  0.038891      1.000000
  0.032551  0.000046  0.048587      1.000000
  0.000035  0.032551  0.048587      1.000000
  0.032553  0.032564  0.058283      1.000000
 


--------------------------------------------------------------------------------------------------------




 Dimension of arrays:
   k-points           NKPTS =      8   k-points in BZ     NKDIM =      8   number of bands    NBANDS=   1208
   number of dos      NEDOS =    301   number of ions     NIONS =    224
   non local maximal  LDIM  =      6   non local SUM 2l+1 LMDIM =     18
   total plane-waves  NPLWV = ******
   max r-space proj   IRMAX =      1   max aug-charges    IRDMAX= 163132
   dimension x,y,z NGX =   128 NGY =  128 NGZ =  120
   dimension x,y,z NGXF=   256 NGYF=  256 NGZF=  240
   support grid    NGXF=   512 NGYF=  512 NGZF=  480
   ions per type =              64  32  64  64
   NGX,Y,Z   is equivalent  to a cutoff of  13.84, 13.84, 14.29 a.u.
   NGXF,Y,Z  is equivalent  to a cutoff of  27.67, 27.67, 28.58 a.u.

 SYSTEM =  unknown system                          
 POSCAR =  # Compound: Li64O32S64Fe64. Old comment:

 Startparameter for this run:
   NWRITE =      1    write-flag & timer
   PREC   = accura    normal or accurate (medium, high low for compatibility)
   ISTART =      0    job   : 0-new  1-cont  2-samecut
   ICHARG =      1    charge: 1-file 2-atom 10-const
   ISPIN  =      2    spin polarized calculation?
   LNONCOLLINEAR =      F non collinear calculations
   LSORBIT =      F    spin-orbit coupling
   INIWAV =      1    electr: 0-lowe 1-rand  2-diag
   LASPH  =      T    aspherical Exc in radial PAW
   METAGGA=      F    non-selfconsistent MetaGGA calc.

 Electronic Relaxation 1
   ENCUT  =  650.0 eV  47.77 Ry    6.91 a.u.  31.97 31.97 29.02*2*pi/ulx,y,z
   ENINI  =  650.0     initial cutoff
   ENAUG  =  628.9 eV  augmentation charge cutoff
   NELM   =    200;   NELMIN=  8; NELMDL=  0     # of ELM steps 
   EDIFF  = 0.1E-05   stopping-criterion for ELM
   LREAL  =      F    real-space projection
   NLSPLINE    = F    spline interpolate recip. space projectors
   LCOMPAT=      F    compatible to vasp.4.4
   GGA_COMPAT  = T    GGA compatible to vasp.4.4-vasp.4.6
   LMAXPAW     = -100 max onsite density
   LMAXMIX     =    4 max onsite mixed and CHGCAR
   VOSKOWN=      0    Vosko Wilk Nusair interpolation
   ROPT   =    0.00000   0.00000   0.00000   0.00000
 Ionic relaxation
   EDIFFG = 0.1E-04   stopping-criterion for IOM
   NSW    =      0    number of steps for IOM
   NBLOCK =      1;   KBLOCK =      1    inner block; outer block 
   IBRION =     -1    ionic relax: 0-MD 1-quasi-New 2-CG
   NFREE  =      0    steps in history (QN), initial steepest desc. (CG)
   ISIF   =      2    stress and relaxation
   IWAVPR =     10    prediction:  0-non 1-charg 2-wave 3-comb
   ISYM   =      0    0-nonsym 1-usesym 2-fastsym
   LCORR  =      T    Harris-Foulkes like correction to forces

   POTIM  = 0.5000    time-step for ionic-motion
   TEIN   =    0.0    initial temperature
   TEBEG  =    0.0;   TEEND  =   0.0 temperature during run
   SMASS  =  -3.00    Nose mass-parameter (am)
   estimated Nose-frequenzy (Omega)   =  0.10E-29 period in steps =****** mass=  -0.541E-26a.u.
   SCALEE = 1.0000    scale energy and forces
   NPACO  =    256;   APACO  = 16.0  distance and # of slots for P.C.
   PSTRESS=    0.0 pullay stress

  Mass of Ions in am
   POMASS =   7.01 16.00 32.07 55.85
  Ionic Valenz
   ZVAL   =   3.00  6.00  6.00 14.00
  Atomic Wigner-Seitz radii
   RWIGS  =  -1.00 -1.00 -1.00 -1.00
  virtual crystal weights 
   VCA    =   1.00  1.00  1.00  1.00
   NELECT =    1664.0000    total number of electrons
   NUPDOWN=      -1.0000    fix difference up-down

 DOS related values:
   EMIN   =  10.00;   EMAX   =-10.00  energy-range for DOS
   EFERMI =   0.00
   ISMEAR =     0;   SIGMA  =   0.05  broadening in eV -4-tet -1-fermi 0-gaus

 Electronic relaxation 2 (details)
   IALGO  =     58    algorithm
   LDIAG  =      T    sub-space diagonalisation (order eigenvalues)
   LSUBROT=      F    optimize rotation matrix (better conditioning)
   TURBO    =      0    0=normal 1=particle mesh
   IRESTART =      0    0=no restart 2=restart with 2 vectors
   NREBOOT  =      0    no. of reboots
   NMIN     =      0    reboot dimension
   EREF     =   0.00    reference energy to select bands
   IMIX   =      4    mixing-type and parameters
     AMIX     =   0.40;   BMIX     =  1.00
     AMIX_MAG =   1.60;   BMIX_MAG =  1.00
     AMIN     =   0.10
     WC   =   100.;   INIMIX=   1;  MIXPRE=   1;  MAXMIX= -45

 Intra band minimization:
   WEIMIN = 0.0000     energy-eigenvalue tresh-hold
   EBREAK =  0.21E-09  absolut break condition
   DEPER  =   0.30     relativ break condition  

   TIME   =   0.40     timestep for ELM

  volume/ion in A,a.u.               =      13.58        91.61
  Fermi-wavevector in a.u.,A,eV,Ry     =   1.339026  2.530392 24.395113  1.792990
  Thomas-Fermi vector in A             =   2.467450
 
 Write flags
   LWAVE        =      F    write WAVECAR
   LDOWNSAMPLE  =      F    k-point downsampling of WAVECAR
   LCHARG       =      T    write CHGCAR
   LVTOT        =      F    write LOCPOT, total local potential
   LVHAR        =      F    write LOCPOT, Hartree potential only
   LELF         =      F    write electronic localiz. function (ELF)
   LORBIT       =      0    0 simple, 1 ext, 2 COOP (PROOUT), +10 PAW based schemes


 Dipole corrections
   LMONO  =      F    monopole corrections only (constant potential shift)
   LDIPOL =      F    correct potential (dipole corrections)
   IDIPOL =      0    1-x, 2-y, 3-z, 4-all directions 
   EPSILON=  1.0000000 bulk dielectric constant

 LDA+U is selected, type is set to LDAUTYPE =  2
   angular momentum for each species LDAUL =    -1   -1   -1    2
   U (eV)           for each species LDAUU =   0.0  0.0  0.0  4.0
   J (eV)           for each species LDAUJ =   0.0  0.0  0.0  0.0
 Exchange correlation treatment:
   GGA     =    PE    GGA type
   LEXCH   =     8    internal setting for exchange type
   VOSKOWN=      0    Vosko Wilk Nusair interpolation
   LHFCALC =     F    Hartree Fock is set to
   LHFONE  =     F    Hartree Fock one center treatment
   AEXX    =    0.0000 exact exchange contribution

 Linear response parameters
   LEPSILON=     F    determine dielectric tensor
   LRPA    =     F    only Hartree local field effects (RPA)
   LNABLA  =     F    use nabla operator in PAW spheres
   LVEL    =     F    velocity operator in full k-point grid
   LINTERFAST=   F  fast interpolation
   KINTER  =     0    interpolate to denser k-point grid
   CSHIFT  =0.1000    complex shift for real part using Kramers Kronig
   OMEGAMAX=  -1.0    maximum frequency
   DEG_THRESHOLD= 0.2000000E-02 threshold for treating states as degnerate
   RTIME   =   -0.100 relaxation time in fs
  (WPLASMAI=    0.000 imaginary part of plasma frequency in eV, 0.658/RTIME)
   DFIELD  = 0.0000000 0.0000000 0.0000000 field for delta impulse in time
 
 Orbital magnetization related:
   ORBITALMAG=     F  switch on orbital magnetization
   LCHIMAG   =     F  perturbation theory with respect to B field
   DQ        =  0.001000  dq finite difference perturbation B field
   LLRAUG    =     F  two centre corrections for induced B field



--------------------------------------------------------------------------------------------------------


 Static calculation
 charge density and potential will be updated during run
 spin polarized calculation
 Conjugate gradient for all bands (Freysoldt, et al. PRB 79, 241103 (2009))
 preconditioned conjugated gradient                                        
 perform sub-space diagonalisation
    before iterative eigenvector-optimisation
 modified Broyden-mixing scheme, WC =      100.0
 initial mixing is a Kerker type mixing with AMIX =  0.4000 and BMIX =      1.0000
 Hartree-type preconditioning will be used
 using additional bands          376
 reciprocal scheme for non local part
 use partial core corrections
 no Harris-corrections to forces 
 use gradient corrections 
 use of overlap-Matrix (Vanderbilt PP)
 Gauss-broadening in eV      SIGMA  =   0.05


--------------------------------------------------------------------------------------------------------


  energy-cutoff  :      650.00
  volume of cell :     3040.96
      direct lattice vectors                 reciprocal lattice vectors
    15.379597440  0.002607980 -0.012678040     0.065037189  0.000027720  0.019391817
    -0.002774880 15.379619260 -0.012678060     0.000004957  0.065037102  0.019391811
    -3.833588240 -3.834934540 12.862750640     0.000064108  0.000064131  0.077782096

  length of vectors
    15.379602887 15.379624736 13.958992648     0.067866628  0.067866538  0.077782149


 
 k-points in units of 2pi/SCALE and weight: # No comment                            
   0.00000000  0.00000000  0.00000000       0.125
   0.03251859  0.00001386  0.00969591       0.125
   0.00000248  0.03251855  0.00969591       0.125
   0.03252107  0.03253241  0.01939181       0.125
   0.00003205  0.00003207  0.03889105       0.125
   0.03255065  0.00004593  0.04858696       0.125
   0.00003453  0.03255062  0.04858695       0.125
   0.03255313  0.03256448  0.05828286       0.125
 
 k-points in reciprocal lattice and weights: # No comment                            
   0.00000000  0.00000000  0.00000000       0.125
   0.50000000  0.00000000  0.00000000       0.125
   0.00000000  0.50000000  0.00000000       0.125
   0.50000000  0.50000000  0.00000000       0.125
   0.00000000 -0.00000000  0.50000000       0.125
   0.50000000  0.00000000  0.50000000       0.125
  -0.00000000  0.50000000  0.50000000       0.125
   0.50000000  0.50000000  0.50000000       0.125
 
 position of ions in fractional coordinates (direct lattice) 
   0.11205242  0.03120912  0.00000252
   0.61205242  0.03120912  0.00000252
   0.11205242  0.53120912  0.00000252
   0.61205242  0.53120912  0.00000252
   0.11205242  0.03120912  0.50000252
   0.61205242  0.03120912  0.50000252
   0.11205242  0.53120912  0.50000252
   0.61205242  0.53120912  0.50000252
   0.36205520  0.49468587  0.00001176
   0.86205520  0.49468587  0.00001176
   0.36205520  0.99468587  0.00001176
   0.86205520  0.99468587  0.00001176
   0.36205520  0.49468587  0.50001176
   0.86205520  0.49468587  0.50001176
   0.36205520  0.99468587  0.50001176
   0.86205520  0.99468587  0.50001176
   0.11205520  0.24468587  0.00001176
   0.61205520  0.24468587  0.00001176
   0.11205520  0.74468587  0.00001176
   0.61205520  0.74468587  0.00001176
   0.11205520  0.24468587  0.50001176
   0.61205520  0.24468587  0.50001176
   0.11205520  0.74468587  0.50001176
   0.61205520  0.74468587  0.50001176
   0.36205242  0.28120912  0.00000252
   0.86205242  0.28120912  0.00000252
   0.36205242  0.78120912  0.00000252
   0.86205242  0.78120912  0.00000252
   0.36205242  0.28120912  0.50000252
   0.86205242  0.28120912  0.50000252
   0.36205242  0.78120912  0.50000252
   0.86205242  0.78120912  0.50000252
   0.25531414  0.13794480  0.49998824
   0.75531414  0.13794480  0.49998824
   0.25531414  0.63794480  0.49998824
   0.75531414  0.63794480  0.49998824
   0.25531414  0.13794480  0.99998824
   0.75531414  0.13794480  0.99998824
   0.25531414  0.63794480  0.99998824
   0.75531414  0.63794480  0.99998824
   0.46879087  0.13794758  0.49999748
   0.96879087  0.13794758  0.49999748
   0.46879087  0.63794758  0.49999748
   0.96879087  0.63794758  0.49999748
   0.46879087  0.13794758  0.99999748
   0.96879087  0.13794758  0.99999748
   0.46879087  0.63794758  0.99999748
   0.96879087  0.63794758  0.99999748
   0.21879087  0.38794758  0.49999748
   0.71879087  0.38794758  0.49999748
   0.21879087  0.88794758  0.49999748
   0.71879087  0.88794758  0.49999748
   0.21879087  0.38794758  0.99999748
   0.71879087  0.38794758  0.99999748
   0.21879087  0.88794758  0.99999748
   0.71879087  0.88794758  0.99999748
   0.00531414  0.38794480  0.49998824
   0.50531414  0.38794480  0.49998824
   0.00531414  0.88794480  0.49998824
   0.50531414  0.88794480  0.49998824
   0.00531414  0.38794480  0.99998824
   0.50531414  0.38794480  0.99998824
   0.00531414  0.88794480  0.99998824
   0.50531414  0.88794480  0.99998824
   0.23705088  0.01294824  0.49999897
   0.73705088  0.01294824  0.49999897
   0.23705088  0.51294824  0.49999897
   0.73705088  0.51294824  0.49999897
   0.23705088  0.01294824  0.99999897
   0.73705088  0.01294824  0.99999897
   0.23705088  0.51294824  0.99999897
   0.73705088  0.51294824  0.99999897
   0.48705202  0.01294937  0.00000103
   0.98705202  0.01294937  0.00000103
   0.48705202  0.51294937  0.00000103
   0.98705202  0.51294937  0.00000103
   0.48705202  0.01294937  0.50000103
   0.98705202  0.01294937  0.50000103
   0.48705202  0.51294937  0.50000103
   0.98705202  0.51294937  0.50000103
   0.23705202  0.26294937  0.00000103
   0.73705202  0.26294937  0.00000103
   0.23705202  0.76294937  0.00000103
   0.73705202  0.76294937  0.00000103
   0.23705202  0.26294937  0.50000103
   0.73705202  0.26294937  0.50000103
   0.23705202  0.76294937  0.50000103
   0.73705202  0.76294937  0.50000103
   0.48705088  0.26294824  0.49999897
   0.98705088  0.26294824  0.49999897
   0.48705088  0.76294824  0.49999897
   0.98705088  0.76294824  0.49999897
   0.48705088  0.26294824  0.99999897
   0.98705088  0.26294824  0.99999897
   0.48705088  0.76294824  0.99999897
   0.98705088  0.76294824  0.99999897
   0.14990797  0.17581133  0.15144025
   0.64990797  0.17581133  0.15144025
   0.14990797  0.67581133  0.15144025
   0.64990797  0.67581133  0.15144025
   0.14990797  0.17581133  0.65144025
   0.64990797  0.17581133  0.65144025
   0.14990797  0.67581133  0.65144025
   0.64990797  0.67581133  0.65144025
   0.39990786  0.17646105  0.15143681
   0.89990786  0.17581084  0.15143681
   0.39990786  0.67581084  0.15143681
   0.89990786  0.67581084  0.15143681
   0.39990786  0.17581084  0.65143681
   0.89990786  0.17581084  0.65143681
   0.39990786  0.67581084  0.65143681
   0.89990786  0.67581084  0.65143681
   0.14990786  0.42581084  0.15143681
   0.64990786  0.42581084  0.15143681
   0.14990786  0.92581084  0.15143681
   0.64990786  0.92581084  0.15143681
   0.14990786  0.42581084  0.65143681
   0.64990786  0.42581084  0.65143681
   0.14990786  0.92581084  0.65143681
   0.64990786  0.92581084  0.65143681
   0.39990797  0.42581133  0.15144025
   0.89990797  0.42581133  0.15144025
   0.39990797  0.92581133  0.15144025
   0.89990797  0.92581133  0.15144025
   0.39990797  0.42581133  0.65144025
   0.89990797  0.42581133  0.65144025
   0.39990797  0.92581133  0.65144025
   0.89990797  0.92581133  0.65144025
   0.07418916  0.10009214  0.34856319
   0.57418916  0.10009214  0.34856319
   0.07418916  0.60009214  0.34856319
   0.57418916  0.60009214  0.34856319
   0.07418916  0.10009214  0.84856319
   0.57418916  0.10009214  0.84856319
   0.07418916  0.60009214  0.84856319
   0.57418916  0.60009214  0.84856319
   0.32418867  0.10009203  0.34855975
   0.82418867  0.10009203  0.34855975
   0.32418867  0.60009203  0.34855975
   0.82418867  0.60009203  0.34855975
   0.32418867  0.10009203  0.84855975
   0.82418867  0.10009203  0.84855975
   0.32418867  0.60009203  0.84855975
   0.82418867  0.60009203  0.84855975
   0.07418867  0.35009203  0.34855975
   0.57418867  0.35009203  0.34855975
   0.07418867  0.85009203  0.34855975
   0.57418867  0.85009203  0.34855975
   0.07418867  0.35009203  0.84855975
   0.57418867  0.35009203  0.84855975
   0.07418867  0.85009203  0.84855975
   0.57418867  0.85009203  0.84855975
   0.32418916  0.35009214  0.34856319
   0.82418916  0.35009214  0.34856319
   0.32418916  0.85009214  0.34856319
   0.82418916  0.85009214  0.34856319
   0.32418916  0.35009214  0.84856319
   0.82418916  0.35009214  0.84856319
   0.32418916  0.85009214  0.84856319
   0.82418916  0.85009214  0.84856319
   0.02677905  0.05271006  0.15897707
   0.52677905  0.05271006  0.15897707
   0.02677905  0.55271006  0.15897707
   0.52677905  0.55271006  0.15897707
   0.02677905  0.05271006  0.65897707
   0.52677905  0.05271006  0.65897707
   0.02677905  0.55271006  0.65897707
   0.52677905  0.55271006  0.65897707
   0.27677185  0.05270804  0.15897368
   0.77677185  0.05270804  0.15897368
   0.27677185  0.55270804  0.15897368
   0.77677185  0.55270804  0.15897368
   0.27677185  0.05270804  0.65897368
   0.77677185  0.05270804  0.65897368
   0.27677185  0.55270804  0.65897368
   0.77677185  0.55270804  0.65897368
   0.02677185  0.30270804  0.15897368
   0.52677185  0.30270804  0.15897368
   0.02677185  0.80270804  0.15897368
   0.52677185  0.80270804  0.15897368
   0.02677185  0.30270804  0.65897368
   0.52677185  0.30270804  0.65897368
   0.02677185  0.80270804  0.65897368
   0.52677185  0.80270804  0.65897368
   0.27677905  0.30271006  0.15897707
   0.77677905  0.30271006  0.15897707
   0.27677905  0.80271006  0.15897707
   0.77677905  0.80271006  0.15897707
   0.27677905  0.30271006  0.65897707
   0.77677905  0.30271006  0.65897707
   0.27677905  0.80271006  0.65897707
   0.77677905  0.80271006  0.65897707
   0.19729196  0.22322815  0.34102632
   0.69729196  0.22322815  0.34102632
   0.19729196  0.72322815  0.34102632
   0.69729196  0.72322815  0.34102632
   0.19729196  0.22322815  0.84102632
   0.69729196  0.22322815  0.84102632
   0.19729196  0.72322815  0.84102632
   0.69729196  0.72322815  0.84102632
   0.44728994  0.22322095  0.34102293
   0.94728994  0.22322095  0.34102293
   0.44728994  0.72322095  0.34102293
   0.94728994  0.72322095  0.34102293
   0.44728994  0.22322095  0.84102293
   0.94728994  0.22322095  0.84102293
   0.44728994  0.72322095  0.84102293
   0.94728994  0.72322095  0.84102293
   0.19728994  0.47322095  0.34102293
   0.69728994  0.47322095  0.34102293
   0.19728994  0.97322095  0.34102293
   0.69728994  0.97322095  0.34102293
   0.19728994  0.47322095  0.84102293
   0.69728994  0.47322095  0.84102293
   0.19728994  0.97322095  0.84102293
   0.69728994  0.97322095  0.84102293
   0.44729196  0.47322815  0.34102632
   0.94729196  0.47322815  0.34102632
   0.44729196  0.97322815  0.34102632
   0.94729196  0.97322815  0.34102632
   0.44729196  0.47322815  0.84102632
   0.94729196  0.47322815  0.84102632
   0.44729196  0.97322815  0.84102632
   0.94729196  0.97322815  0.84102632
 
 position of ions in cartesian coordinates  (Angst):
   1.72322485  0.48026703 -0.00178386
   9.41302357  0.48157102 -0.00812288
   1.72183741  8.17007666 -0.00812289
   9.41163613  8.17138065 -0.01446191
  -0.19356927 -1.43720024  6.42959146
   7.49622945 -1.43589625  6.42325244
  -0.19495671  6.25260939  6.42325243
   7.49484201  6.25391338  6.41691341
   5.56684555  7.60897941 -0.01071061
  13.25664427  7.61028340 -0.01704963
   5.56545811 15.29878904 -0.01704964
  13.25525683 15.30009303 -0.02338866
   3.65005143  5.69151214  6.42066471
  11.33985015  5.69281613  6.41432569
   3.64866399 13.38132177  6.41432568
  11.33846271 13.38262576  6.40798666
   1.72263991  3.76342260 -0.00437158
   9.41243863  3.76472659 -0.01071060
   1.72125247 11.45323223 -0.01071061
   9.41105119 11.45453622 -0.01704963
  -0.19415421  1.84595533  6.42700374
   7.49564451  1.84725932  6.42066472
  -0.19554165  9.53576496  6.42066471
   7.49425707  9.53706895  6.41432569
   5.56743049  4.32582384 -0.00812289
  13.25722921  4.32712783 -0.01446191
   5.56604305 12.01563347 -0.01446192
  13.25584177 12.01693746 -0.02080094
   3.65063637  2.40835657  6.42325243
  11.34043509  2.40966056  6.41691341
   3.64924893 10.09816620  6.41691340
  11.33904765 10.09947019  6.41057438
   2.00949686  0.20478209  6.42623836
   9.69929558  0.20608608  6.41989934
   2.00810942  7.89459172  6.41989933
   9.69790814  7.89589571  6.41356031
   0.09270274 -1.71268518 12.85761368
   7.78250146 -1.71138119 12.85127466
   0.09131530  5.97712445 12.85127465
   7.78111402  5.97842844 12.84493563
   5.29264762  0.20534625  6.42365065
  12.98244634  0.20665024  6.41731163
   5.29126018  7.89515588  6.41731162
  12.98105890  7.89645987  6.41097260
   3.37585350 -1.71212102 12.85502597
  11.06565222 -1.71081703 12.84868695
   3.37446606  5.97768861 12.84868694
  11.06426478  5.97899260 12.84234792
   1.44705454  4.04959907  6.42365064
   9.13685326  4.05090306  6.41731162
   1.44566710 11.73940870  6.41731161
   9.13546582 11.74071269  6.41097259
  -0.46973958  2.13213180 12.85502596
   7.22005914  2.13343579 12.84868694
  -0.47112702  9.82194143 12.84868693
   7.21867170  9.82324542 12.84234791
  -1.83609622  4.04903491  6.42623836
   5.85370250  4.05033890  6.41989934
  -1.83748366 11.73884454  6.41989933
   5.85231506 11.74014853  6.41356031
  -3.75289034  2.13156764 12.85761368
   3.93690838  2.13287163 12.85127466
  -3.75427778  9.82137727 12.85127465
   3.93552094  9.82268126 12.84493563
   1.72892095 -1.71770615  6.42819251
   9.41871967 -1.71640216  6.42185349
   1.72753351  5.97210348  6.42185348
   9.41733223  5.97340747  6.41551446
  -0.18787317 -3.63517342 12.85956783
   7.50192555 -3.63386943 12.85322881
  -0.18926061  4.05463621 12.85322880
   7.50053811  4.05594020 12.84688978
   7.49062410  0.20042271 -0.00632572
  15.18042282  0.20172670 -0.01266474
   7.48923666  7.89023234 -0.01266475
  15.17903538  7.89153633 -0.01900377
   5.57382998 -1.71704456  6.42504960
  13.26362870 -1.71574057  6.41871058
   5.57244254  5.97276507  6.41871057
  13.26224126  5.97406906  6.41237155
   3.64503102  4.04467553 -0.00632573
  11.33482974  4.04597952 -0.01266475
   3.64364358 11.73448516 -0.01266476
  11.33344230 11.73578915 -0.01900378
   1.72823690  2.12720826  6.42504959
   9.41803562  2.12851225  6.41871057
   1.72684946  9.81701789  6.41871056
   9.41664818  9.81832188  6.41237154
   5.57312659  2.12785066  6.42185348
  13.26292531  2.12915465  6.41551446
   5.57173915  9.81766029  6.41551445
  13.26153787  9.81896428  6.40917543
   3.65633247  0.21038339 12.85322880
  11.34613119  0.21168738 12.84688978
   3.65494503  7.90019302 12.84688977
  11.34474375  7.90149701 12.84055075
   1.72447689  2.12353883  1.94380869
   9.41427561  2.12484282  1.93746967
   1.72308945  9.81334846  1.93746966
   9.41288817  9.81465245  1.93113064
  -0.19231723  0.20607156  8.37518401
   7.49748149  0.20737555  8.36884499
  -0.19370467  7.89588119  8.36884498
   7.49609405  7.89718518  8.36250596
   5.56938585  2.13419646  1.94058676
  13.25918637  2.12550045  1.93425598
   5.56800021  9.81400609  1.93425597
  13.25779893  9.81531008  1.92791695
   3.65259353  0.20672919  8.37197032
  11.34239225  0.20803318  8.36563130
   3.65120609  7.89653882  8.36563129
  11.34100481  7.89784281  8.35929227
   1.72379457  5.96844928  1.94059500
   9.41359329  5.96975327  1.93425598
   1.72240713 13.65825891  1.93425597
   9.41220585 13.65956290  1.92791695
  -0.19299955  4.05098201  8.37197032
   7.49679917  4.05228600  8.36563130
  -0.19438699 11.74079164  8.36563129
   7.49541173 11.74209563  8.35929227
   5.56868253  5.96909564  1.93746966
  13.25848125  5.97039963  1.93113064
   5.56729509 13.65890527  1.93113063
  13.25709381 13.66020926  1.92479161
   3.65188841  4.05162837  8.36884498
  11.34168713  4.05293236  8.36250596
   3.65050097 11.74143800  8.36250595
  11.34029969 11.74274199  8.35616693
  -0.19552606  0.20285549  4.48127178
   7.49427266  0.20415948  4.47493276
  -0.19691350  7.89266512  4.47493275
   7.49288522  7.89396911  4.46859373
  -2.11232018 -1.71461178 10.91264710
   5.57747854 -1.71330779 10.90630808
  -2.11370762  5.97519785 10.90630807
   5.57609110  5.97650184 10.89996905
   3.64937894  0.20351889  4.47805810
  11.33917766  0.20482288  4.47171908
   3.64799150  7.89332852  4.47171907
  11.33779022  7.89463251  4.46538005
   1.73258482 -1.71394838 10.90943342
   9.42238354 -1.71264439 10.90309440
   1.73119738  5.97586125 10.90309439
   9.42099610  5.97716524 10.89675537
  -0.19621414  4.04777171  4.47805809
   7.49358458  4.04907570  4.47171907
  -0.19760158 11.73758134  4.47171906
   7.49219714 11.73888533  4.46538004
  -2.11300826  2.13030444 10.90943341
   5.57679046  2.13160843 10.90309439
  -2.11439570  9.82011407 10.90309438
   5.57540302  9.82141806 10.89675536
   3.64867958  4.04841230  4.47493276
  11.33847830  4.04971629  4.46859374
   3.64729214 11.73822193  4.46859373
  11.33709086 11.73952592  4.46225471
   1.73188546  2.13094503 10.90630808
   9.42168418  2.13224902 10.89996906
   1.73049802  9.82075466 10.89996905
   9.42029674  9.82205865 10.89363003
  -0.19774788  0.20106384  2.04387464
   7.49205084  0.20236783  2.03753562
  -0.19913532  7.89087347  2.03753561
   7.49066340  7.89217746  2.03119659
  -2.11454200 -1.71640343  8.47524996
   5.57525672 -1.71509944  8.46891094
  -2.11592944  5.97340620  8.46891093
   5.57386928  5.97471019  8.46257191
   3.64705382  0.20169775  2.04066164
  11.33685254  0.20300174  2.03432262
   3.64566638  7.89150738  2.03432261
  11.33546510  7.89281137  2.02798359
   1.73025970 -1.71576952  8.47203696
   9.42005842 -1.71446553  8.46569794
   1.72887226  5.97404011  8.46569793
   9.41867098  5.97534410  8.45935891
  -0.19853926  4.04595057  2.04066164
   7.49125946  4.04725456  2.03432262
  -0.19992670 11.73576020  2.03432261
   7.48987202 11.73706419  2.02798359
  -2.11533338  2.12848330  8.47203696
   5.57446534  2.12978729  8.46569794
  -2.11672082  9.81829293  8.46569793
   5.57307790  9.81959692  8.45935891
   3.64645776  4.04662065  2.03753562
  11.33625648  4.04792464  2.03119660
   3.64507032 11.73643028  2.03119659
  11.33486904 11.73773427  2.02485757
   1.72966364  2.12915338  8.46891094
   9.41946236  2.13045737  8.46257192
   1.72827620  9.81896301  8.46257191
   9.41807492  9.82026700  8.45623289
   1.72629700  2.12586480  4.38120514
   9.41609572  2.12716879  4.37486612
   1.72490956  9.81567443  4.37486611
   9.41470828  9.81697842  4.36852709
  -0.19049712  0.20839753 10.81258046
   7.49930160  0.20970152 10.80624144
  -0.19188456  7.89820716 10.80624143
   7.49791416  7.89951115 10.79990241
   5.57117831  2.12641913  4.37799214
  13.26097703  2.12772312  4.37165312
   5.56979087  9.81622876  4.37165311
  13.25958959  9.81753275  4.36531409
   3.65438419  0.20895186 10.80936746
  11.34418291  0.21025585 10.80302844
   3.65299675  7.89876149 10.80302843
  11.34279547  7.90006548 10.79668941
   1.72558523  5.97067195  4.37799214
   9.41538395  5.97197594  4.37165312
   1.72419779 13.66048158  4.37165311
   9.41399651 13.66178557  4.36531409
  -0.19120889  4.05320468 10.80936746
   7.49858983  4.05450867 10.80302844
  -0.19259633 11.74301431 10.80302843
   7.49720239 11.74431830 10.79668941
   5.57050264  5.97142161  4.37486612
  13.26030136  5.97272560  4.36852710
   5.56911520 13.66123124  4.36852709
  13.25891392 13.66253523  4.36218807
   3.65370852  4.05395434 10.80624144
  11.34350724  4.05525833 10.79990242
   3.65232108 11.74376397 10.79990241
  11.34211980 11.74506796 10.79356339
 


--------------------------------------------------------------------------------------------------------


 k-point  1 :   0.0000 0.0000 0.0000  plane waves:  114319
 k-point  2 :   0.5000 0.0000 0.0000  plane waves:  114386
 k-point  3 :   0.0000 0.5000 0.0000  plane waves:  114386
 k-point  4 :   0.5000 0.5000 0.0000  plane waves:  114376
 k-point  5 :   0.0000-0.0000 0.5000  plane waves:  114384
 k-point  6 :   0.5000 0.0000 0.5000  plane waves:  114418
 k-point  7 :  -0.0000 0.5000 0.5000  plane waves:  114418
 k-point  8 :   0.5000 0.5000 0.5000  plane waves:  114458

 maximum and minimum number of plane-waves per node :     19182    18982

 maximum number of plane-waves:    114458
 maximum index in each direction: 
   IXMAX=   31   IYMAX=   31   IZMAX=   29
   IXMIN=  -32   IYMIN=  -32   IZMIN=  -29


 parallel 3D FFT for wavefunctions:
    minimum data exchange during FFTs selected (reduces bandwidth)
 parallel 3D FFT for charge:
    minimum data exchange during FFTs selected (reduces bandwidth)


 total amount of memory used by VASP MPI-rank0  4914914. kBytes
=======================================================================

   base      :      30000. kBytes
   nonl-proj :     156729. kBytes
   fftplans  :     108090. kBytes
   grid      :      92454. kBytes
   one-center:       1181. kBytes
   wavefun   :    4526460. kBytes
 
     INWAV:  cpu time    0.0000: real time    0.0000
 Broyden mixing: mesh for mixing (old mesh)
   NGX = 63   NGY = 63   NGZ = 59
  (NGX  =256   NGY  =256   NGZ  =240)
  gives a total of 234171 points

 initial charge density was supplied:
 number of electron    1664.0000036 magnetization     256.0000010
 charge density for first step will be calculated from the start-wavefunctions


--------------------------------------------------------------------------------------------------------


 Maximum index for augmentation-charges         7749 (set IRDMAX)


--------------------------------------------------------------------------------------------------------


 First call to EWALD:  gamma=   0.122
 Maximum number of real-space cells 3x 3x 3
 Maximum number of reciprocal cells 3x 3x 3

    FEWALD:  cpu time    0.0397: real time    0.0397


--------------------------------------- Iteration      1(   1)  ---------------------------------------


    POTLOK:  cpu time    1.5671: real time    1.5847
    SETDIJ:  cpu time    3.5101: real time    3.6170
    TRIAL :  cpu time 1439.3311: real time 1468.0034
    CORREC:  cpu time    0.0056: real time    0.0056
    --------------------------------------------
      LOOP:  cpu time 1445.9751: real time 1474.7938

 eigenvalue-minimisations  : 40376
 total energy-change (2. order) : 0.2255225E+05  (-0.9580945E+05)
 number of electron    1664.0000036 magnetization     256.0000010
 augmentation part     1664.0000036 magnetization     256.0000010

 Free energy of the ion-electron system (eV)
  ---------------------------------------------------
  alpha Z        PSCENC =      4690.73086636
  Ewald energy   TEWEN  =   -123171.29965816
  -Hartree energ DENC   =    -61831.87970144
  -exchange      EXHF   =         0.00000000
  -V(xc)+E(xc)   XCENC  =      7068.08940143
  PAW double counting   =    195670.66238119  -201814.61936820
  entropy T*S    EENTRO =        -0.03725536
  eigenvalues    EBANDS =       135.57479479
  atomic energy  EATOM  =    201805.03006389
  ---------------------------------------------------
  free energy    TOTEN  =     22552.25152450 eV

  energy without entropy =    22552.28877986  energy(sigma->0) =    22552.27015218


--------------------------------------------------------------------------------------------------------




--------------------------------------- Iteration      1(   2)  ---------------------------------------


    TRIAL :  cpu time 1396.0990: real time 1421.2536
    CORREC:  cpu time    0.0059: real time    0.0061
    --------------------------------------------
      LOOP:  cpu time 1396.1074: real time 1421.2661

 eigenvalue-minimisations  : 38656
 total energy-change (2. order) :-0.2007958E+05  (-0.1878727E+05)
 number of electron    1664.0000036 magnetization     256.0000010
 augmentation part     1664.0000036 magnetization     256.0000010

 Free energy of the ion-electron system (eV)
  ---------------------------------------------------
  alpha Z        PSCENC =      4690.73086636
  Ewald energy   TEWEN  =   -123171.29965816
  -Hartree energ DENC   =    -61831.87970144
  -exchange      EXHF   =         0.00000000
  -V(xc)+E(xc)   XCENC  =      7068.08940143
  PAW double counting   =    195670.66238119  -201814.61936820
  entropy T*S    EENTRO =        -0.14029674
  eigenvalues    EBANDS =    -19943.90303992
  atomic energy  EATOM  =    201805.03006389
  ---------------------------------------------------
  free energy    TOTEN  =      2472.67064841 eV

  energy without entropy =     2472.81094515  energy(sigma->0) =     2472.74079678


--------------------------------------------------------------------------------------------------------




--------------------------------------- Iteration      1(   3)  ---------------------------------------


    TRIAL :  cpu time 1498.1941: real time 1526.1868
    CORREC:  cpu time    0.0017: real time    0.0019
    --------------------------------------------
      LOOP:  cpu time 1498.1993: real time 1526.1966

 eigenvalue-minimisations  : 42384
 total energy-change (2. order) :-0.3200058E+04  (-0.2790331E+04)
 number of electron    1664.0000036 magnetization     256.0000010
 augmentation part     1664.0000036 magnetization     256.0000010

 Free energy of the ion-electron system (eV)
  ---------------------------------------------------
  alpha Z        PSCENC =      4690.73086636
  Ewald energy   TEWEN  =   -123171.29965816
  -Hartree energ DENC   =    -61831.87970144
  -exchange      EXHF   =         0.00000000
  -V(xc)+E(xc)   XCENC  =      7068.08940143
  PAW double counting   =    195670.66238119  -201814.61936820
  entropy T*S    EENTRO =        -0.00000000
  eigenvalues    EBANDS =    -23144.10113929
  atomic energy  EATOM  =    201805.03006389
  ---------------------------------------------------
  free energy    TOTEN  =      -727.38715422 eV

  energy without entropy =     -727.38715422  energy(sigma->0) =     -727.38715422


--------------------------------------------------------------------------------------------------------




--------------------------------------- Iteration      1(   4)  ---------------------------------------


    TRIAL :  cpu time 1616.2716: real time 1647.2575
    CORREC:  cpu time    0.0016: real time    0.0016
    --------------------------------------------
      LOOP:  cpu time 1616.2740: real time 1647.2605

 eigenvalue-minimisations  : 46608
 total energy-change (2. order) :-0.3949194E+03  (-0.3894155E+03)
 number of electron    1664.0000036 magnetization     256.0000010
 augmentation part     1664.0000036 magnetization     256.0000010

 Free energy of the ion-electron system (eV)
  ---------------------------------------------------
  alpha Z        PSCENC =      4690.73086636
  Ewald energy   TEWEN  =   -123171.29965816
  -Hartree energ DENC   =    -61831.87970144
  -exchange      EXHF   =         0.00000000
  -V(xc)+E(xc)   XCENC  =      7068.08940143
  PAW double counting   =    195670.66238119  -201814.61936820
  entropy T*S    EENTRO =        -0.00000000
  eigenvalues    EBANDS =    -23539.02055476
  atomic energy  EATOM  =    201805.03006389
  ---------------------------------------------------
  free energy    TOTEN  =     -1122.30656969 eV

  energy without entropy =    -1122.30656969  energy(sigma->0) =    -1122.30656969


--------------------------------------------------------------------------------------------------------




--------------------------------------- Iteration      1(   5)  ---------------------------------------


    TRIAL :  cpu time 2158.3720: real time 2199.7074
    CORREC:  cpu time    0.0017: real time    0.0017
    CHARGE:  cpu time   21.5911: real time   21.9587
    --------------------------------------------
      LOOP:  cpu time 2179.9654: real time 2221.6696

 eigenvalue-minimisations  : 66232
 total energy-change (2. order) :-0.4556535E+02  (-0.4519043E+02)
 number of electron    1664.0000036 magnetization     256.0000010
 augmentation part      575.0310923 magnetization     167.7597767

 Free energy of the ion-electron system (eV)
  ---------------------------------------------------
  alpha Z        PSCENC =      4690.73086636
  Ewald energy   TEWEN  =   -123171.29965816
  -Hartree energ DENC   =    -61831.87970144
  -exchange      EXHF   =         0.00000000
  -V(xc)+E(xc)   XCENC  =      7068.08940143
  PAW double counting   =    195670.66238119  -201814.61936820
  entropy T*S    EENTRO =        -0.00000000
  eigenvalues    EBANDS =    -23584.58590737
  atomic energy  EATOM  =    201805.03006389
  ---------------------------------------------------
  free energy    TOTEN  =     -1167.87192230 eV

  energy without entropy =    -1167.87192230  energy(sigma->0) =    -1167.87192230


--------------------------------------------------------------------------------------------------------




--------------------------------------- Iteration      1(   6)  ---------------------------------------


    POTLOK:  cpu time    1.2979: real time    1.3323
    SETDIJ:  cpu time    2.9997: real time    4.0241
    TRIAL :  cpu time  664.3217: real time  751.7492
    CORREC:  cpu time  103.7893: real time  105.3427
    CHARGE:  cpu time   21.3529: real time   21.4937
    --------------------------------------------
      LOOP:  cpu time  794.7157: real time  885.0035

 eigenvalue-minimisations  :     0
 total energy-change (2. order) : 0.1036452E+00  (-0.1023401E+01)
 number of electron    1664.0000036 magnetization     256.0000010
 augmentation part      574.4130986 magnetization     167.6884655

 Free energy of the ion-electron system (eV)
  ---------------------------------------------------
  alpha Z        PSCENC =      4690.73086636
  Ewald energy   TEWEN  =   -123171.29965816
  -Hartree energ DENC   =    -61804.90711666
  -exchange      EXHF   =         0.00000000
  -V(xc)+E(xc)   XCENC  =      7064.28654916
  PAW double counting   =    194867.47724457  -200993.78710256
  entropy T*S    EENTRO =        -0.00000000
  eigenvalues    EBANDS =    -23625.29912370
  atomic energy  EATOM  =    201805.03006389
  ---------------------------------------------------
  free energy    TOTEN  =     -1167.76827710 eV

  energy without entropy =    -1167.76827710  energy(sigma->0) =    -1167.76827710


--------------------------------------------------------------------------------------------------------




--------------------------------------- Iteration      1(   7)  ---------------------------------------


    POTLOK:  cpu time    1.3163: real time    1.3238
    SETDIJ:  cpu time    3.2291: real time    3.2987
    TRIAL :  cpu time  651.0784: real time  658.1178
    CORREC:  cpu time  103.0756: real time  104.9489
    CHARGE:  cpu time   21.2069: real time   21.6402
    --------------------------------------------
      LOOP:  cpu time  780.0651: real time  789.4985

 eigenvalue-minimisations  :     0
 total energy-change (2. order) :-0.1023785E+01  (-0.6284070E+00)
 number of electron    1664.0000036 magnetization     256.0000010
 augmentation part      573.6479011 magnetization     167.6288889

 Free energy of the ion-electron system (eV)
  ---------------------------------------------------
  alpha Z        PSCENC =      4690.73086636
  Ewald energy   TEWEN  =   -123171.29965816
  -Hartree energ DENC   =    -61823.78015976
  -exchange      EXHF   =         0.00000000
  -V(xc)+E(xc)   XCENC  =      7066.25011593
  PAW double counting   =    195191.71653341  -201324.35654144
  entropy T*S    EENTRO =        -0.00000000
  eigenvalues    EBANDS =    -23603.08328273
  atomic energy  EATOM  =    201805.03006389
  ---------------------------------------------------
  free energy    TOTEN  =     -1168.79206250 eV

  energy without entropy =    -1168.79206250  energy(sigma->0) =    -1168.79206250


--------------------------------------------------------------------------------------------------------




--------------------------------------- Iteration      1(   8)  ---------------------------------------


    POTLOK:  cpu time    1.3054: real time    1.3379
    SETDIJ:  cpu time    2.8485: real time    2.9409
    TRIAL :  cpu time  645.4629: real time  657.8945
    CORREC:  cpu time  103.0447: real time  104.9236
    CHARGE:  cpu time   21.1797: real time   21.6866
    --------------------------------------------
      LOOP:  cpu time  773.8475: real time  788.7903

 eigenvalue-minimisations  :     0
 total energy-change (2. order) :-0.6285371E+00  (-0.2465072E+00)
 number of electron    1664.0000036 magnetization     256.0000010
 augmentation part      573.1201116 magnetization     167.5841817

 Free energy of the ion-electron system (eV)
  ---------------------------------------------------
  alpha Z        PSCENC =      4690.73086636
  Ewald energy   TEWEN  =   -123171.29965816
  -Hartree energ DENC   =    -61829.64832212
  -exchange      EXHF   =         0.00000000
  -V(xc)+E(xc)   XCENC  =      7067.24139112
  PAW double counting   =    195587.47112726  -201726.21847496
  entropy T*S    EENTRO =        -0.00000000
  eigenvalues    EBANDS =    -23592.72759303
  atomic energy  EATOM  =    201805.03006389
  ---------------------------------------------------
  free energy    TOTEN  =     -1169.42059963 eV

  energy without entropy =    -1169.42059963  energy(sigma->0) =    -1169.42059963


--------------------------------------------------------------------------------------------------------




--------------------------------------- Iteration      1(   9)  ---------------------------------------


    POTLOK:  cpu time    1.3287: real time    1.3398
    SETDIJ:  cpu time    2.9273: real time    2.9347
    TRIAL :  cpu time  650.6915: real time  656.9900
    CORREC:  cpu time  103.9243: real time  104.9690
    CHARGE:  cpu time   21.2783: real time   21.4353
    --------------------------------------------
      LOOP:  cpu time  780.1560: real time  787.6764

 eigenvalue-minimisations  :     0
 total energy-change (2. order) :-0.2465333E+00  (-0.9479839E-01)
 number of electron    1664.0000036 magnetization     256.0000010
 augmentation part      572.8734824 magnetization     167.5506575

 Free energy of the ion-electron system (eV)
  ---------------------------------------------------
  alpha Z        PSCENC =      4690.73086636
  Ewald energy   TEWEN  =   -123171.29965816
  -Hartree energ DENC   =    -61825.64990787
  -exchange      EXHF   =         0.00000000
  -V(xc)+E(xc)   XCENC  =      7067.41876087
  PAW double counting   =    195770.42562096  -201911.95471652
  entropy T*S    EENTRO =        -0.00000000
  eigenvalues    EBANDS =    -23594.36816242
  atomic energy  EATOM  =    201805.03006389
  ---------------------------------------------------
  free energy    TOTEN  =     -1169.66713289 eV

  energy without entropy =    -1169.66713289  energy(sigma->0) =    -1169.66713289


--------------------------------------------------------------------------------------------------------




--------------------------------------- Iteration      1(  10)  ---------------------------------------


    POTLOK:  cpu time    1.3363: real time    1.3415
    SETDIJ:  cpu time    3.0041: real time    3.0400
    TRIAL :  cpu time  651.4761: real time  658.3012
    CORREC:  cpu time  104.7528: real time  105.7046
    CHARGE:  cpu time   21.4418: real time   21.9106
    --------------------------------------------
      LOOP:  cpu time  782.0125: real time  790.2994

 eigenvalue-minimisations  :     0
 total energy-change (2. order) :-0.9480238E-01  (-0.3649851E-01)
 number of electron    1664.0000036 magnetization     256.0000010
 augmentation part      572.7660909 magnetization     167.5275377

 Free energy of the ion-electron system (eV)
  ---------------------------------------------------
  alpha Z        PSCENC =      4690.73086636
  Ewald energy   TEWEN  =   -123171.29965816
  -Hartree energ DENC   =    -61831.13449861
  -exchange      EXHF   =         0.00000000
  -V(xc)+E(xc)   XCENC  =      7067.99659575
  PAW double counting   =    195805.75864419  -201949.04468146
  entropy T*S    EENTRO =        -0.00000000
  eigenvalues    EBANDS =    -23587.79926723
  atomic energy  EATOM  =    201805.03006389
  ---------------------------------------------------
  free energy    TOTEN  =     -1169.76193527 eV

  energy without entropy =    -1169.76193527  energy(sigma->0) =    -1169.76193527


--------------------------------------------------------------------------------------------------------




--------------------------------------- Iteration      1(  11)  ---------------------------------------


    POTLOK:  cpu time    1.3136: real time    1.3350
    SETDIJ:  cpu time    3.0412: real time    3.0652
    TRIAL :  cpu time  652.4466: real time  659.0850
    CORREC:  cpu time  104.2959: real time  105.2280
    CHARGE:  cpu time   21.3718: real time   21.4234
    --------------------------------------------
      LOOP:  cpu time  782.4767: real time  790.1446

 eigenvalue-minimisations  :     0
 total energy-change (2. order) :-0.3649990E-01  (-0.1119626E-01)
 number of electron    1664.0000036 magnetization     256.0000010
 augmentation part      572.7188718 magnetization     167.5094226

 Free energy of the ion-electron system (eV)
  ---------------------------------------------------
  alpha Z        PSCENC =      4690.73086636
  Ewald energy   TEWEN  =   -123171.29965816
  -Hartree energ DENC   =    -61833.35625982
  -exchange      EXHF   =         0.00000000
  -V(xc)+E(xc)   XCENC  =      7068.18000733
  PAW double counting   =    195769.74160852  -201914.12779251
  entropy T*S    EENTRO =        -0.00000000
  eigenvalues    EBANDS =    -23584.69727079
  atomic energy  EATOM  =    201805.03006389
  ---------------------------------------------------
  free energy    TOTEN  =     -1169.79843517 eV

  energy without entropy =    -1169.79843517  energy(sigma->0) =    -1169.79843517


--------------------------------------------------------------------------------------------------------




--------------------------------------- Iteration      1(  12)  ---------------------------------------


    POTLOK:  cpu time    1.3412: real time    1.3419
    SETDIJ:  cpu time    3.0006: real time    3.0075
    TRIAL :  cpu time  651.3416: real time  658.3167
    CORREC:  cpu time  103.4727: real time  104.4236
    CHARGE:  cpu time   21.3512: real time   21.5859
    --------------------------------------------
      LOOP:  cpu time  780.5118: real time  788.6813

 eigenvalue-minimisations  :     0
 total energy-change (2. order) :-0.1120024E-01  (-0.5381802E-02)
 number of electron    1664.0000036 magnetization     256.0000010
 augmentation part      572.7273292 magnetization     167.4975687

 Free energy of the ion-electron system (eV)
  ---------------------------------------------------
  alpha Z        PSCENC =      4690.73086636
  Ewald energy   TEWEN  =   -123171.29965816
  -Hartree energ DENC   =    -61830.88772423
  -exchange      EXHF   =         0.00000000
  -V(xc)+E(xc)   XCENC  =      7068.07167613
  PAW double counting   =    195713.93764759  -201858.15375531
  entropy T*S    EENTRO =        -0.00000000
  eigenvalues    EBANDS =    -23587.23875169
  atomic energy  EATOM  =    201805.03006389
  ---------------------------------------------------
  free energy    TOTEN  =     -1169.80963541 eV

  energy without entropy =    -1169.80963541  energy(sigma->0) =    -1169.80963541


--------------------------------------------------------------------------------------------------------




--------------------------------------- Iteration      1(  13)  ---------------------------------------


    POTLOK:  cpu time    1.3143: real time    1.3219
    SETDIJ:  cpu time    3.1211: real time    3.1685
    TRIAL :  cpu time  650.3006: real time  657.2972
    CORREC:  cpu time  103.9179: real time  105.0392
    CHARGE:  cpu time   21.3029: real time   21.5498
    --------------------------------------------
      LOOP:  cpu time  779.9617: real time  788.3818

 eigenvalue-minimisations  :     0
 total energy-change (2. order) :-0.5379894E-02  (-0.3176394E-02)
 number of electron    1664.0000036 magnetization     256.0000010
 augmentation part      572.7241282 magnetization     167.4869566

 Free energy of the ion-electron system (eV)
  ---------------------------------------------------
  alpha Z        PSCENC =      4690.73086636
  Ewald energy   TEWEN  =   -123171.29965816
  -Hartree energ DENC   =    -61833.09017999
  -exchange      EXHF   =         0.00000000
  -V(xc)+E(xc)   XCENC  =      7068.18634039
  PAW double counting   =    195669.40771737  -201813.81307105
  entropy T*S    EENTRO =        -0.00000000
  eigenvalues    EBANDS =    -23584.96709411
  atomic energy  EATOM  =    201805.03006389
  ---------------------------------------------------
  free energy    TOTEN  =     -1169.81501531 eV

  energy without entropy =    -1169.81501531  energy(sigma->0) =    -1169.81501531


--------------------------------------------------------------------------------------------------------




--------------------------------------- Iteration      1(  14)  ---------------------------------------


    POTLOK:  cpu time    1.3097: real time    1.3113
    SETDIJ:  cpu time    3.0833: real time    3.0845
    TRIAL :  cpu time  652.8487: real time  659.8606
    CORREC:  cpu time  103.6881: real time  104.6777
    CHARGE:  cpu time   21.3080: real time   21.4355
    --------------------------------------------
      LOOP:  cpu time  782.2437: real time  790.3760

 eigenvalue-minimisations  :     0
 total energy-change (2. order) :-0.3180752E-02  (-0.1938135E-02)
 number of electron    1664.0000036 magnetization     256.0000010
 augmentation part      572.7453519 magnetization     167.4811103

 Free energy of the ion-electron system (eV)
  ---------------------------------------------------
  alpha Z        PSCENC =      4690.73086636
  Ewald energy   TEWEN  =   -123171.29965816
  -Hartree energ DENC   =    -61831.32760745
  -exchange      EXHF   =         0.00000000
  -V(xc)+E(xc)   XCENC  =      7068.07840776
  PAW double counting   =    195640.69853071  -201784.84642863
  entropy T*S    EENTRO =        -0.00000000
  eigenvalues    EBANDS =    -23586.88237054
  atomic energy  EATOM  =    201805.03006389
  ---------------------------------------------------
  free energy    TOTEN  =     -1169.81819606 eV

  energy without entropy =    -1169.81819606  energy(sigma->0) =    -1169.81819606


--------------------------------------------------------------------------------------------------------




--------------------------------------- Iteration      1(  15)  ---------------------------------------


    POTLOK:  cpu time    1.3392: real time    1.3541
    SETDIJ:  cpu time    2.9025: real time    2.9037
    TRIAL :  cpu time  653.3634: real time  660.8197
    CORREC:  cpu time  104.1718: real time  105.1830
    CHARGE:  cpu time   21.3599: real time   21.5465
    --------------------------------------------
      LOOP:  cpu time  783.1428: real time  791.8138

 eigenvalue-minimisations  :     0
 total energy-change (2. order) :-0.1937002E-02  (-0.1041505E-02)
 number of electron    1664.0000036 magnetization     256.0000010
 augmentation part      572.7504567 magnetization     167.4762468

 Free energy of the ion-electron system (eV)
  ---------------------------------------------------
  alpha Z        PSCENC =      4690.73086636
  Ewald energy   TEWEN  =   -123171.29965816
  -Hartree energ DENC   =    -61832.60798271
  -exchange      EXHF   =         0.00000000
  -V(xc)+E(xc)   XCENC  =      7068.12935650
  PAW double counting   =    195643.92192739  -201788.11853085
  entropy T*S    EENTRO =        -0.00000000
  eigenvalues    EBANDS =    -23585.60617549
  atomic energy  EATOM  =    201805.03006389
  ---------------------------------------------------
  free energy    TOTEN  =     -1169.82013306 eV

  energy without entropy =    -1169.82013306  energy(sigma->0) =    -1169.82013306


--------------------------------------------------------------------------------------------------------




--------------------------------------- Iteration      1(  16)  ---------------------------------------


    POTLOK:  cpu time    1.3175: real time    1.3339
    SETDIJ:  cpu time    2.9731: real time    3.0334
    TRIAL :  cpu time  653.1124: real time  660.1781
    CORREC:  cpu time  103.6131: real time  104.4094
    CHARGE:  cpu time   21.3912: real time   21.5679
    --------------------------------------------
      LOOP:  cpu time  782.4382: real time  790.5612

 eigenvalue-minimisations  :     0
 total energy-change (2. order) :-0.1045938E-02  (-0.5899453E-03)
 number of electron    1664.0000036 magnetization     256.0000010
 augmentation part      572.7605787 magnetization     167.4771754

 Free energy of the ion-electron system (eV)
  ---------------------------------------------------
  alpha Z        PSCENC =      4690.73086636
  Ewald energy   TEWEN  =   -123171.29965816
  -Hartree energ DENC   =    -61831.49988688
  -exchange      EXHF   =         0.00000000
  -V(xc)+E(xc)   XCENC  =      7068.07241961
  PAW double counting   =    195657.05096471  -201800.96513862
  entropy T*S    EENTRO =        -0.00000000
  eigenvalues    EBANDS =    -23586.94080991
  atomic energy  EATOM  =    201805.03006389
  ---------------------------------------------------
  free energy    TOTEN  =     -1169.82117900 eV

  energy without entropy =    -1169.82117900  energy(sigma->0) =    -1169.82117900


--------------------------------------------------------------------------------------------------------




--------------------------------------- Iteration      1(  17)  ---------------------------------------


    POTLOK:  cpu time    1.3192: real time    1.3197
    SETDIJ:  cpu time    3.0679: real time    3.0698
    TRIAL :  cpu time  651.5806: real time  658.2510
    CORREC:  cpu time  103.5718: real time  104.4922
    CHARGE:  cpu time   21.3467: real time   21.6015
    --------------------------------------------
      LOOP:  cpu time  780.8937: real time  788.7424

 eigenvalue-minimisations  :     0
 total energy-change (2. order) :-0.5918708E-03  (-0.4137431E-03)
 number of electron    1664.0000036 magnetization     256.0000010
 augmentation part      572.7608425 magnetization     167.4770899

 Free energy of the ion-electron system (eV)
  ---------------------------------------------------
  alpha Z        PSCENC =      4690.73086636
  Ewald energy   TEWEN  =   -123171.29965816
  -Hartree energ DENC   =    -61832.02187234
  -exchange      EXHF   =         0.00000000
  -V(xc)+E(xc)   XCENC  =      7068.08572972
  PAW double counting   =    195674.20769893  -201818.19641025
  entropy T*S    EENTRO =        -0.00000000
  eigenvalues    EBANDS =    -23586.35818902
  atomic energy  EATOM  =    201805.03006389
[...]
     13.25526     15.30009     -0.02339         0.000016      0.000349     -0.000112
      3.65005      5.69151      6.42066        -0.000043     -0.000176     -0.000577
     11.33985      5.69282      6.41433        -0.000114      0.000282     -0.000133
      3.64866     13.38132      6.41433         0.000001      0.000003      0.000207
     11.33846     13.38263      6.40799         0.000122      0.000334     -0.000073
      1.72264      3.76342     -0.00437         0.000803      0.000664     -0.000062
      9.41244      3.76473     -0.01071        -0.000777      0.000676     -0.000052
      1.72125     11.45323     -0.01071        -0.000069      0.000067     -0.000200
      9.41105     11.45454     -0.01705         0.000115      0.000053     -0.000201
     -0.19415      1.84596      6.42700         0.000012      0.000402     -0.000035
      7.49564      1.84726      6.42066        -0.000021      0.001132      0.000046
     -0.19554      9.53576      6.42066        -0.000001      0.000195     -0.000168
      7.49426      9.53707      6.41433         0.000023      0.000064     -0.000176
      5.56743      4.32582     -0.00812         0.000012     -0.000962      0.002459
     13.25723      4.32713     -0.01446         0.000021     -0.000129      0.000118
      5.56604     12.01563     -0.01446         0.000012     -0.000774     -0.000440
     13.25584     12.01694     -0.02080         0.000030     -0.000282      0.000070
      3.65064      2.40836      6.42325        -0.000020      0.000612      0.000030
     11.34044      2.40966      6.41691         0.000012     -0.000099      0.000140
      3.64925     10.09817      6.41691         0.000023     -0.000471      0.000100
     11.33905     10.09947      6.41057         0.000006     -0.000305      0.000113
      2.00950      0.20478      6.42624        -0.000790      0.000283      0.000657
      9.69930      0.20609      6.41990         0.000208      0.000200      0.000498
      2.00811      7.89459      6.41990        -0.000203     -0.000159     -0.000054
      9.69791      7.89590      6.41356        -0.000338     -0.000147      0.000018
      0.09270     -1.71269     12.85761        -0.000268      0.002811      0.000144
      7.78250     -1.71138     12.85127        -0.000260      0.000070      0.000134
      0.09132      5.97712     12.85127        -0.000263     -0.000322      0.000087
      7.78111      5.97843     12.84494        -0.000274     -0.000105      0.000061
      5.29265      0.20535      6.42365         0.000223      0.000167      0.000517
     12.98245      0.20665      6.41731         0.000200      0.000055     -0.000015
      5.29126      7.89516      6.41731         0.000185     -0.000227     -0.000275
     12.98106      7.89646      6.41097         0.000159     -0.000046     -0.000220
      3.37585     -1.71212     12.85503         0.000158      0.002810     -0.000077
     11.06565     -1.71082     12.84869         0.000186      0.000073     -0.000111
      3.37447      5.97769     12.84869         0.000182     -0.000329     -0.000142
     11.06426      5.97899     12.84235         0.000164     -0.000122     -0.000144
      1.44705      4.04960      6.42365         0.000637      0.000157     -0.000416
      9.13685      4.05090      6.41731        -0.000344      0.000243     -0.000610
      1.44567     11.73941      6.41731         0.000107     -0.000123     -0.000084
      9.13547     11.74071      6.41097         0.000241     -0.000128     -0.000043
     -0.46974      2.13213     12.85503         0.000505     -0.000680      0.000235
      7.22006      2.13344     12.84869        -0.000001      0.000020      0.000026
     -0.47113      9.82194     12.84869        -0.000161     -0.000677     -0.000484
      7.21867      9.82325     12.84235         0.000351      0.000005     -0.000263
     -1.83610      4.04903      6.42624        -0.000244      0.000011      0.000087
      5.85370      4.05034      6.41990        -0.000201      0.000137     -0.000446
     -1.83748     11.73884      6.41990        -0.000301      0.000005      0.000125
      5.85232     11.74015      6.41356        -0.000253     -0.000185      0.000185
     -3.75289      2.13157     12.85761        -0.000084      0.000032      0.000250
      3.93691      2.13287     12.85127        -0.000603     -0.000666      0.000456
     -3.75428      9.82138     12.85127        -0.000447      0.000009     -0.000017
      3.93552      9.82268     12.84494         0.000069     -0.000682     -0.000252
      1.72892     -1.71771      6.42819         0.000381      0.000505     -0.000951
      9.41872     -1.71640      6.42185        -0.000728      0.000641     -0.000928
      1.72753      5.97210      6.42185        -0.000685      0.000816      0.000911
      9.41733      5.97341      6.41551         0.000388      0.000760      0.000975
     -0.18787     -3.63517     12.85957         0.004145      0.002801      0.007037
      7.50193     -3.63387     12.85323        -0.000267     -0.000009      0.000081
     -0.18926      4.05464     12.85323        -0.000430      0.000902     -0.000628
      7.50054      4.05594     12.84689         0.000035      0.000521     -0.000066
      7.49062      0.20042     -0.00633        -0.004572      0.002643      0.007106
     15.18042      0.20173     -0.01266        -0.000177     -0.000161      0.000078
      7.48924      7.89023     -0.01266         0.000037      0.000768     -0.000603
     15.17904      7.89154     -0.01900        -0.000445      0.000389     -0.000042
      5.57383     -1.71704      6.42505        -0.000301      0.000399     -0.001230
     13.26363     -1.71574      6.41871        -0.000282      0.000063     -0.000127
      5.57244      5.97277      6.41871        -0.000322      0.000578      0.001309
     13.26224      5.97407      6.41237        -0.000267      0.000209      0.000137
      3.64503      4.04468     -0.00633        -0.004629      0.002587     -0.007120
     11.33483      4.04598     -0.01266        -0.000173     -0.000234     -0.000229
      3.64364     11.73449     -0.01266         0.000007      0.000840      0.000672
     11.33344     11.73579     -0.01900        -0.000400      0.000455      0.000127
      1.72824      2.12721      6.42505        -0.000276     -0.000648     -0.000108
      9.41804      2.12851      6.41871        -0.000274     -0.000697     -0.000022
      1.72685      9.81702      6.41871        -0.000296      0.000543      0.000113
      9.41665      9.81832      6.41237        -0.000258      0.000528      0.000071
      5.57313      2.12785      6.42185        -0.000174     -0.001128     -0.000104
     13.26293      2.12915      6.41551        -0.000241      0.000017     -0.000063
      5.57174      9.81766      6.41551        -0.000216      0.000691      0.000076
     13.26154      9.81896      6.40918        -0.000141      0.000514      0.000084
      3.65633      0.21038     12.85323         0.004162      0.002726     -0.007188
     11.34613      0.21169     12.84689        -0.000232     -0.000050     -0.000175
      3.65495      7.90019     12.84689        -0.000476      0.000980      0.000686
     11.34474      7.90150     12.84055         0.000053      0.000549      0.000126
      1.72448      2.12354      1.94381        -0.000029     -0.002493     -0.000164
      9.41428      2.12484      1.93747        -0.000080     -0.002529     -0.000184
      1.72309      9.81335      1.93747        -0.000069      0.000654     -0.000071
      9.41289      9.81465      1.93113        -0.000035      0.000664     -0.000094
     -0.19232      0.20607      8.37518        -0.000030     -0.000280     -0.000344
      7.49748      0.20738      8.36884        -0.000029     -0.000283     -0.000571
     -0.19370      7.89588      8.36884        -0.000070      0.000299      0.000090
      7.49609      7.89719      8.36251        -0.000087      0.000285      0.000192
      5.56939      2.13420      1.94059        -0.000037     -0.036976     -0.000052
     13.25919      2.12550      1.93426        -0.000016     -0.000276     -0.000178
      5.56800      9.81401      1.93426        -0.000035      0.001825     -0.000088
     13.25780      9.81531      1.92792        -0.000005      0.000361     -0.000086
      3.65259      0.20673      8.37197        -0.000007     -0.000295     -0.000734
     11.34239      0.20803      8.36563        -0.000079     -0.000169     -0.000207
      3.65121      7.89654      8.36563        -0.000080      0.000380      0.000164
     11.34100      7.89784      8.35929         0.000082      0.000286      0.000092
      1.72379      5.96845      1.94059        -0.001219      0.000698     -0.000154
      9.41359      5.96975      1.93426         0.001165      0.000699     -0.000204
      1.72241     13.65826      1.93426         0.001143      0.000676     -0.000079
      9.41221     13.65956      1.92792        -0.001209      0.000690     -0.000095
     -0.19300      4.05098      8.37197        -0.000125      0.000100     -0.000156
      7.49680      4.05229      8.36563         0.000046      0.000008      0.000250
     -0.19439     11.74079      8.36563         0.000032     -0.000005     -0.000082
      7.49541     11.74210      8.35929        -0.000048      0.000115     -0.000296
      5.56868      5.96910      1.93747        -0.000081      0.006439     -0.000025
     13.25848      5.97040      1.93113        -0.000017      0.000068     -0.000145
      5.56730     13.65891      1.93113        -0.000048      0.006344     -0.000284
     13.25709     13.66021      1.92479        -0.000039      0.000016     -0.000086
      3.65189      4.05163      8.36884        -0.000035      0.000006      0.000197
     11.34169      4.05293      8.36251        -0.000042      0.000012     -0.000130
      3.65050     11.74144      8.36251        -0.000058     -0.000000     -0.000193
     11.34030     11.74274      8.35617        -0.000073      0.000022     -0.000193
     -0.19553      0.20286      4.48127         0.000210     -0.000379      0.000084
      7.49427      0.20416      4.47493        -0.002947      0.001440     -0.004114
     -0.19691      7.89267      4.47493        -0.000252      0.000445      0.000202
      7.49289      7.89397      4.46859         0.000228      0.000981      0.000494
     -2.11232     -1.71461     10.91265        -0.000050     -0.000612      0.000090
      5.57748     -1.71331     10.90631        -0.000027     -0.000563      0.000070
     -2.11371      5.97520     10.90631        -0.000059      0.000387      0.000155
      5.57609      5.97650     10.89997        -0.000023      0.000417      0.000187
      3.64938      0.20352      4.47806         0.002993      0.001368     -0.004131
     11.33918      0.20482      4.47172        -0.000245     -0.000351      0.000119
      3.64799      7.89333      4.47172        -0.000333      0.000982      0.000501
     11.33779      7.89463      4.46538         0.000269      0.000450      0.000217
      1.73258     -1.71395     10.90943         0.000016     -0.001164      0.000076
      9.42238     -1.71264     10.90309        -0.000009     -0.000049      0.000057
      1.73120      5.97586     10.90309        -0.000033      0.000485      0.000189
      9.42100      5.97717     10.89676         0.000035      0.000300      0.000183
     -0.19621      4.04777      4.47806        -0.000248     -0.000276      0.000094
      7.49358      4.04908      4.47172         0.003013      0.001407      0.004334
     -0.19760     11.73758      4.47172         0.000232      0.000382      0.000078
      7.49220     11.73889      4.46538        -0.000293      0.000903     -0.000210
     -2.11301      2.13030     10.90943        -0.000437      0.000264     -0.000373
      5.57679      2.13161     10.90309         0.000462      0.000183     -0.000354
     -2.11440      9.82011     10.90309         0.000441      0.000415      0.000609
      5.57540      9.82142     10.89676        -0.000417      0.000415      0.000627
      3.64868      4.04841      4.47493        -0.002972      0.001491      0.004307
     11.33848      4.04972      4.46859         0.000240     -0.000310      0.000130
      3.64729     11.73822      4.46859         0.000213      0.000890     -0.000171
     11.33709     11.73953      4.46225        -0.000240      0.000391      0.000065
      1.73189      2.13095     10.90631        -0.000056      0.000301     -0.000646
      9.42168      2.13225     10.89997        -0.000031     -0.000126      0.000066
      1.73050      9.82075     10.89997        -0.000061      0.000480      0.000886
      9.42030      9.82206     10.89363        -0.000041      0.000043      0.000194
     -0.19775      0.20106      2.04387         0.000187      0.000342      0.000152
      7.49205      0.20237      2.03754         0.001347      0.001012      0.000241
     -0.19914      7.89087      2.03754         0.000477     -0.000696      0.000138
      7.49066      7.89218      2.03120        -0.000700     -0.001320      0.000031
     -2.11454     -1.71640      8.47525         0.000202     -0.000024      0.000198
      5.57526     -1.71510      8.46891         0.000195     -0.000047      0.000633
     -2.11593      5.97341      8.46891         0.000190     -0.000313      0.000083
      5.57387      5.97471      8.46257         0.000205     -0.000349     -0.000404
      3.64705      0.20170      2.04066        -0.000960      0.001148      0.000386
     11.33685      0.20300      2.03432         0.000258      0.000480      0.000255
      3.64567      7.89151      2.03432         0.001078     -0.001196      0.000186
     11.33547      7.89281      2.02798        -0.000028     -0.000559      0.000239
      1.73026     -1.71577      8.47204         0.000158      0.000144      0.000614
      9.42006     -1.71447      8.46570         0.000343      0.000055      0.000647
      1.72887      5.97404      8.46570         0.000265     -0.000226     -0.000114
      9.41867      5.97534      8.45936         0.000181     -0.000151     -0.000093
     -0.19854      4.04595      2.04066         0.000274      0.000523      0.000288
      7.49126      4.04725      2.03432        -0.000775      0.001314      0.000118
     -0.19993     11.73576      2.03432        -0.000074     -0.000567      0.000256
      7.48987     11.73706      2.02798         0.001115     -0.001220      0.000290
     -2.11533      2.12848      8.47204         0.000325      0.000067      0.000539
      5.57447      2.12979      8.46570         0.000177      0.000267      0.000561
     -2.11672      9.81829      8.46570         0.000202     -0.000132     -0.000020
      5.57308      9.81960      8.45936         0.000287     -0.000230     -0.000045
      3.64646      4.04662      2.03754         0.001179      0.001179      0.000024
     11.33626      4.04792      2.03120         0.000198      0.000403      0.000111
      3.64507     11.73643      2.03120        -0.000692     -0.001359      0.000171
     11.33487     11.73773      2.02486         0.000467     -0.000727      0.000100
      1.72966      2.12915      8.46891         0.000174      0.000021      0.000555
      9.41946      2.13046      8.46257         0.000244      0.000018      0.000204
      1.72828      9.81896      8.46257         0.000168     -0.000329     -0.000327
      9.41807      9.82027      8.45623         0.000195     -0.000335      0.000087
      1.72630      2.12586      4.38121         0.000017      0.001080     -0.000193
      9.41610      2.12717      4.37487         0.000018      0.001091     -0.000212
      1.72491      9.81567      4.37487         0.000017     -0.000763     -0.000337
      9.41471      9.81698      4.36853         0.000019     -0.000743     -0.000320
     -0.19050      0.20840     10.81258        -0.000040      0.000261      0.001757
      7.49930      0.20970     10.80624        -0.000029      0.000055      0.000083
     -0.19188      7.89821     10.80624        -0.000091     -0.000643     -0.000642
      7.49791      7.89951     10.79990         0.000137     -0.000539     -0.000416
      5.57118      2.12642      4.37799         0.000143      0.003016     -0.000150
     13.26098      2.12772      4.37165         0.000219      0.000178     -0.000051
      5.56979      9.81623      4.37165         0.000186     -0.000802     -0.000159
     13.25959      9.81753      4.36531         0.000191     -0.000596     -0.000193
      3.65438      0.20895     10.80937         0.000183      0.000336      0.002086
     11.34418      0.21026     10.80303         0.000244      0.000051      0.000049
      3.65300      7.89876     10.80303         0.000313     -0.000632     -0.000543
     11.34280      7.90007     10.79669         0.000003     -0.000453     -0.000247
      1.72559      5.97067      4.37799         0.000894     -0.000837     -0.000316
      9.41538      5.97198      4.37165        -0.000531     -0.000820     -0.000295
      1.72420     13.66048      4.37165        -0.000571     -0.000788      0.000065
      9.41400     13.66179      4.36531         0.000915     -0.000842      0.000041
     -0.19121      4.05320     10.80937         0.000261     -0.000526      0.000143
      7.49859      4.05451     10.80303         0.000012     -0.000334     -0.000242
     -0.19260     11.74301     10.80303         0.000198      0.000202     -0.002043
      7.49720     11.74432     10.79669         0.000276     -0.000055     -0.000135
      5.57050      5.97142      4.37487        -0.000020     -0.001018     -0.001611
     13.26030      5.97273      4.36853         0.000050     -0.000216     -0.000353
      5.56912     13.66123      4.36853         0.000004     -0.001025      0.001085
     13.25891     13.66254      4.36219         0.000044     -0.000249     -0.000191
      3.65371      4.05395     10.80624        -0.000080     -0.000540     -0.000122
     11.34351      4.05526     10.79990         0.000144     -0.000417     -0.000278
      3.65232     11.74376     10.79990        -0.000041      0.000150     -0.002136
     11.34212     11.74507     10.79356        -0.000042     -0.000049     -0.000347
 -----------------------------------------------------------------------------------
    total drift:                                0.022589     -0.022590      0.000030


--------------------------------------------------------------------------------------------------------



  FREE ENERGIE OF THE ION-ELECTRON SYSTEM (eV)
  ---------------------------------------------------
  free  energy   TOTEN  =     -1169.82294822 eV

  energy  without entropy=    -1169.82294822  energy(sigma->0) =    -1169.82294822
 


--------------------------------------------------------------------------------------------------------


    POTLOK:  cpu time    5.2326: real time    5.2796


--------------------------------------------------------------------------------------------------------


     LOOP+:  cpu time33344.7672: real time33847.9670
    4ORBIT:  cpu time    0.0000: real time    0.0000

 total amount of memory used by VASP MPI-rank0  4914914. kBytes
=======================================================================

   base      :      30000. kBytes
   nonl-proj :     156729. kBytes
   fftplans  :     108090. kBytes
   grid      :      92454. kBytes
   one-center:       1181. kBytes
   wavefun   :    4526460. kBytes
 
  
  
 General timing and accounting informations for this job:
 ========================================================
  
                  Total CPU time used (sec):    33728.195
                            User time (sec):    33335.602
                          System time (sec):      392.592
                         Elapsed time (sec):    34236.579
  
                   Maximum memory used (kb):     5394464.
                   Average memory used (kb):           0.
  
                          Minor page faults:     97176569
                          Major page faults:         6887
                 Voluntary context switches:       359536
