 126 126   0   0
  0.1357194E+02  0.1157659E-08  0.1157660E-08  0.1387803E-08  0.5000000E-15
  1.000000000000000E-004
  CAR 
 unknown system                          
     17.62214654    -54.41617151  301      5.40564844      1.00000000
    -54.416  0.0000E+00  0.0000E+00  0.0000E+00  0.0000E+00
    -54.176  0.0000E+00  0.0000E+00  0.0000E+00  0.0000E+00
    -53.936  0.0000E+00  0.0000E+00  0.0000E+00  0.0000E+00
    -53.696  0.0000E+00  0.0000E+00  0.0000E+00  0.0000E+00
    -53.456  0.0000E+00  0.0000E+00  0.0000E+00  0.0000E+00
    -53.216  0.0000E+00  0.0000E+00  0.0000E+00  0.0000E+00
    -52.975  0.0000E+00  0.0000E+00  0.0000E+00  0.0000E+00
    -52.735  0.0000E+00  0.0000E+00  0.0000E+00  0.0000E+00
    -52.495  0.0000E+00  0.0000E+00  0.0000E+00  0.0000E+00
    -52.255  0.0000E+00  0.0000E+00  0.0000E+00  0.0000E+00
    -52.015  0.0000E+00  0.0000E+00  0.0000E+00  0.0000E+00
    -51.775  0.0000E+00  0.0000E+00  0.0000E+00  0.0000E+00
    -51.535  0.0000E+00  0.0000E+00  0.0000E+00  0.0000E+00
    -51.295  0.8585E-03  0.0000E+00  0.2062E-03  0.0000E+00
    -51.054  0.1487E+03  0.0000E+00  0.3571E+02  0.0000E+00
    -50.814  0.1227E+01  0.0000E+00  0.3600E+02  0.0000E+00
    -50.574  0.0000E+00  0.0000E+00  0.3600E+02  0.0000E+00
    -50.334  0.0000E+00  0.0000E+00  0.3600E+02  0.0000E+00
    -50.094  0.0000E+00  0.0000E+00  0.3600E+02  0.0000E+00
    -49.854  0.2138E-05  0.0000E+00  0.3600E+02  0.0000E+00
    -49.614  0.2602E+03  0.0000E+00  0.9847E+02  0.0000E+00
    -49.373  0.3967E+02  0.0000E+00  0.1080E+03  0.0000E+00
    -49.133  0.0000E+00  0.0000E+00  0.1080E+03  0.0000E+00
    -48.893  0.0000E+00  0.0000E+00  0.1080E+03  0.0000E+00
    -48.653  0.0000E+00  0.0000E+00  0.1080E+03  0.0000E+00
    -48.413  0.0000E+00  0.0000E+00  0.1080E+03  0.0000E+00
    -48.173  0.0000E+00  0.0000E+00  0.1080E+03  0.0000E+00
    -47.933  0.0000E+00  0.0000E+00  0.1080E+03  0.0000E+00
    -47.693  0.0000E+00  0.0000E+00  0.1080E+03  0.0000E+00
    -47.452  0.0000E+00  0.0000E+00  0.1080E+03  0.0000E+00
    -47.212  0.0000E+00  0.0000E+00  0.1080E+03  0.0000E+00
    -46.972  0.0000E+00  0.0000E+00  0.1080E+03  0.0000E+00
    -46.732  0.0000E+00  0.0000E+00  0.1080E+03  0.0000E+00
    -46.492  0.0000E+00  0.3717E+00  0.1080E+03  0.8926E-01
    -46.252  0.0000E+00  0.1495E+03  0.1080E+03  0.3600E+02
    -46.012  0.0000E+00  0.4963E+01  0.1080E+03  0.3719E+02
    -45.772  0.0000E+00  0.2949E+03  0.1080E+03  0.1080E+03
    -45.531  0.0000E+00  0.0000E+00  0.1080E+03  0.1080E+03
    -45.291  0.0000E+00  0.0000E+00  0.1080E+03  0.1080E+03
    -45.051  0.0000E+00  0.0000E+00  0.1080E+03  0.1080E+03
    -44.811  0.0000E+00  0.0000E+00  0.1080E+03  0.1080E+03
    -44.571  0.0000E+00  0.0000E+00  0.1080E+03  0.1080E+03
    -44.331  0.0000E+00  0.0000E+00  0.1080E+03  0.1080E+03
    -44.091  0.0000E+00  0.0000E+00  0.1080E+03  0.1080E+03
    -43.851  0.0000E+00  0.0000E+00  0.1080E+03  0.1080E+03
    -43.610  0.0000E+00  0.0000E+00  0.1080E+03  0.1080E+03
    -43.370  0.0000E+00  0.0000E+00  0.1080E+03  0.1080E+03
    -43.130  0.0000E+00  0.0000E+00  0.1080E+03  0.1080E+03
    -42.890  0.0000E+00  0.0000E+00  0.1080E+03  0.1080E+03
    -42.650  0.0000E+00  0.0000E+00  0.1080E+03  0.1080E+03
    -42.410  0.0000E+00  0.0000E+00  0.1080E+03  0.1080E+03
    -42.170  0.0000E+00  0.0000E+00  0.1080E+03  0.1080E+03
    -41.930  0.0000E+00  0.0000E+00  0.1080E+03  0.1080E+03
    -41.689  0.0000E+00  0.0000E+00  0.1080E+03  0.1080E+03
    -41.449  0.0000E+00  0.0000E+00  0.1080E+03  0.1080E+03
    -41.209  0.0000E+00  0.0000E+00  0.1080E+03  0.1080E+03
    -40.969  0.0000E+00  0.0000E+00  0.1080E+03  0.1080E+03
    -40.729  0.0000E+00  0.0000E+00  0.1080E+03  0.1080E+03
    -40.489  0.0000E+00  0.0000E+00  0.1080E+03  0.1080E+03
    -40.249  0.0000E+00  0.0000E+00  0.1080E+03  0.1080E+03
    -40.009  0.0000E+00  0.0000E+00  0.1080E+03  0.1080E+03
    -39.768  0.2091E-02  0.1932E-02  0.1080E+03  0.1080E+03
    -39.528  0.1479E+03  0.1478E+03  0.1435E+03  0.1435E+03
    -39.288  0.2042E+01  0.2117E+01  0.1440E+03  0.1440E+03
    -39.048  0.0000E+00  0.0000E+00  0.1440E+03  0.1440E+03
    -38.808  0.0000E+00  0.0000E+00  0.1440E+03  0.1440E+03
    -38.568  0.0000E+00  0.0000E+00  0.1440E+03  0.1440E+03
    -38.328  0.0000E+00  0.0000E+00  0.1440E+03  0.1440E+03
    -38.087  0.0000E+00  0.0000E+00  0.1440E+03  0.1440E+03
    -37.847  0.0000E+00  0.0000E+00  0.1440E+03  0.1440E+03
    -37.607  0.0000E+00  0.0000E+00  0.1440E+03  0.1440E+03
    -37.367  0.0000E+00  0.0000E+00  0.1440E+03  0.1440E+03
    -37.127  0.0000E+00  0.0000E+00  0.1440E+03  0.1440E+03
    -36.887  0.0000E+00  0.0000E+00  0.1440E+03  0.1440E+03
    -36.647  0.0000E+00  0.0000E+00  0.1440E+03  0.1440E+03
    -36.407  0.0000E+00  0.0000E+00  0.1440E+03  0.1440E+03
    -36.166  0.0000E+00  0.0000E+00  0.1440E+03  0.1440E+03
    -35.926  0.0000E+00  0.0000E+00  0.1440E+03  0.1440E+03
    -35.686  0.0000E+00  0.0000E+00  0.1440E+03  0.1440E+03
    -35.446  0.0000E+00  0.0000E+00  0.1440E+03  0.1440E+03
    -35.206  0.0000E+00  0.0000E+00  0.1440E+03  0.1440E+03
    -34.966  0.0000E+00  0.0000E+00  0.1440E+03  0.1440E+03
    -34.726  0.0000E+00  0.0000E+00  0.1440E+03  0.1440E+03
    -34.486  0.0000E+00  0.0000E+00  0.1440E+03  0.1440E+03
    -34.245  0.0000E+00  0.0000E+00  0.1440E+03  0.1440E+03
    -34.005  0.0000E+00  0.0000E+00  0.1440E+03  0.1440E+03
    -33.765  0.0000E+00  0.0000E+00  0.1440E+03  0.1440E+03
    -33.525  0.0000E+00  0.0000E+00  0.1440E+03  0.1440E+03
    -33.285  0.0000E+00  0.0000E+00  0.1440E+03  0.1440E+03
    -33.045  0.0000E+00  0.0000E+00  0.1440E+03  0.1440E+03
    -32.805  0.0000E+00  0.0000E+00  0.1440E+03  0.1440E+03
    -32.565  0.0000E+00  0.0000E+00  0.1440E+03  0.1440E+03
    -32.324  0.0000E+00  0.0000E+00  0.1440E+03  0.1440E+03
    -32.084  0.0000E+00  0.0000E+00  0.1440E+03  0.1440E+03
    -31.844  0.0000E+00  0.0000E+00  0.1440E+03  0.1440E+03
    -31.604  0.0000E+00  0.0000E+00  0.1440E+03  0.1440E+03
    -31.364  0.0000E+00  0.0000E+00  0.1440E+03  0.1440E+03
    -31.124  0.0000E+00  0.0000E+00  0.1440E+03  0.1440E+03
    -30.884  0.0000E+00  0.0000E+00  0.1440E+03  0.1440E+03
    -30.644  0.0000E+00  0.0000E+00  0.1440E+03  0.1440E+03
    -30.403  0.0000E+00  0.0000E+00  0.1440E+03  0.1440E+03
    -30.163  0.0000E+00  0.0000E+00  0.1440E+03  0.1440E+03
    -29.923  0.0000E+00  0.0000E+00  0.1440E+03  0.1440E+03
    -29.683  0.0000E+00  0.0000E+00  0.1440E+03  0.1440E+03
    -29.443  0.0000E+00  0.0000E+00  0.1440E+03  0.1440E+03
    -29.203  0.0000E+00  0.0000E+00  0.1440E+03  0.1440E+03
    -28.963  0.0000E+00  0.0000E+00  0.1440E+03  0.1440E+03
    -28.723  0.0000E+00  0.0000E+00  0.1440E+03  0.1440E+03
    -28.482  0.0000E+00  0.0000E+00  0.1440E+03  0.1440E+03
    -28.242  0.0000E+00  0.0000E+00  0.1440E+03  0.1440E+03
    -28.002  0.0000E+00  0.0000E+00  0.1440E+03  0.1440E+03
    -27.762  0.0000E+00  0.0000E+00  0.1440E+03  0.1440E+03
    -27.522  0.0000E+00  0.0000E+00  0.1440E+03  0.1440E+03
    -27.282  0.0000E+00  0.0000E+00  0.1440E+03  0.1440E+03
    -27.042  0.0000E+00  0.0000E+00  0.1440E+03  0.1440E+03
    -26.801  0.0000E+00  0.0000E+00  0.1440E+03  0.1440E+03
    -26.561  0.0000E+00  0.0000E+00  0.1440E+03  0.1440E+03
    -26.321  0.0000E+00  0.0000E+00  0.1440E+03  0.1440E+03
    -26.081  0.0000E+00  0.0000E+00  0.1440E+03  0.1440E+03
    -25.841  0.0000E+00  0.0000E+00  0.1440E+03  0.1440E+03
    -25.601  0.0000E+00  0.0000E+00  0.1440E+03  0.1440E+03
    -25.361  0.0000E+00  0.0000E+00  0.1440E+03  0.1440E+03
    -25.121  0.0000E+00  0.0000E+00  0.1440E+03  0.1440E+03
    -24.880  0.0000E+00  0.0000E+00  0.1440E+03  0.1440E+03
    -24.640  0.0000E+00  0.0000E+00  0.1440E+03  0.1440E+03
    -24.400  0.0000E+00  0.0000E+00  0.1440E+03  0.1440E+03
    -24.160  0.0000E+00  0.0000E+00  0.1440E+03  0.1440E+03
    -23.920  0.0000E+00  0.0000E+00  0.1440E+03  0.1440E+03
    -23.680  0.0000E+00  0.0000E+00  0.1440E+03  0.1440E+03
    -23.440  0.0000E+00  0.0000E+00  0.1440E+03  0.1440E+03
    -23.200  0.0000E+00  0.0000E+00  0.1440E+03  0.1440E+03
    -22.959  0.0000E+00  0.0000E+00  0.1440E+03  0.1440E+03
    -22.719  0.0000E+00  0.0000E+00  0.1440E+03  0.1440E+03
    -22.479  0.0000E+00  0.0000E+00  0.1440E+03  0.1440E+03
    -22.239  0.0000E+00  0.0000E+00  0.1440E+03  0.1440E+03
    -21.999  0.0000E+00  0.0000E+00  0.1440E+03  0.1440E+03
    -21.759  0.0000E+00  0.0000E+00  0.1440E+03  0.1440E+03
    -21.519  0.0000E+00  0.0000E+00  0.1440E+03  0.1440E+03
    -21.279  0.0000E+00  0.0000E+00  0.1440E+03  0.1440E+03
    -21.038  0.0000E+00  0.0000E+00  0.1440E+03  0.1440E+03
    -20.798  0.0000E+00  0.0000E+00  0.1440E+03  0.1440E+03
    -20.558  0.0000E+00  0.0000E+00  0.1440E+03  0.1440E+03
    -20.318  0.0000E+00  0.0000E+00  0.1440E+03  0.1440E+03
    -20.078  0.0000E+00  0.0000E+00  0.1440E+03  0.1440E+03
    -19.838  0.0000E+00  0.0000E+00  0.1440E+03  0.1440E+03
    -19.598  0.0000E+00  0.0000E+00  0.1440E+03  0.1440E+03
    -19.358  0.0000E+00  0.0000E+00  0.1440E+03  0.1440E+03
    -19.117  0.0000E+00  0.0000E+00  0.1440E+03  0.1440E+03
    -18.877  0.0000E+00  0.0000E+00  0.1440E+03  0.1440E+03
    -18.637  0.0000E+00  0.0000E+00  0.1440E+03  0.1440E+03
    -18.397  0.0000E+00  0.0000E+00  0.1440E+03  0.1440E+03
    -18.157  0.0000E+00  0.0000E+00  0.1440E+03  0.1440E+03
    -17.917  0.0000E+00  0.0000E+00  0.1440E+03  0.1440E+03
    -17.677  0.0000E+00  0.0000E+00  0.1440E+03  0.1440E+03
    -17.437  0.0000E+00  0.0000E+00  0.1440E+03  0.1440E+03
    -17.196  0.0000E+00  0.0000E+00  0.1440E+03  0.1440E+03
    -16.956  0.0000E+00  0.0000E+00  0.1440E+03  0.1440E+03
    -16.716  0.0000E+00  0.0000E+00  0.1440E+03  0.1440E+03
    -16.476  0.0000E+00  0.0000E+00  0.1440E+03  0.1440E+03
    -16.236  0.0000E+00  0.0000E+00  0.1440E+03  0.1440E+03
    -15.996  0.0000E+00  0.0000E+00  0.1440E+03  0.1440E+03
    -15.756  0.0000E+00  0.0000E+00  0.1440E+03  0.1440E+03
    -15.515  0.0000E+00  0.0000E+00  0.1440E+03  0.1440E+03
    -15.275  0.0000E+00  0.0000E+00  0.1440E+03  0.1440E+03
    -15.035  0.0000E+00  0.0000E+00  0.1440E+03  0.1440E+03
    -14.795  0.0000E+00  0.0000E+00  0.1440E+03  0.1440E+03
    -14.555  0.0000E+00  0.0000E+00  0.1440E+03  0.1440E+03
    -14.315  0.0000E+00  0.0000E+00  0.1440E+03  0.1440E+03
    -14.075  0.0000E+00  0.0000E+00  0.1440E+03  0.1440E+03
    -13.835  0.0000E+00  0.0000E+00  0.1440E+03  0.1440E+03
    -13.594  0.0000E+00  0.0000E+00  0.1440E+03  0.1440E+03
    -13.354  0.0000E+00  0.0000E+00  0.1440E+03  0.1440E+03
    -13.114  0.0000E+00  0.0000E+00  0.1440E+03  0.1440E+03
    -12.874  0.2918E-01  0.0000E+00  0.1440E+03  0.1440E+03
    -12.634  0.7311E+02  0.5459E-03  0.1616E+03  0.1440E+03
    -12.394  0.1825E+01  0.6434E+02  0.1620E+03  0.1595E+03
    -12.154  0.0000E+00  0.1062E+02  0.1620E+03  0.1620E+03
    -11.914  0.0000E+00  0.0000E+00  0.1620E+03  0.1620E+03
    -11.673  0.0000E+00  0.0000E+00  0.1620E+03  0.1620E+03
    -11.433  0.0000E+00  0.0000E+00  0.1620E+03  0.1620E+03
    -11.193  0.0000E+00  0.0000E+00  0.1620E+03  0.1620E+03
    -10.953  0.0000E+00  0.0000E+00  0.1620E+03  0.1620E+03
    -10.713  0.0000E+00  0.0000E+00  0.1620E+03  0.1620E+03
    -10.473  0.0000E+00  0.0000E+00  0.1620E+03  0.1620E+03
    -10.233  0.0000E+00  0.0000E+00  0.1620E+03  0.1620E+03
     -9.993  0.0000E+00  0.0000E+00  0.1620E+03  0.1620E+03
     -9.752  0.0000E+00  0.0000E+00  0.1620E+03  0.1620E+03
     -9.512  0.0000E+00  0.0000E+00  0.1620E+03  0.1620E+03
     -9.272  0.0000E+00  0.0000E+00  0.1620E+03  0.1620E+03
     -9.032  0.0000E+00  0.0000E+00  0.1620E+03  0.1620E+03
     -8.792  0.0000E+00  0.0000E+00  0.1620E+03  0.1620E+03
     -8.552  0.0000E+00  0.0000E+00  0.1620E+03  0.1620E+03
     -8.312  0.0000E+00  0.0000E+00  0.1620E+03  0.1620E+03
     -8.072  0.0000E+00  0.0000E+00  0.1620E+03  0.1620E+03
     -7.831  0.7591E-02  0.1374E-14  0.1620E+03  0.1620E+03
     -7.591  0.7896E+01  0.8569E-01  0.1639E+03  0.1620E+03
     -7.351  0.1439E+02  0.9701E+01  0.1674E+03  0.1643E+03
     -7.111  0.2459E+02  0.1718E+02  0.1733E+03  0.1685E+03
     -6.871  0.7390E+02  0.2411E+02  0.1910E+03  0.1743E+03
     -6.631  0.2915E+02  0.7006E+02  0.1980E+03  0.1911E+03
     -6.391  0.1491E-03  0.2876E+02  0.1980E+03  0.1980E+03
     -6.150  0.0000E+00  0.1195E-01  0.1980E+03  0.1980E+03
     -5.910  0.0000E+00  0.0000E+00  0.1980E+03  0.1980E+03
     -5.670  0.0000E+00  0.0000E+00  0.1980E+03  0.1980E+03
     -5.430  0.0000E+00  0.0000E+00  0.1980E+03  0.1980E+03
     -5.190  0.0000E+00  0.0000E+00  0.1980E+03  0.1980E+03
     -4.950  0.0000E+00  0.0000E+00  0.1980E+03  0.1980E+03
     -4.710  0.0000E+00  0.0000E+00  0.1980E+03  0.1980E+03
     -4.470  0.0000E+00  0.0000E+00  0.1980E+03  0.1980E+03
     -4.229  0.0000E+00  0.0000E+00  0.1980E+03  0.1980E+03
     -3.989  0.0000E+00  0.0000E+00  0.1980E+03  0.1980E+03
     -3.749  0.0000E+00  0.0000E+00  0.1980E+03  0.1980E+03
     -3.509  0.0000E+00  0.0000E+00  0.1980E+03  0.1980E+03
     -3.269  0.0000E+00  0.0000E+00  0.1980E+03  0.1980E+03
     -3.029  0.0000E+00  0.0000E+00  0.1980E+03  0.1980E+03
     -2.789  0.0000E+00  0.0000E+00  0.1980E+03  0.1980E+03
     -2.549  0.0000E+00  0.0000E+00  0.1980E+03  0.1980E+03
     -2.308  0.0000E+00  0.0000E+00  0.1980E+03  0.1980E+03
     -2.068  0.0000E+00  0.0000E+00  0.1980E+03  0.1980E+03
     -1.828  0.3724E-15  0.0000E+00  0.1980E+03  0.1980E+03
     -1.588  0.1389E+00  0.0000E+00  0.1980E+03  0.1980E+03
     -1.348  0.4624E+02  0.0000E+00  0.2091E+03  0.1980E+03
     -1.108  0.2858E+02  0.0000E+00  0.2160E+03  0.1980E+03
     -0.868  0.3069E+01  0.0000E+00  0.2167E+03  0.1980E+03
     -0.628  0.4013E+02  0.4886E-10  0.2264E+03  0.1980E+03
     -0.387  0.1089E+03  0.1293E+01  0.2525E+03  0.1983E+03
     -0.147  0.1162E+03  0.1260E+02  0.2804E+03  0.2013E+03
      0.093  0.1052E+03  0.1998E+02  0.3057E+03  0.2061E+03
      0.333  0.8739E+02  0.2746E+02  0.3267E+03  0.2127E+03
      0.573  0.7705E+02  0.3076E+02  0.3452E+03  0.2201E+03
      0.813  0.3489E+02  0.3769E+02  0.3536E+03  0.2292E+03
      1.053  0.3020E+02  0.3582E+02  0.3608E+03  0.2378E+03
      1.293  0.5001E+02  0.4696E+02  0.3728E+03  0.2490E+03
      1.534  0.3202E+02  0.3086E+02  0.3805E+03  0.2565E+03
      1.774  0.5654E+02  0.6151E+02  0.3941E+03  0.2712E+03
      2.014  0.1237E+03  0.4730E+02  0.4238E+03  0.2826E+03
      2.254  0.7858E+02  0.1853E+02  0.4427E+03  0.2870E+03
      2.494  0.5331E+02  0.3021E+02  0.4555E+03  0.2943E+03
      2.734  0.3976E+02  0.5975E+02  0.4650E+03  0.3086E+03
      2.974  0.2539E+02  0.4984E+02  0.4711E+03  0.3206E+03
      3.214  0.1589E+02  0.5627E+02  0.4749E+03  0.3341E+03
      3.455  0.2745E+02  0.7523E+02  0.4815E+03  0.3522E+03
      3.695  0.4044E+02  0.2671E+02  0.4912E+03  0.3586E+03
      3.935  0.4250E+02  0.1944E+02  0.5014E+03  0.3633E+03
      4.175  0.4502E+02  0.9331E+02  0.5122E+03  0.3857E+03
      4.415  0.4525E+02  0.4134E+02  0.5231E+03  0.3956E+03
      4.655  0.2500E+02  0.1721E+01  0.5291E+03  0.3960E+03
      4.895  0.2764E+02  0.1452E-05  0.5357E+03  0.3960E+03
      5.136  0.1767E+02  0.0000E+00  0.5400E+03  0.3960E+03
      5.376  0.3985E-01  0.0000E+00  0.5400E+03  0.3960E+03
      5.616  0.0000E+00  0.0000E+00  0.5400E+03  0.3960E+03
      5.856  0.0000E+00  0.0000E+00  0.5400E+03  0.3960E+03
      6.096  0.0000E+00  0.2836E-13  0.5400E+03  0.3960E+03
      6.336  0.0000E+00  0.1665E+00  0.5400E+03  0.3960E+03
      6.576  0.0000E+00  0.4411E+01  0.5400E+03  0.3971E+03
      6.816  0.0000E+00  0.1373E+02  0.5400E+03  0.4004E+03
      7.057  0.0000E+00  0.2983E+02  0.5400E+03  0.4076E+03
      7.297  0.5775E-05  0.5655E+02  0.5400E+03  0.4211E+03
      7.537  0.5218E+00  0.7984E+02  0.5401E+03  0.4403E+03
      7.777  0.2311E+01  0.6754E+02  0.5407E+03  0.4565E+03
      8.017  0.1646E+01  0.8295E+02  0.5411E+03  0.4764E+03
      8.257  0.7095E+01  0.9924E+02  0.5428E+03  0.5003E+03
      8.497  0.7700E+01  0.3899E+02  0.5446E+03  0.5096E+03
      8.737  0.4746E+01  0.4421E+02  0.5458E+03  0.5203E+03
      8.978  0.1126E+02  0.4044E+02  0.5485E+03  0.5300E+03
      9.218  0.2026E+02  0.3944E+02  0.5533E+03  0.5394E+03
      9.458  0.2073E+02  0.1499E+02  0.5583E+03  0.5430E+03
      9.698  0.3070E+02  0.1575E+02  0.5657E+03  0.5468E+03
      9.938  0.2764E+02  0.1310E+02  0.5723E+03  0.5500E+03
     10.178  0.1737E+02  0.2546E+02  0.5765E+03  0.5561E+03
     10.418  0.1458E+02  0.2240E+02  0.5800E+03  0.5615E+03
     10.658  0.1888E+02  0.2754E+02  0.5845E+03  0.5681E+03
     10.899  0.2368E+02  0.2495E+02  0.5902E+03  0.5741E+03
     11.139  0.2871E+02  0.2504E+02  0.5971E+03  0.5801E+03
     11.379  0.2924E+02  0.2027E+02  0.6041E+03  0.5849E+03
     11.619  0.3031E+02  0.2440E+02  0.6114E+03  0.5908E+03
     11.859  0.2996E+02  0.2676E+02  0.6186E+03  0.5972E+03
     12.099  0.4163E+02  0.2662E+02  0.6286E+03  0.6036E+03
     12.339  0.5028E+02  0.3629E+02  0.6407E+03  0.6123E+03
     12.579  0.2552E+02  0.3809E+02  0.6468E+03  0.6215E+03
     12.820  0.2739E+02  0.4660E+02  0.6534E+03  0.6327E+03
     13.060  0.3305E+02  0.3552E+02  0.6613E+03  0.6412E+03
     13.300  0.3679E+02  0.2996E+02  0.6701E+03  0.6484E+03
     13.540  0.2447E+02  0.4840E+02  0.6760E+03  0.6600E+03
     13.780  0.1260E+02  0.3873E+02  0.6790E+03  0.6693E+03
     14.020  0.3972E+01  0.2092E+02  0.6800E+03  0.6743E+03
     14.260  0.2416E-02  0.1813E+02  0.6800E+03  0.6787E+03
     14.500  0.0000E+00  0.5450E+01  0.6800E+03  0.6800E+03
     14.741  0.0000E+00  0.6691E-05  0.6800E+03  0.6800E+03
     14.981  0.0000E+00  0.0000E+00  0.6800E+03  0.6800E+03
     15.221  0.0000E+00  0.0000E+00  0.6800E+03  0.6800E+03
     15.461  0.0000E+00  0.0000E+00  0.6800E+03  0.6800E+03
     15.701  0.0000E+00  0.0000E+00  0.6800E+03  0.6800E+03
     15.941  0.0000E+00  0.0000E+00  0.6800E+03  0.6800E+03
     16.181  0.0000E+00  0.0000E+00  0.6800E+03  0.6800E+03
     16.422  0.0000E+00  0.0000E+00  0.6800E+03  0.6800E+03
     16.662  0.0000E+00  0.0000E+00  0.6800E+03  0.6800E+03
     16.902  0.0000E+00  0.0000E+00  0.6800E+03  0.6800E+03
     17.142  0.0000E+00  0.0000E+00  0.6800E+03  0.6800E+03
     17.382  0.0000E+00  0.0000E+00  0.6800E+03  0.6800E+03
     17.622  0.0000E+00  0.0000E+00  0.6800E+03  0.6800E+03
