    7    7   60    2
  0.1359189E+02  0.5455180E-09  0.3858067E-09  0.6943822E-09  0.5000000E-15
  1.000000000000000E-004
  CAR 
 unknown system                          
     52     90     40
 
  0.0000000E+00  0.0000000E+00  0.0000000E+00  0.5208333E-02
    1      -55.855987    -49.202905   1.000000   1.000000
    2      -55.853239    -49.197617   1.000000   1.000000
    3      -54.307334    -49.166590   1.000000   1.000000
    4      -54.307224    -49.165927   1.000000   1.000000
    5      -54.304697    -49.162642   1.000000   1.000000
    6      -54.304574    -49.161999   1.000000   1.000000
    7      -43.068808    -43.069980   1.000000   1.000000
    8      -43.010432    -43.012247   1.000000   1.000000
    9      -15.309358    -14.904487   1.000000   1.000000
   10       -9.535567     -9.238077   1.000000   1.000000
   11       -8.691100     -8.345257   1.000000   1.000000
   12       -2.515854     -0.925949   1.000000   1.000000
   13       -1.222390      0.126859   1.000000   1.000000
   14       -1.222338      0.127807   1.000000   1.000000
   15       -1.001633      0.195348   1.000000   1.000000
   16       -0.428696      2.526828   1.000000   1.000000
   17       -0.427720      2.549287   1.000000   1.000000
   18        0.108855      2.917733   1.000000   1.000000
   19        0.278704      3.394633   1.000000   1.000000
   20        0.825558      3.555945   1.000000   1.000000
   21        0.834675      3.896864   1.000000   1.000000
   22        1.142995      3.912270   1.000000   1.000000
   23        1.254972      7.069396   1.000000   0.000000
   24        1.255020      7.666153   1.000000   0.000000
   25        2.011130      7.670851   1.000000   0.000000
   26        2.339357      8.118094   1.000000   0.000000
   27        2.339684      8.163444   1.000000   0.000000
   28        3.336294      8.683089   1.000000   0.000000
   29        3.582574      9.073341   1.000000   0.000000
   30        3.583146      9.076409   1.000000   0.000000
   31        8.784830      9.905814   0.000000   0.000000
   32        9.937685     11.713660   0.000000   0.000000
   33       11.551456     12.183028   0.000000   0.000000
   34       13.075649     13.592543   0.000000   0.000000
   35       13.153967     13.891434   0.000000   0.000000
   36       14.960166     15.134382   0.000000   0.000000
   37       14.967399     15.140848   0.000000   0.000000
   38       15.354322     16.368310   0.000000   0.000000
   39       15.419408     16.470491   0.000000   0.000000
   40       15.885478     16.677813   0.000000   0.000000
 
  0.1666667E+00 -0.3367459E-16  0.8319329E-15  0.1041667E-01
    1      -55.855797    -49.202551   1.000000   1.000000
    2      -55.853392    -49.197975   1.000000   1.000000
    3      -54.307527    -49.166291   1.000000   1.000000
    4      -54.307146    -49.165507   1.000000   1.000000
    5      -54.305036    -49.162903   1.000000   1.000000
    6      -54.304648    -49.162100   1.000000   1.000000
    7      -43.064739    -43.065959   1.000000   1.000000
    8      -43.014145    -43.015922   1.000000   1.000000
    9      -15.321757    -14.916681   1.000000   1.000000
   10       -9.412632     -9.118588   1.000000   1.000000
   11       -8.624126     -8.284446   1.000000   1.000000
   12       -2.482743     -1.009060   1.000000   1.000000
   13       -1.512272     -0.415436   1.000000   1.000000
   14       -1.202142      0.209848   1.000000   1.000000
   15       -0.824582      0.977617   1.000000   1.000000
   16       -0.534750      1.642665   1.000000   1.000000
   17       -0.453686      2.539818   1.000000   1.000000
   18       -0.038927      2.587588   1.000000   1.000000
   19        0.063117      3.227488   1.000000   1.000000
   20        0.380332      3.549482   1.000000   1.000000
   21        0.809745      3.578802   1.000000   1.000000
   22        1.152946      3.847471   1.000000   1.000000
   23        1.240847      7.730778   1.000000   0.000000
   24        1.258904      7.744816   1.000000   0.000000
   25        1.401464      7.786438   1.000000   0.000000
   26        2.609329      8.632757   1.000000   0.000000
   27        2.887427      8.676588   1.000000   0.000000
   28        3.400278      8.971947   1.000000   0.000000
   29        3.796570      9.009121   1.000000   0.000000
   30        3.840179      9.059290   1.000000   0.000000
   31        9.609645     10.471719   0.000000   0.000000
   32       10.050581     11.447300   0.000000   0.000000
   33       12.001325     12.564244   0.000000   0.000000
   34       12.922355     13.526211   0.000000   0.000000
   35       13.216393     13.675896   0.000000   0.000000
   36       13.568374     14.323233   0.000000   0.000000
   37       14.180124     14.598729   0.000000   0.000000
   38       14.742964     15.246195   0.000000   0.000000
   39       14.880781     15.807753   0.000000   0.000000
   40       15.451530     16.499551   0.000000   0.000000
 
  0.3333333E+00 -0.5634141E-16 -0.1896618E-14  0.1041667E-01
    1      -55.855322    -49.201600   1.000000   1.000000
    2      -55.853814    -49.198937   1.000000   1.000000
    3      -54.307927    -49.165776   1.000000   1.000000
    4      -54.306953    -49.164302   1.000000   1.000000
    5      -54.305764    -49.163799   1.000000   1.000000
    6      -54.304781    -49.162273   1.000000   1.000000
    7      -43.053654    -43.055004   1.000000   1.000000
    8      -43.024397    -43.026068   1.000000   1.000000
    9      -15.346724    -14.941287   1.000000   1.000000
   10       -9.088967     -8.799713   1.000000   1.000000
   11       -8.545576     -8.226834   1.000000   1.000000
   12       -2.459609     -1.320317   1.000000   1.000000
   13       -1.660015     -0.571779   1.000000   1.000000
   14       -1.147525      0.403841   1.000000   1.000000
   15       -1.111495      0.761539   1.000000   1.000000
   16       -0.907462      1.229920   1.000000   1.000000
   17       -0.610058      1.859310   1.000000   1.000000
   18       -0.431078      2.543441   1.000000   1.000000
   19       -0.329246      2.799084   1.000000   1.000000
   20       -0.077374      2.975518   1.000000   1.000000
   21        0.696254      3.957151   1.000000   1.000000
   22        1.208447      4.062144   1.000000   1.000000
   23        1.267761      7.956102   1.000000   0.000000
   24        1.420054      8.000173   1.000000   0.000000
   25        1.669602      8.560448   1.000000   0.000000
   26        1.977130      8.752603   1.000000   0.000000
   27        3.658758      8.840606   1.000000   0.000000
   28        3.870614      9.436933   1.000000   0.000000
   29        4.348288      9.729016   1.000000   0.000000
   30        4.410423      9.819864   1.000000   0.000000
   31        9.794616     10.563953   0.000000   0.000000
   32       10.482360     11.120405   0.000000   0.000000
   33       11.768089     12.523305   0.000000   0.000000
   34       12.578467     13.103915   0.000000   0.000000
   35       12.598298     13.323670   0.000000   0.000000
   36       12.984283     13.699670   0.000000   0.000000
   37       13.266781     14.271432   0.000000   0.000000
   38       14.023467     14.562659   0.000000   0.000000
   39       14.474014     14.959101   0.000000   0.000000
   40       15.731630     16.277027   0.000000   0.000000
 
  0.5000000E+00 -0.2504406E-16 -0.1045324E-14  0.1041667E-01
    1      -55.854899    -49.200557   1.000000   1.000000
    2      -55.854192    -49.199976   1.000000   1.000000
    3      -54.308123    -49.165292   1.000000   1.000000
    4      -54.306852    -49.164625   1.000000   1.000000
    5      -54.306132    -49.163215   1.000000   1.000000
    6      -54.304859    -49.162734   1.000000   1.000000
    7      -43.039723    -43.041231   1.000000   1.000000
    8      -43.037932    -43.039457   1.000000   1.000000
    9      -15.359355    -14.953767   1.000000   1.000000
   10       -8.802571     -8.507561   1.000000   1.000000
   11       -8.619480     -8.323650   1.000000   1.000000
   12       -2.494333     -1.535667   1.000000   1.000000
   13       -1.617098     -0.250868   1.000000   1.000000
   14       -1.460208     -0.051944   1.000000   1.000000
   15       -1.103972      0.524620   1.000000   1.000000
   16       -0.988173      0.952834   1.000000   1.000000
   17       -0.782954      2.172616   1.000000   1.000000
   18       -0.718715      2.517812   1.000000   1.000000
   19       -0.470100      2.602466   1.000000   1.000000
   20       -0.084912      2.718577   1.000000   1.000000
   21        0.644376      4.155493   1.000000   1.000000
   22        1.209102      4.171676   1.000000   1.000000
   23        1.285277      8.114263   1.000000   0.000000
   24        1.505831      8.152114   1.000000   0.000000
   25        1.733180      8.575765   1.000000   0.000000
   26        1.934825      8.736173   1.000000   0.000000
   27        3.827476      9.082946   1.000000   0.000000
   28        4.376585      9.707415   1.000000   0.000000
   29        4.612517      9.905710   1.000000   0.000000
   30        4.635696     10.415415   1.000000   0.000000
   31        9.516059     10.549758   0.000000   0.000000
   32       10.366458     10.831225   0.000000   0.000000
   33       11.492823     12.286729   0.000000   0.000000
   34       11.774137     12.360827   0.000000   0.000000
   35       12.358353     12.866539   0.000000   0.000000
   36       12.613545     13.308986   0.000000   0.000000
   37       13.380565     14.413751   0.000000   0.000000
   38       14.143357     14.551134   0.000000   0.000000
   39       14.466470     14.849832   0.000000   0.000000
   40       16.236009     16.981284   0.000000   0.000000
 
  0.1526163E-24  0.1250000E+00 -0.6007375E-15  0.1041667E-01
    1      -55.855804    -49.202511   1.000000   1.000000
    2      -55.853383    -49.197992   1.000000   1.000000
    3      -54.307484    -49.166732   1.000000   1.000000
    4      -54.307217    -49.165008   1.000000   1.000000
    5      -54.305098    -49.162752   1.000000   1.000000
    6      -54.304632    -49.162398   1.000000   1.000000
    7      -43.064311    -43.065537   1.000000   1.000000
    8      -43.014443    -43.016218   1.000000   1.000000
    9      -15.324982    -14.919918   1.000000   1.000000
   10       -9.397169     -9.102821   1.000000   1.000000
   11       -8.607245     -8.267532   1.000000   1.000000
   12       -2.495844     -1.016513   1.000000   1.000000
   13       -1.516063     -0.384012   1.000000   1.000000
   14       -1.241013      0.110080   1.000000   1.000000
   15       -0.834366      1.052591   1.000000   1.000000
   16       -0.551809      1.717715   1.000000   1.000000
   17       -0.474083      2.189812   1.000000   1.000000
   18       -0.053905      2.708745   1.000000   1.000000
   19        0.007374      3.071369   1.000000   1.000000
   20        0.675425      3.417041   1.000000   1.000000
   21        0.883906      3.602100   1.000000   1.000000
   22        1.101002      4.242244   1.000000   1.000000
   23        1.213415      7.507294   1.000000   0.000000
   24        1.318353      7.557526   1.000000   0.000000
   25        1.374574      7.944463   1.000000   0.000000
   26        2.263923      8.505535   1.000000   0.000000
   27        2.890818      8.708826   1.000000   0.000000
   28        3.463212      8.941479   1.000000   0.000000
   29        3.501042      9.078833   1.000000   0.000000
   30        4.096813      9.294283   1.000000   0.000000
   31        9.693265     10.540915   0.000000   0.000000
   32       10.439287     11.867331   0.000000   0.000000
   33       12.011398     12.508790   0.000000   0.000000
   34       12.721922     13.323818   0.000000   0.000000
   35       13.374546     13.738817   0.000000   0.000000
   36       13.440220     14.203953   0.000000   0.000000
   37       13.574022     14.321777   0.000000   0.000000
   38       14.376457     15.310114   0.000000   0.000000
   39       15.141703     15.448688   0.000000   0.000000
   40       15.273186     16.206439   0.000000   0.000000
 
  0.1666667E+00  0.1250000E+00  0.2378877E-15  0.1041667E-01
    1      -55.855856    -49.202680   1.000000   1.000000
    2      -55.853343    -49.197844   1.000000   1.000000
    3      -54.307420    -49.166217   1.000000   1.000000
    4      -54.307210    -49.165863   1.000000   1.000000
    5      -54.304810    -49.162813   1.000000   1.000000
    6      -54.304726    -49.162045   1.000000   1.000000
    7      -43.066253    -43.067455   1.000000   1.000000
    8      -43.012757    -43.014548   1.000000   1.000000
    9      -15.317270    -14.912260   1.000000   1.000000
   10       -9.458554     -9.163193   1.000000   1.000000
   11       -8.648553     -8.305969   1.000000   1.000000
   12       -2.485688     -0.960741   1.000000   1.000000
   13       -1.429053     -0.298546   1.000000   1.000000
   14       -1.215798      0.158889   1.000000   1.000000
   15       -0.840534      0.810485   1.000000   1.000000
   16       -0.485702      1.884501   1.000000   1.000000
   17       -0.439136      2.470347   1.000000   1.000000
   18        0.012189      2.902957   1.000000   1.000000
   19        0.112488      3.294834   1.000000   1.000000
   20        0.621570      3.436168   1.000000   1.000000
   21        0.828081      3.530327   1.000000   1.000000
   22        1.128768      3.981025   1.000000   1.000000
   23        1.238441      7.518602   1.000000   0.000000
   24        1.258111      7.666977   1.000000   0.000000
   25        1.406512      7.800063   1.000000   0.000000
   26        2.539373      8.466722   1.000000   0.000000
   27        2.747745      8.486531   1.000000   0.000000
   28        3.457165      8.908158   1.000000   0.000000
   29        3.678344      9.025697   1.000000   0.000000
   30        3.717221      9.057413   1.000000   0.000000
   31        9.380270     10.326775   0.000000   0.000000
   32       10.007342     11.498740   0.000000   0.000000
   33       11.830665     12.395899   0.000000   0.000000
   34       13.040834     13.583605   0.000000   0.000000
   35       13.240682     13.818504   0.000000   0.000000
   36       13.754350     14.417804   0.000000   0.000000
   37       14.381755     14.860677   0.000000   0.000000
   38       14.724994     15.313601   0.000000   0.000000
   39       15.257326     16.005586   0.000000   0.000000
   40       15.784089     16.927051   0.000000   0.000000
 
  0.3333333E+00  0.1250000E+00  0.4597577E-14  0.1041667E-01
    1      -55.855565    -49.202168   1.000000   1.000000
    2      -55.853581    -49.198321   1.000000   1.000000
    3      -54.307749    -49.166176   1.000000   1.000000
    4      -54.307047    -49.165159   1.000000   1.000000
    5      -54.305351    -49.163353   1.000000   1.000000
    6      -54.304736    -49.162093   1.000000   1.000000
    7      -43.060584    -43.061854   1.000000   1.000000
    8      -43.017813    -43.019553   1.000000   1.000000
    9      -15.335374    -14.930172   1.000000   1.000000
   10       -9.279660     -8.985520   1.000000   1.000000
   11       -8.581777     -8.245179   1.000000   1.000000
   12       -2.424038     -0.999091   1.000000   1.000000
   13       -1.486769     -0.350477   1.000000   1.000000
   14       -1.221626      0.133468   1.000000   1.000000
   15       -0.809040      1.259559   1.000000   1.000000
   16       -0.719085      1.445442   1.000000   1.000000
   17       -0.482443      1.869435   1.000000   1.000000
   18       -0.276352      2.225200   1.000000   1.000000
   19        0.005521      2.941218   1.000000   1.000000
   20        0.301083      3.106734   1.000000   1.000000
   21        0.874857      3.807723   1.000000   1.000000
   22        1.008138      4.237134   1.000000   1.000000
   23        1.255802      7.580861   1.000000   0.000000
   24        1.295630      7.848818   1.000000   0.000000
   25        1.440948      8.104102   1.000000   0.000000
   26        2.219533      8.623046   1.000000   0.000000
   27        2.586575      8.792422   1.000000   0.000000
   28        3.479963      9.013056   1.000000   0.000000
   29        3.904549      9.177513   1.000000   0.000000
   30        4.410117      9.734808   1.000000   0.000000
   31       10.270792     11.058094   0.000000   0.000000
   32       10.424250     11.437358   0.000000   0.000000
   33       12.015988     12.684701   0.000000   0.000000
   34       12.515223     13.046116   0.000000   0.000000
   35       12.960207     13.589579   0.000000   0.000000
   36       13.059709     13.740756   0.000000   0.000000
   37       13.529658     14.342202   0.000000   0.000000
   38       13.751662     14.542541   0.000000   0.000000
   39       15.010964     15.934153   0.000000   0.000000
   40       15.624151     16.029983   0.000000   0.000000
 
  0.5000000E+00  0.1250000E+00 -0.1730805E-14  0.2083333E-01
    1      -55.855055    -49.201157   1.000000   1.000000
    2      -55.854000    -49.199267   1.000000   1.000000
    3      -54.308143    -49.165875   1.000000   1.000000
    4      -54.306866    -49.164526   1.000000   1.000000
    5      -54.306046    -49.163986   1.000000   1.000000
    6      -54.304811    -49.162237   1.000000   1.000000
    7      -43.049112    -43.050516   1.000000   1.000000
    8      -43.028476    -43.030104   1.000000   1.000000
    9      -15.361473    -14.956082   1.000000   1.000000
   10       -8.932509     -8.635283   1.000000   1.000000
   11       -8.556922     -8.239469   1.000000   1.000000
   12       -2.408048     -1.267522   1.000000   1.000000
   13       -1.524924     -0.294060   1.000000   1.000000
   14       -1.254519      0.169366   1.000000   1.000000
   15       -1.094698      0.684325   1.000000   1.000000
   16       -0.871505      0.953179   1.000000   1.000000
   17       -0.690216      1.950271   1.000000   1.000000
   18       -0.610042      2.311073   1.000000   1.000000
   19       -0.320653      2.449563   1.000000   1.000000
   20       -0.021514      2.891979   1.000000   1.000000
   21        0.706724      4.070262   1.000000   1.000000
   22        1.139330      4.192648   1.000000   1.000000
   23        1.318023      7.746354   1.000000   0.000000
   24        1.461646      8.093092   1.000000   0.000000
   25        1.669818      8.518070   1.000000   0.000000
   26        1.786479      8.737398   1.000000   0.000000
   27        3.415758      8.810250   1.000000   0.000000
   28        3.786358      9.226088   1.000000   0.000000
   29        3.975058      9.680163   1.000000   0.000000
   30        4.556709     10.069403   1.000000   0.000000
   31       10.339708     10.977081   0.000000   0.000000
   32       10.920106     11.694061   0.000000   0.000000
   33       11.031140     11.878617   0.000000   0.000000
   34       11.656305     12.662794   0.000000   0.000000
   35       12.398693     13.194100   0.000000   0.000000
   36       12.690090     13.309670   0.000000   0.000000
   37       14.092189     14.738099   0.000000   0.000000
   38       14.394869     14.899641   0.000000   0.000000
   39       14.769509     15.257460   0.000000   0.000000
   40       15.805864     16.393543   0.000000   0.000000
 
 -0.3333333E+00  0.1250000E+00  0.1283212E-14  0.1041667E-01
    1      -55.854923    -49.200615   1.000000   1.000000
    2      -55.854116    -49.199783   1.000000   1.000000
    3      -54.308238    -49.165869   1.000000   1.000000
    4      -54.306835    -49.164823   1.000000   1.000000
    5      -54.306245    -49.163219   1.000000   1.000000
    6      -54.304821    -49.162698   1.000000   1.000000
    7      -43.042316    -43.043795   1.000000   1.000000
    8      -43.035060    -43.036621   1.000000   1.000000
    9      -15.369260    -14.963836   1.000000   1.000000
   10       -8.812388     -8.512911   1.000000   1.000000
   11       -8.556870     -8.247733   1.000000   1.000000
   12       -2.431997     -1.407713   1.000000   1.000000
   13       -1.627149     -0.452133   1.000000   1.000000
   14       -1.370343      0.147503   1.000000   1.000000
   15       -1.126775      0.710361   1.000000   1.000000
   16       -1.045675      0.868282   1.000000   1.000000
   17       -0.692074      2.082487   1.000000   1.000000
   18       -0.565766      2.188283   1.000000   1.000000
   19       -0.406179      2.526929   1.000000   1.000000
   20       -0.047006      2.824465   1.000000   1.000000
   21        0.629301      4.150179   1.000000   1.000000
   22        1.234913      4.172743   1.000000   1.000000
   23        1.355562      7.772038   1.000000   0.000000
   24        1.499478      8.084473   1.000000   0.000000
   25        1.718970      8.550647   1.000000   0.000000
   26        1.913570      8.759251   1.000000   0.000000
   27        3.568109      8.863629   1.000000   0.000000
   28        3.812970      9.472532   1.000000   0.000000
   29        4.031929      9.717972   1.000000   0.000000
   30        4.517301     10.019421   1.000000   0.000000
   31       10.344249     11.133551   0.000000   0.000000
   32       10.831504     11.552690   0.000000   0.000000
   33       10.938289     11.672150   0.000000   0.000000
   34       11.374597     12.362464   0.000000   0.000000
   35       12.157094     12.980196   0.000000   0.000000
   36       12.676480     13.369733   0.000000   0.000000
   37       14.095192     14.492359   0.000000   0.000000
   38       14.662171     15.230744   0.000000   0.000000
   39       14.776983     15.429921   0.000000   0.000000
   40       16.000180     16.685818   0.000000   0.000000
 
 -0.1666667E+00  0.1250000E+00  0.5662262E-14  0.1041667E-01
    1      -55.855418    -49.201715   1.000000   1.000000
    2      -55.853677    -49.198717   1.000000   1.000000
    3      -54.307924    -49.166570   1.000000   1.000000
    4      -54.307002    -49.163946   1.000000   1.000000
    5      -54.305766    -49.163541   1.000000   1.000000
    6      -54.304722    -49.162651   1.000000   1.000000
    7      -43.055400    -43.056730   1.000000   1.000000
    8      -43.022508    -43.024200   1.000000   1.000000
    9      -15.350862    -14.945572   1.000000   1.000000
   10       -9.132073     -8.839600   1.000000   1.000000
   11       -8.507380     -8.178601   1.000000   1.000000
   12       -2.450016     -1.202205   1.000000   1.000000
   13       -1.677330     -0.565997   1.000000   1.000000
   14       -1.213209      0.234550   1.000000   1.000000
   15       -0.947241      1.026397   1.000000   1.000000
   16       -0.941710      1.353017   1.000000   1.000000
   17       -0.567810      1.768115   1.000000   1.000000
   18       -0.288365      2.161020   1.000000   1.000000
   19       -0.089700      2.896263   1.000000   1.000000
   20        0.007381      3.047634   1.000000   1.000000
   21        0.758481      3.964465   1.000000   1.000000
   22        1.187100      4.217201   1.000000   1.000000
   23        1.318067      7.497408   1.000000   0.000000
   24        1.369351      8.059974   1.000000   0.000000
   25        1.544947      8.244282   1.000000   0.000000
   26        2.346239      8.645889   1.000000   0.000000
   27        2.876896      8.877131   1.000000   0.000000
   28        3.292119      9.027883   1.000000   0.000000
   29        3.923132      9.430875   1.000000   0.000000
   30        4.686983     10.078319   1.000000   0.000000
   31       10.508707     11.147081   0.000000   0.000000
   32       10.752215     11.533409   0.000000   0.000000
   33       11.681661     12.527425   0.000000   0.000000
   34       11.963407     12.966683   0.000000   0.000000
   35       12.505172     13.206460   0.000000   0.000000
   36       13.214801     13.846055   0.000000   0.000000
   37       13.592931     14.360509   0.000000   0.000000
   38       13.977315     14.556812   0.000000   0.000000
   39       14.857073     15.300580   0.000000   0.000000
   40       15.272675     15.778705   0.000000   0.000000
 
  0.3052327E-24  0.2500000E+00 -0.1201475E-14  0.1041667E-01
    1      -55.855328    -49.201474   1.000000   1.000000
    2      -55.853697    -49.198806   1.000000   1.000000
    3      -54.308103    -49.167083   1.000000   1.000000
    4      -54.306970    -49.163909   1.000000   1.000000
    5      -54.306005    -49.163506   1.000000   1.000000
    6      -54.304721    -49.162943   1.000000   1.000000
    7      -43.053402    -43.054757   1.000000   1.000000
    8      -43.024141    -43.025818   1.000000   1.000000
    9      -15.366009    -14.960843   1.000000   1.000000
   10       -9.056020     -8.757287   1.000000   1.000000
   11       -8.456911     -8.120325   1.000000   1.000000
   12       -2.411850     -1.076659   1.000000   1.000000
   13       -1.597178     -0.355232   1.000000   1.000000
   14       -1.290006      0.045315   1.000000   1.000000
   15       -1.014241      0.900390   1.000000   1.000000
   16       -0.909415      0.961783   1.000000   1.000000
   17       -0.591900      1.764148   1.000000   1.000000
   18       -0.225030      2.011929   1.000000   1.000000
   19       -0.073785      2.858748   1.000000   1.000000
   20        0.399250      3.102362   1.000000   1.000000
   21        0.971000      4.037289   1.000000   1.000000
   22        1.057556      4.413522   1.000000   1.000000
   23        1.092091      7.150770   1.000000   0.000000
   24        1.399789      7.790618   1.000000   0.000000
   25        1.439778      8.349599   1.000000   0.000000
   26        2.015101      8.415249   1.000000   0.000000
   27        2.602310      8.680527   1.000000   0.000000
   28        3.219637      9.083839   1.000000   0.000000
   29        3.467951      9.348542   1.000000   0.000000
   30        4.767363     10.166879   1.000000   0.000000
   31       10.185852     11.272355   0.000000   0.000000
   32       11.091682     11.942686   0.000000   0.000000
   33       11.310189     11.970258   0.000000   0.000000
   34       12.091301     13.337931   0.000000   0.000000
   35       13.068264     13.570159   0.000000   0.000000
   36       13.279475     13.984501   0.000000   0.000000
   37       13.416314     14.420717   0.000000   0.000000
   38       14.151739     14.674295   0.000000   0.000000
   39       14.935260     15.529566   0.000000   0.000000
   40       15.599255     15.763450   0.000000   0.000000
 
  0.1666667E+00  0.2500000E+00 -0.3589555E-15  0.1041667E-01
    1      -55.855574    -49.202057   1.000000   1.000000
    2      -55.853567    -49.198433   1.000000   1.000000
    3      -54.307695    -49.166460   1.000000   1.000000
    4      -54.307128    -49.164460   1.000000   1.000000
    5      -54.305439    -49.163249   1.000000   1.000000
    6      -54.304749    -49.162433   1.000000   1.000000
    7      -43.059091    -43.060378   1.000000   1.000000
    8      -43.019200    -43.020926   1.000000   1.000000
    9      -15.338889    -14.933641   1.000000   1.000000
   10       -9.243597     -8.952008   1.000000   1.000000
   11       -8.546766     -8.215194   1.000000   1.000000
   12       -2.467638     -1.149970   1.000000   1.000000
   13       -1.653379     -0.565431   1.000000   1.000000
   14       -1.203187      0.241657   1.000000   1.000000
   15       -0.872676      1.171802   1.000000   1.000000
   16       -0.790451      1.509127   1.000000   1.000000
   17       -0.524102      1.801167   1.000000   1.000000
   18       -0.219815      2.335133   1.000000   1.000000
   19       -0.070071      3.061979   1.000000   1.000000
   20        0.073634      3.129373   1.000000   1.000000
   21        0.772762      3.836345   1.000000   1.000000
   22        1.172311      4.119896   1.000000   1.000000
   23        1.284607      7.599852   1.000000   0.000000
   24        1.326775      7.991532   1.000000   0.000000
   25        1.513778      8.104881   1.000000   0.000000
   26        2.423433      8.782369   1.000000   0.000000
   27        2.974478      8.858103   1.000000   0.000000
   28        3.335408      9.011062   1.000000   0.000000
   29        3.953506      9.226081   1.000000   0.000000
   30        4.439815      9.719670   1.000000   0.000000
   31       10.274209     11.001769   0.000000   0.000000
   32       10.414159     11.404801   0.000000   0.000000
   33       12.160118     12.885213   0.000000   0.000000
   34       12.498132     13.118184   0.000000   0.000000
   35       12.671427     13.402270   0.000000   0.000000
   36       13.179708     13.751112   0.000000   0.000000
   37       13.636464     14.371402   0.000000   0.000000
   38       13.880736     14.713923   0.000000   0.000000
   39       14.863339     15.329350   0.000000   0.000000
   40       15.086639     15.706731   0.000000   0.000000
 
  0.3333333E+00  0.2500000E+00  0.4028489E-14  0.1041667E-01
    1      -55.855511    -49.202048   1.000000   1.000000
    2      -55.853632    -49.198457   1.000000   1.000000
    3      -54.307735    -49.165978   1.000000   1.000000
    4      -54.307075    -49.165048   1.000000   1.000000
    5      -54.305389    -49.163456   1.000000   1.000000
    6      -54.304806    -49.162103   1.000000   1.000000
    7      -43.059091    -43.060378   1.000000   1.000000
    8      -43.019228    -43.020952   1.000000   1.000000
    9      -15.337645    -14.932376   1.000000   1.000000
   10       -9.238064     -8.945490   1.000000   1.000000
   11       -8.571146     -8.239049   1.000000   1.000000
   12       -2.432131     -1.084821   1.000000   1.000000
   13       -1.550472     -0.449056   1.000000   1.000000
   14       -1.190129      0.238139   1.000000   1.000000
   15       -0.833481      1.099462   1.000000   1.000000
   16       -0.786764      1.481096   1.000000   1.000000
   17       -0.513064      1.768824   1.000000   1.000000
   18       -0.305281      2.336062   1.000000   1.000000
   19       -0.037950      2.988435   1.000000   1.000000