 vasp.6.2.0 18Jan21 (build Jan 29 2021 15:03:46) complex                        
  
 executed on             LinuxIFC date 2021.03.11  18:47:35
 running on  120 total cores
 distrk:  each k-point on    4 cores,   30 groups
 distr:  one band on NCORE=   1 cores,    4 groups


--------------------------------------------------------------------------------------------------------


 INCAR:
   AEXX = 0.25
   ALGO = all
   EDIFF = 7e-06
   EDIFFG = -0.03
   ENCUT = 520
   GGA = pe
   HFSCREEN = 0.207
   IBRION = 2
   ISIF = 3
   ISMEAR = 0
   ISPIN = 2
   KPAR = 30
   LASPH = .TRUE.
   LHFCALC = .TRUE.
   LMAXFOCK = 4
   LORBIT = 11
   LREAL = .FALSE.
   LVHAR = .TRUE.
   LWAVE = .TRUE.
   MAGMOM = 0.6 0.6 0.6 0.6 0.6 5 5
   NCORE = 1
   NEDOS = 2000
   NELM = 200
   NELMIN = 4
   NSW = 60
   NWRITE = 1
   PREC = accurate
   PRECFOCK = fast
   SIGMA = 0.05
   TIME = 0.3

 POTCAR:    PAW_PBE Li_sv 10Sep2004               
 POTCAR:    PAW_PBE O 08Apr2002                   
 POTCAR:    PAW_PBE S 06Sep2000                   
 POTCAR:    PAW_PBE Fe_pv 02Aug2007               
 -----------------------------------------------------------------------------
|                                                                             |
|           W    W    AA    RRRRR   N    N  II  N    N   GGGG   !!!           |
|           W    W   A  A   R    R  NN   N  II  NN   N  G    G  !!!           |
|           W    W  A    A  R    R  N N  N  II  N N  N  G       !!!           |
|           W WW W  AAAAAA  RRRRR   N  N N  II  N  N N  G  GGG   !            |
|           WW  WW  A    A  R   R   N   NN  II  N   NN  G    G                |
|           W    W  A    A  R    R  N    N  II  N    N   GGGG   !!!           |
|                                                                             |
|     For optimal performance we recommend to set                             |
|       NCORE = 2 up to number-of-cores-per-socket                            |
|     NCORE specifies how many cores store one orbital (NPAR=cpu/NCORE).      |
|     This setting can greatly improve the performance of VASP for DFT.       |
|     The default, NCORE=1 might be grossly inefficient on modern             |
|     multi-core architectures or massively parallel machines. Do your        |
|     own testing! More info at https://www.vasp.at/wiki/index.php/NCORE      |
|     Unfortunately you need to use the default for GW and RPA                |
|     calculations (for HF NCORE is supported but not extensively tested      |
|     yet).                                                                   |
|                                                                             |
 -----------------------------------------------------------------------------

 POTCAR:    PAW_PBE Li_sv 10Sep2004               
  local pseudopotential read in
  atomic valenz-charges read in
  non local Contribution for L=           0  read in
    real space projection operators read in
  non local Contribution for L=           0  read in
    real space projection operators read in
  non local Contribution for L=           1  read in
    real space projection operators read in
    PAW grid and wavefunctions read in
 
   number of l-projection  operators is LMAX  =           3
   number of lm-projection operators is LMMAX =           5
 
 POTCAR:    PAW_PBE O 08Apr2002                   
  local pseudopotential read in
  partial core-charges read in
  partial kinetic energy density read in
  kinetic energy density of atom read in
  atomic valenz-charges read in
  non local Contribution for L=           0  read in
    real space projection operators read in
  non local Contribution for L=           0  read in
    real space projection operators read in
  non local Contribution for L=           1  read in
    real space projection operators read in
  non local Contribution for L=           1  read in
    real space projection operators read in
    PAW grid and wavefunctions read in
 
   number of l-projection  operators is LMAX  =           4
   number of lm-projection operators is LMMAX =           8
 
 POTCAR:    PAW_PBE S 06Sep2000                   
  local pseudopotential read in
  partial core-charges read in
  partial kinetic energy density read in
  atomic valenz-charges read in
  non local Contribution for L=           0  read in
    real space projection operators read in
  non local Contribution for L=           0  read in
    real space projection operators read in
  non local Contribution for L=           1  read in
    real space projection operators read in
  non local Contribution for L=           1  read in
    real space projection operators read in
    PAW grid and wavefunctions read in
 
   number of l-projection  operators is LMAX  =           4
   number of lm-projection operators is LMMAX =           8
 
 POTCAR:    PAW_PBE Fe_pv 02Aug2007               
  local pseudopotential read in
  partial core-charges read in
  partial kinetic energy density read in
  atomic valenz-charges read in
  non local Contribution for L=           1  read in
    real space projection operators read in
  non local Contribution for L=           1  read in
    real space projection operators read in
  non local Contribution for L=           2  read in
    real space projection operators read in
  non local Contribution for L=           2  read in
    real space projection operators read in
  non local Contribution for L=           0  read in
    real space projection operators read in
  non local Contribution for L=           0  read in
    real space projection operators read in
    PAW grid and wavefunctions read in
 
   number of l-projection  operators is LMAX  =           6
   number of lm-projection operators is LMMAX =          18
 
  PAW_PBE Li_sv 10Sep2004               :
 energy of atom  1       EATOM= -202.7858
 kinetic energy error for atom=    0.0130 (will be added to EATOM!!)
  PAW_PBE O 08Apr2002                   :
 energy of atom  2       EATOM= -432.3788
 kinetic energy error for atom=    0.0208 (will be added to EATOM!!)
  PAW_PBE S 06Sep2000                   :
 energy of atom  3       EATOM= -276.8230
 kinetic energy error for atom=    0.0016 (will be added to EATOM!!)
  PAW_PBE Fe_pv 02Aug2007               :
 energy of atom  4       EATOM=-2457.4239
 kinetic energy error for atom=    0.0062 (will be added to EATOM!!)
 
 
 POSCAR: # Compound: Li2OS2Fe2. Old comment: LFSO
  positions in direct lattice
  No initial velocities read in
 exchange correlation table for  LEXCH =        8
   RHO(1)=    0.500       N(1)  =     2000
   RHO(2)=  100.500       N(2)  =     4000
 


--------------------------------------------------------------------------------------------------------


 ion  position               nearest neighbor table
   1  0.056  0.393  1.000-   3 1.93   3 1.93
   2  0.552  0.393  0.000-   3 1.93   3 1.93
   3  0.053  0.895  0.000-   2 1.93   1 1.93   1 1.93   2 1.93   7 2.04   6 2.04
   4  0.703  0.892  0.700-   7 2.43   6 2.70   6 2.72   6 2.75   6 2.77
   5  0.405  0.892  0.300-   6 2.43   7 2.70   7 2.72   7 2.75   7 2.77
   6  0.204  0.905  0.680-   3 2.04   5 2.43   4 2.70   4 2.72   4 2.75   4 2.77
   7  0.891  0.905  0.320-   3 2.04   4 2.43   5 2.70   5 2.72   5 2.75   5 2.77
 
  LATTYP: Found a base centered monoclinic cell.
 ALAT       =     5.4551801866
 B/A-ratio  =     1.0003500624
 C/A-ratio  =     1.2728859454
 COS(beta)  =    -0.3906656676
  
  Lattice vectors:
  
 A1 = (  -2.7275894500,   2.7285449000,   0.0049920900)
 A2 = (  -2.7275816000,  -2.7285449400,   0.0049920800)
 A3 = (   2.7244071700,   0.0000004300,   6.3870393900)


Analysis of symmetry for initial positions (statically):
=====================================================================
 Subroutine PRICEL returns:
 Original cell was already a primitive cell.
 

 Routine SETGRP: Setting up the symmetry group for a 
 base centered monoclinic supercell.


 Subroutine GETGRP returns: Found  2 space group operations
 (whereof  2 operations were pure point group operations)
 out of a pool of  4 trial point group operations.


The static configuration has the point symmetry C_2 .


Analysis of symmetry for dynamics (positions and initial velocities):
=====================================================================
 Subroutine PRICEL returns:
 Original cell was already a primitive cell.
 

 Routine SETGRP: Setting up the symmetry group for a 
 base centered monoclinic supercell.


 Subroutine GETGRP returns: Found  2 space group operations
 (whereof  2 operations were pure point group operations)
 out of a pool of  4 trial point group operations.


The dynamic configuration has the point symmetry C_2 .


Analysis of structural, dynamic, and magnetic symmetry:
=====================================================================
 Subroutine PRICEL returns:
 Original cell was already a primitive cell.
 

 Routine SETGRP: Setting up the symmetry group for a 
 base centered monoclinic supercell.


 Subroutine GETGRP returns: Found  2 space group operations
 (whereof  2 operations were pure point group operations)
 out of a pool of  4 trial point group operations.


The overall configuration has the point symmetry C_2 .


 Subroutine INISYM returns: Found  2 space group operations
 (whereof  2 operations are pure point group operations),
 and found     1 'primitive' translations


----------------------------------------------------------------------------------------

                                     Primitive cell                                     

  volume of cell :      95.1433

  direct lattice vectors                    reciprocal lattice vectors
     5.455171050  0.000000040 -0.009984170     0.183169313 -0.183247590 -0.078131303
     2.727581600  2.728544940 -0.004992080    -0.000000003  0.366495707 -0.000000024
     2.724407170  0.000000430  6.387039390     0.000286329  0.000000000  0.156444929

  length of vectors
     5.455180187  3.858067365  6.943822189     0.270619986  0.366495707  0.156445191

  position of ions in fractional coordinates (direct lattice)
     0.055649500  0.392756920  0.999617260
     0.551593580  0.392756920  0.000382740
     0.052702390  0.894596230  0.000000000
     0.703168050  0.892299730  0.700216050
     0.404532220  0.892299730  0.299783950
     0.203994290  0.904928740  0.680374080
     0.891076970  0.904928740  0.319625920

  ion indices of the primitive-cell ions
   primitive index   ion index
                 1           1
                 2           2
                 3           3
                 4           4
                 5           5
                 6           6
                 7           7

----------------------------------------------------------------------------------------

 
 
 KPOINTS: # No comment                            

Automatic generation of k-mesh.
 Grid dimensions read from file:
 generate k-points for:    6    8    4

 Generating k-lattice:

  Cartesian coordinates                     Fractional coordinates (reciprocal lattice)
     0.030528219 -0.030541265 -0.013021884     0.166666667 -0.000000000 -0.000000000
    -0.000000000  0.045811963 -0.000000003    -0.000000000  0.125000000  0.000000000
     0.000071582  0.000000000  0.039111232     0.000000000  0.000000000  0.250000000

  Length of vectors
     0.045103331  0.045811963  0.039111298

  Shift w.r.t. Gamma in fractional coordinates (k-lattice)
     0.000000000  0.000000000  0.000000000

 -----------------------------------------------------------------------------
|                                                                             |
|           W    W    AA    RRRRR   N    N  II  N    N   GGGG   !!!           |
|           W    W   A  A   R    R  NN   N  II  NN   N  G    G  !!!           |
|           W    W  A    A  R    R  N N  N  II  N N  N  G       !!!           |
|           W WW W  AAAAAA  RRRRR   N  N N  II  N  N N  G  GGG   !            |
|           WW  WW  A    A  R   R   N   NN  II  N   NN  G    G                |
|           W    W  A    A  R    R  N    N  II  N    N   GGGG   !!!           |
|                                                                             |
|     Your reciprocal lattice and k-lattice belong to different lattice       |
|     classes:                                                                |
|                                                                             |
|        The reciprocal lattice is base-centered monoclinic,                  |
|        whereas your k-lattice is triclinic.                                 |
|                                                                             |
|     Results are often still useful ...                                      |
|                                                                             |
 -----------------------------------------------------------------------------

 WARNING: IBZKPT: internal override: KBLOWUP is changed to .FALSE.
      ... skipping the blow-up phase ...

 
 Subroutine IBZKPT returns following result:
 ===========================================
 
 Found     90 irreducible k-points:
 
 Following reciprocal coordinates:
            Coordinates               Weight
  0.000000  0.000000  0.000000      1.000000
  0.166667 -0.000000  0.000000      2.000000
  0.333333 -0.000000 -0.000000      2.000000
  0.500000 -0.000000 -0.000000      2.000000
  0.000000  0.125000 -0.000000      2.000000
  0.166667  0.125000  0.000000      2.000000
  0.333333  0.125000  0.000000      2.000000
  0.500000  0.125000 -0.000000      4.000000
 -0.333333  0.125000  0.000000      2.000000
 -0.166667  0.125000  0.000000      2.000000
  0.000000  0.250000 -0.000000      2.000000
  0.166667  0.250000 -0.000000      2.000000
  0.333333  0.250000  0.000000      2.000000
  0.500000  0.250000 -0.000000      2.000000
 -0.333333  0.250000  0.000000      2.000000
 -0.166667  0.250000  0.000000      2.000000
  0.000000  0.375000 -0.000000      2.000000
  0.166667  0.375000 -0.000000      2.000000
  0.333333  0.375000  0.000000      2.000000
 -0.333333  0.375000  0.000000      2.000000
 -0.166667  0.375000  0.000000      2.000000
  0.000000  0.500000 -0.000000      1.000000
  0.166667  0.500000 -0.000000      2.000000
  0.333333  0.500000  0.000000      2.000000
  0.000000  0.000000  0.250000      2.000000
  0.166667 -0.000000  0.250000      2.000000
  0.333333  0.000000  0.250000      2.000000
  0.500000 -0.000000  0.250000      4.000000
 -0.333333  0.000000  0.250000      2.000000
 -0.166667  0.000000  0.250000      2.000000
  0.000000  0.125000  0.250000      4.000000
  0.166667  0.125000  0.250000      2.000000
  0.333333  0.125000  0.250000      2.000000
  0.500000  0.125000  0.250000      4.000000
 -0.333333  0.125000  0.250000      2.000000
 -0.166667  0.125000  0.250000      2.000000
  0.000000  0.250000  0.250000      4.000000
  0.166667  0.250000  0.250000      2.000000
  0.333333  0.250000  0.250000      2.000000
  0.500000  0.250000  0.250000      2.000000
 -0.333333  0.250000  0.250000      2.000000
 -0.166667  0.250000  0.250000      2.000000
 -0.000000  0.375000  0.250000      4.000000
  0.166667  0.375000  0.250000      2.000000
  0.333333  0.375000  0.250000      2.000000
 -0.333333  0.375000  0.250000      2.000000
 -0.166667  0.375000  0.250000      2.000000
 -0.000000  0.500000  0.250000      2.000000
  0.166667  0.500000  0.250000      2.000000
  0.333333  0.500000  0.250000      2.000000
 -0.333333  0.500000  0.250000      2.000000
 -0.166667  0.500000  0.250000      2.000000
  0.166667 -0.375000  0.250000      2.000000
  0.333333 -0.375000  0.250000      2.000000
  0.500000 -0.375000  0.250000      4.000000
 -0.333333 -0.375000  0.250000      2.000000
 -0.166667 -0.375000  0.250000      2.000000
  0.166667 -0.250000  0.250000      2.000000
  0.333333 -0.250000  0.250000      2.000000
  0.500000 -0.250000  0.250000      2.000000
 -0.333333 -0.250000  0.250000      2.000000
 -0.166667 -0.250000  0.250000      2.000000
  0.166667 -0.125000  0.250000      2.000000
  0.333333 -0.125000  0.250000      2.000000
 -0.333333 -0.125000  0.250000      2.000000
 -0.166667 -0.125000  0.250000      2.000000
  0.000000  0.000000  0.500000      1.000000
  0.166667 -0.000000  0.500000      2.000000
  0.333333 -0.000000  0.500000      2.000000
  0.500000 -0.000000  0.500000      2.000000
  0.000000  0.125000  0.500000      2.000000
  0.166667  0.125000  0.500000      2.000000
  0.333333  0.125000  0.500000      2.000000
  0.500000  0.125000  0.500000      4.000000
 -0.333333  0.125000  0.500000      2.000000
 -0.166667  0.125000  0.500000      2.000000
  0.000000  0.250000  0.500000      2.000000
  0.166667  0.250000  0.500000      2.000000
  0.333333  0.250000  0.500000      2.000000
  0.500000  0.250000  0.500000      2.000000
 -0.333333  0.250000  0.500000      2.000000
 -0.166667  0.250000  0.500000      2.000000
 -0.000000  0.375000  0.500000      2.000000
  0.166667  0.375000  0.500000      2.000000
  0.333333  0.375000  0.500000      2.000000
 -0.333333  0.375000  0.500000      2.000000
 -0.166667  0.375000  0.500000      2.000000
 -0.000000  0.500000  0.500000      1.000000
  0.166667  0.500000  0.500000      2.000000
  0.333333  0.500000  0.500000      2.000000
 
 Following cartesian coordinates:
            Coordinates               Weight
  0.000000  0.000000  0.000000      1.000000
  0.030528 -0.030541 -0.013022      2.000000
  0.061056 -0.061083 -0.026044      2.000000
  0.091585 -0.091624 -0.039066      2.000000
 -0.000000  0.045812 -0.000000      2.000000
  0.030528  0.015271 -0.013022      2.000000
  0.061056 -0.015271 -0.026044      2.000000
  0.091585 -0.045812 -0.039066      4.000000
 -0.061056  0.106894  0.026044      2.000000
 -0.030528  0.076353  0.013022      2.000000
 -0.000000  0.091624 -0.000000      2.000000
  0.030528  0.061083 -0.013022      2.000000
  0.061056  0.030541 -0.026044      2.000000
  0.091585  0.000000 -0.039066      2.000000
 -0.061056  0.152706  0.026044      2.000000
 -0.030528  0.122165  0.013022      2.000000
 -0.000000  0.137436 -0.000000      2.000000
  0.030528  0.106895 -0.013022      2.000000
  0.061056  0.076353 -0.026044      2.000000
 -0.061056  0.198518  0.026044      2.000000
 -0.030528  0.167977  0.013022      2.000000
 -0.000000  0.183248 -0.000000      1.000000
  0.030528  0.152707 -0.013022      2.000000
  0.061056  0.122165 -0.026044      2.000000
  0.000072  0.000000  0.039111      2.000000
  0.030600 -0.030541  0.026089      2.000000
  0.061128 -0.061083  0.013067      2.000000
  0.091656 -0.091624  0.000046      4.000000
 -0.060985  0.061083  0.065155      2.000000
 -0.030457  0.030541  0.052133      2.000000
  0.000072  0.045812  0.039111      4.000000
  0.030600  0.015271  0.026089      2.000000
  0.061128 -0.015271  0.013067      2.000000
  0.091656 -0.045812  0.000046      4.000000
 -0.060985  0.106894  0.065155      2.000000
 -0.030457  0.076353  0.052133      2.000000
  0.000072  0.091624  0.039111      4.000000
  0.030600  0.061083  0.026089      2.000000
  0.061128  0.030541  0.013067      2.000000
  0.091656  0.000000  0.000046      2.000000
 -0.060985  0.152706  0.065155      2.000000
 -0.030457  0.122165  0.052133      2.000000
  0.000072  0.137436  0.039111      4.000000
  0.030600  0.106895  0.026089      2.000000
  0.061128  0.076353  0.013067      2.000000
 -0.060985  0.198518  0.065155      2.000000
 -0.030457  0.167977  0.052133      2.000000
  0.000072  0.183248  0.039111      2.000000
  0.030600  0.152707  0.026089      2.000000
  0.061128  0.122165  0.013067      2.000000
 -0.060985  0.244330  0.065155      2.000000
 -0.030457  0.213789  0.052133      2.000000
  0.030600 -0.167977  0.026089      2.000000
  0.061128 -0.198518  0.013067      2.000000
  0.091656 -0.229060  0.000046      4.000000
 -0.060985 -0.076353  0.065155      2.000000
 -0.030457 -0.106895  0.052133      2.000000
  0.030600 -0.122165  0.026089      2.000000
  0.061128 -0.152706  0.013067      2.000000
  0.091656 -0.183248  0.000046      2.000000
 -0.060985 -0.030541  0.065155      2.000000
 -0.030457 -0.061083  0.052133      2.000000
  0.030600 -0.076353  0.026089      2.000000
  0.061128 -0.106894  0.013067      2.000000
 -0.060985  0.015271  0.065155      2.000000
 -0.030457 -0.015271  0.052133      2.000000
  0.000143  0.000000  0.078222      1.000000
  0.030671 -0.030541  0.065201      2.000000
  0.061200 -0.061083  0.052179      2.000000
  0.091728 -0.091624  0.039157      2.000000
  0.000143  0.045812  0.078222      2.000000
  0.030671  0.015271  0.065201      2.000000
  0.061200 -0.015271  0.052179      2.000000
  0.091728 -0.045812  0.039157      4.000000
 -0.060913  0.106894  0.104266      2.000000
 -0.030385  0.076353  0.091244      2.000000
  0.000143  0.091624  0.078222      2.000000
  0.030671  0.061083  0.065201      2.000000
  0.061200  0.030541  0.052179      2.000000
  0.091728  0.000000  0.039157      2.000000
 -0.060913  0.152706  0.104266      2.000000
 -0.030385  0.122165  0.091244      2.000000
  0.000143  0.137436  0.078222      2.000000
  0.030671  0.106895  0.065201      2.000000
  0.061200  0.076353  0.052179      2.000000
 -0.060913  0.198518  0.104266      2.000000
 -0.030385  0.167977  0.091244      2.000000
  0.000143  0.183248  0.078222      1.000000
  0.030671  0.152707  0.065201      2.000000
  0.061200  0.122165  0.052179      2.000000
 
 WARNING: full set of k-points will be restricted to regular points only.

 
 Subroutine IBZKPT_HF returns following result:
 ==============================================
 
 Found    192 k-points in 1st BZ
 the following    192 k-points will be used (e.g. in the exchange kernel)
 Following reciprocal coordinates:   # in IRBZ
  0.000000  0.000000  0.000000    0.00520833   1 t-inv F
  0.166667 -0.000000  0.000000    0.00520833   2 t-inv F
  0.333333 -0.000000 -0.000000    0.00520833   3 t-inv F
  0.500000 -0.000000 -0.000000    0.00520833   4 t-inv F
  0.000000  0.125000 -0.000000    0.00520833   5 t-inv F
  0.166667  0.125000  0.000000    0.00520833   6 t-inv F
  0.333333  0.125000  0.000000    0.00520833   7 t-inv F
  0.500000  0.125000 -0.000000    0.00520833   8 t-inv F
 -0.333333  0.125000  0.000000    0.00520833   9 t-inv F
 -0.166667  0.125000  0.000000    0.00520833  10 t-inv F
  0.000000  0.250000 -0.000000    0.00520833  11 t-inv F
  0.166667  0.250000 -0.000000    0.00520833  12 t-inv F
  0.333333  0.250000  0.000000    0.00520833  13 t-inv F
  0.500000  0.250000 -0.000000    0.00520833  14 t-inv F
 -0.333333  0.250000  0.000000    0.00520833  15 t-inv F
 -0.166667  0.250000  0.000000    0.00520833  16 t-inv F
  0.000000  0.375000 -0.000000    0.00520833  17 t-inv F
  0.166667  0.375000 -0.000000    0.00520833  18 t-inv F
  0.333333  0.375000  0.000000    0.00520833  19 t-inv F
 -0.333333  0.375000  0.000000    0.00520833  20 t-inv F
 -0.166667  0.375000  0.000000    0.00520833  21 t-inv F
  0.000000  0.500000 -0.000000    0.00520833  22 t-inv F
  0.166667  0.500000 -0.000000    0.00520833  23 t-inv F
  0.333333  0.500000  0.000000    0.00520833  24 t-inv F
  0.000000  0.000000  0.250000    0.00520833  25 t-inv F
  0.166667 -0.000000  0.250000    0.00520833  26 t-inv F
  0.333333  0.000000  0.250000    0.00520833  27 t-inv F
  0.500000 -0.000000  0.250000    0.00520833  28 t-inv F
 -0.333333  0.000000  0.250000    0.00520833  29 t-inv F
 -0.166667  0.000000  0.250000    0.00520833  30 t-inv F
  0.000000  0.125000  0.250000    0.00520833  31 t-inv F
  0.166667  0.125000  0.250000    0.00520833  32 t-inv F
  0.333333  0.125000  0.250000    0.00520833  33 t-inv F
  0.500000  0.125000  0.250000    0.00520833  34 t-inv F
 -0.333333  0.125000  0.250000    0.00520833  35 t-inv F
 -0.166667  0.125000  0.250000    0.00520833  36 t-inv F
  0.000000  0.250000  0.250000    0.00520833  37 t-inv F
  0.166667  0.250000  0.250000    0.00520833  38 t-inv F
  0.333333  0.250000  0.250000    0.00520833  39 t-inv F
  0.500000  0.250000  0.250000    0.00520833  40 t-inv F
 -0.333333  0.250000  0.250000    0.00520833  41 t-inv F
 -0.166667  0.250000  0.250000    0.00520833  42 t-inv F
 -0.000000  0.375000  0.250000    0.00520833  43 t-inv F
  0.166667  0.375000  0.250000    0.00520833  44 t-inv F
  0.333333  0.375000  0.250000    0.00520833  45 t-inv F
 -0.333333  0.375000  0.250000    0.00520833  46 t-inv F
 -0.166667  0.375000  0.250000    0.00520833  47 t-inv F
 -0.000000  0.500000  0.250000    0.00520833  48 t-inv F
  0.166667  0.500000  0.250000    0.00520833  49 t-inv F
  0.333333  0.500000  0.250000    0.00520833  50 t-inv F
 -0.333333  0.500000  0.250000    0.00520833  51 t-inv F
 -0.166667  0.500000  0.250000    0.00520833  52 t-inv F
  0.166667 -0.375000  0.250000    0.00520833  53 t-inv F
  0.333333 -0.375000  0.250000    0.00520833  54 t-inv F
  0.500000 -0.375000  0.250000    0.00520833  55 t-inv F
 -0.333333 -0.375000  0.250000    0.00520833  56 t-inv F
 -0.166667 -0.375000  0.250000    0.00520833  57 t-inv F
  0.166667 -0.250000  0.250000    0.00520833  58 t-inv F
  0.333333 -0.250000  0.250000    0.00520833  59 t-inv F
  0.500000 -0.250000  0.250000    0.00520833  60 t-inv F
 -0.333333 -0.250000  0.250000    0.00520833  61 t-inv F
 -0.166667 -0.250000  0.250000    0.00520833  62 t-inv F
  0.166667 -0.125000  0.250000    0.00520833  63 t-inv F
  0.333333 -0.125000  0.250000    0.00520833  64 t-inv F
 -0.333333 -0.125000  0.250000    0.00520833  65 t-inv F
 -0.166667 -0.125000  0.250000    0.00520833  66 t-inv F
  0.000000  0.000000  0.500000    0.00520833  67 t-inv F
  0.166667 -0.000000  0.500000    0.00520833  68 t-inv F
  0.333333 -0.000000  0.500000    0.00520833  69 t-inv F
  0.500000 -0.000000  0.500000    0.00520833  70 t-inv F
  0.000000  0.125000  0.500000    0.00520833  71 t-inv F
  0.166667  0.125000  0.500000    0.00520833  72 t-inv F
  0.333333  0.125000  0.500000    0.00520833  73 t-inv F
  0.500000  0.125000  0.500000    0.00520833  74 t-inv F
 -0.333333  0.125000  0.500000    0.00520833  75 t-inv F
 -0.166667  0.125000  0.500000    0.00520833  76 t-inv F
  0.000000  0.250000  0.500000    0.00520833  77 t-inv F
  0.166667  0.250000  0.500000    0.00520833  78 t-inv F
  0.333333  0.250000  0.500000    0.00520833  79 t-inv F
  0.500000  0.250000  0.500000    0.00520833  80 t-inv F
 -0.333333  0.250000  0.500000    0.00520833  81 t-inv F
 -0.166667  0.250000  0.500000    0.00520833  82 t-inv F
 -0.000000  0.375000  0.500000    0.00520833  83 t-inv F
  0.166667  0.375000  0.500000    0.00520833  84 t-inv F
  0.333333  0.375000  0.500000    0.00520833  85 t-inv F
 -0.333333  0.375000  0.500000    0.00520833  86 t-inv F
 -0.166667  0.375000  0.500000    0.00520833  87 t-inv F
 -0.000000  0.500000  0.500000    0.00520833  88 t-inv F
  0.166667  0.500000  0.500000    0.00520833  89 t-inv F
  0.333333  0.500000  0.500000    0.00520833  90 t-inv F
 -0.500000 -0.500000  0.000000    0.00520833   4 t-inv F
 -0.500000 -0.375000  0.000000    0.00520833   8 t-inv F
 -0.500000 -0.250000  0.000000    0.00520833  14 t-inv F
 -0.000000 -0.000000 -0.250000    0.00520833  25 t-inv F
 -0.500000 -0.500000 -0.250000    0.00520833  28 t-inv F
 -0.000000  0.125000 -0.250000    0.00520833  31 t-inv F
 -0.500000 -0.375000 -0.250000    0.00520833  34 t-inv F
 -0.000000  0.250000 -0.250000    0.00520833  37 t-inv F
 -0.500000 -0.250000 -0.250000    0.00520833  40 t-inv F
  0.000000  0.375000 -0.250000    0.00520833  43 t-inv F
  0.000000  0.500000 -0.250000    0.00520833  48 t-inv F
 -0.500000 -0.875000 -0.250000    0.00520833  55 t-inv F
 -0.500000 -0.750000 -0.250000    0.00520833  60 t-inv F
 -0.500000 -0.500000 -0.500000    0.00520833  70 t-inv F
 -0.500000 -0.375000 -0.500000    0.00520833  74 t-inv F
 -0.500000 -0.250000 -0.500000    0.00520833  80 t-inv F
 -0.166667  0.000000 -0.000000    0.00520833   2 t-inv T
 -0.333333  0.000000  0.000000    0.00520833   3 t-inv T
 -0.000000 -0.125000  0.000000    0.00520833   5 t-inv T
 -0.166667 -0.125000 -0.000000    0.00520833   6 t-inv T
 -0.333333 -0.125000 -0.000000    0.00520833   7 t-inv T
 -0.500000 -0.125000  0.000000    0.00520833   8 t-inv T
  0.500000  0.375000 -0.000000    0.00520833   8 t-inv T
  0.333333 -0.125000 -0.000000    0.00520833   9 t-inv T
  0.166667 -0.125000 -0.000000    0.00520833  10 t-inv T
 -0.000000 -0.250000  0.000000    0.00520833  11 t-inv T
 -0.166667 -0.250000  0.000000    0.00520833  12 t-inv T
 -0.333333 -0.250000 -0.000000    0.00520833  13 t-inv T
  0.333333 -0.250000 -0.000000    0.00520833  15 t-inv T
  0.166667 -0.250000 -0.000000    0.00520833  16 t-inv T
 -0.000000 -0.375000  0.000000    0.00520833  17 t-inv T
 -0.166667 -0.375000  0.000000    0.00520833  18 t-inv T
 -0.333333 -0.375000 -0.000000    0.00520833  19 t-inv T
  0.333333 -0.375000 -0.000000    0.00520833  20 t-inv T
  0.166667 -0.375000 -0.000000    0.00520833  21 t-inv T
 -0.166667 -0.500000  0.000000    0.00520833  23 t-inv T
 -0.333333 -0.500000 -0.000000    0.00520833  24 t-inv T
 -0.166667  0.000000 -0.250000    0.00520833  26 t-inv T
 -0.333333 -0.000000 -0.250000    0.00520833  27 t-inv T
 -0.500000  0.000000 -0.250000    0.00520833  28 t-inv T
  0.500000  0.500000  0.250000    0.00520833  28 t-inv T
  0.333333 -0.000000 -0.250000    0.00520833  29 t-inv T
  0.166667 -0.000000 -0.250000    0.00520833  30 t-inv T
 -0.000000 -0.125000 -0.250000    0.00520833  31 t-inv T
  0.000000 -0.125000  0.250000    0.00520833  31 t-inv T
 -0.166667 -0.125000 -0.250000    0.00520833  32 t-inv T
 -0.333333 -0.125000 -0.250000    0.00520833  33 t-inv T
 -0.500000 -0.125000 -0.250000    0.00520833  34 t-inv T
  0.500000  0.375000  0.250000    0.00520833  34 t-inv T
  0.333333 -0.125000 -0.250000    0.00520833  35 t-inv T
  0.166667 -0.125000 -0.250000    0.00520833  36 t-inv T
 -0.000000 -0.250000 -0.250000    0.00520833  37 t-inv T
  0.000000 -0.250000  0.250000    0.00520833  37 t-inv T
 -0.166667 -0.250000 -0.250000    0.00520833  38 t-inv T
 -0.333333 -0.250000 -0.250000    0.00520833  39 t-inv T
  0.333333 -0.250000 -0.250000    0.00520833  41 t-inv T
  0.166667 -0.250000 -0.250000    0.00520833  42 t-inv T
  0.000000 -0.375000 -0.250000    0.00520833  43 t-inv T
 -0.000000 -0.375000  0.250000    0.00520833  43 t-inv T
 -0.166667 -0.375000 -0.250000    0.00520833  44 t-inv T
 -0.333333 -0.375000 -0.250000    0.00520833  45 t-inv T
  0.333333 -0.375000 -0.250000    0.00520833  46 t-inv T
  0.166667 -0.375000 -0.250000    0.00520833  47 t-inv T
 -0.166667 -0.500000 -0.250000    0.00520833  49 t-inv T
 -0.333333 -0.500000 -0.250000    0.00520833  50 t-inv T
  0.333333 -0.500000 -0.250000    0.00520833  51 t-inv T
  0.166667 -0.500000 -0.250000    0.00520833  52 t-inv T
 -0.166667  0.375000 -0.250000    0.00520833  53 t-inv T
 -0.333333  0.375000 -0.250000    0.00520833  54 t-inv T
 -0.500000  0.375000 -0.250000    0.00520833  55 t-inv T
  0.500000  0.875000  0.250000    0.00520833  55 t-inv T
  0.333333  0.375000 -0.250000    0.00520833  56 t-inv T
  0.166667  0.375000 -0.250000    0.00520833  57 t-inv T
 -0.166667  0.250000 -0.250000    0.00520833  58 t-inv T
 -0.333333  0.250000 -0.250000    0.00520833  59 t-inv T
  0.333333  0.250000 -0.250000    0.00520833  61 t-inv T
  0.166667  0.250000 -0.250000    0.00520833  62 t-inv T
 -0.166667  0.125000 -0.250000    0.00520833  63 t-inv T
 -0.333333  0.125000 -0.250000    0.00520833  64 t-inv T
  0.333333  0.125000 -0.250000    0.00520833  65 t-inv T
  0.166667  0.125000 -0.250000    0.00520833  66 t-inv T
 -0.166667  0.000000 -0.500000    0.00520833  68 t-inv T
 -0.333333  0.000000 -0.500000    0.00520833  69 t-inv T
 -0.000000 -0.125000 -0.500000    0.00520833  71 t-inv T
 -0.166667 -0.125000 -0.500000    0.00520833  72 t-inv T
 -0.333333 -0.125000 -0.500000    0.00520833  73 t-inv T
 -0.500000 -0.125000 -0.500000    0.00520833  74 t-inv T
  0.500000  0.375000  0.500000    0.00520833  74 t-inv T
  0.333333 -0.125000 -0.500000    0.00520833  75 t-inv T
  0.166667 -0.125000 -0.500000    0.00520833  76 t-inv T
 -0.000000 -0.250000 -0.500000    0.00520833  77 t-inv T
 -0.166667 -0.250000 -0.500000    0.00520833  78 t-inv T
 -0.333333 -0.250000 -0.500000    0.00520833  79 t-inv T
  0.333333 -0.250000 -0.500000    0.00520833  81 t-inv T
  0.166667 -0.250000 -0.500000    0.00520833  82 t-inv T
  0.000000 -0.375000 -0.500000    0.00520833  83 t-inv T
 -0.166667 -0.375000 -0.500000    0.00520833  84 t-inv T
 -0.333333 -0.375000 -0.500000    0.00520833  85 t-inv T
  0.333333 -0.375000 -0.500000    0.00520833  86 t-inv T
  0.166667 -0.375000 -0.500000    0.00520833  87 t-inv T
 -0.166667 -0.500000 -0.500000    0.00520833  89 t-inv T
 -0.333333 -0.500000 -0.500000    0.00520833  90 t-inv T


--------------------------------------------------------------------------------------------------------




 Dimension of arrays:
   k-points           NKPTS =     90   k-points in BZ     NKDIM =    192   number of bands    NBANDS=     40
   number of dos      NEDOS =   2000   number of ions     NIONS =      7
   non local maximal  LDIM  =      6   non local SUM 2l+1 LMDIM =     18
   total plane-waves  NPLWV =  68040
   max r-space proj   IRMAX =      1   max aug-charges    IRDMAX=  22727
   dimension x,y,z NGX =    42 NGY =   30 NGZ =   54
   dimension x,y,z NGXF=    84 NGYF=   60 NGZF=  108
   support grid    NGXF=    84 NGYF=   60 NGZF=  108
   ions per type =               2   1   2   2
   NGX,Y,Z   is equivalent  to a cutoff of  12.80, 12.93, 12.93 a.u.
   NGXF,Y,Z  is equivalent  to a cutoff of  25.60, 25.85, 25.86 a.u.

 SYSTEM =  unknown system                          
 POSCAR =  # Compound: Li2OS2Fe2. Old comment: LFSO

 Startparameter for this run:
   NWRITE =      1    write-flag & timer
   PREC   = accura    normal or accurate (medium, high low for compatibility)
   ISTART =      0    job   : 0-new  1-cont  2-samecut
   ICHARG =      2    charge: 1-file 2-atom 10-const
   ISPIN  =      2    spin polarized calculation?
   LNONCOLLINEAR =      F non collinear calculations
   LSORBIT =      F    spin-orbit coupling
   INIWAV =      1    electr: 0-lowe 1-rand  2-diag
   LASPH  =      T    aspherical Exc in radial PAW
   METAGGA=      F    non-selfconsistent MetaGGA calc.

 Electronic Relaxation 1
   ENCUT  =  520.0 eV  38.22 Ry    6.18 a.u.  10.14  7.17 12.91*2*pi/ulx,y,z
   ENINI  =  520.0     initial cutoff
   ENAUG  =  628.9 eV  augmentation charge cutoff
   NELM   =    200;   NELMIN=  4; NELMDL= -5     # of ELM steps 
   EDIFF  = 0.7E-05   stopping-criterion for ELM
   LREAL  =      F    real-space projection
   NLSPLINE    = F    spline interpolate recip. space projectors
   LCOMPAT=      F    compatible to vasp.4.4
   GGA_COMPAT  = T    GGA compatible to vasp.4.4-vasp.4.6
   LMAXPAW     = -100 max onsite density
   LMAXMIX     =    2 max onsite mixed and CHGCAR
   VOSKOWN=      0    Vosko Wilk Nusair interpolation
   ROPT   =    0.00000   0.00000   0.00000   0.00000
 Ionic relaxation
   EDIFFG = -.3E-01   stopping-criterion for IOM
   NSW    =     60    number of steps for IOM
   NBLOCK =      1;   KBLOCK =     60    inner block; outer block 
   IBRION =      2    ionic relax: 0-MD 1-quasi-New 2-CG
   NFREE  =      1    steps in history (QN), initial steepest desc. (CG)
   ISIF   =      3    stress and relaxation
   IWAVPR =     11    prediction:  0-non 1-charg 2-wave 3-comb
   ISYM   =      3    0-nonsym 1-usesym 2-fastsym
   LCORR  =      T    Harris-Foulkes like correction to forces

   POTIM  = 0.5000    time-step for ionic-motion
   TEIN   =    0.0    initial temperature
   TEBEG  =    0.0;   TEEND  =   0.0 temperature during run
   SMASS  =  -3.00    Nose mass-parameter (am)
   estimated Nose-frequenzy (Omega)   =  0.10E-29 period in steps = 0.13E+47 mass=  -0.680E-27a.u.
   SCALEE = 1.0000    scale energy and forces
   NPACO  =    256;   APACO  = 16.0  distance and # of slots for P.C.
   PSTRESS=    0.0 pullay stress

  Mass of Ions in am
   POMASS =   7.01 16.00 32.07 55.85
  Ionic Valenz
   ZVAL   =   3.00  6.00  6.00 14.00
  Atomic Wigner-Seitz radii
   RWIGS  =  -1.00 -1.00 -1.00 -1.00
  virtual crystal weights 
   VCA    =   1.00  1.00  1.00  1.00
   NELECT =      52.0000    total number of electrons
   NUPDOWN=      -1.0000    fix difference up-down

 DOS related values:
   EMIN   =  10.00;   EMAX   =-10.00  energy-range for DOS
   EFERMI =   0.00
   ISMEAR =     0;   SIGMA  =   0.05  broadening in eV -4-tet -1-fermi 0-gaus

 Electronic relaxation 2 (details)
   IALGO  =     58    algorithm
   LDIAG  =      T    sub-space diagonalisation (order eigenvalues)
   LSUBROT=      F    optimize rotation matrix (better conditioning)
   TURBO    =      0    0=normal 1=particle mesh
   IRESTART =      0    0=no restart 2=restart with 2 vectors
   NREBOOT  =      0    no. of reboots
   NMIN     =      0    reboot dimension
   EREF     =   0.00    reference energy to select bands
   IMIX   =      4    mixing-type and parameters
     AMIX     =   0.40;   BMIX     =  1.00
     AMIX_MAG =   1.60;   BMIX_MAG =  1.00
     AMIN     =   0.10
     WC   =   100.;   INIMIX=   1;  MIXPRE=   1;  MAXMIX= -45

 Intra band minimization:
   WEIMIN = 0.0010     energy-eigenvalue tresh-hold
   EBREAK =  0.44E-07  absolut break condition
   DEPER  =   0.30     relativ break condition  

   TIME   =   0.30     timestep for ELM

  volume/ion in A,a.u.               =      13.59        91.72
  Fermi-wavevector in a.u.,A,eV,Ry     =   1.338495  2.529388 24.375759  1.791568
  Thomas-Fermi vector in A             =   2.466961
 
 Write flags
   LWAVE        =      T    write WAVECAR
   LDOWNSAMPLE  =      F    k-point downsampling of WAVECAR
   LCHARG       =      T    write CHGCAR
   LVTOT        =      F    write LOCPOT, total local potential
   LVHAR        =      T    write LOCPOT, Hartree potential only
   LELF         =      F    write electronic localiz. function (ELF)
   LORBIT       =     11    0 simple, 1 ext, 2 COOP (PROOUT), +10 PAW based schemes


 Dipole corrections
   LMONO  =      F    monopole corrections only (constant potential shift)
   LDIPOL =      F    correct potential (dipole corrections)
   IDIPOL =      0    1-x, 2-y, 3-z, 4-all directions 
   EPSILON=  1.0000000 bulk dielectric constant

 Exchange correlation treatment:
   GGA     =    PE    GGA type
   LEXCH   =     8    internal setting for exchange type
   VOSKOWN=      0    Vosko Wilk Nusair interpolation
   EXXOEP  =     0    0=HF, 1=EXX-LHF (local Hartree Fock) 2=EXX OEP
   LHFCALC =     T    Hartree Fock is set to
   LSYMGRAD=     F    symmetrize gradient (conserves proper symmetry)
   PRECFOCK=fast      Normal, Fast or Accurate (Low or Medium for compatibility)
   LRHFCALC=     F    long range Hartree Fock
   LRSCOR  =     F    long range correlation only (use DFT for short range part)
   LTHOMAS =     F    Thomas Fermi screening in HF
   LMODELHF=     F    short range full HF, long range fraction AEXX
   LFOCKACE=     T    use Adeptively-Compressed-Exchange operator
   ENCUT4O =  -1.0   cutoff for four orbital integrals eV
   LMAXFOCK=     4    L truncation for augmentation on plane wave grid
   LMAXFOCKAE=  -1    L truncation for all-electron charge restoration on plane wave grid
   NMAXFOCKAE=   1    number of basis functions for all-electron charge restoration
   LFOCKAEDFT=     F  apply the AE augmentation even for DFT
   NKREDX  =     1    reduce k-point grid by
   NKREDY  =     1    reduce k-point grid by
   NKREDZ  =     1    reduce k-point grid by
   SHIFTRED=     F    shift reduced grid of Gamma
   HFKIDENT=     F    idential grid for each k-point
   ODDONLY =     F    use only odd q-grid points
   EVENONLY=     F    use only even q-grid points
   HFALPHA =   -1.0000 decay constant for conv. correction
   MCALPHA =    0.0000 extent of test-charge in conv. correction in multipole expansion
   AEXX    =    0.2500 exact exchange contribution
   HFSCREEN=    0.2070 screening length (either q_TF or 0.3 A-1)
   HFSCREENC=   0.2070 screening length for correlation (either q_TF or 0.3 A-1)
   HFRCUT  =    0.0000 spherical cutoff for potential kernel
   ALDAX   =    0.7500 LDA exchange part
   AGGAX   =    0.7500 GGA exchange part
   ALDAC   =    1.0000 LDA correlation
   AGGAC   =    1.0000 GGA correlation
   ENCUTFOCK=  -1.0 apply spherical cutoff to Coloumb kernel
   NBANDSGWLOW=     1    first orbital included in HF term
   NBLOCK_FOCK=    64    blocking factor in FOCK_ACC
 Linear response parameters
   LEPSILON=     F    determine dielectric tensor
   LRPA    =     F    only Hartree local field effects (RPA)
   LNABLA  =     F    use nabla operator in PAW spheres
   LVEL    =     F    velocity operator in full k-point grid
   LINTERFAST=   F  fast interpolation
   KINTER  =     0    interpolate to denser k-point grid
   CSHIFT  =0.1000    complex shift for real part using Kramers Kronig
   OMEGAMAX=  -1.0    maximum frequency
   DEG_THRESHOLD= 0.2000000E-02 threshold for treating states as degnerate
   RTIME   =   -0.100 relaxation time in fs
  (WPLASMAI=    0.000 imaginary part of plasma frequency in eV, 0.658/RTIME)
   DFIELD  = 0.0000000 0.0000000 0.0000000 field for delta impulse in time
 
 Orbital magnetization related:
   ORBITALMAG=     F  switch on orbital magnetization
   LCHIMAG   =     F  perturbation theory with respect to B field
   DQ        =  0.001000  dq finite difference perturbation B field
   LLRAUG    =     F  two centre corrections for induced B field



--------------------------------------------------------------------------------------------------------


 conjugate gradient relaxation of ions
 charge density and potential will be updated during run
 spin polarized calculation
 Conjugate gradient for all bands (Freysoldt, et al. PRB 79, 241103 (2009))
 preconditioned conjugated gradient                                        
 perform sub-space diagonalisation
    before iterative eigenvector-optimisation
 modified Broyden-mixing scheme, WC =      100.0
 initial mixing is a Kerker type mixing with AMIX =  0.4000 and BMIX =      1.0000
 Hartree-type preconditioning will be used
 using additional bands           14
 reciprocal scheme for non local part
 use partial core corrections
 no Harris-corrections to forces 
 use gradient corrections 
 use of overlap-Matrix (Vanderbilt PP)
 Gauss-broadening in eV      SIGMA  =   0.05


--------------------------------------------------------------------------------------------------------


  energy-cutoff  :      520.00
  volume of cell :       95.14
      direct lattice vectors                 reciprocal lattice vectors
     5.455171050  0.000000040 -0.009984170     0.183169313 -0.183247590 -0.078131303
     2.727581600  2.728544940 -0.004992080    -0.000000003  0.366495707 -0.000000024
     2.724407170  0.000000430  6.387039390     0.000286329  0.000000000  0.156444929

  length of vectors
     5.455180187  3.858067365  6.943822189     0.270619986  0.366495707  0.156445191


 
 k-points in units of 2pi/SCALE and weight: # No comment                            
   0.00000000  0.00000000  0.00000000       0.005
   0.03052822 -0.03054126 -0.01302188       0.010
   0.06105644 -0.06108253 -0.02604377       0.010
   0.09158466 -0.09162379 -0.03906565       0.010
  -0.00000000  0.04581196 -0.00000000       0.010
   0.03052822  0.01527070 -0.01302189       0.010
   0.06105644 -0.01527057 -0.02604377       0.010
   0.09158466 -0.04581183 -0.03906565       0.021
  -0.06105644  0.10689449  0.02604376       0.010
  -0.03052822  0.07635323  0.01302188       0.010
  -0.00000000  0.09162393 -0.00000001       0.010
   0.03052822  0.06108266 -0.01302189       0.010
   0.06105644  0.03054140 -0.02604377       0.010
   0.09158466  0.00000013 -0.03906566       0.010
  -0.06105644  0.15270646  0.02604376       0.010
  -0.03052822  0.12216519  0.01302188       0.010
  -0.00000000  0.13743589 -0.00000001       0.010
   0.03052822  0.10689463 -0.01302189       0.010
   0.06105644  0.07635336 -0.02604378       0.010
  -0.06105644  0.19851842  0.02604376       0.010
  -0.03052822  0.16797716  0.01302188       0.010
  -0.00000000  0.18324785 -0.00000001       0.005
   0.03052822  0.15270659 -0.01302190       0.010
   0.06105644  0.12216532 -0.02604378       0.010
   0.00007158  0.00000000  0.03911123       0.010
   0.03059980 -0.03054126  0.02608935       0.010
   0.06112802 -0.06108253  0.01306746       0.010
   0.09165624 -0.09162379  0.00004558       0.021
  -0.06098486  0.06108253  0.06515500       0.010
  -0.03045664  0.03054127  0.05213312       0.010
   0.00007158  0.04581196  0.03911123       0.021
   0.03059980  0.01527070  0.02608935       0.010
   0.06112802 -0.01527057  0.01306746       0.010
   0.09165624 -0.04581183  0.00004558       0.021
  -0.06098486  0.10689449  0.06515500       0.010
  -0.03045664  0.07635323  0.05213311       0.010
   0.00007158  0.09162393  0.03911123       0.021
   0.03059980  0.06108266  0.02608934       0.010
   0.06112802  0.03054140  0.01306746       0.010
   0.09165624  0.00000013  0.00004557       0.010
  -0.06098486  0.15270646  0.06515499       0.010
  -0.03045664  0.12216519  0.05213311       0.010
   0.00007158  0.13743589  0.03911122       0.021
   0.03059980  0.10689463  0.02608934       0.010
   0.06112802  0.07635336  0.01306746       0.010
  -0.06098486  0.19851842  0.06515499       0.010
  -0.03045664  0.16797716  0.05213311       0.010
   0.00007158  0.18324785  0.03911122       0.010
   0.03059980  0.15270659  0.02608934       0.010
   0.06112802  0.12216532  0.01306745       0.010
  -0.06098486  0.24433038  0.06515499       0.010
  -0.03045664  0.21378912  0.05213310       0.010
   0.03059980 -0.16797716  0.02608936       0.010
   0.06112802 -0.19851842  0.01306747       0.010
   0.09165624 -0.22905969  0.00004559       0.021
  -0.06098485 -0.07635336  0.06515501       0.010
  -0.03045664 -0.10689463  0.05213312       0.010
   0.03059980 -0.12216519  0.02608935       0.010
   0.06112802 -0.15270646  0.01306747       0.010
   0.09165624 -0.18324772  0.00004559       0.010
  -0.06098485 -0.03054140  0.06515501       0.010
  -0.03045664 -0.06108266  0.05213312       0.010
   0.03059980 -0.07635323  0.02608935       0.010
   0.06112802 -0.10689449  0.01306747       0.010
  -0.06098485  0.01527057  0.06515500       0.010
  -0.03045664 -0.01527070  0.05213312       0.010
   0.00014316  0.00000000  0.07822246       0.005
   0.03067138 -0.03054126  0.06520058       0.010
   0.06119960 -0.06108253  0.05217870       0.010
   0.09172782 -0.09162379  0.03915681       0.010
   0.00014316  0.04581196  0.07822246       0.010
   0.03067138  0.01527070  0.06520058       0.010
   0.06119960 -0.01527057  0.05217869       0.010
   0.09172782 -0.04581183  0.03915681       0.021
  -0.06091327  0.10689449  0.10426623       0.010
  -0.03038505  0.07635323  0.09124435       0.010
   0.00014316  0.09162393  0.07822246       0.010
   0.03067138  0.06108266  0.06520057       0.010
   0.06119960  0.03054140  0.05217869       0.010
   0.09172782  0.00000013  0.03915681       0.010
  -0.06091327  0.15270646  0.10426623       0.010
  -0.03038506  0.12216519  0.09124434       0.010
   0.00014316  0.13743589  0.07822246       0.010
   0.03067138  0.10689463  0.06520057       0.010
   0.06119960  0.07635336  0.05217869       0.010
  -0.06091327  0.19851842  0.10426622       0.010
  -0.03038506  0.16797716  0.09124434       0.010
   0.00014316  0.18324785  0.07822245       0.005
   0.03067138  0.15270659  0.06520057       0.010
   0.06119960  0.12216532  0.05217869       0.010
 
 k-points in reciprocal lattice and weights: # No comment                            
   0.00000000  0.00000000  0.00000000       0.005
   0.16666667 -0.00000000  0.00000000       0.010
   0.33333333 -0.00000000 -0.00000000       0.010
   0.50000000 -0.00000000 -0.00000000       0.010
   0.00000000  0.12500000 -0.00000000       0.010
   0.16666667  0.12500000  0.00000000       0.010
   0.33333333  0.12500000  0.00000000       0.010
   0.50000000  0.12500000 -0.00000000       0.021
  -0.33333333  0.12500000  0.00000000       0.010
  -0.16666667  0.12500000  0.00000000       0.010
   0.00000000  0.25000000 -0.00000000       0.010
   0.16666667  0.25000000 -0.00000000       0.010
   0.33333333  0.25000000  0.00000000       0.010
   0.50000000  0.25000000 -0.00000000       0.010
  -0.33333333  0.25000000  0.00000000       0.010
  -0.16666667  0.25000000  0.00000000       0.010
   0.00000000  0.37500000 -0.00000000       0.010
   0.16666667  0.37500000 -0.00000000       0.010
   0.33333333  0.37500000  0.00000000       0.010
  -0.33333333  0.37500000  0.00000000       0.010
  -0.16666667  0.37500000  0.00000000       0.010
   0.00000000  0.50000000 -0.00000000       0.005
   0.16666667  0.50000000 -0.00000000       0.010
   0.33333333  0.50000000  0.00000000       0.010
   0.00000000  0.00000000  0.25000000       0.010
   0.16666667 -0.00000000  0.25000000       0.010
   0.33333333  0.00000000  0.25000000       0.010
   0.50000000 -0.00000000  0.25000000       0.021
  -0.33333333  0.00000000  0.25000000       0.010
  -0.16666667  0.00000000  0.25000000       0.010
   0.00000000  0.12500000  0.25000000       0.021
   0.16666667  0.12500000  0.25000000       0.010
   0.33333333  0.12500000  0.25000000       0.010
   0.50000000  0.12500000  0.25000000       0.021
  -0.33333333  0.12500000  0.25000000       0.010
  -0.16666667  0.12500000  0.25000000       0.010
   0.00000000  0.25000000  0.25000000       0.021
   0.16666667  0.25000000  0.25000000       0.010
   0.33333333  0.25000000  0.25000000       0.010
   0.50000000  0.25000000  0.25000000       0.010
  -0.33333333  0.25000000  0.25000000       0.010
  -0.16666667  0.25000000  0.25000000       0.010
  -0.00000000  0.37500000  0.25000000       0.021
   0.16666667  0.37500000  0.25000000       0.010
   0.33333333  0.37500000  0.25000000       0.010
  -0.33333333  0.37500000  0.25000000       0.010
  -0.16666667  0.37500000  0.25000000       0.010
  -0.00000000  0.50000000  0.25000000       0.010
   0.16666667  0.50000000  0.25000000       0.010
   0.33333333  0.50000000  0.25000000       0.010
  -0.33333333  0.50000000  0.25000000       0.010
  -0.16666667  0.50000000  0.25000000       0.010
   0.16666667 -0.37500000  0.25000000       0.010
   0.33333333 -0.37500000  0.25000000       0.010
   0.50000000 -0.37500000  0.25000000       0.021
  -0.33333333 -0.37500000  0.25000000       0.010
  -0.16666667 -0.37500000  0.25000000       0.010
   0.16666667 -0.25000000  0.25000000       0.010
   0.33333333 -0.25000000  0.25000000       0.010
   0.50000000 -0.25000000  0.25000000       0.010
  -0.33333333 -0.25000000  0.25000000       0.010
  -0.16666667 -0.25000000  0.25000000       0.010
   0.16666667 -0.12500000  0.25000000       0.010
   0.33333333 -0.12500000  0.25000000       0.010
  -0.33333333 -0.12500000  0.25000000       0.010
  -0.16666667 -0.12500000  0.25000000       0.010
   0.00000000  0.00000000  0.50000000       0.005
   0.16666667 -0.00000000  0.50000000       0.010
   0.33333333 -0.00000000  0.50000000       0.010
   0.50000000 -0.00000000  0.50000000       0.010
   0.00000000  0.12500000  0.50000000       0.010
   0.16666667  0.12500000  0.50000000       0.010
   0.33333333  0.12500000  0.50000000       0.010
   0.50000000  0.12500000  0.50000000       0.021
  -0.33333333  0.12500000  0.50000000       0.010
  -0.16666667  0.12500000  0.50000000       0.010
   0.00000000  0.25000000  0.50000000       0.010
   0.16666667  0.25000000  0.50000000       0.010
   0.33333333  0.25000000  0.50000000       0.010
   0.50000000  0.25000000  0.50000000       0.010
  -0.33333333  0.25000000  0.50000000       0.010
  -0.16666667  0.25000000  0.50000000       0.010
  -0.00000000  0.37500000  0.50000000       0.010
   0.16666667  0.37500000  0.50000000       0.010
   0.33333333  0.37500000  0.50000000       0.010
  -0.33333333  0.37500000  0.50000000       0.010
  -0.16666667  0.37500000  0.50000000       0.010
  -0.00000000  0.50000000  0.50000000       0.005
   0.16666667  0.50000000  0.50000000       0.010
   0.33333333  0.50000000  0.50000000       0.010
 
 position of ions in fractional coordinates (direct lattice) 
   0.05564950  0.39275692  0.99961726
   0.55159358  0.39275692  0.00038274
   0.05270239  0.89459623  0.00000000
   0.70316805  0.89229973  0.70021605
   0.40453222  0.89229973  0.29978395
   0.20399429  0.90492874  0.68037408
   0.89107697  0.90492874  0.31962592
 
 position of ions in cartesian coordinates  (Angst):
   4.09821852  1.07165534  6.38207853
   4.08135662  1.07165493 -0.00502330
   2.72758477  2.44094602 -0.00499209
   8.17739594  2.43468024  4.46083251
   5.45734632  2.43468006  1.90623855
   5.43470675  2.46913904  4.33902186
   8.20003542  2.46913891  2.02804920
 


--------------------------------------------------------------------------------------------------------


 k-point   1 :   0.0000 0.0000 0.0000  plane waves:    2541
 k-point   2 :   0.1667-0.0000 0.0000  plane waves:    2561
 k-point   3 :   0.3333-0.0000-0.0000  plane waves:    2570
 k-point   4 :   0.5000-0.0000-0.0000  plane waves:    2578
 k-point   5 :   0.0000 0.1250-0.0000  plane waves:    2546
 k-point   6 :   0.1667 0.1250 0.0000  plane waves:    2555
 k-point   7 :   0.3333 0.1250 0.0000  plane waves:    2555
 k-point   8 :   0.5000 0.1250-0.0000  plane waves:    2563
 k-point   9 :  -0.3333 0.1250 0.0000  plane waves:    2567
 k-point  10 :  -0.1667 0.1250 0.0000  plane waves:    2544
 k-point  11 :   0.0000 0.2500-0.0000  plane waves:    2554
 k-point  12 :   0.1667 0.2500-0.0000  plane waves:    2550
 k-point  13 :   0.3333 0.2500 0.0000  plane waves:    2558
 k-point  14 :   0.5000 0.2500-0.0000  plane waves:    2563
 k-point  15 :  -0.3333 0.2500 0.0000  plane waves:    2561
 k-point  16 :  -0.1667 0.2500 0.0000  plane waves:    2557
 k-point  17 :   0.0000 0.3750-0.0000  plane waves:    2560
 k-point  18 :   0.1667 0.3750-0.0000  plane waves:    2553
 k-point  19 :   0.3333 0.3750 0.0000  plane waves:    2563
 k-point  20 :  -0.3333 0.3750 0.0000  plane waves:    2562
 k-point  21 :  -0.1667 0.3750 0.0000  plane waves:    2564
 k-point  22 :   0.0000 0.5000-0.0000  plane waves:    2572
 k-point  23 :   0.1667 0.5000-0.0000  plane waves:    2567
 k-point  24 :   0.3333 0.5000 0.0000  plane waves:    2563
 k-point  25 :   0.0000 0.0000 0.2500  plane waves:    2564
 k-point  26 :   0.1667-0.0000 0.2500  plane waves:    2563
 k-point  27 :   0.3333 0.0000 0.2500  plane waves:    2552
 k-point  28 :   0.5000-0.0000 0.2500  plane waves:    2563
 k-point  29 :  -0.3333 0.0000 0.2500  plane waves:    2568
 k-point  30 :  -0.1667 0.0000 0.2500  plane waves:    2556
 k-point  31 :   0.0000 0.1250 0.2500  plane waves:    2554
 k-point  32 :   0.1667 0.1250 0.2500  plane waves:    2550
 k-point  33 :   0.3333 0.1250 0.2500  plane waves:    2552
 k-point  34 :   0.5000 0.1250 0.2500  plane waves:    2554
 k-point  35 :  -0.3333 0.1250 0.2500  plane waves:    2568
 k-point  36 :  -0.1667 0.1250 0.2500  plane waves:    2567
 k-point  37 :   0.0000 0.2500 0.2500  plane waves:    2564
 k-point  38 :   0.1667 0.2500 0.2500  plane waves:    2558
 k-point  39 :   0.3333 0.2500 0.2500  plane waves:    2552
 k-point  40 :   0.5000 0.2500 0.2500  plane waves:    2556
 k-point  41 :  -0.3333 0.2500 0.2500  plane waves:    2557
 k-point  42 :  -0.1667 0.2500 0.2500  plane waves:    2559
 k-point  43 :  -0.0000 0.3750 0.2500  plane waves:    2575
 k-point  44 :   0.1667 0.3750 0.2500  plane waves:    2555
 k-point  45 :   0.3333 0.3750 0.2500  plane waves:    2552
 k-point  46 :  -0.3333 0.3750 0.2500  plane waves:    2556
 k-point  47 :  -0.1667 0.3750 0.2500  plane waves:    2569
 k-point  48 :  -0.0000 0.5000 0.2500  plane waves:    2576
 k-point  49 :   0.1667 0.5000 0.2500  plane waves:    2566
 k-point  50 :   0.3333 0.5000 0.2500  plane waves:    2564
 k-point  51 :  -0.3333 0.5000 0.2500  plane waves:    2565
 k-point  52 :  -0.1667 0.5000 0.2500  plane waves:    2563
 k-point  53 :   0.1667-0.3750 0.2500  plane waves:    2564
 k-point  54 :   0.3333-0.3750 0.2500  plane waves:    2569
 k-point  55 :   0.5000-0.3750 0.2500  plane waves:    2573
 k-point  56 :  -0.3333-0.3750 0.2500  plane waves:    2574
 k-point  57 :  -0.1667-0.3750 0.2500  plane waves:    2565
 k-point  58 :   0.1667-0.2500 0.2500  plane waves:    2564
 k-point  59 :   0.3333-0.2500 0.2500  plane waves:    2559
 k-point  60 :   0.5000-0.2500 0.2500  plane waves:    2575
 k-point  61 :  -0.3333-0.2500 0.2500  plane waves:    2566
 k-point  62 :  -0.1667-0.2500 0.2500  plane waves:    2567
 k-point  63 :   0.1667-0.1250 0.2500  plane waves:    2562
 k-point  64 :   0.3333-0.1250 0.2500  plane waves:    2564
 k-point  65 :  -0.3333-0.1250 0.2500  plane waves:    2565
 k-point  66 :  -0.1667-0.1250 0.2500  plane waves:    2549
 k-point  67 :   0.0000 0.0000 0.5000  plane waves:    2556
 k-point  68 :   0.1667-0.0000 0.5000  plane waves:    2555
 k-point  69 :   0.3333-0.0000 0.5000  plane waves:    2569
 k-point  70 :   0.5000-0.0000 0.5000  plane waves:    2568
 k-point  71 :   0.0000 0.1250 0.5000  plane waves:    2550
 k-point  72 :   0.1667 0.1250 0.5000  plane waves:    2553
 k-point  73 :   0.3333 0.1250 0.5000  plane waves:    2559
 k-point  74 :   0.5000 0.1250 0.5000  plane waves:    2564
 k-point  75 :  -0.3333 0.1250 0.5000  plane waves:    2564
 k-point  76 :  -0.1667 0.1250 0.5000  plane waves:    2576
 k-point  77 :   0.0000 0.2500 0.5000  plane waves:    2576
 k-point  78 :   0.1667 0.2500 0.5000  plane waves:    2568
 k-point  79 :   0.3333 0.2500 0.5000  plane waves:    2567
 k-point  80 :   0.5000 0.2500 0.5000  plane waves:    2565
 k-point  81 :  -0.3333 0.2500 0.5000  plane waves:    2566
 k-point  82 :  -0.1667 0.2500 0.5000  plane waves:    2561
 k-point  83 :  -0.0000 0.3750 0.5000  plane waves:    2570
 k-point  84 :   0.1667 0.3750 0.5000  plane waves:    2561
 k-point  85 :   0.3333 0.3750 0.5000  plane waves:    2571
 k-point  86 :  -0.3333 0.3750 0.5000  plane waves:    2557
 k-point  87 :  -0.1667 0.3750 0.5000  plane waves:    2569
 k-point  88 :  -0.0000 0.5000 0.5000  plane waves:    2566
 k-point  89 :   0.1667 0.5000 0.5000  plane waves:    2564
 k-point  90 :   0.3333 0.5000 0.5000  plane waves:    2559

 maximum and minimum number of plane-waves per node :      2578     2541

 maximum number of plane-waves:      2578
 maximum index in each direction: 
   IXMAX=   10   IYMAX=    7   IZMAX=   12
   IXMIN=  -10   IYMIN=   -7   IZMIN=  -13


 serial   3D FFT for wavefunctions
 parallel 3D FFT for charge:
    minimum data exchange during FFTs selected (reduces bandwidth)


 FFT grid for exact exchange (Hartree Fock) 
  NGX = 28; NGY = 18; NGZ = 32

 
 Radii for the augmentation spheres in the non-local exchange
 for species   1 augmentation radius   0.956 (default was   0.708)
       energy cutoff for augmentation   2080.0
 for species   2 augmentation radius   0.974 (default was   0.722)
       energy cutoff for augmentation   2080.0
 for species   3 augmentation radius   1.309 (default was   0.970)
       energy cutoff for augmentation   2080.0
 for species   4 augmentation radius   1.283 (default was   0.950)
       energy cutoff for augmentation   2080.0
 Maximum index for augmentation-charges in exchange         1587
  SETUP_FOCK is finished

 total amount of memory used by VASP MPI-rank0   418574. kBytes
=======================================================================

   base      :      30000. kBytes
   nonl-proj :     134036. kBytes
   fftplans  :       4927. kBytes
   grid      :      18748. kBytes
   one-center:        217. kBytes
   HF        :        259. kBytes
   nonlr-proj:       1256. kBytes
   wavefun   :     229131. kBytes
 
     INWAV:  cpu time    0.0000: real time    0.0000
 Broyden mixing: mesh for mixing (old mesh)
   NGX = 21   NGY = 15   NGZ = 25
  (NGX  = 84   NGY  = 60   NGZ  =108)
  gives a total of   7875 points

 initial charge density was supplied:
 charge density of overlapping atoms calculated
 number of electron      52.0000000 magnetization      13.0000000
 keeping initial charge density in first step


--------------------------------------------------------------------------------------------------------


 Maximum index for augmentation-charges         5466 (set IRDMAX)


--------------------------------------------------------------------------------------------------------


 First call to EWALD:  gamma=   0.388
 Maximum number of real-space cells 3x 4x 2
 Maximum number of reciprocal cells 3x 2x 4

    FEWALD:  cpu time    0.0011: real time    0.0012


--------------------------------------- Iteration      1(   1)  ---------------------------------------


    POTLOK:  cpu time    0.1618: real time    0.1622
    SETDIJ:  cpu time    0.5589: real time    0.5605
    TRIAL :  cpu time    0.6140: real time    0.6265
    CORREC:  cpu time    0.0021: real time    0.0023
    --------------------------------------------
      LOOP:  cpu time    1.4003: real time    1.4161

 eigenvalue-minimisations  : 14568
 total energy-change (2. order) :-0.4420422E+03  (-0.2869582E+04)
 number of electron      52.0000000 magnetization      13.0000000
 augmentation part       52.0000000 magnetization      13.0000000

 Free energy of the ion-electron system (eV)
  ---------------------------------------------------
  alpha Z        PSCENC =       146.41092830
  Ewald energy   TEWEN  =     -3844.91069913
  -Hartree energ DENC   =     -1998.73909108
  -exchange      EXHF   =         0.00000000
  -V(xc)+E(xc)   XCENC  =       223.14461880
  PAW double counting   =      4938.69810083    -5997.78782194
  entropy T*S    EENTRO =        -0.00261628
  eigenvalues    EBANDS =      -196.87104334
  atomic energy  EATOM  =      6288.01542772
  ---------------------------------------------------
  free energy    TOTEN  =      -442.04219613 eV

  energy without entropy =     -442.03957985  energy(sigma->0) =     -442.04088799
  exchange ACFDT corr.  =         0.00000000  see jH, gK, PRB 81, 115126


--------------------------------------------------------------------------------------------------------




--------------------------------------- Iteration      1(   2)  ---------------------------------------


    TRIAL :  cpu time    0.6365: real time    0.6381
    CORREC:  cpu time    0.0019: real time    0.0021
    --------------------------------------------
      LOOP:  cpu time    0.6395: real time    0.6450

 eigenvalue-minimisations  : 14464
 total energy-change (2. order) :-0.5367722E+03  (-0.5014412E+03)
 number of electron      52.0000000 magnetization      13.0000000
 augmentation part       52.0000000 magnetization      13.0000000

 Free energy of the ion-electron system (eV)
  ---------------------------------------------------
  alpha Z        PSCENC =       146.41092830
  Ewald energy   TEWEN  =     -3844.91069913
  -Hartree energ DENC   =     -1998.73909108
  -exchange      EXHF   =         0.00000000
  -V(xc)+E(xc)   XCENC  =       223.14461880
  PAW double counting   =      4938.69810083    -5997.78782194
  entropy T*S    EENTRO =        -0.00528765
  eigenvalues    EBANDS =      -733.64061875
  atomic energy  EATOM  =      6288.01542772
  ---------------------------------------------------
  free energy    TOTEN  =      -978.81444290 eV

  energy without entropy =     -978.80915526  energy(sigma->0) =     -978.81179908
  exchange ACFDT corr.  =         0.00000000  see jH, gK, PRB 81, 115126


--------------------------------------------------------------------------------------------------------




--------------------------------------- Iteration      1(   3)  ---------------------------------------


    TRIAL :  cpu time    0.6820: real time    0.6848
    CORREC:  cpu time    0.0019: real time    0.0021
    --------------------------------------------
      LOOP:  cpu time    0.6847: real time    0.6915

 eigenvalue-minimisations  : 17840
 total energy-change (2. order) :-0.5332073E+02  (-0.5210167E+02)
 number of electron      52.0000000 magnetization      13.0000000
 augmentation part       52.0000000 magnetization      13.0000000

 Free energy of the ion-electron system (eV)
  ---------------------------------------------------
  alpha Z        PSCENC =       146.41092830
  Ewald energy   TEWEN  =     -3844.91069913
  -Hartree energ DENC   =     -1998.73909108
  -exchange      EXHF   =         0.00000000
  -V(xc)+E(xc)   XCENC  =       223.14461880
  PAW double counting   =      4938.69810083    -5997.78782194
  entropy T*S    EENTRO =        -0.00701419
  eigenvalues    EBANDS =      -786.95962508
  atomic energy  EATOM  =      6288.01542772
  ---------------------------------------------------
  free energy    TOTEN  =     -1032.13517578 eV

  energy without entropy =    -1032.12816158  energy(sigma->0) =    -1032.13166868
  exchange ACFDT corr.  =         0.00000000  see jH, gK, PRB 81, 115126


--------------------------------------------------------------------------------------------------------




--------------------------------------- Iteration      1(   4)  ---------------------------------------


    TRIAL :  cpu time    0.9039: real time    0.9061
    CORREC:  cpu time    0.0020: real time    0.0022
    --------------------------------------------
      LOOP:  cpu time    0.9068: real time    0.9129

 eigenvalue-minimisations  : 24352
 total energy-change (2. order) :-0.5604039E+01  (-0.5537393E+01)
 number of electron      52.0000000 magnetization      13.0000000
 augmentation part       52.0000000 magnetization      13.0000000

 Free energy of the ion-electron system (eV)
  ---------------------------------------------------
  alpha Z        PSCENC =       146.41092830
  Ewald energy   TEWEN  =     -3844.91069913
  -Hartree energ DENC   =     -1998.73909108
  -exchange      EXHF   =         0.00000000
  -V(xc)+E(xc)   XCENC  =       223.14461880
  PAW double counting   =      4938.69810083    -5997.78782194
  entropy T*S    EENTRO =        -0.00682107
  eigenvalues    EBANDS =      -792.56385698
  atomic energy  EATOM  =      6288.01542772
  ---------------------------------------------------
  free energy    TOTEN  =     -1037.73921455 eV

  energy without entropy =    -1037.73239348  energy(sigma->0) =    -1037.73580402
  exchange ACFDT corr.  =         0.00000000  see jH, gK, PRB 81, 115126


--------------------------------------------------------------------------------------------------------




--------------------------------------- Iteration      1(   5)  ---------------------------------------


    POTLOK:  cpu time    0.3734: real time    0.3743
    SETDIJ:  cpu time    1.1006: real time    1.1033
    TRIAL :  cpu time  224.1845: real time  224.7531
    CORREC:  cpu time    0.0020: real time    0.0022
    CHARGE:  cpu time    0.0964: real time    0.0966
    --------------------------------------------
      LOOP:  cpu time  225.7578: real time  226.3345

 eigenvalue-minimisations  : 15912
 total energy-change (2. order) : 0.9768804E+03  (-0.2134268E+01)
 number of electron      51.9999997 magnetization       8.8835210
 augmentation part       16.6654992 magnetization       5.9780072

 Free energy of the ion-electron system (eV)
  ---------------------------------------------------
  alpha Z        PSCENC =       146.41092830
  Ewald energy   TEWEN  =     -3844.91069913
  -Hartree energ DENC   =     -1998.73909108
  -exchange      EXHF   =       150.78191372
  -V(xc)+E(xc)   XCENC  =       169.59421160
  PAW double counting   =      4989.88121052    -5163.55587194
  entropy T*S    EENTRO =        -0.00306227
  eigenvalues    EBANDS =      -798.33382997
  atomic energy  EATOM  =      6288.01542772
  ---------------------------------------------------
  free energy    TOTEN  =       -60.85886253 eV

  energy without entropy =      -60.85580026  energy(sigma->0) =      -60.85733139
  exchange ACFDT corr.  =        -0.01036277  see jH, gK, PRB 81, 115126


--------------------------------------------------------------------------------------------------------




--------------------------------------- Iteration      1(   6)  ---------------------------------------


    POTLOK:  cpu time    0.3657: real time    0.3665
    SETDIJ:  cpu time    1.0974: real time    1.1000
    TRIAL :  cpu time  222.6496: real time  223.2114
    CORREC:  cpu time  223.7618: real time  224.3320
    CHARGE:  cpu time    0.0927: real time    0.0929
    --------------------------------------------
      LOOP:  cpu time  447.9682: real time  449.1067

 eigenvalue-minimisations  :     0
 total energy-change (2. order) : 0.3884638E+02  (-0.2309320E+02)
 number of electron      51.9999996 magnetization       8.2076124
 augmentation part       18.0962158 magnetization       6.0982944

 Free energy of the ion-electron system (eV)
  ---------------------------------------------------
  alpha Z        PSCENC =       146.41092830
  Ewald energy   TEWEN  =     -3844.91069913
  -Hartree energ DENC   =     -1723.80564323
  -exchange      EXHF   =       148.30356013
  -V(xc)+E(xc)   XCENC  =       165.20044062
  PAW double counting   =      5758.08461134    -5921.38577710
  entropy T*S    EENTRO =        -0.00300279
  eigenvalues    EBANDS =     -1037.92226803
  atomic energy  EATOM  =      6288.01542772
  ---------------------------------------------------
  free energy    TOTEN  =       -22.01248166 eV

  energy without entropy =      -22.00947887  energy(sigma->0) =      -22.01098027
  exchange ACFDT corr.  =        -0.00108880  see jH, gK, PRB 81, 115126


--------------------------------------------------------------------------------------------------------




--------------------------------------- Iteration      1(   7)  ---------------------------------------


    POTLOK:  cpu time    0.3613: real time    0.3621
    SETDIJ:  cpu time    1.0864: real time    1.0891
    TRIAL :  cpu time  223.2875: real time  223.8516
    CORREC:  cpu time  221.7419: real time  222.3018
    CHARGE:  cpu time    0.0918: real time    0.0920
    --------------------------------------------
      LOOP:  cpu time  446.5743: real time  447.7032

 eigenvalue-minimisations  :     0
 total energy-change (2. order) :-0.2308634E+02  (-0.4021917E+01)
 number of electron      51.9999996 magnetization       8.0303895
 augmentation part       17.9243413 magnetization       5.9667293

 Free energy of the ion-electron system (eV)
  ---------------------------------------------------
  alpha Z        PSCENC =       146.41092830
  Ewald energy   TEWEN  =     -3844.91069913
  -Hartree energ DENC   =     -1912.85752235
  -exchange      EXHF   =       149.12941848
  -V(xc)+E(xc)   XCENC  =       169.23498910
  PAW double counting   =      6467.65124656    -6666.35378684
  entropy T*S    EENTRO =        -0.00432598
  eigenvalues    EBANDS =      -841.41582277
  atomic energy  EATOM  =      6288.01542772
  ---------------------------------------------------
  free energy    TOTEN  =       -45.09882373 eV

  energy without entropy =      -45.09449775  energy(sigma->0) =      -45.09666074
  exchange ACFDT corr.  =        -0.07083260  see jH, gK, PRB 81, 115126


--------------------------------------------------------------------------------------------------------




--------------------------------------- Iteration      1(   8)  ---------------------------------------


    POTLOK:  cpu time    0.3622: real time    0.3630
    SETDIJ:  cpu time    1.0766: real time    1.0793
    TRIAL :  cpu time  221.6257: real time  222.1863
    CORREC:  cpu time  221.3512: real time  221.9101
    CHARGE:  cpu time    0.0957: real time    0.0960
    --------------------------------------------
      LOOP:  cpu time  444.5170: real time  445.6415

 eigenvalue-minimisations  :     0
 total energy-change (2. order) :-0.4039211E+01  (-0.1412365E+01)
 number of electron      51.9999996 magnetization       7.9999998
 augmentation part       17.7304531 magnetization       5.7787741

 Free energy of the ion-electron system (eV)
  ---------------------------------------------------
  alpha Z        PSCENC =       146.41092830
  Ewald energy   TEWEN  =     -3844.91069913
  -Hartree energ DENC   =     -1906.81165682
  -exchange      EXHF   =       147.85105682
  -V(xc)+E(xc)   XCENC  =       168.01620850
  PAW double counting   =      6602.00930324    -6792.37718899
  entropy T*S    EENTRO =        -0.00521590
  eigenvalues    EBANDS =      -857.33708885
  atomic energy  EATOM  =      6288.01542772
  ---------------------------------------------------
  free energy    TOTEN  =       -49.13803520 eV

  energy without entropy =      -49.13281930  energy(sigma->0) =      -49.13542725
  exchange ACFDT corr.  =        -0.04159428  see jH, gK, PRB 81, 115126


--------------------------------------------------------------------------------------------------------




--------------------------------------- Iteration      1(   9)  ---------------------------------------


    POTLOK:  cpu time    0.3651: real time    0.3661
    SETDIJ:  cpu time    1.0667: real time    1.0692
    TRIAL :  cpu time  221.0396: real time  221.5969
    CORREC:  cpu time  221.2400: real time  221.8098
    CHARGE:  cpu time    0.0920: real time    0.0922
    --------------------------------------------
      LOOP:  cpu time  443.8044: real time  444.9380

 eigenvalue-minimisations  :     0
 total energy-change (2. order) :-0.1421364E+01  (-0.7165151E+00)
 number of electron      51.9999996 magnetization       7.9999998
 augmentation part       17.8737533 magnetization       5.6388956

 Free energy of the ion-electron system (eV)
  ---------------------------------------------------
  alpha Z        PSCENC =       146.41092830
  Ewald energy   TEWEN  =     -3844.91069913
  -Hartree energ DENC   =     -1893.28986683
  -exchange      EXHF   =       147.18377004
  -V(xc)+E(xc)   XCENC  =       167.18870516
  PAW double counting   =      6491.21706936    -6673.00500064
  entropy T*S    EENTRO =        -0.00426808
  eigenvalues    EBANDS =      -879.36451756
  atomic energy  EATOM  =      6288.01542772
  ---------------------------------------------------
  free energy    TOTEN  =       -50.55939948 eV

  energy without entropy =      -50.55513141  energy(sigma->0) =      -50.55726544
  exchange ACFDT corr.  =        -0.05296596  see jH, gK, PRB 81, 115126


--------------------------------------------------------------------------------------------------------




--------------------------------------- Iteration      1(  10)  ---------------------------------------


    POTLOK:  cpu time    0.3645: real time    0.3656
    SETDIJ:  cpu time    1.0656: real time    1.0682
    TRIAL :  cpu time  220.4222: real time  220.9791
    CORREC:  cpu time  221.2474: real time  221.8125
    CHARGE:  cpu time    0.0872: real time    0.0876
    --------------------------------------------
      LOOP:  cpu time  443.1924: real time  444.3198

 eigenvalue-minimisations  :     0
 total energy-change (2. order) :-0.7136381E+00  (-0.2448708E+00)
 number of electron      51.9999996 magnetization       7.9999998
 augmentation part       17.9195994 magnetization       5.5756409

 Free energy of the ion-electron system (eV)
  ---------------------------------------------------
  alpha Z        PSCENC =       146.41092830
  Ewald energy   TEWEN  =     -3844.91069913
  -Hartree energ DENC   =     -1918.17873936
  -exchange      EXHF   =       147.24439717
  -V(xc)+E(xc)   XCENC  =       167.72678656
  PAW double counting   =      6451.17438419    -6635.59330098
  entropy T*S    EENTRO =        -0.00541905
  eigenvalues    EBANDS =      -853.15795402
  atomic energy  EATOM  =      6288.01542772
  ---------------------------------------------------
  free energy    TOTEN  =       -51.27303762 eV

  energy without entropy =      -51.26761858  energy(sigma->0) =      -51.27032810
  exchange ACFDT corr.  =        -0.10321946  see jH, gK, PRB 81, 115126


--------------------------------------------------------------------------------------------------------




--------------------------------------- Iteration      1(  11)  ---------------------------------------


    POTLOK:  cpu time    0.3608: real time    0.3617
    SETDIJ:  cpu time    1.0723: real time    1.0748
    TRIAL :  cpu time  220.6356: real time  221.1913
    CORREC:  cpu time  221.7164: real time  222.2769
    CHARGE:  cpu time    0.0876: real time    0.0880
    --------------------------------------------
      LOOP:  cpu time  443.8780: real time  444.9996

 eigenvalue-minimisations  :     0
 total energy-change (2. order) :-0.2378254E+00  (-0.8007032E-01)
 number of electron      51.9999996 magnetization       7.9999998
 augmentation part       17.8938081 magnetization       5.5509131

 Free energy of the ion-electron system (eV)
  ---------------------------------------------------
  alpha Z        PSCENC =       146.41092830
  Ewald energy   TEWEN  =     -3844.91069913
  -Hartree energ DENC   =     -1926.29908703
  -exchange      EXHF   =       147.12375695
  -V(xc)+E(xc)   XCENC  =       167.84552124
  PAW double counting   =      6403.74216495    -6589.14622163
  entropy T*S    EENTRO =        -0.00451328
  eigenvalues    EBANDS =      -844.28723540
  atomic energy  EATOM  =      6288.01542772
  ---------------------------------------------------
  free energy    TOTEN  =       -51.51086307 eV

  energy without entropy =      -51.50634980  energy(sigma->0) =      -51.50860643
  exchange ACFDT corr.  =        -0.07184066  see jH, gK, PRB 81, 115126


--------------------------------------------------------------------------------------------------------




--------------------------------------- Iteration      1(  12)  ---------------------------------------


    POTLOK:  cpu time    0.3590: real time    0.3599
    SETDIJ:  cpu time    1.0756: real time    1.0782
    TRIAL :  cpu time  220.1406: real time  220.6971
    CORREC:  cpu time  221.0394: real time  221.6084
    CHARGE:  cpu time    0.0883: real time    0.0885
    --------------------------------------------
      LOOP:  cpu time  442.7081: real time  443.8381

 eigenvalue-minimisations  :     0
 total energy-change (2. order) :-0.8068208E-01  (-0.3992937E-01)
 number of electron      51.9999996 magnetization       7.9999998
 augmentation part       17.8894274 magnetization       5.5396601

 Free energy of the ion-electron system (eV)
  ---------------------------------------------------
  alpha Z        PSCENC =       146.41092830
  Ewald energy   TEWEN  =     -3844.91069913
  -Hartree energ DENC   =     -1923.30974730
  -exchange      EXHF   =       146.95864707
  -V(xc)+E(xc)   XCENC  =       167.70779881
  PAW double counting   =      6359.52888965    -6544.05669040
  entropy T*S    EENTRO =        -0.00409796
  eigenvalues    EBANDS =      -847.93158659
  atomic energy  EATOM  =      6288.01542772
  ---------------------------------------------------
  free energy    TOTEN  =       -51.59154516 eV

  energy without entropy =      -51.58744720  energy(sigma->0) =      -51.58949618
  exchange ACFDT corr.  =        -0.04173115  see jH, gK, PRB 81, 115126


--------------------------------------------------------------------------------------------------------




--------------------------------------- Iteration      1(  13)  ---------------------------------------


    POTLOK:  cpu time    0.3662: real time    0.3673
    SETDIJ:  cpu time    1.1042: real time    1.1068
    TRIAL :  cpu time  219.7576: real time  220.3127
    CORREC:  cpu time  221.3107: real time  221.8843
    CHARGE:  cpu time    0.0873: real time    0.0875
    --------------------------------------------
      LOOP:  cpu time  442.6312: real time  443.7648

 eigenvalue-minimisations  :     0
 total energy-change (2. order) :-0.3886480E-01  (-0.2932949E-01)
 number of electron      51.9999996 magnetization       7.9999998
 augmentation part       17.8941411 magnetization       5.5307588

[...]
     19       2.1457      1.00000
     20       2.5067      1.00000
     21       4.1014      1.00000
     22       4.2303      1.00000
     23       7.8639      0.00000
     24       7.8911      0.00000
     25       8.2418      0.00000
     26       8.6162      0.00000
     27       8.8086      0.00000
     28       8.8605      0.00000
     29       9.2924      0.00000
     30      10.0295      0.00000
     31      11.5048      0.00000
     32      11.9880      0.00000
     33      12.4068      0.00000
     34      12.5838      0.00000
     35      13.2947      0.00000
     36      13.6747      0.00000
     37      14.4664      0.00000
     38      14.9559      0.00000
     39      15.2812      0.00000
     40      15.8141      0.00000

 k-point    85 :       0.3333    0.3750    0.5000
  band No.  band energies     occupation 
      1     -49.2012      1.00000
      2     -49.1993      1.00000
      3     -49.1659      1.00000
      4     -49.1640      1.00000
      5     -49.1638      1.00000
      6     -49.1623      1.00000
      7     -43.0514      1.00000
      8     -43.0294      1.00000
      9     -14.9459      1.00000
     10      -8.6532      1.00000
     11      -8.3135      1.00000
     12      -1.2361      1.00000
     13      -0.1185      1.00000
     14       0.0481      1.00000
     15       0.4908      1.00000
     16       0.9626      1.00000
     17       1.9505      1.00000
     18       2.4541      1.00000
     19       2.7064      1.00000
     20       2.8905      1.00000
     21       4.0200      1.00000
     22       4.1403      1.00000
     23       8.0740      0.00000
     24       8.1860      0.00000
     25       8.5395      0.00000
     26       8.6694      0.00000
     27       8.9814      0.00000
     28       9.3746      0.00000
     29       9.9129      0.00000
     30      10.0759      0.00000
     31      10.4104      0.00000
     32      10.9747      0.00000
     33      12.0107      0.00000
     34      12.8499      0.00000
     35      13.4602      0.00000
     36      13.5305      0.00000
     37      14.4673      0.00000
     38      14.7744      0.00000
     39      15.1938      0.00000
     40      16.2951      0.00000

 k-point    86 :      -0.3333    0.3750    0.5000
  band No.  band energies     occupation 
      1     -49.2006      1.00000
      2     -49.1994      1.00000
      3     -49.1667      1.00000
      4     -49.1659      1.00000
      5     -49.1635      1.00000
      6     -49.1625      1.00000
      7     -43.0466      1.00000
      8     -43.0332      1.00000
      9     -14.9906      1.00000
     10      -8.4703      1.00000
     11      -8.1021      1.00000
     12      -0.9859      1.00000
     13      -0.1841      1.00000
     14       0.0842      1.00000
     15       0.4062      1.00000
     16       0.7619      1.00000
     17       1.5896      1.00000
     18       2.1485      1.00000
     19       2.6305      1.00000
     20       2.7826      1.00000
     21       4.1176      1.00000
     22       4.2618      1.00000
     23       7.1673      0.00000
     24       7.7551      0.00000
     25       7.9447      0.00000
     26       8.3974      0.00000
     27       8.7738      0.00000
     28       9.0207      0.00000
     29       9.4807      0.00000
     30       9.7303      0.00000
     31      10.5406      0.00000
     32      11.5513      0.00000
     33      12.2715      0.00000
     34      13.5673      0.00000
     35      14.2199      0.00000
     36      14.3322      0.00000
     37      15.2029      0.00000
     38      15.2871      0.00000
     39      15.4962      0.00000
     40      16.3807      0.00000

 k-point    87 :      -0.1667    0.3750    0.5000
  band No.  band energies     occupation 
      1     -49.2001      1.00000
      2     -49.1997      1.00000
      3     -49.1675      1.00000
      4     -49.1667      1.00000
      5     -49.1633      1.00000
      6     -49.1627      1.00000
      7     -43.0410      1.00000
      8     -43.0381      1.00000
      9     -15.0152      1.00000
     10      -8.2916      1.00000
     11      -8.0586      1.00000
     12      -0.7045      1.00000
     13      -0.3176      1.00000
     14      -0.1212      1.00000
     15       0.4060      1.00000
     16       0.7277      1.00000
     17       1.5317      1.00000
     18       2.0421      1.00000
     19       2.5702      1.00000
     20       2.8726      1.00000
     21       4.1132      1.00000
     22       4.1510      1.00000
     23       6.8703      0.00000
     24       7.5090      0.00000
     25       7.7477      0.00000
     26       7.9063      0.00000
     27       8.7042      0.00000
     28       9.0590      0.00000
     29       9.3421      0.00000
     30       9.3737      0.00000
     31       9.8816      0.00000
     32      11.8759      0.00000
     33      12.8268      0.00000
     34      13.9399      0.00000
     35      14.3068      0.00000
     36      14.6077      0.00000
     37      15.0384      0.00000
     38      15.9095      0.00000
     39      16.4328      0.00000
     40      17.5263      0.00000

 k-point    88 :      -0.0000    0.5000    0.5000
  band No.  band energies     occupation 
      1     -49.1999      1.00000
      2     -49.1998      1.00000
      3     -49.1680      1.00000
      4     -49.1669      1.00000
      5     -49.1633      1.00000
      6     -49.1627      1.00000
      7     -43.0395      1.00000
      8     -43.0393      1.00000
      9     -15.0268      1.00000
     10      -8.2175      1.00000
     11      -8.0347      1.00000
     12      -0.4943      1.00000
     13      -0.4697      1.00000
     14      -0.0805      1.00000
     15       0.1964      1.00000
     16       1.1211      1.00000
     17       1.5820      1.00000
     18       1.6013      1.00000
     19       2.5081      1.00000
     20       3.0278      1.00000
     21       4.0845      1.00000
     22       4.0945      1.00000
     23       6.6873      0.00000
     24       7.3536      0.00000
     25       7.4644      0.00000
     26       7.8088      0.00000
     27       8.6159      0.00000
     28       9.0731      0.00000
     29       9.1509      0.00000
     30       9.3062      0.00000
     31       9.7191      0.00000
     32      12.4927      0.00000
     33      13.0727      0.00000
     34      13.6821      0.00000
     35      14.0562      0.00000
     36      14.4840      0.00000
     37      15.3973      0.00000
     38      16.3316      0.00000
     39      17.2636      0.00000
     40      17.4738      0.00000

 k-point    89 :       0.1667    0.5000    0.5000
  band No.  band energies     occupation 
      1     -49.2001      1.00000
      2     -49.1998      1.00000
      3     -49.1674      1.00000
      4     -49.1663      1.00000
      5     -49.1633      1.00000
      6     -49.1627      1.00000
      7     -43.0401      1.00000
      8     -43.0392      1.00000
      9     -15.0086      1.00000
     10      -8.2944      1.00000
     11      -8.1117      1.00000
     12      -0.8082      1.00000
     13      -0.3506      1.00000
     14      -0.1179      1.00000
     15       0.5280      1.00000
     16       0.9055      1.00000
     17       1.5968      1.00000
     18       1.9873      1.00000
     19       2.4583      1.00000
     20       2.7441      1.00000
     21       4.1337      1.00000
     22       4.1408      1.00000
     23       7.0427      0.00000
     24       7.6495      0.00000
     25       7.8927      0.00000
     26       8.0175      0.00000
     27       8.7199      0.00000
     28       9.0377      0.00000
     29       9.3545      0.00000
     30       9.4009      0.00000
     31      10.1060      0.00000
     32      11.9020      0.00000
     33      12.8086      0.00000
     34      13.6357      0.00000
     35      14.2519      0.00000
     36      14.4986      0.00000
     37      14.7491      0.00000
     38      15.7750      0.00000
     39      15.8807      0.00000
     40      17.5955      0.00000

 k-point    90 :       0.3333    0.5000    0.5000
  band No.  band energies     occupation 
      1     -49.2003      1.00000
      2     -49.2000      1.00000
      3     -49.1661      1.00000
      4     -49.1652      1.00000
      5     -49.1633      1.00000
      6     -49.1626      1.00000
      7     -43.0408      1.00000
      8     -43.0393      1.00000
      9     -14.9720      1.00000
     10      -8.4392      1.00000
     11      -8.2561      1.00000
     12      -1.3204      1.00000
     13      -0.3743      1.00000
     14       0.0509      1.00000
     15       0.8055      1.00000
     16       0.8255      1.00000
     17       1.9870      1.00000
     18       2.0212      1.00000
     19       2.5012      1.00000
     20       2.7883      1.00000
     21       4.1529      1.00000
     22       4.1798      1.00000
     23       7.7163      0.00000
     24       7.9246      0.00000
     25       8.5356      0.00000
     26       8.7372      0.00000
     27       8.8495      0.00000
     28       9.2336      0.00000
     29       9.6639      0.00000
     30       9.8209      0.00000
     31      11.3014      0.00000
     32      11.5552      0.00000
     33      11.8379      0.00000
     34      12.2191      0.00000
     35      13.1821      0.00000
     36      13.5696      0.00000
     37      14.6168      0.00000
     38      15.3422      0.00000
     39      15.7137      0.00000
     40      16.6581      0.00000


--------------------------------------------------------------------------------------------------------


 soft charge-density along one line, spin component           1
         0         1         2         3         4         5         6         7         8         9
 total charge-density along one line
 
 soft charge-density along one line, spin component           2
         0         1         2         3         4         5         6         7         8         9
 total charge-density along one line
 
 pseudopotential strength for first ion, spin component:           1
-34.724   4.883   0.000   0.000  -0.000
  4.883 -11.491   0.000   0.000   0.000
  0.000   0.000   0.022   0.000  -0.007
  0.000   0.000   0.000   0.028   0.000
 -0.000   0.000  -0.007   0.000   0.022
 pseudopotential strength for first ion, spin component:           2
-34.724   4.882   0.000   0.000  -0.000
  4.882 -11.491   0.000   0.000   0.000
  0.000   0.000   0.021   0.000  -0.007
  0.000   0.000   0.000   0.027   0.000
 -0.000   0.000  -0.007   0.000   0.021
 total augmentation occupancy for first ion, spin component:           1
  1.999  -0.026  -0.000  -0.000  -0.000
 -0.026   0.772   0.000  -0.000   0.001
 -0.000   0.000   0.041  -0.000   0.020
 -0.000  -0.000  -0.000   0.022  -0.000
 -0.000   0.001   0.020  -0.000   0.041
 total augmentation occupancy for first ion, spin component:           2
  0.000  -0.000   0.000  -0.000   0.000
 -0.000  -0.008   0.000   0.000   0.000
  0.000   0.000   0.000   0.000  -0.001
 -0.000   0.000   0.000  -0.000   0.000
  0.000   0.000  -0.001   0.000   0.000


------------------------ aborting loop because EDIFF is reached ----------------------------------------





 total charge

# of ion       s       p       d       tot
------------------------------------------
    1        2.025   0.073   0.000   2.098
    2        2.025   0.073   0.000   2.098
    3        1.553   3.555   0.000   5.108
    4        1.310   2.464   0.000   3.774
    5        1.310   2.464   0.000   3.774
    6        0.237   6.217   5.901  12.354
    7        0.237   6.217   5.901  12.354
--------------------------------------------------
tot          8.696  21.062  11.802  41.560



 magnetization (x)

# of ion       s       p       d       tot
------------------------------------------
    1       -0.000   0.000   0.000  -0.000
    2       -0.000   0.000   0.000  -0.000
    3        0.011   0.127   0.000   0.138
    4        0.019   0.098   0.000   0.118
    5        0.019   0.098   0.000   0.118
    6        0.037   0.025   3.566   3.627
    7        0.037   0.025   3.566   3.627
--------------------------------------------------
tot          0.122   0.374   7.131   7.627
 
    FORLOC:  cpu time    0.0083: real time    0.0083
    FORHF :  cpu time  420.6456: real time  421.7033
    FORNL :  cpu time    0.0803: real time    0.0806
    STRESS:  cpu time    1.0743: real time    1.0772
    FORCOR:  cpu time    0.3539: real time    0.3548
    OFIELD:  cpu time    0.0005: real time    0.0005

  FORCE on cell =-STRESS in cart. coord.  units (eV):
  Direction    XX          YY          ZZ          XY          YZ          ZX
  --------------------------------------------------------------------------------------
  Alpha Z   150.57232   150.57232   150.57232
  Ewald   -1490.72275 -1490.92939  -895.12999     0.00056     0.00001     6.05317
  Hartree   517.90753   517.70354   885.01448     0.00068     0.00004     4.94153
  E(xc)    -212.90655  -212.90680  -212.47435     0.00001    -0.00001     0.00293
  Local     115.44303   115.87136  -801.15015    -0.00056    -0.00016   -10.64265
  n-local   221.27408   221.28328   224.76468     0.31963    -0.02957    -0.05033
  augment   271.08235   271.07189   243.71501     0.00097    -0.00003    -0.28003
  Kinetic   666.40134   666.38198   631.80900     0.22750    -0.02035    -0.11784
  Fock     -239.04491  -239.04028  -227.13461     0.08186     0.00215     0.10801
  -------------------------------------------------------------------------------------
  Total       0.00643     0.00792    -0.01360    -0.00000    -0.00000     0.01477
  in kB       0.11141     0.13713    -0.23555    -0.00000    -0.00000     0.25579
  external pressure =        0.00 kB  Pullay stress =        0.00 kB


 VOLUME and BASIS-vectors are now :
 -----------------------------------------------------------------------------
  energy-cutoff  :      520.00
  volume of cell :       92.51
      direct lattice vectors                 reciprocal lattice vectors
     5.417755554  0.000000093 -0.007919702     0.184462327 -0.184503148 -0.079323572
     2.708873905  2.709977042 -0.003959850    -0.000000006  0.369006822 -0.000000024
     2.707965058  0.000000448  6.297213293     0.000231989  0.000000000  0.158700640

  length of vectors
     5.417761342  3.831708376  6.854777167     0.272690284  0.369006822  0.158700810


 FORCES acting on ions:
    Electron-Ion                     Ewald-Force                    Non-Local-Force
 -----------------------------------------------------------------------------------------------
   -.140E+01 0.366E+00 -.990E-01   0.142E+01 -.335E+00 0.998E-01   -.250E-01 -.291E-01 0.192E-02
   0.140E+01 0.366E+00 0.990E-01   -.142E+01 -.336E+00 -.998E-01   0.250E-01 -.291E-01 -.192E-02
   -.792E-03 0.393E+01 0.203E-04   0.130E-03 -.405E+01 -.129E-04   -.143E-06 0.100E+00 0.384E-10
   0.330E+01 -.432E+01 -.898E+02   -.335E+01 0.437E+01 0.902E+02   0.503E-01 -.408E-01 -.330E+00
   -.330E+01 -.432E+01 0.898E+02   0.335E+01 0.437E+01 -.902E+02   -.503E-01 -.408E-01 0.330E+00
   -.281E+01 0.238E+01 0.749E+02   0.270E+01 -.201E+01 -.736E+02   0.120E+00 -.355E+00 -.114E+01
   0.281E+01 0.238E+01 -.749E+02   -.270E+01 -.201E+01 0.736E+02   -.120E+00 -.355E+00 0.114E+01
 -----------------------------------------------------------------------------------------------
   -.700E-03 0.799E+00 -.710E-04   -.711E-14 0.888E-15 -.711E-13   0.107E-05 -.749E+00 -.287E-09
 
 
 POSITION                                       TOTAL-FORCE (eV/Angst)
 -----------------------------------------------------------------------------------
      4.07167      1.06444      6.29310        -0.003819      0.002698      0.002803
      4.05405      1.06444     -0.00380         0.003819      0.002698     -0.002803
      2.70888      2.42514     -0.00396        -0.000000      0.000072      0.000000
      8.12436      2.41818      4.39757         0.010737      0.003577      0.027546
      5.41911      2.41818      1.88380        -0.010737      0.003577     -0.027546
      5.40084      2.45179      4.28527         0.017335     -0.006311     -0.007996
      8.14263      2.45179      1.99610        -0.017335     -0.006311      0.007996
 -----------------------------------------------------------------------------------
    total drift:                               -0.000699     -0.000516     -0.000071


--------------------------------------------------------------------------------------------------------



  FREE ENERGIE OF THE ION-ELECTRON SYSTEM (eV)
  ---------------------------------------------------
  free  energy   TOTEN  =       -53.62537507 eV

  energy  without entropy=      -53.62537507  energy(sigma->0) =      -53.62537507
 
 d Force = 0.2694665E-03[ 0.183E-03, 0.356E-03]  d Energy = 0.2867582E-03-0.173E-04
 d Force = 0.3514605E+00[ 0.348E+00, 0.355E+00]  d Ewald  = 0.8123880E+00-0.461E+00


--------------------------------------------------------------------------------------------------------


    POTLOK:  cpu time    1.4352: real time    1.4388


--------------------------------------------------------------------------------------------------------


 Conjugate gradient step on ions:
 trial-energy change:   -0.000287  1 .order   -0.000279   -0.000368   -0.000189
  (g-gl).g = 0.369E-03      g.g   = 0.382E-03  gl.gl    = 0.649E-01
 g(Force)  = 0.371E-03   g(Stress)= 0.104E-04 ortho     = 0.127E-04
 gamma     =   0.00568
 trial     =   0.96485
 opt step  =   1.98573  (harmonic =   1.98573) maximal distance =0.00506442
 next E    =   -53.625467   (d E  =  -0.00038)


--------------------------------------------------------------------------------------------------------


  
 reached required accuracy - stopping structural energy minimisation
 writing wavefunctions
     LOOP+:  cpu time 4233.5085: real time 4244.3170
    4ORBIT:  cpu time    0.0000: real time    0.0000



 total charge

# of ion       s       p       d       tot
------------------------------------------
    1        2.025   0.073   0.000   2.098
    2        2.025   0.073   0.000   2.098
    3        1.553   3.555   0.000   5.108
    4        1.310   2.464   0.000   3.774
    5        1.310   2.464   0.000   3.774
    6        0.237   6.217   5.901  12.354
    7        0.237   6.217   5.901  12.354
--------------------------------------------------
tot          8.696  21.062  11.802  41.560



 magnetization (x)

# of ion       s       p       d       tot
------------------------------------------
    1       -0.000   0.000   0.000  -0.000
    2       -0.000   0.000   0.000  -0.000
    3        0.011   0.127   0.000   0.138
    4        0.019   0.098   0.000   0.118
    5        0.019   0.098   0.000   0.118
    6        0.037   0.025   3.566   3.627
    7        0.037   0.025   3.566   3.627
--------------------------------------------------
tot          0.122   0.374   7.131   7.627
 

 total amount of memory used by VASP MPI-rank0   451387. kBytes
=======================================================================

   base      :      30000. kBytes
   nonl-proj :     134036. kBytes
   fftplans  :       4927. kBytes
   grid      :      18748. kBytes
   one-center:        217. kBytes
   HF        :        259. kBytes
   nonlr-proj:      10031. kBytes
   wavefun   :     229131. kBytes
   fock_wrk  :      24038. kBytes
 
  
  
 General timing and accounting informations for this job:
 ========================================================
  
                  Total CPU time used (sec):    52939.734
                            User time (sec):    52906.011
                          System time (sec):       33.724
                         Elapsed time (sec):    53074.905
  
                   Maximum memory used (kb):      751676.
                   Average memory used (kb):          N/A
  
                          Minor page faults:      5236404
                          Major page faults:            6
                 Voluntary context switches:       498613
