  88  88   0   0
  0.1431748E+02  0.1111223E-08  0.1111745E-08  0.1056954E-08  0.5000000E-15
  1.000000000000000E-004
  CAR 
 unknown system                          
     17.93297048    -54.34339071  301      5.22437697      1.00000000
    -54.343  0.0000E+00  0.0000E+00  0.0000E+00  0.0000E+00
    -54.102  0.0000E+00  0.0000E+00  0.0000E+00  0.0000E+00
    -53.862  0.0000E+00  0.0000E+00  0.0000E+00  0.0000E+00
    -53.621  0.0000E+00  0.0000E+00  0.0000E+00  0.0000E+00
    -53.380  0.0000E+00  0.0000E+00  0.0000E+00  0.0000E+00
    -53.139  0.0000E+00  0.0000E+00  0.0000E+00  0.0000E+00
    -52.898  0.0000E+00  0.0000E+00  0.0000E+00  0.0000E+00
    -52.657  0.0000E+00  0.0000E+00  0.0000E+00  0.0000E+00
    -52.416  0.0000E+00  0.0000E+00  0.0000E+00  0.0000E+00
    -52.175  0.0000E+00  0.0000E+00  0.0000E+00  0.0000E+00
    -51.934  0.0000E+00  0.0000E+00  0.0000E+00  0.0000E+00
    -51.693  0.0000E+00  0.0000E+00  0.0000E+00  0.0000E+00
    -51.452  0.0000E+00  0.0000E+00  0.0000E+00  0.0000E+00
    -51.211  0.3192E-03  0.0000E+00  0.7690E-04  0.0000E+00
    -50.970  0.1307E+03  0.0000E+00  0.3149E+02  0.0000E+00
    -50.730  0.2131E+01  0.0000E+00  0.3200E+02  0.0000E+00
    -50.489  0.0000E+00  0.0000E+00  0.3200E+02  0.0000E+00
    -50.248  0.0000E+00  0.0000E+00  0.3200E+02  0.0000E+00
    -50.007  0.0000E+00  0.0000E+00  0.3200E+02  0.0000E+00
    -49.766  0.1861E+01  0.0000E+00  0.3245E+02  0.0000E+00
    -49.525  0.2357E+03  0.0000E+00  0.8924E+02  0.0000E+00
    -49.284  0.2807E+02  0.0000E+00  0.9600E+02  0.0000E+00
    -49.043  0.0000E+00  0.0000E+00  0.9600E+02  0.0000E+00
    -48.802  0.0000E+00  0.0000E+00  0.9600E+02  0.0000E+00
    -48.561  0.0000E+00  0.0000E+00  0.9600E+02  0.0000E+00
    -48.320  0.0000E+00  0.0000E+00  0.9600E+02  0.0000E+00
    -48.079  0.0000E+00  0.0000E+00  0.9600E+02  0.0000E+00
    -47.839  0.0000E+00  0.0000E+00  0.9600E+02  0.0000E+00
    -47.598  0.0000E+00  0.0000E+00  0.9600E+02  0.0000E+00
    -47.357  0.0000E+00  0.0000E+00  0.9600E+02  0.0000E+00
    -47.116  0.0000E+00  0.0000E+00  0.9600E+02  0.0000E+00
    -46.875  0.0000E+00  0.0000E+00  0.9600E+02  0.0000E+00
    -46.634  0.0000E+00  0.0000E+00  0.9600E+02  0.0000E+00
    -46.393  0.0000E+00  0.3900E+00  0.9600E+02  0.9397E-01
    -46.152  0.0000E+00  0.1324E+03  0.9600E+02  0.3199E+02
    -45.911  0.0000E+00  0.6120E+02  0.9600E+02  0.4674E+02
    -45.670  0.0000E+00  0.2045E+03  0.9600E+02  0.9600E+02
    -45.429  0.0000E+00  0.0000E+00  0.9600E+02  0.9600E+02
    -45.188  0.0000E+00  0.0000E+00  0.9600E+02  0.9600E+02
    -44.947  0.0000E+00  0.0000E+00  0.9600E+02  0.9600E+02
    -44.707  0.0000E+00  0.0000E+00  0.9600E+02  0.9600E+02
    -44.466  0.0000E+00  0.0000E+00  0.9600E+02  0.9600E+02
    -44.225  0.0000E+00  0.0000E+00  0.9600E+02  0.9600E+02
    -43.984  0.0000E+00  0.0000E+00  0.9600E+02  0.9600E+02
    -43.743  0.0000E+00  0.0000E+00  0.9600E+02  0.9600E+02
    -43.502  0.0000E+00  0.0000E+00  0.9600E+02  0.9600E+02
    -43.261  0.0000E+00  0.0000E+00  0.9600E+02  0.9600E+02
    -43.020  0.0000E+00  0.0000E+00  0.9600E+02  0.9600E+02
    -42.779  0.0000E+00  0.0000E+00  0.9600E+02  0.9600E+02
    -42.538  0.0000E+00  0.0000E+00  0.9600E+02  0.9600E+02
    -42.297  0.0000E+00  0.0000E+00  0.9600E+02  0.9600E+02
    -42.056  0.0000E+00  0.0000E+00  0.9600E+02  0.9600E+02
    -41.815  0.0000E+00  0.0000E+00  0.9600E+02  0.9600E+02
    -41.575  0.0000E+00  0.0000E+00  0.9600E+02  0.9600E+02
    -41.334  0.0000E+00  0.0000E+00  0.9600E+02  0.9600E+02
    -41.093  0.0000E+00  0.0000E+00  0.9600E+02  0.9600E+02
    -40.852  0.0000E+00  0.0000E+00  0.9600E+02  0.9600E+02
    -40.611  0.0000E+00  0.0000E+00  0.9600E+02  0.9600E+02
    -40.370  0.0000E+00  0.0000E+00  0.9600E+02  0.9600E+02
    -40.129  0.1435E-10  0.8814E-11  0.9600E+02  0.9600E+02
    -39.888  0.2206E+02  0.2050E+02  0.1013E+03  0.1009E+03
    -39.647  0.4435E+02  0.4591E+02  0.1120E+03  0.1120E+03
    -39.406  0.0000E+00  0.0000E+00  0.1120E+03  0.1120E+03
    -39.165  0.0000E+00  0.0000E+00  0.1120E+03  0.1120E+03
    -38.924  0.0000E+00  0.0000E+00  0.1120E+03  0.1120E+03
    -38.684  0.0000E+00  0.0000E+00  0.1120E+03  0.1120E+03
    -38.443  0.0000E+00  0.0000E+00  0.1120E+03  0.1120E+03
    -38.202  0.0000E+00  0.0000E+00  0.1120E+03  0.1120E+03
    -37.961  0.0000E+00  0.0000E+00  0.1120E+03  0.1120E+03
    -37.720  0.0000E+00  0.0000E+00  0.1120E+03  0.1120E+03
    -37.479  0.0000E+00  0.0000E+00  0.1120E+03  0.1120E+03
    -37.238  0.0000E+00  0.0000E+00  0.1120E+03  0.1120E+03
    -36.997  0.0000E+00  0.0000E+00  0.1120E+03  0.1120E+03
    -36.756  0.0000E+00  0.0000E+00  0.1120E+03  0.1120E+03
    -36.515  0.0000E+00  0.0000E+00  0.1120E+03  0.1120E+03
    -36.274  0.0000E+00  0.0000E+00  0.1120E+03  0.1120E+03
    -36.033  0.0000E+00  0.0000E+00  0.1120E+03  0.1120E+03
    -35.792  0.0000E+00  0.0000E+00  0.1120E+03  0.1120E+03
    -35.552  0.0000E+00  0.0000E+00  0.1120E+03  0.1120E+03
    -35.311  0.0000E+00  0.0000E+00  0.1120E+03  0.1120E+03
    -35.070  0.0000E+00  0.0000E+00  0.1120E+03  0.1120E+03
    -34.829  0.0000E+00  0.0000E+00  0.1120E+03  0.1120E+03
    -34.588  0.0000E+00  0.0000E+00  0.1120E+03  0.1120E+03
    -34.347  0.0000E+00  0.0000E+00  0.1120E+03  0.1120E+03
    -34.106  0.0000E+00  0.0000E+00  0.1120E+03  0.1120E+03
    -33.865  0.0000E+00  0.0000E+00  0.1120E+03  0.1120E+03
    -33.624  0.0000E+00  0.0000E+00  0.1120E+03  0.1120E+03
    -33.383  0.0000E+00  0.0000E+00  0.1120E+03  0.1120E+03
    -33.142  0.0000E+00  0.0000E+00  0.1120E+03  0.1120E+03
    -32.901  0.0000E+00  0.0000E+00  0.1120E+03  0.1120E+03
    -32.660  0.0000E+00  0.0000E+00  0.1120E+03  0.1120E+03
    -32.420  0.0000E+00  0.0000E+00  0.1120E+03  0.1120E+03
    -32.179  0.0000E+00  0.0000E+00  0.1120E+03  0.1120E+03
    -31.938  0.0000E+00  0.0000E+00  0.1120E+03  0.1120E+03
    -31.697  0.0000E+00  0.0000E+00  0.1120E+03  0.1120E+03
    -31.456  0.0000E+00  0.0000E+00  0.1120E+03  0.1120E+03
    -31.215  0.0000E+00  0.0000E+00  0.1120E+03  0.1120E+03
    -30.974  0.0000E+00  0.0000E+00  0.1120E+03  0.1120E+03
    -30.733  0.0000E+00  0.0000E+00  0.1120E+03  0.1120E+03
    -30.492  0.0000E+00  0.0000E+00  0.1120E+03  0.1120E+03
    -30.251  0.0000E+00  0.0000E+00  0.1120E+03  0.1120E+03
    -30.010  0.0000E+00  0.0000E+00  0.1120E+03  0.1120E+03
    -29.769  0.0000E+00  0.0000E+00  0.1120E+03  0.1120E+03
    -29.529  0.0000E+00  0.0000E+00  0.1120E+03  0.1120E+03
    -29.288  0.0000E+00  0.0000E+00  0.1120E+03  0.1120E+03
    -29.047  0.0000E+00  0.0000E+00  0.1120E+03  0.1120E+03
    -28.806  0.0000E+00  0.0000E+00  0.1120E+03  0.1120E+03
    -28.565  0.0000E+00  0.0000E+00  0.1120E+03  0.1120E+03
    -28.324  0.0000E+00  0.0000E+00  0.1120E+03  0.1120E+03
    -28.083  0.0000E+00  0.0000E+00  0.1120E+03  0.1120E+03
    -27.842  0.0000E+00  0.0000E+00  0.1120E+03  0.1120E+03
    -27.601  0.0000E+00  0.0000E+00  0.1120E+03  0.1120E+03
    -27.360  0.0000E+00  0.0000E+00  0.1120E+03  0.1120E+03
    -27.119  0.0000E+00  0.0000E+00  0.1120E+03  0.1120E+03
    -26.878  0.0000E+00  0.0000E+00  0.1120E+03  0.1120E+03
    -26.637  0.0000E+00  0.0000E+00  0.1120E+03  0.1120E+03
    -26.397  0.0000E+00  0.0000E+00  0.1120E+03  0.1120E+03
    -26.156  0.0000E+00  0.0000E+00  0.1120E+03  0.1120E+03
    -25.915  0.0000E+00  0.0000E+00  0.1120E+03  0.1120E+03
    -25.674  0.0000E+00  0.0000E+00  0.1120E+03  0.1120E+03
    -25.433  0.0000E+00  0.0000E+00  0.1120E+03  0.1120E+03
    -25.192  0.0000E+00  0.0000E+00  0.1120E+03  0.1120E+03
    -24.951  0.0000E+00  0.0000E+00  0.1120E+03  0.1120E+03
    -24.710  0.0000E+00  0.0000E+00  0.1120E+03  0.1120E+03
    -24.469  0.0000E+00  0.0000E+00  0.1120E+03  0.1120E+03
    -24.228  0.0000E+00  0.0000E+00  0.1120E+03  0.1120E+03
    -23.987  0.0000E+00  0.0000E+00  0.1120E+03  0.1120E+03
    -23.746  0.0000E+00  0.0000E+00  0.1120E+03  0.1120E+03
    -23.505  0.0000E+00  0.0000E+00  0.1120E+03  0.1120E+03
    -23.265  0.0000E+00  0.0000E+00  0.1120E+03  0.1120E+03
    -23.024  0.0000E+00  0.0000E+00  0.1120E+03  0.1120E+03
    -22.783  0.0000E+00  0.0000E+00  0.1120E+03  0.1120E+03
    -22.542  0.0000E+00  0.0000E+00  0.1120E+03  0.1120E+03
    -22.301  0.0000E+00  0.0000E+00  0.1120E+03  0.1120E+03
    -22.060  0.0000E+00  0.0000E+00  0.1120E+03  0.1120E+03
    -21.819  0.0000E+00  0.0000E+00  0.1120E+03  0.1120E+03
    -21.578  0.0000E+00  0.0000E+00  0.1120E+03  0.1120E+03
    -21.337  0.0000E+00  0.0000E+00  0.1120E+03  0.1120E+03
    -21.096  0.0000E+00  0.0000E+00  0.1120E+03  0.1120E+03
    -20.855  0.0000E+00  0.0000E+00  0.1120E+03  0.1120E+03
    -20.614  0.0000E+00  0.0000E+00  0.1120E+03  0.1120E+03
    -20.374  0.0000E+00  0.0000E+00  0.1120E+03  0.1120E+03
    -20.133  0.0000E+00  0.0000E+00  0.1120E+03  0.1120E+03
    -19.892  0.0000E+00  0.0000E+00  0.1120E+03  0.1120E+03
    -19.651  0.0000E+00  0.0000E+00  0.1120E+03  0.1120E+03
    -19.410  0.0000E+00  0.0000E+00  0.1120E+03  0.1120E+03
    -19.169  0.0000E+00  0.0000E+00  0.1120E+03  0.1120E+03
    -18.928  0.0000E+00  0.0000E+00  0.1120E+03  0.1120E+03
    -18.687  0.0000E+00  0.0000E+00  0.1120E+03  0.1120E+03
    -18.446  0.0000E+00  0.0000E+00  0.1120E+03  0.1120E+03
    -18.205  0.0000E+00  0.0000E+00  0.1120E+03  0.1120E+03
    -17.964  0.0000E+00  0.0000E+00  0.1120E+03  0.1120E+03
    -17.723  0.0000E+00  0.0000E+00  0.1120E+03  0.1120E+03
    -17.482  0.0000E+00  0.0000E+00  0.1120E+03  0.1120E+03
    -17.242  0.0000E+00  0.0000E+00  0.1120E+03  0.1120E+03
    -17.001  0.0000E+00  0.0000E+00  0.1120E+03  0.1120E+03
    -16.760  0.0000E+00  0.0000E+00  0.1120E+03  0.1120E+03
    -16.519  0.0000E+00  0.0000E+00  0.1120E+03  0.1120E+03
    -16.278  0.0000E+00  0.0000E+00  0.1120E+03  0.1120E+03
    -16.037  0.0000E+00  0.0000E+00  0.1120E+03  0.1120E+03
    -15.796  0.0000E+00  0.0000E+00  0.1120E+03  0.1120E+03
    -15.555  0.0000E+00  0.0000E+00  0.1120E+03  0.1120E+03
    -15.314  0.0000E+00  0.0000E+00  0.1120E+03  0.1120E+03
    -15.073  0.0000E+00  0.0000E+00  0.1120E+03  0.1120E+03
    -14.832  0.0000E+00  0.0000E+00  0.1120E+03  0.1120E+03
    -14.591  0.0000E+00  0.0000E+00  0.1120E+03  0.1120E+03
    -14.350  0.0000E+00  0.0000E+00  0.1120E+03  0.1120E+03
    -14.110  0.0000E+00  0.0000E+00  0.1120E+03  0.1120E+03
    -13.869  0.0000E+00  0.0000E+00  0.1120E+03  0.1120E+03
    -13.628  0.0000E+00  0.0000E+00  0.1120E+03  0.1120E+03
    -13.387  0.5108E-05  0.0000E+00  0.1120E+03  0.1120E+03
    -13.146  0.2225E+02  0.0000E+00  0.1174E+03  0.1120E+03
    -12.905  0.4350E+02  0.3004E-01  0.1278E+03  0.1120E+03
    -12.664  0.6532E+00  0.4637E+02  0.1280E+03  0.1232E+03
    -12.423  0.0000E+00  0.2001E+02  0.1280E+03  0.1280E+03
    -12.182  0.0000E+00  0.0000E+00  0.1280E+03  0.1280E+03
    -11.941  0.0000E+00  0.0000E+00  0.1280E+03  0.1280E+03
    -11.700  0.0000E+00  0.0000E+00  0.1280E+03  0.1280E+03
    -11.459  0.0000E+00  0.0000E+00  0.1280E+03  0.1280E+03
    -11.218  0.0000E+00  0.0000E+00  0.1280E+03  0.1280E+03
    -10.978  0.0000E+00  0.0000E+00  0.1280E+03  0.1280E+03
    -10.737  0.0000E+00  0.0000E+00  0.1280E+03  0.1280E+03
    -10.496  0.0000E+00  0.0000E+00  0.1280E+03  0.1280E+03
    -10.255  0.0000E+00  0.0000E+00  0.1280E+03  0.1280E+03
    -10.014  0.0000E+00  0.0000E+00  0.1280E+03  0.1280E+03
     -9.773  0.0000E+00  0.0000E+00  0.1280E+03  0.1280E+03
     -9.532  0.0000E+00  0.0000E+00  0.1280E+03  0.1280E+03
     -9.291  0.0000E+00  0.0000E+00  0.1280E+03  0.1280E+03
     -9.050  0.0000E+00  0.0000E+00  0.1280E+03  0.1280E+03
     -8.809  0.0000E+00  0.0000E+00  0.1280E+03  0.1280E+03
     -8.568  0.0000E+00  0.0000E+00  0.1280E+03  0.1280E+03
     -8.327  0.0000E+00  0.0000E+00  0.1280E+03  0.1280E+03
     -8.087  0.0000E+00  0.0000E+00  0.1280E+03  0.1280E+03
     -7.846  0.1187E-08  0.0000E+00  0.1280E+03  0.1280E+03
     -7.605  0.9147E+00  0.2457E-09  0.1282E+03  0.1280E+03
     -7.364  0.1403E+02  0.8380E+00  0.1316E+03  0.1282E+03
     -7.123  0.3014E+02  0.1544E+02  0.1389E+03  0.1319E+03
     -6.882  0.3669E+02  0.2914E+02  0.1477E+03  0.1389E+03
     -6.641  0.1784E+02  0.2808E+02  0.1520E+03  0.1457E+03
     -6.400  0.0000E+00  0.2609E+02  0.1520E+03  0.1520E+03
     -6.159  0.0000E+00  0.1712E-01  0.1520E+03  0.1520E+03
     -5.918  0.0000E+00  0.0000E+00  0.1520E+03  0.1520E+03
     -5.677  0.0000E+00  0.0000E+00  0.1520E+03  0.1520E+03
     -5.436  0.0000E+00  0.0000E+00  0.1520E+03  0.1520E+03
     -5.195  0.0000E+00  0.0000E+00  0.1520E+03  0.1520E+03
     -4.955  0.0000E+00  0.0000E+00  0.1520E+03  0.1520E+03
     -4.714  0.0000E+00  0.0000E+00  0.1520E+03  0.1520E+03
     -4.473  0.0000E+00  0.0000E+00  0.1520E+03  0.1520E+03
     -4.232  0.0000E+00  0.0000E+00  0.1520E+03  0.1520E+03
     -3.991  0.0000E+00  0.0000E+00  0.1520E+03  0.1520E+03
     -3.750  0.0000E+00  0.0000E+00  0.1520E+03  0.1520E+03
     -3.509  0.0000E+00  0.0000E+00  0.1520E+03  0.1520E+03
     -3.268  0.0000E+00  0.0000E+00  0.1520E+03  0.1520E+03
     -3.027  0.0000E+00  0.0000E+00  0.1520E+03  0.1520E+03
     -2.786  0.0000E+00  0.0000E+00  0.1520E+03  0.1520E+03
     -2.545  0.0000E+00  0.0000E+00  0.1520E+03  0.1520E+03
     -2.304  0.0000E+00  0.0000E+00  0.1520E+03  0.1520E+03
     -2.063  0.2313E-03  0.0000E+00  0.1520E+03  0.1520E+03
     -1.823  0.1807E+02  0.0000E+00  0.1564E+03  0.1520E+03
     -1.582  0.1876E+02  0.0000E+00  0.1609E+03  0.1520E+03
     -1.341  0.1422E+02  0.0000E+00  0.1643E+03  0.1520E+03
     -1.100  0.1797E+02  0.0000E+00  0.1686E+03  0.1520E+03
     -0.859  0.4816E+02  0.0000E+00  0.1802E+03  0.1520E+03
     -0.618  0.5927E+02  0.1132E-04  0.1945E+03  0.1520E+03
     -0.377  0.3911E+02  0.5666E+01  0.2039E+03  0.1534E+03
     -0.136  0.6963E+02  0.2005E+02  0.2207E+03  0.1582E+03
      0.105  0.7301E+02  0.1248E+02  0.2383E+03  0.1612E+03
      0.346  0.7773E+02  0.1934E+02  0.2570E+03  0.1659E+03
      0.587  0.7043E+02  0.2990E+02  0.2740E+03  0.1731E+03
      0.828  0.5236E+02  0.4004E+02  0.2866E+03  0.1827E+03
      1.068  0.3595E+02  0.3714E+02  0.2953E+03  0.1917E+03
      1.309  0.3126E+02  0.2983E+02  0.3028E+03  0.1988E+03
      1.550  0.4471E+02  0.2120E+02  0.3136E+03  0.2040E+03
      1.791  0.4477E+02  0.2852E+02  0.3244E+03  0.2108E+03
      2.032  0.6971E+02  0.3823E+02  0.3411E+03  0.2200E+03
      2.273  0.5371E+02  0.2560E+02  0.3541E+03  0.2262E+03
      2.514  0.2792E+02  0.2730E+02  0.3608E+03  0.2328E+03
      2.755  0.4306E+02  0.3303E+02  0.3712E+03  0.2407E+03
      2.996  0.2689E+02  0.4512E+02  0.3777E+03  0.2516E+03
      3.237  0.9052E+01  0.4526E+02  0.3798E+03  0.2625E+03
      3.478  0.2989E+02  0.2930E+02  0.3870E+03  0.2696E+03
      3.719  0.2599E+02  0.1135E+02  0.3933E+03  0.2723E+03
      3.960  0.3166E+02  0.2040E+02  0.4009E+03  0.2772E+03
      4.200  0.3586E+02  0.5075E+02  0.4096E+03  0.2894E+03
      4.441  0.3650E+02  0.4648E+02  0.4184E+03  0.3006E+03
      4.682  0.2964E+02  0.1392E+02  0.4255E+03  0.3040E+03
      4.923  0.2499E+02  0.6611E-03  0.4315E+03  0.3040E+03
      5.164  0.1942E+01  0.0000E+00  0.4320E+03  0.3040E+03
      5.405  0.0000E+00  0.0000E+00  0.4320E+03  0.3040E+03
      5.646  0.0000E+00  0.0000E+00  0.4320E+03  0.3040E+03
      5.887  0.0000E+00  0.0000E+00  0.4320E+03  0.3040E+03
      6.128  0.0000E+00  0.1325E-07  0.4320E+03  0.3040E+03
      6.369  0.0000E+00  0.5560E+00  0.4320E+03  0.3041E+03
      6.610  0.0000E+00  0.4243E+01  0.4320E+03  0.3052E+03
      6.851  0.0000E+00  0.8368E+01  0.4320E+03  0.3072E+03
      7.092  0.7721E-13  0.2162E+02  0.4320E+03  0.3124E+03
      7.332  0.5783E-01  0.4554E+02  0.4320E+03  0.3234E+03
      7.573  0.9590E-01  0.5518E+02  0.4320E+03  0.3366E+03
      7.814  0.3826E+00  0.6230E+02  0.4321E+03  0.3517E+03
      8.055  0.6614E+00  0.6675E+02  0.4323E+03  0.3677E+03
      8.296  0.2462E+01  0.7129E+02  0.4329E+03  0.3849E+03
      8.537  0.2741E+01  0.5769E+02  0.4335E+03  0.3988E+03
      8.778  0.9144E+01  0.5894E+02  0.4357E+03  0.4130E+03
      9.019  0.1297E+02  0.4491E+02  0.4389E+03  0.4238E+03
      9.260  0.1356E+02  0.2772E+02  0.4421E+03  0.4305E+03
      9.501  0.1827E+02  0.8037E+01  0.4465E+03  0.4324E+03
      9.742  0.1572E+02  0.3600E+01  0.4503E+03  0.4333E+03
      9.983  0.1571E+02  0.8787E+01  0.4541E+03  0.4354E+03
     10.223  0.2250E+02  0.1906E+02  0.4595E+03  0.4400E+03
     10.464  0.1487E+02  0.1802E+02  0.4631E+03  0.4444E+03
     10.705  0.1501E+02  0.1802E+02  0.4667E+03  0.4487E+03
     10.946  0.1381E+02  0.2700E+02  0.4701E+03  0.4552E+03
     11.187  0.2083E+02  0.1906E+02  0.4751E+03  0.4598E+03
     11.428  0.2578E+02  0.2410E+02  0.4813E+03  0.4656E+03
     11.669  0.2635E+02  0.1375E+02  0.4876E+03  0.4689E+03
     11.910  0.2577E+02  0.1412E+02  0.4938E+03  0.4723E+03
     12.151  0.3220E+02  0.1705E+02  0.5016E+03  0.4764E+03
     12.392  0.1977E+02  0.3824E+02  0.5064E+03  0.4856E+03
     12.633  0.2308E+02  0.3206E+02  0.5119E+03  0.4934E+03
     12.874  0.2196E+02  0.2816E+02  0.5172E+03  0.5001E+03
     13.115  0.1928E+02  0.2025E+02  0.5219E+03  0.5050E+03
     13.355  0.2558E+02  0.2313E+02  0.5280E+03  0.5106E+03
     13.596  0.2266E+02  0.2746E+02  0.5335E+03  0.5172E+03
     13.837  0.1279E+02  0.2374E+02  0.5366E+03  0.5229E+03
     14.078  0.5948E+01  0.2579E+02  0.5380E+03  0.5291E+03
     14.319  0.2869E-02  0.1853E+02  0.5380E+03  0.5336E+03
     14.560  0.0000E+00  0.1558E+02  0.5380E+03  0.5374E+03
     14.801  0.0000E+00  0.2649E+01  0.5380E+03  0.5380E+03
     15.042  0.0000E+00  0.2227E-05  0.5380E+03  0.5380E+03
     15.283  0.0000E+00  0.0000E+00  0.5380E+03  0.5380E+03
     15.524  0.0000E+00  0.0000E+00  0.5380E+03  0.5380E+03
     15.765  0.0000E+00  0.0000E+00  0.5380E+03  0.5380E+03
     16.006  0.0000E+00  0.0000E+00  0.5380E+03  0.5380E+03
     16.247  0.0000E+00  0.0000E+00  0.5380E+03  0.5380E+03
     16.487  0.0000E+00  0.0000E+00  0.5380E+03  0.5380E+03
     16.728  0.0000E+00  0.0000E+00  0.5380E+03  0.5380E+03
     16.969  0.0000E+00  0.0000E+00  0.5380E+03  0.5380E+03
     17.210  0.0000E+00  0.0000E+00  0.5380E+03  0.5380E+03
     17.451  0.0000E+00  0.0000E+00  0.5380E+03  0.5380E+03
     17.692  0.0000E+00  0.0000E+00  0.5380E+03  0.5380E+03
     17.933  0.0000E+00  0.0000E+00  0.5380E+03  0.5380E+03
