<?xml version="1.0" encoding="ISO-8859-1"?>
<modeling>
 <generator>
  <i name="program" type="string">vasp </i>
  <i name="version" type="string">5.4.4.18Apr17-6-g9f103f2a35  </i>
  <i name="subversion" type="string">(build Oct 25 2017 14:42:18) complex            parallel </i>
  <i name="platform" type="string">LinuxIFC </i>
  <i name="date" type="string">2021 06 02 </i>
  <i name="time" type="string">17:10:43 </i>
 </generator>
 <incar>
  <i type="string" name="PREC">accurate</i>
  <i type="string" name="ALGO"> normal</i>
  <i type="logical" name="ADDGRID"> T  </i>
  <i type="int" name="ISPIN">     2</i>
  <i type="int" name="ICHARG">     1</i>
  <i type="int" name="NELM">   200</i>
  <i type="int" name="NELMIN">     8</i>
  <i name="EDIFF">      0.00000100</i>
  <i type="int" name="ISYM">     0</i>
  <i name="ENCUT">    650.00000000</i>
  <v name="MAGMOM">      0.60000000      0.60000000      0.60000000      0.60000000      0.60000000      0.60000000      0.60000000      0.60000000      0.60000000      0.60000000      0.60000000      0.60000000      0.60000000      0.60000000      0.60000000      0.60000000      0.60000000      0.60000000      0.60000000      0.60000000
      0.60000000      0.60000000      0.60000000      0.60000000      0.60000000      0.60000000      0.60000000      0.60000000      0.60000000      0.60000000      0.60000000      0.60000000      0.60000000      0.60000000      0.60000000      0.60000000      0.60000000      0.60000000      0.60000000      0.60000000
      0.60000000      0.60000000      0.60000000      0.60000000      0.60000000      0.60000000      0.60000000      0.60000000      0.60000000      0.60000000      0.60000000      0.60000000      0.60000000      0.60000000      0.60000000      0.60000000      5.00000000      5.00000000      5.00000000      5.00000000
      5.00000000      5.00000000      5.00000000      5.00000000      5.00000000      5.00000000      5.00000000      5.00000000      5.00000000      5.00000000      5.00000000      5.00000000      5.00000000      5.00000000      5.00000000      5.00000000      5.00000000      5.00000000      5.00000000      5.00000000
      5.00000000      5.00000000      5.00000000      5.00000000      5.00000000      5.00000000      5.00000000      5.00000000</v>
  <i type="logical" name="LREAL"> F  </i>
  <i type="int" name="ISMEAR">     0</i>
  <i name="SIGMA">      0.05000000</i>
  <i type="int" name="NWRITE">     1</i>
  <i type="int" name="LMAXMIX">     4</i>
  <i type="logical" name="LWAVE"> F  </i>
  <i type="logical" name="LASPH"> T  </i>
  <v type="int" name="KPOINT_BSE">    -1     0     0     0</v>
  <i type="int" name="NELM">   200</i>
  <i type="string" name="GGA"> pe</i>
  <i type="logical" name="LDAU"> T  </i>
  <v type="int" name="LDAUTYPE">     2</v>
  <v type="int" name="LDAUL">    -1    -1    -1     2</v>
  <v name="LDAUU">      0.00000000      0.00000000      0.00000000      4.00000000</v>
  <v name="LDAUJ">      0.00000000      0.00000000      0.00000000      0.00000000</v>
  <i type="logical" name="LASPH"> T  </i>
 </incar>
 <structure name="primitive_cell" >
  <crystal>
   <varray name="basis" >
    <v>      11.11223374       0.00000000      -0.00029034 </v>
    <v>       0.00000000      11.11745194       0.00000000 </v>
    <v>      -2.77510898       0.00000000      10.19872221 </v>
   </varray>
   <i name="volume">   1259.93837498 </i>
   <varray name="rec_basis" >
    <v>       0.08999155       0.00000000       0.02448702 </v>
    <v>       0.00000000       0.08994867       0.00000000 </v>
    <v>       0.00000256       0.00000000       0.09805220 </v>
   </varray>
  </crystal>
  <varray name="positions" >
   <v>       0.28894970       0.46933910       0.15583616 </v>
   <v>       0.17529533      -0.40661825       0.19749617 </v>
   <v>       0.42345029       0.34530995       0.19749407 </v>
   <v>       0.37560721      -0.40565694      -0.00000412 </v>
   <v>       0.12439279       0.34434306       0.00000412 </v>
   <v>      -0.46151602       0.46936404       0.15397331 </v>
   <v>       0.03848398       0.46936404       0.15397331 </v>
   <v>       0.28861657       0.21935690       0.15447525 </v>
   <v>       0.28861657      -0.28064310       0.15447525 </v>
   <v>       0.21868463       0.34523395       0.37102476 </v>
   <v>       0.46681660      -0.40655103       0.37102399 </v>
   <v>       0.23507288      -0.41767349       0.39367237 </v>
   <v>       0.46175575       0.35634799       0.39367694 </v>
   <v>       0.21138343       0.46935690      -0.15447525 </v>
   <v>       0.04646972       0.21934976       0.18586770 </v>
   <v>       0.04646972      -0.28065024       0.18586770 </v>
   <v>      -0.45353028       0.21934976       0.18586770 </v>
   <v>      -0.45353028      -0.28065024       0.18586770 </v>
   <v>       0.32470467       0.34338175      -0.19749617 </v>
   <v>       0.07654971      -0.40469005      -0.19749407 </v>
   <v>       0.21105030       0.21933910      -0.15583616 </v>
   <v>       0.21105030      -0.28066090      -0.15583616 </v>
   <v>      -0.07654971       0.34530995       0.19749407 </v>
   <v>      -0.32470467      -0.40661825       0.19749617 </v>
   <v>       0.17529533       0.09338175       0.19749617 </v>
   <v>       0.42345029      -0.15469005       0.19749407 </v>
   <v>       0.45353028       0.46934976      -0.18586770 </v>
   <v>      -0.04646972       0.46934976      -0.18586770 </v>
   <v>      -0.37560721       0.34434306       0.00000412 </v>
   <v>      -0.12439279      -0.40565694      -0.00000412 </v>
   <v>       0.37560721       0.09434306      -0.00000412 </v>
   <v>       0.12439279      -0.15565694       0.00000412 </v>
   <v>      -0.03318340      -0.40655103       0.37102399 </v>
   <v>      -0.28131537       0.34523395       0.37102476 </v>
   <v>       0.21868463      -0.15476605       0.37102476 </v>
   <v>       0.46681660       0.09254948       0.37102399 </v>
   <v>       0.46151602       0.21936404      -0.15397331 </v>
   <v>       0.46151602      -0.28063596      -0.15397331 </v>
   <v>      -0.03848398       0.21936404      -0.15397331 </v>
   <v>      -0.03848398      -0.28063596      -0.15397331 </v>
   <v>       0.26492712       0.33232651      -0.39367237 </v>
   <v>      -0.46175575      -0.39365201      -0.39367694 </v>
   <v>      -0.03824425       0.35634799       0.39367694 </v>
   <v>      -0.26492712      -0.41767349       0.39367237 </v>
   <v>       0.23507288       0.08232651       0.39367237 </v>
   <v>       0.46175575      -0.14365201       0.39367694 </v>
   <v>       0.28131537      -0.40476605      -0.37102476 </v>
   <v>      -0.46681660       0.34344897      -0.37102399 </v>
   <v>      -0.21105030       0.46933910       0.15583616 </v>
   <v>       0.28894970      -0.03066090       0.15583616 </v>
   <v>       0.32470467      -0.15661825      -0.19749617 </v>
   <v>       0.07654971       0.09530995      -0.19749407 </v>
   <v>      -0.42345029      -0.40469005      -0.19749407 </v>
   <v>      -0.17529533       0.34338175      -0.19749617 </v>
   <v>       0.03318340       0.34344897      -0.37102399 </v>
   <v>      -0.07654971      -0.15469005       0.19749407 </v>
   <v>      -0.32470467       0.09338175       0.19749617 </v>
   <v>       0.03824425      -0.39365201      -0.39367694 </v>
   <v>      -0.37560721      -0.15565694       0.00000412 </v>
   <v>      -0.12439279       0.09434306      -0.00000412 </v>
   <v>      -0.21138343       0.21935690       0.15447525 </v>
   <v>      -0.21138343      -0.28064310       0.15447525 </v>
   <v>      -0.46151602      -0.03063596       0.15397331 </v>
   <v>       0.03848398      -0.03063596       0.15397331 </v>
   <v>       0.26492712      -0.16767349      -0.39367237 </v>
   <v>      -0.46175575       0.10634799      -0.39367694 </v>
   <v>      -0.03318340       0.09344897       0.37102399 </v>
   <v>      -0.28131537      -0.15476605       0.37102476 </v>
   <v>      -0.23507288       0.33232651      -0.39367237 </v>
   <v>      -0.28861657       0.46935690      -0.15447525 </v>
   <v>       0.21138343      -0.03064310      -0.15447525 </v>
   <v>      -0.21868463      -0.40476605      -0.37102476 </v>
   <v>       0.28131537       0.09523395      -0.37102476 </v>
   <v>      -0.46681660      -0.15655103      -0.37102399 </v>
   <v>      -0.03824425      -0.14365201       0.39367694 </v>
   <v>      -0.26492712       0.08232651       0.39367237 </v>
   <v>      -0.42345029       0.09530995      -0.19749407 </v>
   <v>      -0.17529533      -0.15661825      -0.19749617 </v>
   <v>       0.03318340      -0.15655103      -0.37102399 </v>
   <v>      -0.28894970       0.21933910      -0.15583616 </v>
   <v>      -0.28894970      -0.28066090      -0.15583616 </v>
   <v>       0.03824425       0.10634799      -0.39367694 </v>
   <v>       0.45353028      -0.03065024      -0.18586770 </v>
   <v>      -0.04646972      -0.03065024      -0.18586770 </v>
   <v>      -0.23507288      -0.16767349      -0.39367237 </v>
   <v>      -0.21868463       0.09523395      -0.37102476 </v>
   <v>      -0.21105030      -0.03066090       0.15583616 </v>
   <v>      -0.28861657      -0.03064310      -0.15447525 </v>
  </varray>
 </structure>
 <varray name="primitive_index" >
  <v type="int" >        1 </v>
  <v type="int" >       27 </v>
  <v type="int" >       29 </v>
  <v type="int" >       55 </v>
  <v type="int" >       49 </v>
  <v type="int" >       74 </v>
  <v type="int" >       73 </v>
  <v type="int" >       77 </v>
  <v type="int" >       79 </v>
  <v type="int" >       33 </v>
  <v type="int" >       39 </v>
  <v type="int" >       67 </v>
  <v type="int" >       69 </v>
  <v type="int" >       81 </v>
  <v type="int" >        5 </v>
  <v type="int" >        7 </v>
  <v type="int" >        6 </v>
  <v type="int" >        8 </v>
  <v type="int" >       21 </v>
  <v type="int" >       19 </v>
  <v type="int" >       13 </v>
  <v type="int" >       15 </v>
  <v type="int" >       30 </v>
  <v type="int" >       28 </v>
  <v type="int" >       25 </v>
  <v type="int" >       31 </v>
  <v type="int" >        9 </v>
  <v type="int" >       10 </v>
  <v type="int" >       50 </v>
  <v type="int" >       56 </v>
  <v type="int" >       53 </v>
  <v type="int" >       51 </v>
  <v type="int" >       40 </v>
  <v type="int" >       34 </v>
  <v type="int" >       35 </v>
  <v type="int" >       37 </v>
  <v type="int" >       85 </v>
  <v type="int" >       87 </v>
  <v type="int" >       86 </v>
  <v type="int" >       88 </v>
  <v type="int" >       61 </v>
  <v type="int" >       60 </v>
  <v type="int" >       70 </v>
  <v type="int" >       68 </v>
  <v type="int" >       65 </v>
  <v type="int" >       71 </v>
  <v type="int" >       47 </v>
  <v type="int" >       42 </v>
  <v type="int" >        2 </v>
  <v type="int" >        3 </v>
  <v type="int" >       23 </v>
  <v type="int" >       17 </v>
  <v type="int" >       20 </v>
  <v type="int" >       22 </v>
  <v type="int" >       41 </v>
  <v type="int" >       32 </v>
  <v type="int" >       26 </v>
  <v type="int" >       59 </v>
  <v type="int" >       52 </v>
  <v type="int" >       54 </v>
  <v type="int" >       78 </v>
  <v type="int" >       80 </v>
  <v type="int" >       76 </v>
  <v type="int" >       75 </v>
  <v type="int" >       63 </v>
  <v type="int" >       58 </v>
  <v type="int" >       38 </v>
  <v type="int" >       36 </v>
  <v type="int" >       62 </v>
  <v type="int" >       82 </v>
  <v type="int" >       83 </v>
  <v type="int" >       48 </v>
  <v type="int" >       45 </v>
  <v type="int" >       44 </v>
  <v type="int" >       72 </v>
  <v type="int" >       66 </v>
  <v type="int" >       18 </v>
  <v type="int" >       24 </v>
  <v type="int" >       43 </v>
  <v type="int" >       14 </v>
  <v type="int" >       16 </v>
  <v type="int" >       57 </v>
  <v type="int" >       11 </v>
  <v type="int" >       12 </v>
  <v type="int" >       64 </v>
  <v type="int" >       46 </v>
  <v type="int" >        4 </v>
  <v type="int" >       84 </v>
 </varray>
 <kpoints>
  <generation param="Gamma">
   <v type="int" name="divisions">       3        3        3 </v>
   <v name="usershift">      0.00000000       0.00000000       0.00000000 </v>
   <v name="genvec1">      0.33333333       0.00000000       0.00000000 </v>
   <v name="genvec2">      0.00000000       0.33333333       0.00000000 </v>
   <v name="genvec3">      0.00000000       0.00000000       0.33333333 </v>
   <v name="shift">      0.00000000       0.00000000       0.00000000 </v>
  </generation>
  <varray name="kpointlist" >
   <v>       0.00000000       0.00000000       0.00000000 </v>
   <v>       0.33333333       0.00000000       0.00000000 </v>
   <v>       0.00000000       0.33333333       0.00000000 </v>
   <v>       0.33333333       0.33333333       0.00000000 </v>
   <v>      -0.33333333       0.33333333      -0.00000000 </v>
   <v>       0.00000000       0.00000000       0.33333333 </v>
   <v>       0.33333333       0.00000000       0.33333333 </v>
   <v>      -0.33333333       0.00000000       0.33333333 </v>
   <v>       0.00000000       0.33333333       0.33333333 </v>
   <v>       0.33333333       0.33333333       0.33333333 </v>
   <v>      -0.33333333       0.33333333       0.33333333 </v>
   <v>       0.00000000      -0.33333333       0.33333333 </v>
   <v>       0.33333333      -0.33333333       0.33333333 </v>
   <v>      -0.33333333      -0.33333333       0.33333333 </v>
  </varray>
  <varray name="weights" >
   <v>       0.03703704 </v>
   <v>       0.07407407 </v>
   <v>       0.07407407 </v>
   <v>       0.07407407 </v>
   <v>       0.07407407 </v>
   <v>       0.07407407 </v>
   <v>       0.07407407 </v>
   <v>       0.07407407 </v>
   <v>       0.07407407 </v>
   <v>       0.07407407 </v>
   <v>       0.07407407 </v>
   <v>       0.07407407 </v>
   <v>       0.07407407 </v>
   <v>       0.07407407 </v>
  </varray>
 </kpoints>
 <parameters>
  <separator name="general" >
   <i type="string" name="SYSTEM">unknown system</i>
   <i type="logical" name="LCOMPAT"> F  </i>
  </separator>
  <separator name="electronic" >
   <i type="string" name="PREC">accura</i>
   <i name="ENMAX">    650.00000000</i>
   <i name="ENAUG">    628.94500000</i>
   <i name="EDIFF">      0.00000100</i>
   <i type="int" name="IALGO">    38</i>
   <i type="int" name="IWAVPR">    10</i>
   <i type="int" name="NBANDS">   538</i>
   <i name="NELECT">    736.00000000</i>
   <i type="int" name="TURBO">     0</i>
   <i type="int" name="IRESTART">     0</i>
   <i type="int" name="NREBOOT">     0</i>
   <i type="int" name="NMIN">     0</i>
   <i name="EREF">      0.00000000</i>
   <separator name="electronic smearing" >
    <i type="int" name="ISMEAR">     0</i>
    <i name="SIGMA">      0.05000000</i>
    <i name="KSPACING">      0.50000000</i>
    <i type="logical" name="KGAMMA"> T  </i>
   </separator>
   <separator name="electronic projectors" >
    <i type="logical" name="LREAL"> F  </i>
    <v name="ROPT">      0.00000000      0.00000000      0.00000000      0.00000000</v>
    <i type="int" name="LMAXPAW">  -100</i>
    <i type="int" name="LMAXMIX">     4</i>
    <i type="logical" name="NLSPLINE"> F  </i>
   </separator>
   <separator name="electronic startup" >
    <i type="int" name="ISTART">     0</i>
    <i type="int" name="ICHARG">     1</i>
    <i type="int" name="INIWAV">     1</i>
   </separator>
   <separator name="electronic spin" >
    <i type="int" name="ISPIN">     2</i>
    <i type="logical" name="LNONCOLLINEAR"> F  </i>
    <v name="MAGMOM">      0.60000000      0.60000000      0.60000000      0.60000000      0.60000000      0.60000000      0.60000000      0.60000000      0.60000000      0.60000000      0.60000000      0.60000000      0.60000000      0.60000000      0.60000000      0.60000000      0.60000000      0.60000000      0.60000000      0.60000000
      0.60000000      0.60000000      0.60000000      0.60000000      0.60000000      0.60000000      0.60000000      0.60000000      0.60000000      0.60000000      0.60000000      0.60000000      0.60000000      0.60000000      0.60000000      0.60000000      0.60000000      0.60000000      0.60000000      0.60000000
      0.60000000      0.60000000      0.60000000      0.60000000      0.60000000      0.60000000      0.60000000      0.60000000      0.60000000      0.60000000      0.60000000      0.60000000      0.60000000      0.60000000      0.60000000      0.60000000      5.00000000      5.00000000      5.00000000      5.00000000
      5.00000000      5.00000000      5.00000000      5.00000000      5.00000000      5.00000000      5.00000000      5.00000000      5.00000000      5.00000000      5.00000000      5.00000000      5.00000000      5.00000000      5.00000000      5.00000000      5.00000000      5.00000000      5.00000000      5.00000000
      5.00000000      5.00000000      5.00000000      5.00000000      5.00000000      5.00000000      5.00000000      5.00000000</v>
    <i name="NUPDOWN">     -1.00000000</i>
    <i type="logical" name="LSORBIT"> F  </i>
    <v name="SAXIS">      0.00000000      0.00000000      1.00000000</v>
    <i type="logical" name="LSPIRAL"> F  </i>
    <v name="QSPIRAL">      0.00000000      0.00000000      0.00000000</v>
    <i type="logical" name="LZEROZ"> F  </i>
   </separator>
   <separator name="electronic exchange-correlation" >
    <i type="logical" name="LASPH"> T  </i>
    <i type="logical" name="LMETAGGA"> F  </i>
   </separator>
   <separator name="electronic convergence" >
    <i type="int" name="NELM">   200</i>
    <i type="int" name="NELMDL">     0</i>
    <i type="int" name="NELMIN">     8</i>
    <i name="ENINI">    650.00000000</i>
    <separator name="electronic convergence detail" >
     <i type="logical" name="LDIAG"> T  </i>
     <i type="logical" name="LSUBROT"> F  </i>
     <i name="WEIMIN">      0.00000000</i>
     <i name="EBREAK">      0.00000000</i>
     <i name="DEPER">      0.30000000</i>
     <i type="int" name="NRMM">     4</i>
     <i name="TIME">      0.40000000</i>
    </separator>
   </separator>
   <separator name="electronic mixer" >
    <i name="AMIX">      0.40000000</i>
    <i name="BMIX">      1.00000000</i>
    <i name="AMIN">      0.10000000</i>
    <i name="AMIX_MAG">      1.60000000</i>
    <i name="BMIX_MAG">      1.00000000</i>
    <separator name="electronic mixer details" >
     <i type="int" name="IMIX">     4</i>
     <i type="logical" name="MIXFIRST"> F  </i>
     <i type="int" name="MAXMIX">   -45</i>
     <i name="WC">    100.00000000</i>
     <i type="int" name="INIMIX">     1</i>
     <i type="int" name="MIXPRE">     1</i>
     <i type="int" name="MREMOVE">     5</i>
    </separator>
   </separator>
   <separator name="electronic dipolcorrection" >
    <i type="logical" name="LDIPOL"> F  </i>
    <i type="logical" name="LMONO"> F  </i>
    <i type="int" name="IDIPOL">     0</i>
    <i name="EPSILON">      1.00000000</i>
    <v name="DIPOL">   -100.00000000   -100.00000000   -100.00000000</v>
    <i name="EFIELD">      0.00000000</i>
   </separator>
  </separator>
  <separator name="grids" >
   <i type="int" name="NGX">    96</i>
   <i type="int" name="NGY">    96</i>
   <i type="int" name="NGZ">    90</i>
   <i type="int" name="NGXF">   192</i>
   <i type="int" name="NGYF">   192</i>
   <i type="int" name="NGZF">   180</i>
   <i type="logical" name="ADDGRID"> T  </i>
  </separator>
  <separator name="ionic" >
   <i type="int" name="NSW">     0</i>
   <i type="int" name="IBRION">    -1</i>
   <i type="int" name="MDALGO">     0</i>
   <i type="int" name="ISIF">     2</i>
   <i name="PSTRESS">      0.00000000</i>
   <i name="EDIFFG">      0.00001000</i>
   <i type="int" name="NFREE">     0</i>
   <i name="POTIM">      0.50000000</i>
   <i name="SMASS">     -3.00000000</i>
   <i name="SCALEE">      1.00000000</i>
  </separator>
  <separator name="ionic md" >
   <i name="TEBEG">      0.00010000</i>
   <i name="TEEND">      0.00010000</i>
   <i type="int" name="NBLOCK">     1</i>
   <i type="int" name="KBLOCK">     1</i>
   <i type="int" name="NPACO">   256</i>
   <i name="APACO">     16.00000000</i>
  </separator>
  <separator name="symmetry" >
   <i type="int" name="ISYM">     0</i>
   <i name="SYMPREC">      0.00001000</i>
  </separator>
  <separator name="dos" >
   <i type="int" name="LORBIT">     0</i>
   <v name="RWIGS">     -1.00000000     -1.00000000     -1.00000000     -1.00000000</v>
   <i type="int" name="NEDOS">   301</i>
   <i name="EMIN">     10.00000000</i>
   <i name="EMAX">    -10.00000000</i>
   <i name="EFERMI">      0.00000000</i>
  </separator>
  <separator name="writing" >
   <i type="int" name="NWRITE">     1</i>
   <i type="logical" name="LWAVE"> F  </i>
   <i type="logical" name="LDOWNSAMPLE"> F  </i>
   <i type="logical" name="LCHARG"> T  </i>
   <i type="logical" name="LPARD"> F  </i>
   <i type="logical" name="LVTOT"> F  </i>
   <i type="logical" name="LVHAR"> F  </i>
   <i type="logical" name="LELF"> F  </i>
   <i type="logical" name="LOPTICS"> F  </i>
   <v name="STM">      0.00000000      0.00000000      0.00000000      0.00000000      0.00000000      0.00000000      0.00000000</v>
  </separator>
  <separator name="performance" >
   <i type="int" name="NPAR">     2</i>
   <i type="int" name="NSIM">     4</i>
   <i type="int" name="NBLK">    -1</i>
   <i type="logical" name="LPLANE"> T  </i>
   <i type="logical" name="LSCALAPACK"> T  </i>
   <i type="logical" name="LSCAAWARE"> F  </i>
   <i type="logical" name="LSCALU"> F  </i>
   <i type="logical" name="LASYNC"> F  </i>
   <i type="logical" name="LORBITALREAL"> F  </i>
  </separator>
  <separator name="miscellaneous" >
   <i type="int" name="IDIOT">     3</i>
   <i type="int" name="ISPECIAL">     0</i>
   <i type="logical" name="LMUSIC"> F  </i>
   <v name="POMASS">      7.01000000     16.00000000     32.06600000     55.84700000</v>
   <v name="DARWINR">      0.00000000      0.00000000      0.00000000      0.00000000</v>
   <v name="DARWINV">      1.00000000      1.00000000      1.00000000      1.00000000</v>
   <i type="logical" name="LCORR"> T  </i>
  </separator>
  <i type="logical" name="GGA_COMPAT"> T  </i>
  <i type="logical" name="LBERRY"> F  </i>
  <i type="int" name="ICORELEVEL">     0</i>
  <i type="logical" name="LDAU"> T  </i>
  <v type="int" name="LDAUTYPE">     2</v>
  <v type="int" name="LDAUL">    -1</v>
  <v name="LDAUU">      0.00000000</v>
  <v name="LDAUJ">      0.00000000</v>
  <i type="int" name="LDAUPRINT">     0</i>
  <i type="int" name="I_CONSTRAINED_M">     0</i>
  <separator name="electronic exchange-correlation" >
   <i type="string" name="GGA">PE</i>
   <i type="int" name="VOSKOWN">     0</i>
   <i type="logical" name="LHFCALC"> F  </i>
   <i type="string" name="PRECFOCK"></i>
   <i type="logical" name="LSYMGRAD"> F  </i>
   <i type="logical" name="LHFONE"> F  </i>
   <i type="logical" name="LRHFCALC"> F  </i>
   <i type="logical" name="LTHOMAS"> F  </i>
   <i type="logical" name="LMODELHF"> F  </i>
   <i name="ENCUT4O">     -1.00000000</i>
   <i type="int" name="EXXOEP">     0</i>
   <i type="int" name="FOURORBIT">     0</i>
   <i name="AEXX">      0.00000000</i>
   <i name="HFALPHA">      0.00000000</i>
   <i name="MCALPHA">      0.00000000</i>
   <i name="ALDAX">      1.00000000</i>
   <i name="AGGAX">      1.00000000</i>
   <i name="ALDAC">      1.00000000</i>
   <i name="AGGAC">      1.00000000</i>
   <i type="int" name="NKREDX">     1</i>
   <i type="int" name="NKREDY">     1</i>
   <i type="int" name="NKREDZ">     1</i>
   <i type="logical" name="SHIFTRED"> F  </i>
   <i type="logical" name="ODDONLY"> F  </i>
   <i type="logical" name="EVENONLY"> F  </i>
   <i type="int" name="LMAXFOCK">     0</i>
   <i type="int" name="NMAXFOCKAE">     0</i>
   <i type="logical" name="LFOCKAEDFT"> F  </i>
   <i name="HFSCREEN">      0.00000000</i>
   <i name="HFSCREENC">      0.00000000</i>
   <i type="int" name="NBANDSGWLOW">     0</i>
  </separator>
  <separator name="vdW DFT" >
   <i type="logical" name="LUSE_VDW"> F  </i>
   <i name="Zab_VDW">     -0.84910000</i>
   <i name="PARAM1">      0.12340000</i>
   <i name="PARAM2">      1.00000000</i>
   <i name="PARAM3">      0.00000000</i>
  </separator>
  <separator name="model GW" >
   <i type="int" name="MODEL_GW">     0</i>
   <i name="MODEL_EPS0">      8.59048892</i>
   <i name="MODEL_ALPHA">      1.00000000</i>
  </separator>
  <separator name="linear response parameters" >
   <i type="logical" name="LEPSILON"> F  </i>
   <i type="logical" name="LRPA"> F  </i>
   <i type="logical" name="LNABLA"> F  </i>
   <i type="logical" name="LVEL"> F  </i>
   <i type="int" name="KINTER">     0</i>
   <i name="CSHIFT">      0.10000000</i>
   <i name="OMEGAMAX">     -1.00000000</i>
   <i name="DEG_THRESHOLD">      0.00200000</i>
   <i name="RTIME">     -0.10000000</i>
   <i name="WPLASMAI">      0.00000000</i>
   <v name="DFIELD">      0.00000000      0.00000000      0.00000000</v>
   <v name="WPLASMA">      0.00000000      0.00000000      0.00000000      0.00000000      0.00000000      0.00000000      0.00000000      0.00000000      0.00000000</v>
  </separator>
  <separator name="orbital magnetization" >
   <i type="logical" name="NUCIND"> F  </i>
   <v name="MAGPOS">      0.00000000      0.00000000      0.00000000</v>
   <i type="logical" name="LNICSALL"> T  </i>
   <i type="logical" name="ORBITALMAG"> F  </i>
   <i type="logical" name="LMAGBLOCH"> F  </i>
   <i type="logical" name="LCHIMAG"> F  </i>
   <i type="logical" name="LGAUGE"> T  </i>
   <i type="int" name="MAGATOM">     0</i>
   <v name="MAGDIPOL">      0.00000000      0.00000000      0.00000000</v>
   <v name="AVECCONST">      0.00000000      0.00000000      0.00000000</v>
  </separator>
  <separator name="response functions" >
   <i type="logical" name="LADDER"> F  </i>
   <i type="logical" name="LRPAFORCE"> F  </i>
   <i type="logical" name="LFXC"> F  </i>
   <i type="logical" name="LHARTREE"> T  </i>
   <i type="int" name="IBSE">     0</i>
   <v type="int" name="KPOINT">    -1     0     0     0</v>
   <i type="logical" name="LTCTE"> F  </i>
   <i type="logical" name="LTETE"> F  </i>
   <i type="logical" name="LTRIPLET"> F  </i>
   <i type="logical" name="LFXCEPS"> F  </i>
   <i type="logical" name="LFXHEG"> F  </i>
   <i type="int" name="NATURALO">     2</i>
   <i type="logical" name="L2ORDER"> F  </i>
   <i type="logical" name="LMP2LT"> F  </i>
   <i type="logical" name="LUSEW"> F  </i>
   <i name="ENCUTGW">     -2.00000000</i>
   <i name="ENCUTGWSOFT">     -2.00000000</i>
   <i name="ENCUTLF">     -1.00000000</i>
   <i type="int" name="LMAXMP2">    -1</i>
   <i name="SCISSOR">      0.00000000</i>
   <i type="int" name="NOMEGA">     0</i>
   <i type="int" name="NOMEGAR">     0</i>
   <i type="int" name="NBANDSGW">    -1</i>
   <i type="int" name="NBANDSO">    -1</i>
   <i type="int" name="NBANDSV">    -1</i>
   <i type="int" name="NELM">   200</i>
   <i type="int" name="NELMHF">     1</i>
   <i type="int" name="DIM">     3</i>
   <i type="int" name="ANTIRES">     0</i>
   <i name="OMEGAMAX">    -30.00000000</i>
   <i name="OMEGAMIN">    -30.00000000</i>
   <i name="OMEGATL">   -200.00000000</i>
   <i type="int" name="OMEGAGRID">   140</i>
   <i name="CSHIFT">     -0.10000000</i>
   <i type="logical" name="SELFENERGY"> F  </i>
   <i type="logical" name="LSPECTRAL"> F  </i>
   <i type="logical" name="LSPECTRALGW"> F  </i>
   <i type="logical" name="LSINGLES"> F  </i>
   <i type="logical" name="LFERMIGW"> F  </i>
   <i type="logical" name="ODDONLYGW"> F  </i>
   <i type="logical" name="EVENONLYGW"> F  </i>
   <i type="int" name="NKREDLFX">     1</i>
   <i type="int" name="NKREDLFY">     1</i>
   <i type="int" name="NKREDLFZ">     1</i>
   <i type="int" name="MAXMEM">  2800</i>
   <i type="int" name="TELESCOPE">     0</i>
   <i type="int" name="TAUPAR">     1</i>
   <i type="int" name="OMEGAPAR">    -1</i>
   <i name="LAMBDA">      1.00000000</i>
  </separator>
  <separator name="External order field" >
   <i name="OFIELD_KAPPA">      0.00000000</i>
   <v name="OFIELD_K">      0.00000000      0.00000000      0.00000000</v>
   <i name="OFIELD_Q6_NEAR">      0.00000000</i>
   <i name="OFIELD_Q6_FAR">      0.00000000</i>
   <i name="OFIELD_A">      0.00000000</i>
  </separator>
 </parameters>
 <atominfo>
  <atoms>      88 </atoms>
  <types>       4 </types>
  <array name="atoms" >
   <dimension dim="1">ion</dimension>
   <field type="string">element</field>
   <field type="int">atomtype</field>
   <set>
    <rc><c>Li</c><c>   1</c></rc>
    <rc><c>Li</c><c>   1</c></rc>
    <rc><c>Li</c><c>   1</c></rc>
    <rc><c>Li</c><c>   1</c></rc>
    <rc><c>Li</c><c>   1</c></rc>
    <rc><c>Li</c><c>   1</c></rc>
    <rc><c>Li</c><c>   1</c></rc>
    <rc><c>Li</c><c>   1</c></rc>
    <rc><c>Li</c><c>   1</c></rc>
    <rc><c>Li</c><c>   1</c></rc>
    <rc><c>Li</c><c>   1</c></rc>
    <rc><c>Li</c><c>   1</c></rc>
    <rc><c>Li</c><c>   1</c></rc>
    <rc><c>Li</c><c>   1</c></rc>
    <rc><c>Li</c><c>   1</c></rc>
    <rc><c>Li</c><c>   1</c></rc>
    <rc><c>O </c><c>   2</c></rc>
    <rc><c>O </c><c>   2</c></rc>
    <rc><c>O </c><c>   2</c></rc>
    <rc><c>O </c><c>   2</c></rc>
    <rc><c>O </c><c>   2</c></rc>
    <rc><c>O </c><c>   2</c></rc>
    <rc><c>O </c><c>   2</c></rc>
    <rc><c>O </c><c>   2</c></rc>
    <rc><c>O </c><c>   2</c></rc>
    <rc><c>O </c><c>   2</c></rc>
    <rc><c>O </c><c>   2</c></rc>
    <rc><c>O </c><c>   2</c></rc>
    <rc><c>O </c><c>   2</c></rc>
    <rc><c>O </c><c>   2</c></rc>
    <rc><c>O </c><c>   2</c></rc>
    <rc><c>O </c><c>   2</c></rc>
    <rc><c>S </c><c>   3</c></rc>
    <rc><c>S </c><c>   3</c></rc>
    <rc><c>S </c><c>   3</c></rc>
    <rc><c>S </c><c>   3</c></rc>
    <rc><c>S </c><c>   3</c></rc>
    <rc><c>S </c><c>   3</c></rc>
    <rc><c>S </c><c>   3</c></rc>
    <rc><c>S </c><c>   3</c></rc>
    <rc><c>S </c><c>   3</c></rc>
    <rc><c>S </c><c>   3</c></rc>
    <rc><c>S </c><c>   3</c></rc>
    <rc><c>S </c><c>   3</c></rc>
    <rc><c>S </c><c>   3</c></rc>
    <rc><c>S </c><c>   3</c></rc>
    <rc><c>S </c><c>   3</c></rc>
    <rc><c>S </c><c>   3</c></rc>
    <rc><c>S </c><c>   3</c></rc>
    <rc><c>S </c><c>   3</c></rc>
    <rc><c>S </c><c>   3</c></rc>
    <rc><c>S </c><c>   3</c></rc>
    <rc><c>S </c><c>   3</c></rc>
    <rc><c>S </c><c>   3</c></rc>
    <rc><c>S </c><c>   3</c></rc>
    <rc><c>S </c><c>   3</c></rc>
    <rc><c>Fe</c><c>   4</c></rc>
    <rc><c>Fe</c><c>   4</c></rc>
    <rc><c>Fe</c><c>   4</c></rc>
    <rc><c>Fe</c><c>   4</c></rc>
    <rc><c>Fe</c><c>   4</c></rc>
    <rc><c>Fe</c><c>   4</c></rc>
    <rc><c>Fe</c><c>   4</c></rc>
    <rc><c>Fe</c><c>   4</c></rc>
    <rc><c>Fe</c><c>   4</c></rc>
    <rc><c>Fe</c><c>   4</c></rc>
    <rc><c>Fe</c><c>   4</c></rc>
    <rc><c>Fe</c><c>   4</c></rc>
    <rc><c>Fe</c><c>   4</c></rc>
    <rc><c>Fe</c><c>   4</c></rc>
    <rc><c>Fe</c><c>   4</c></rc>
    <rc><c>Fe</c><c>   4</c></rc>
    <rc><c>Fe</c><c>   4</c></rc>
    <rc><c>Fe</c><c>   4</c></rc>
    <rc><c>Fe</c><c>   4</c></rc>
    <rc><c>Fe</c><c>   4</c></rc>
    <rc><c>Fe</c><c>   4</c></rc>
    <rc><c>Fe</c><c>   4</c></rc>
    <rc><c>Fe</c><c>   4</c></rc>
    <rc><c>Fe</c><c>   4</c></rc>
    <rc><c>Fe</c><c>   4</c></rc>
    <rc><c>Fe</c><c>   4</c></rc>
    <rc><c>Fe</c><c>   4</c></rc>
    <rc><c>Fe</c><c>   4</c></rc>
    <rc><c>Fe</c><c>   4</c></rc>
    <rc><c>Fe</c><c>   4</c></rc>
    <rc><c>Fe</c><c>   4</c></rc>
    <rc><c>Fe</c><c>   4</c></rc>
   </set>
  </array>
  <array name="atomtypes" >
   <dimension dim="1">type</dimension>
   <field type="int">atomspertype</field>
   <field type="string">element</field>
   <field>mass</field>
   <field>valence</field>
   <field type="string">pseudopotential</field>
   <set>
    <rc><c>  16</c><c>Li</c><c>      7.01000000</c><c>      3.00000000</c><c>  PAW_PBE Li_sv 10Sep2004               </c></rc>
    <rc><c>  16</c><c>O </c><c>     16.00000000</c><c>      6.00000000</c><c>  PAW_PBE O 08Apr2002                   </c></rc>
    <rc><c>  24</c><c>S </c><c>     32.06600000</c><c>      6.00000000</c><c>  PAW_PBE S 06Sep2000                   </c></rc>
    <rc><c>  32</c><c>Fe</c><c>     55.84700000</c><c>     14.00000000</c><c>  PAW_PBE Fe_pv 02Aug2007               </c></rc>
   </set>
  </array>
 </atominfo>
 <structure name="initialpos" >
  <crystal>
   <varray name="basis" >
    <v>      11.11223374       0.00000000      -0.00029034 </v>
    <v>       0.00000000      11.11745194       0.00000000 </v>
    <v>      -2.77510898       0.00000000      10.19872221 </v>
   </varray>
   <i name="volume">   1259.93837498 </i>
   <varray name="rec_basis" >
    <v>       0.08999155       0.00000000       0.02448702 </v>
    <v>       0.00000000       0.08994867       0.00000000 </v>
    <v>       0.00000256       0.00000000       0.09805220 </v>
   </varray>
  </crystal>
  <varray name="positions" >
   <v>       0.28894969       0.46933910       0.15583616 </v>
   <v>       0.78894969       0.46933910       0.15583616 </v>
   <v>       0.28894969       0.96933910       0.15583616 </v>
   <v>       0.78894969       0.96933910       0.15583616 </v>
   <v>       0.04646972       0.21934976       0.18586770 </v>
   <v>       0.54646972       0.21934976       0.18586770 </v>
   <v>       0.04646972       0.71934976       0.18586770 </v>
   <v>       0.54646972       0.71934976       0.18586770 </v>
   <v>       0.45353028       0.46934976       0.81413230 </v>
   <v>       0.95353028       0.46934976       0.81413230 </v>
   <v>       0.45353028       0.96934976       0.81413230 </v>
   <v>       0.95353028       0.96934976       0.81413230 </v>
   <v>       0.21105031       0.21933910       0.84416384 </v>
   <v>       0.71105031       0.21933910       0.84416384 </v>
   <v>       0.21105031       0.71933910       0.84416384 </v>
   <v>       0.71105031       0.71933910       0.84416384 </v>
   <v>       0.07654971       0.09530995       0.80250593 </v>
   <v>       0.57654971       0.09530995       0.80250593 </v>
   <v>       0.07654971       0.59530995       0.80250593 </v>
   <v>       0.57654971       0.59530995       0.80250593 </v>
   <v>       0.32470466       0.34338175       0.80250383 </v>
   <v>       0.82470466       0.34338175       0.80250383 </v>
   <v>       0.32470466       0.84338175       0.80250383 </v>
   <v>       0.82470466       0.84338175       0.80250383 </v>
   <v>       0.17529534       0.09338175       0.19749617 </v>
   <v>       0.67529534       0.09338175       0.19749617 </v>
   <v>       0.17529534       0.59338175       0.19749617 </v>
   <v>       0.67529534       0.59338175       0.19749617 </v>
   <v>       0.42345029       0.34530995       0.19749407 </v>
   <v>       0.92345029       0.34530995       0.19749407 </v>
   <v>       0.42345029       0.84530995       0.19749407 </v>
   <v>       0.92345029       0.84530995       0.19749407 </v>
   <v>       0.21868463       0.34523395       0.37102476 </v>
   <v>       0.71868463       0.34523395       0.37102476 </v>
   <v>       0.21868463       0.84523395       0.37102476 </v>
   <v>       0.71868463       0.84523395       0.37102476 </v>
   <v>       0.46681660       0.09254948       0.37102399 </v>
   <v>       0.96681660       0.09344897       0.37102399 </v>
   <v>       0.46681660       0.59344897       0.37102399 </v>
   <v>       0.96681660       0.59344897       0.37102399 </v>
   <v>       0.03318340       0.34344897       0.62897601 </v>
   <v>       0.53318340       0.34344897       0.62897601 </v>
   <v>       0.03318340       0.84344897       0.62897601 </v>
   <v>       0.53318340       0.84344897       0.62897601 </v>
   <v>       0.28131537       0.09523395       0.62897524 </v>
   <v>       0.78131537       0.09523395       0.62897524 </v>
   <v>       0.28131537       0.59523395       0.62897524 </v>
   <v>       0.78131537       0.59523395       0.62897524 </v>
   <v>       0.12439279       0.34434306       0.00000412 </v>
   <v>       0.62439279       0.34434306       0.00000412 </v>
   <v>       0.12439279       0.84434306       0.00000412 </v>
   <v>       0.62439279       0.84434306       0.00000412 </v>
   <v>       0.37560721       0.09434306       0.99999588 </v>
   <v>       0.87560721       0.09434306       0.99999588 </v>
   <v>       0.37560721       0.59434306       0.99999588 </v>
   <v>       0.87560721       0.59434306       0.99999588 </v>
   <v>       0.03824426       0.10634799       0.60632306 </v>
   <v>       0.53824426       0.10634799       0.60632306 </v>
   <v>       0.03824426       0.60634799       0.60632306 </v>
   <v>       0.53824426       0.60634799       0.60632306 </v>
   <v>       0.26492712       0.33232651       0.60632763 </v>
   <v>       0.76492712       0.33232651       0.60632763 </v>
   <v>       0.26492712       0.83232651       0.60632763 </v>
   <v>       0.76492712       0.83232651       0.60632763 </v>
   <v>       0.23507288       0.08232651       0.39367237 </v>
   <v>       0.73507288       0.08232651       0.39367237 </v>
   <v>       0.23507288       0.58232651       0.39367237 </v>
   <v>       0.73507288       0.58232651       0.39367237 </v>
   <v>       0.46175574       0.35634799       0.39367694 </v>
   <v>       0.96175574       0.35634799       0.39367694 </v>
   <v>       0.46175574       0.85634799       0.39367694 </v>
   <v>       0.96175574       0.85634799       0.39367694 </v>
   <v>       0.03848398       0.46936404       0.15397331 </v>
   <v>       0.53848398       0.46936404       0.15397331 </v>
   <v>       0.03848398       0.96936404       0.15397331 </v>
   <v>       0.53848398       0.96936404       0.15397331 </v>
   <v>       0.28861657       0.21935690       0.15447525 </v>
   <v>       0.78861657       0.21935690       0.15447525 </v>
   <v>       0.28861657       0.71935690       0.15447525 </v>
   <v>       0.78861657       0.71935690       0.15447525 </v>
   <v>       0.21138343       0.46935690       0.84552475 </v>
   <v>       0.71138343       0.46935690       0.84552475 </v>
   <v>       0.21138343       0.96935690       0.84552475 </v>
   <v>       0.71138343       0.96935690       0.84552475 </v>
   <v>       0.46151602       0.21936404       0.84602669 </v>
   <v>       0.96151602       0.21936404       0.84602669 </v>
   <v>       0.46151602       0.71936404       0.84602669 </v>
   <v>       0.96151602       0.71936404       0.84602669 </v>
  </varray>
 </structure>
 <calculation>
  <scstep>
   <time name="dav">  315.53  318.56</time>
   <time name="total">  318.87  321.95</time>
   <energy>
    <i name="alphaZ">   2314.49656628 </i>
    <i name="ewald"> -57722.74885356 </i>
    <i name="hartreedc"> -30349.15077632 </i>
    <i name="XCdc">   3229.30191289 </i>
    <i name="pawpsdc">  92679.89207989 </i>
    <i name="pawaedc"> -95535.38516353 </i>
    <i name="eentropy">     -0.01849343 </i>
    <i name="bandstr">    349.78713843 </i>
    <i name="atom">  95443.47970955 </i>
    <i name="e_fr_energy">  10409.65412020 </i>
    <i name="e_wo_entrp">  10409.67261363 </i>
    <i name="e_0_energy">  10409.66336691 </i>
   </energy>
  </scstep>
  <scstep>
   <time name="dav">  309.75  312.83</time>
   <time name="total">  309.75  312.84</time>
   <energy>
    <i name="e_fr_energy">   1177.47997253 </i>
    <i name="e_wo_entrp">   1177.54580216 </i>
    <i name="e_0_energy">   1177.51288735 </i>
   </energy>
  </scstep>
  <scstep>
   <time name="dav">  325.92  329.04</time>
   <time name="total">  325.92  329.04</time>
   <energy>
    <i name="e_fr_energy">   -308.04968135 </i>
    <i name="e_wo_entrp">   -308.04968135 </i>
    <i name="e_0_energy">   -308.04968135 </i>
   </energy>
  </scstep>
  <scstep>
   <time name="dav">  346.65  349.47</time>
   <time name="total">  346.65  349.47</time>
   <energy>
    <i name="e_fr_energy">   -476.29980997 </i>
    <i name="e_wo_entrp">   -476.29980997 </i>
    <i name="e_0_energy">   -476.29980997 </i>
   </energy>
  </scstep>
  <scstep>
   <time name="dav">  463.85  467.72</time>
   <time name="total">  473.13  477.12</time>
   <energy>
    <i name="e_fr_energy">   -488.73280055 </i>
    <i name="e_wo_entrp">   -488.73280055 </i>
    <i name="e_0_energy">   -488.73280055 </i>
   </energy>
  </scstep>
  <scstep>
   <time name="dav">  401.98  405.32</time>
   <time name="total">  414.46  417.90</time>
   <energy>
    <i name="e_fr_energy">   -489.20062914 </i>
    <i name="e_wo_entrp">   -489.20062914 </i>
    <i name="e_0_energy">   -489.20062914 </i>
   </energy>
  </scstep>
  <scstep>
   <time name="dav">  436.54  440.52</time>
   <time name="total">  449.27  453.31</time>
   <energy>
    <i name="e_fr_energy">   -489.21731606 </i>
    <i name="e_wo_entrp">   -489.21731606 </i>
    <i name="e_0_energy">   -489.21731606 </i>
   </energy>
  </scstep>
  <scstep>
   <time name="dav">  408.49  412.44</time>
   <time name="total">  421.24  425.22</time>
   <energy>
    <i name="e_fr_energy">   -489.21680993 </i>
    <i name="e_wo_entrp">   -489.21680993 </i>
    <i name="e_0_energy">   -489.21680993 </i>
   </energy>
  </scstep>
  <scstep>
   <time name="dav">  446.24  450.47</time>
   <time name="total">  458.94  463.27</time>
   <energy>
    <i name="e_fr_energy">   -489.21643339 </i>
    <i name="e_wo_entrp">   -489.21643339 </i>
    <i name="e_0_energy">   -489.21643339 </i>
   </energy>
  </scstep>
  <scstep>
   <time name="dav">  427.12  430.73</time>
   <time name="total">  439.65  443.50</time>
   <energy>
    <i name="e_fr_energy">   -489.21591662 </i>
    <i name="e_wo_entrp">   -489.21591662 </i>
    <i name="e_0_energy">   -489.21591662 </i>
   </energy>
  </scstep>
  <scstep>
   <time name="dav">  402.37  405.54</time>
   <time name="total">  414.99  418.30</time>
   <energy>
    <i name="e_fr_energy">   -489.21530073 </i>
    <i name="e_wo_entrp">   -489.21530073 </i>
    <i name="e_0_energy">   -489.21530073 </i>
   </energy>
  </scstep>
  <scstep>
   <time name="dav">  371.35  375.12</time>
   <time name="total">  384.04  387.88</time>
   <energy>
    <i name="e_fr_energy">   -489.21526685 </i>
    <i name="e_wo_entrp">   -489.21526685 </i>
    <i name="e_0_energy">   -489.21526685 </i>
   </energy>
  </scstep>
  <scstep>
   <time name="dav">  379.60  383.04</time>
   <time name="total">  392.17  395.80</time>
   <energy>
    <i name="e_fr_energy">   -489.21527368 </i>
    <i name="e_wo_entrp">   -489.21527368 </i>
    <i name="e_0_energy">   -489.21527368 </i>
   </energy>
  </scstep>
  <scstep>
   <time name="dav">  249.10  251.67</time>
   <time name="total">  252.42  255.02</time>
   <energy>
    <i name="alphaZ">   2314.49656628 </i>
    <i name="ewald"> -57722.74885356 </i>
    <i name="hartreedc"> -30349.02028988 </i>
    <i name="XCdc">   3229.27762070 </i>
    <i name="pawpsdc">  92663.10432499 </i>
    <i name="pawaedc"> -95518.45245069 </i>
    <i name="eentropy">     -0.00000000 </i>
    <i name="bandstr"> -10549.35190163 </i>
    <i name="atom">  95443.47970955 </i>
    <i name="e_fr_energy">   -489.21527426 </i>
    <i name="e_wo_entrp">   -489.21527426 </i>
    <i name="e_0_energy">   -489.21527426 </i>
   </energy>
  </scstep>
  <structure>
   <crystal>
    <varray name="basis" >
     <v>      11.11223374       0.00000000      -0.00029034 </v>
     <v>       0.00000000      11.11745194       0.00000000 </v>
     <v>      -2.77510898       0.00000000      10.19872221 </v>
    </varray>
    <i name="volume">   1259.93837498 </i>
    <varray name="rec_basis" >
     <v>       0.08999155       0.00000000       0.02448702 </v>
     <v>       0.00000000       0.08994867       0.00000000 </v>
     <v>       0.00000256       0.00000000       0.09805220 </v>
    </varray>
   </crystal>
   <varray name="positions" >
    <v>       0.28894969       0.46933910       0.15583616 </v>
    <v>       0.78894969       0.46933910       0.15583616 </v>
    <v>       0.28894969       0.96933910       0.15583616 </v>
    <v>       0.78894969       0.96933910       0.15583616 </v>
    <v>       0.04646972       0.21934976       0.18586770 </v>
    <v>       0.54646972       0.21934976       0.18586770 </v>
    <v>       0.04646972       0.71934976       0.18586770 </v>
    <v>       0.54646972       0.71934976       0.18586770 </v>
    <v>       0.45353028       0.46934976       0.81413230 </v>
    <v>       0.95353028       0.46934976       0.81413230 </v>
    <v>       0.45353028       0.96934976       0.81413230 </v>
    <v>       0.95353028       0.96934976       0.81413230 </v>
    <v>       0.21105031       0.21933910       0.84416384 </v>
    <v>       0.71105031       0.21933910       0.84416384 </v>
    <v>       0.21105031       0.71933910       0.84416384 </v>
    <v>       0.71105031       0.71933910       0.84416384 </v>
    <v>       0.07654971       0.09530995       0.80250593 </v>
    <v>       0.57654971       0.09530995       0.80250593 </v>
    <v>       0.07654971       0.59530995       0.80250593 </v>
    <v>       0.57654971       0.59530995       0.80250593 </v>
    <v>       0.32470466       0.34338175       0.80250383 </v>
    <v>       0.82470466       0.34338175       0.80250383 </v>
    <v>       0.32470466       0.84338175       0.80250383 </v>
    <v>       0.82470466       0.84338175       0.80250383 </v>
    <v>       0.17529534       0.09338175       0.19749617 </v>
    <v>       0.67529534       0.09338175       0.19749617 </v>
    <v>       0.17529534       0.59338175       0.19749617 </v>
    <v>       0.67529534       0.59338175       0.19749617 </v>
    <v>       0.42345029       0.34530995       0.19749407 </v>
    <v>       0.92345029       0.34530995       0.19749407 </v>
    <v>       0.42345029       0.84530995       0.19749407 </v>
    <v>       0.92345029       0.84530995       0.19749407 </v>
    <v>       0.21868463       0.34523395       0.37102476 </v>
    <v>       0.71868463       0.34523395       0.37102476 </v>
    <v>       0.21868463       0.84523395       0.37102476 </v>
    <v>       0.71868463       0.84523395       0.37102476 </v>
    <v>       0.46681660       0.09254948       0.37102399 </v>
    <v>       0.96681660       0.09344897       0.37102399 </v>
    <v>       0.46681660       0.59344897       0.37102399 </v>
    <v>       0.96681660       0.59344897       0.37102399 </v>
    <v>       0.03318340       0.34344897       0.62897601 </v>
    <v>       0.53318340       0.34344897       0.62897601 </v>
    <v>       0.03318340       0.84344897       0.62897601 </v>
    <v>       0.53318340       0.84344897       0.62897601 </v>
    <v>       0.28131537       0.09523395       0.62897524 </v>
    <v>       0.78131537       0.09523395       0.62897524 </v>
    <v>       0.28131537       0.59523395       0.62897524 </v>
    <v>       0.78131537       0.59523395       0.62897524 </v>
    <v>       0.12439279       0.34434306       0.00000412 </v>
    <v>       0.62439279       0.34434306       0.00000412 </v>
    <v>       0.12439279       0.84434306       0.00000412 </v>
    <v>       0.62439279       0.84434306       0.00000412 </v>
    <v>       0.37560721       0.09434306       0.99999588 </v>
    <v>       0.87560721       0.09434306       0.99999588 </v>
    <v>       0.37560721       0.59434306       0.99999588 </v>
    <v>       0.87560721       0.59434306       0.99999588 </v>
    <v>       0.03824426       0.10634799       0.60632306 </v>
    <v>       0.53824426       0.10634799       0.60632306 </v>
    <v>       0.03824426       0.60634799       0.60632306 </v>
    <v>       0.53824426       0.60634799       0.60632306 </v>
    <v>       0.26492712       0.33232651       0.60632763 </v>
    <v>       0.76492712       0.33232651       0.60632763 </v>
    <v>       0.26492712       0.83232651       0.60632763 </v>
    <v>       0.76492712       0.83232651       0.60632763 </v>
    <v>       0.23507288       0.08232651       0.39367237 </v>
    <v>       0.73507288       0.08232651       0.39367237 </v>
    <v>       0.23507288       0.58232651       0.39367237 </v>
    <v>       0.73507288       0.58232651       0.39367237 </v>
    <v>       0.46175574       0.35634799       0.39367694 </v>
    <v>       0.96175574       0.35634799       0.39367694 </v>
    <v>       0.46175574       0.85634799       0.39367694 </v>
    <v>       0.96175574       0.85634799       0.39367694 </v>
    <v>       0.03848398       0.46936404       0.15397331 </v>
    <v>       0.53848398       0.46936404       0.15397331 </v>
    <v>       0.03848398       0.96936404       0.15397331 </v>
    <v>       0.53848398       0.96936404       0.15397331 </v>
    <v>       0.28861657       0.21935690       0.15447525 </v>
    <v>       0.78861657       0.21935690       0.15447525 </v>
    <v>       0.28861657       0.71935690       0.15447525 </v>
    <v>       0.78861657       0.71935690       0.15447525 </v>
    <v>       0.21138343       0.46935690       0.84552475 </v>
    <v>       0.71138343       0.46935690       0.84552475 </v>
    <v>       0.21138343       0.96935690       0.84552475 </v>
    <v>       0.71138343       0.96935690       0.84552475 </v>
    <v>       0.46151602       0.21936404       0.84602669 </v>
    <v>       0.96151602       0.21936404       0.84602669 </v>
    <v>       0.46151602       0.71936404       0.84602669 </v>
    <v>       0.96151602       0.71936404       0.84602669 </v>
   </varray>
  </structure>
  <varray name="forces" >
   <v>      -0.00049085       0.00095287      -0.00022626 </v>
   <v>       0.00019539       0.00035965      -0.00014880 </v>
   <v>       0.00096346      -0.00096345       0.00123808 </v>
   <v>      -0.00009934      -0.00030402       0.00011254 </v>
   <v>      -0.00024866      -0.00032674      -0.00016222 </v>
   <v>       0.00072492      -0.00158221      -0.00074080 </v>
   <v>       0.00012929       0.00045342       0.00035983 </v>
   <v>      -0.00062741       0.00104874       0.00012072 </v>
   <v>      -0.00046200       0.00060604       0.00039828 </v>
   <v>       0.00001952       0.00027905      -0.00006719 </v>
   <v>       0.00036858      -0.00054131      -0.00027358 </v>
   <v>       0.00007187      -0.00025786       0.00003223 </v>
   <v>       0.00000332      -0.00018801      -0.00005724 </v>
   <v>       0.00019796      -0.00039018       0.00024643 </v>
   <v>      -0.00008172       0.00026274       0.00003548 </v>
   <v>      -0.00045581       0.00058006      -0.00039324 </v>
   <v>       0.00015780       0.00029960      -0.00007495 </v>
   <v>       0.00001486       0.00113698      -0.00020390 </v>
   <v>       0.00031074      -0.00043337      -0.00003545 </v>
   <v>       0.00063227      -0.00244668      -0.00009326 </v>
   <v>       0.00023100      -0.00002086      -0.00034810 </v>
   <v>      -0.00063853       0.00018360      -0.00026377 </v>
   <v>      -0.00066193       0.00027055       0.00022454 </v>
   <v>       0.00028510       0.00004630       0.00017222 </v>
   <v>       0.00083248       0.00241949      -0.00022051 </v>
   <v>       0.00062925       0.00222783       0.00038713 </v>
   <v>      -0.00020447      -0.00114375       0.00012432 </v>
   <v>      -0.00021219      -0.00106462       0.00002102 </v>
   <v>      -0.00088579      -0.00920666       0.00736901 </v>
   <v>      -0.00015029       0.00003658       0.00052380 </v>
   <v>      -0.00061380      -0.00949949      -0.00791740 </v>
   <v>      -0.00021166      -0.00001540      -0.00050619 </v>
   <v>       0.00315707      -0.00235314      -0.00015256 </v>
   <v>      -0.00283171      -0.00165515      -0.00013600 </v>
   <v>      -0.00375098      -0.00240815       0.00027778 </v>
   <v>       0.00320360      -0.00167491       0.00043044 </v>
   <v>       0.00262121       0.03754523       0.00193286 </v>
   <v>       0.00011248       0.00095420       0.00027224 </v>
   <v>       0.00011144      -0.00295181       0.00023246 </v>
   <v>       0.00004393      -0.00091420       0.00024128 </v>
   <v>      -0.00005131       0.00017681      -0.00057912 </v>
   <v>      -0.00037246      -0.00414683      -0.00563148 </v>
   <v>      -0.00009317       0.00019624       0.00019801 </v>
   <v>      -0.00007218      -0.00417595       0.00504125 </v>
   <v>       0.00033809       0.00094590      -0.00021360 </v>
   <v>       0.00002541       0.00096806      -0.00006222 </v>
   <v>      -0.00001673      -0.00091819      -0.00018677 </v>
   <v>       0.00006678      -0.00093006      -0.00011980 </v>
   <v>       0.00025665      -0.00009449       0.00060986 </v>
   <v>      -0.00022305      -0.00000278       0.00007781 </v>
   <v>      -0.00023391       0.00002048      -0.00029172 </v>
   <v>       0.00028131      -0.00003005      -0.00006331 </v>
   <v>      -0.00017013       0.00131820      -0.00013077 </v>
   <v>      -0.00000483       0.00030758      -0.00008772 </v>
   <v>       0.00003652      -0.00122630      -0.00004965 </v>
   <v>      -0.00002785      -0.00040266      -0.00009345 </v>
   <v>      -0.00035757      -0.00023657      -0.00000073 </v>
   <v>      -0.00008163      -0.00271471      -0.00176698 </v>
   <v>      -0.00024214       0.00030774       0.00008670 </v>
   <v>      -0.00027612       0.00237617       0.00023018 </v>
   <v>      -0.00033691      -0.00017459       0.00090998 </v>
   <v>       0.00109770      -0.00015142       0.00063720 </v>
   <v>       0.00090643       0.00003793      -0.00085648 </v>
   <v>      -0.00053284       0.00002308      -0.00059464 </v>
   <v>      -0.00123499      -0.00213344      -0.00028783 </v>
   <v>      -0.00014206      -0.00205473      -0.00003286 </v>
   <v>      -0.00024576       0.00140980      -0.00012784 </v>
   <v>      -0.00032398       0.00111850       0.00003931 </v>
   <v>      -0.00048458       0.00689578       0.00025245 </v>
   <v>       0.00022751      -0.00009180       0.00001928 </v>
   <v>      -0.00007095      -0.00553596       0.00085066 </v>
   <v>       0.00027603      -0.00028048      -0.00018684 </v>
   <v>      -0.00007803       0.00070222      -0.00024527 </v>
   <v>       0.00162798       0.00216902      -0.00035007 </v>
   <v>      -0.00003526      -0.00076119       0.00043697 </v>
   <v>      -0.00189766      -0.00238847       0.00167118 </v>
   <v>      -0.00218857      -0.00219838      -0.00215483 </v>
   <v>       0.00013593      -0.00073765      -0.00018028 </v>
   <v>       0.00171058       0.00214753       0.00050879 </v>
   <v>      -0.00003598       0.00077115       0.00020008 </v>
   <v>       0.00002728       0.00047903       0.00000109 </v>
   <v>       0.00053257       0.00097867       0.00066919 </v>
   <v>      -0.00007311      -0.00058241       0.00010906 </v>
   <v>      -0.00029265      -0.00095398      -0.00023342 </v>
   <v>      -0.00040749      -0.00065420       0.00022179 </v>
   <v>       0.00001449      -0.00052475      -0.00015385 </v>
   <v>       0.00065197       0.00093813      -0.00070132 </v>
   <v>       0.00000027       0.00049305      -0.00011922 </v>
  </varray>
  <varray name="stress" >
   <v>       2.18028414       0.00081190      -0.08688397 </v>
   <v>       0.00080721       1.95525742       0.00763431 </v>
   <v>      -0.08725137       0.00767955       0.55459257 </v>
  </varray>
  <energy>
   <i name="e_fr_energy">   -489.21527426 </i>
   <i name="e_wo_entrp">   -489.21527426 </i>
   <i name="e_0_energy">     -0.00000000 </i>
  </energy>
  <time name="totalsc"> 5936.13 5989.34</time>
  <eigenvalues>
   <array>
    <dimension dim="1">band</dimension>
    <dimension dim="2">kpoint</dimension>
    <dimension dim="3">spin</dimension>
    <field>eigene</field>
    <field>occ</field>
    <set>
     <set comment="spin 1">
      <set comment="kpoint 1">
       <r>  -51.0581    1.0000 </r>
       <r>  -51.0552    1.0000 </r>
       <r>  -51.0550    1.0000 </r>
       <r>  -51.0548    1.0000 </r>
       <r>  -51.0542    1.0000 </r>
       <r>  -51.0540    1.0000 </r>
       <r>  -51.0538    1.0000 </r>
       <r>  -51.0534    1.0000 </r>
       <r>  -51.0531    1.0000 </r>
       <r>  -51.0527    1.0000 </r>
       <r>  -51.0526    1.0000 </r>
       <r>  -51.0525    1.0000 </r>
       <r>  -51.0518    1.0000 </r>
       <r>  -51.0513    1.0000 </r>
       <r>  -51.0507    1.0000 </r>
       <r>  -51.0470    1.0000 </r>
       <r>  -51.0459    1.0000 </r>
       <r>  -51.0446    1.0000 </r>
       <r>  -51.0444    1.0000 </r>
       <r>  -51.0444    1.0000 </r>
       <r>  -51.0439    1.0000 </r>
       <r>  -51.0438    1.0000 </r>
       <r>  -51.0438    1.0000 </r>
       <r>  -51.0418    1.0000 </r>
       <r>  -51.0409    1.0000 </r>
       <r>  -51.0400    1.0000 </r>
       <r>  -51.0399    1.0000 </r>
       <r>  -51.0398    1.0000 </r>
       <r>  -51.0392    1.0000 </r>
       <r>  -51.0392    1.0000 </r>
       <r>  -51.0389    1.0000 </r>
       <r>  -51.0372    1.0000 </r>
       <r>  -49.7039    1.0000 </r>
       <r>  -49.7023    1.0000 </r>
       <r>  -49.7020    1.0000 </r>
       <r>  -49.7019    1.0000 </r>
       <r>  -49.7015    1.0000 </r>
       <r>  -49.7012    1.0000 </r>
       <r>  -49.7012    1.0000 </r>
       <r>  -49.7005    1.0000 </r>
       <r>  -49.6953    1.0000 </r>
       <r>  -49.6946    1.0000 </r>
       <r>  -49.6945    1.0000 </r>
       <r>  -49.6944    1.0000 </r>
       <r>  -49.6939    1.0000 </r>
       <r>  -49.6938    1.0000 </r>
       <r>  -49.6935    1.0000 </r>
       <r>  -49.6921    1.0000 </r>
       <r>  -49.6025    1.0000 </r>
       <r>  -49.5986    1.0000 </r>
       <r>  -49.5981    1.0000 </r>
       <r>  -49.5978    1.0000 </r>
       <r>  -49.5975    1.0000 </r>
       <r>  -49.5972    1.0000 </r>
       <r>  -49.5971    1.0000 </r>
       <r>  -49.5970    1.0000 </r>
       <r>  -49.5967    1.0000 </r>
       <r>  -49.5965    1.0000 </r>
       <r>  -49.5962    1.0000 </r>
       <r>  -49.5960    1.0000 </r>
       <r>  -49.5957    1.0000 </r>
       <r>  -49.5955    1.0000 </r>
       <r>  -49.5954    1.0000 </r>
       <r>  -49.5895    1.0000 </r>
       <r>  -49.5703    1.0000 </r>
       <r>  -49.5673    1.0000 </r>
       <r>  -49.5668    1.0000 </r>
       <r>  -49.5665    1.0000 </r>
       <r>  -49.5661    1.0000 </r>
       <r>  -49.5658    1.0000 </r>
       <r>  -49.5655    1.0000 </r>
       <r>  -49.5654    1.0000 </r>
       <r>  -49.5651    1.0000 </r>
       <r>  -49.5649    1.0000 </r>
       <r>  -49.5646    1.0000 </r>
       <r>  -49.5646    1.0000 </r>
       <r>  -49.5638    1.0000 </r>
       <r>  -49.5637    1.0000 </r>
       <r>  -49.5636    1.0000 </r>
       <r>  -49.5571    1.0000 </r>
       <r>  -49.5558    1.0000 </r>
       <r>  -49.5548    1.0000 </r>
       <r>  -49.5545    1.0000 </r>
       <r>  -49.5545    1.0000 </r>
       <r>  -49.5541    1.0000 </r>
       <r>  -49.5538    1.0000 </r>
       <r>  -49.5537    1.0000 </r>
       <r>  -49.5531    1.0000 </r>
       <r>  -49.5406    1.0000 </r>
       <r>  -49.5400    1.0000 </r>
       <r>  -49.5399    1.0000 </r>
       <r>  -49.5398    1.0000 </r>
       <r>  -49.5393    1.0000 </r>
       <r>  -49.5392    1.0000 </r>
       <r>  -49.5389    1.0000 </r>
       <r>  -49.5381    1.0000 </r>
       <r>  -39.8753    1.0000 </r>
       <r>  -39.8740    1.0000 </r>
       <r>  -39.8737    1.0000 </r>
       <r>  -39.8735    1.0000 </r>
       <r>  -39.8733    1.0000 </r>
       <r>  -39.8730    1.0000 </r>
       <r>  -39.8729    1.0000 </r>
       <r>  -39.8728    1.0000 </r>
       <r>  -39.8726    1.0000 </r>
       <r>  -39.8725    1.0000 </r>
       <r>  -39.8724    1.0000 </r>
       <r>  -39.8721    1.0000 </r>
       <r>  -39.8719    1.0000 </r>
       <r>  -39.8719    1.0000 </r>
       <r>  -39.8715    1.0000 </r>
       <r>  -39.8710    1.0000 </r>
       <r>  -13.2249    1.0000 </r>
       <r>  -13.2249    1.0000 </r>
       <r>  -13.2105    1.0000 </r>
       <r>  -13.1836    1.0000 </r>
       <r>  -13.1012    1.0000 </r>
       <r>  -13.0991    1.0000 </r>
       <r>  -13.0990    1.0000 </r>
       <r>  -13.0931    1.0000 </r>
       <r>  -13.0862    1.0000 </r>
       <r>  -13.0802    1.0000 </r>
       <r>  -13.0801    1.0000 </r>
       <r>  -13.0776    1.0000 </r>
       <r>  -12.9882    1.0000 </r>
       <r>  -12.9775    1.0000 </r>
       <r>  -12.9419    1.0000 </r>
       <r>  -12.9419    1.0000 </r>
       <r>   -7.6453    1.0000 </r>
       <r>   -7.4068    1.0000 </r>
       <r>   -7.3264    1.0000 </r>
       <r>   -7.3258    1.0000 </r>
       <r>   -7.3096    1.0000 </r>
       <r>   -7.3092    1.0000 </r>
       <r>   -7.3085    1.0000 </r>
       <r>   -7.3071    1.0000 </r>
       <r>   -7.1696    1.0000 </r>
       <r>   -7.1571    1.0000 </r>
       <r>   -7.1242    1.0000 </r>
       <r>   -7.1235    1.0000 </r>
       <r>   -7.0365    1.0000 </r>
       <r>   -7.0219    1.0000 </r>
       <r>   -7.0024    1.0000 </r>
       <r>   -7.0018    1.0000 </r>
       <r>   -6.9411    1.0000 </r>
       <r>   -6.9406    1.0000 </r>
       <r>   -6.8874    1.0000 </r>
       <r>   -6.8870    1.0000 </r>
       <r>   -6.8657    1.0000 </r>
       <r>   -6.8615    1.0000 </r>
       <r>   -6.8345    1.0000 </r>
       <r>   -6.8038    1.0000 </r>
       <r>   -1.9356    1.0000 </r>
       <r>   -1.9355    1.0000 </r>
       <r>   -1.9105    1.0000 </r>
       <r>   -1.8936    1.0000 </r>
       <r>   -1.6665    1.0000 </r>
       <r>   -1.6664    1.0000 </r>
       <r>   -1.6588    1.0000 </r>
       <r>   -1.6573    1.0000 </r>
       <r>   -1.5998    1.0000 </r>
       <r>   -1.5980    1.0000 </r>
       <r>   -1.5863    1.0000 </r>
       <r>   -1.5862    1.0000 </r>
       <r>   -1.2983    1.0000 </r>
       <r>   -1.1747    1.0000 </r>
       <r>   -1.1746    1.0000 </r>
       <r>   -1.1136    1.0000 </r>
       <r>   -1.1131    1.0000 </r>
       <r>   -1.1073    1.0000 </r>
       <r>   -1.0494    1.0000 </r>
       <r>   -0.9810    1.0000 </r>
       <r>   -0.9647    1.0000 </r>
       <r>   -0.9597    1.0000 </r>
       <r>   -0.9578    1.0000 </r>
       <r>   -0.9575    1.0000 </r>
       <r>   -0.9470    1.0000 </r>
       <r>   -0.9453    1.0000 </r>
       <r>   -0.9228    1.0000 </r>
       <r>   -0.8713    1.0000 </r>
       <r>   -0.8712    1.0000 </r>
       <r>   -0.8034    1.0000 </r>
       <r>   -0.8027    1.0000 </r>
       <r>   -0.8026    1.0000 </r>
       <r>   -0.7751    1.0000 </r>
       <r>   -0.7741    1.0000 </r>
       <r>   -0.7740    1.0000 </r>
       <r>   -0.7609    1.0000 </r>
       <r>   -0.7167    1.0000 </r>
       <r>   -0.7166    1.0000 </r>
       <r>   -0.7066    1.0000 </r>
       <r>   -0.7050    1.0000 </r>
       <r>   -0.6992    1.0000 </r>
       <r>   -0.6990    1.0000 </r>
       <r>   -0.6088    1.0000 </r>
       <r>   -0.6086    1.0000 </r>
       <r>   -0.5616    1.0000 </r>
       <r>   -0.5614    1.0000 </r>
       <r>   -0.5496    1.0000 </r>
       <r>   -0.5480    1.0000 </r>
       <r>   -0.4082    1.0000 </r>
       <r>   -0.4079    1.0000 </r>
       <r>   -0.3573    1.0000 </r>
       <r>   -0.3479    1.0000 </r>
       <r>   -0.3296    1.0000 </r>
       <r>   -0.3294    1.0000 </r>
       <r>   -0.2989    1.0000 </r>
       <r>   -0.2984    1.0000 </r>
       <r>   -0.2816    1.0000 </r>
       <r>   -0.2693    1.0000 </r>
       <r>   -0.2629    1.0000 </r>
       <r>   -0.2559    1.0000 </r>
       <r>   -0.2550    1.0000 </r>
       <r>   -0.2091    1.0000 </r>
       <r>   -0.2089    1.0000 </r>
       <r>   -0.1889    1.0000 </r>
       <r>   -0.1868    1.0000 </r>
       <r>   -0.1867    1.0000 </r>
       <r>   -0.1759    1.0000 </r>
       <r>   -0.1579    1.0000 </r>
       <r>   -0.1255    1.0000 </r>
       <r>   -0.1254    1.0000 </r>
       <r>   -0.1095    1.0000 </r>
       <r>   -0.0709    1.0000 </r>
       <r>   -0.0702    1.0000 </r>
       <r>   -0.0605    1.0000 </r>
       <r>   -0.0433    1.0000 </r>
       <r>   -0.0176    1.0000 </r>
       <r>   -0.0175    1.0000 </r>
       <r>   -0.0116    1.0000 </r>
       <r>    0.0016    1.0000 </r>
       <r>    0.0017    1.0000 </r>
       <r>    0.0462    1.0000 </r>
       <r>    0.0492    1.0000 </r>
       <r>    0.0496    1.0000 </r>
       <r>    0.0913    1.0000 </r>
       <r>    0.0932    1.0000 </r>
       <r>    0.1184    1.0000 </r>
       <r>    0.1186    1.0000 </r>
       <r>    0.1577    1.0000 </r>
       <r>    0.1626    1.0000 </r>
       <r>    0.1768    1.0000 </r>
       <r>    0.1794    1.0000 </r>
       <r>    0.1820    1.0000 </r>
       <r>    0.1822    1.0000 </r>
       <r>    0.1855    1.0000 </r>
       <r>    0.1893    1.0000 </r>
       <r>    0.1932    1.0000 </r>
       <r>    0.1941    1.0000 </r>
       <r>    0.2009    1.0000 </r>
       <r>    0.2010    1.0000 </r>
       <r>    0.2387    1.0000 </r>
       <r>    0.2511    1.0000 </r>
       <r>    0.2566    1.0000 </r>
       <r>    0.2571    1.0000 </r>
       <r>    0.2766    1.0000 </r>
       <r>    0.3373    1.0000 </r>
       <r>    0.3475    1.0000 </r>
       <r>    0.3589    1.0000 </r>
       <r>    0.3590    1.0000 </r>
       <r>    0.3604    1.0000 </r>
       <r>    0.3604    1.0000 </r>
       <r>    0.3881    1.0000 </r>
       <r>    0.4016    1.0000 </r>
       <r>    0.4524    1.0000 </r>
       <r>    0.4527    1.0000 </r>
       <r>    0.5788    1.0000 </r>
       <r>    0.5789    1.0000 </r>
       <r>    0.5842    1.0000 </r>
       <r>    0.6019    1.0000 </r>
       <r>    0.6020    1.0000 </r>
       <r>    0.6064    1.0000 </r>
       <r>    0.6078    1.0000 </r>
       <r>    0.6401    1.0000 </r>
       <r>    0.6510    1.0000 </r>
       <r>    0.6513    1.0000 </r>
       <r>    0.6619    1.0000 </r>
       <r>    0.6623    1.0000 </r>
       <r>    0.6656    1.0000 </r>
       <r>    0.6731    1.0000 </r>
       <r>    0.6748    1.0000 </r>
       <r>    0.6750    1.0000 </r>
       <r>    0.6966    1.0000 </r>
       <r>    0.7229    1.0000 </r>
       <r>    0.7832    1.0000 </r>
       <r>    0.8195    1.0000 </r>
       <r>    0.8294    1.0000 </r>
       <r>    0.8316    1.0000 </r>
       <r>    0.8328    1.0000 </r>
       <r>    0.8611    1.0000 </r>
       <r>    0.8613    1.0000 </r>
       <r>    0.9093    1.0000 </r>
       <r>    0.9402    1.0000 </r>
       <r>    0.9480    1.0000 </r>
       <r>    0.9483    1.0000 </r>
       <r>    0.9832    1.0000 </r>
       <r>    1.0261    1.0000 </r>
       <r>    1.0705    1.0000 </r>
       <r>    1.2692    1.0000 </r>
       <r>    1.2980    1.0000 </r>
       <r>    1.2981    1.0000 </r>
       <r>    1.3115    1.0000 </r>
       <r>    1.3331    1.0000 </r>
       <r>    1.3333    1.0000 </r>
       <r>    1.3378    1.0000 </r>
       <r>    1.3841    1.0000 </r>
       <r>    1.4050    1.0000 </r>
       <r>    1.4281    1.0000 </r>
       <r>    1.4670    1.0000 </r>
       <r>    1.4680    1.0000 </r>
       <r>    1.4682    1.0000 </r>
       <r>    1.4813    1.0000 </r>
       <r>    1.5109    1.0000 </r>
       <r>    1.5110    1.0000 </r>
       <r>    1.5407    1.0000 </r>
       <r>    1.5611    1.0000 </r>
       <r>    1.5769    1.0000 </r>
       <r>    1.6464    1.0000 </r>
       <r>    1.6555    1.0000 </r>
       <r>    1.7562    1.0000 </r>
       <r>    1.7564    1.0000 </r>
       <r>    1.7630    1.0000 </r>
       <r>    1.7787    1.0000 </r>
       <r>    1.8028    1.0000 </r>
       <r>    1.8029    1.0000 </r>
       <r>    1.8108    1.0000 </r>
       <r>    1.8232    1.0000 </r>
       <r>    1.8366    1.0000 </r>
       <r>    1.8366    1.0000 </r>
       <r>    1.8460    1.0000 </r>
       <r>    1.8469    1.0000 </r>
       <r>    1.8783    1.0000 </r>
       <r>    1.8901    1.0000 </r>
       <r>    1.9469    1.0000 </r>
       <r>    1.9933    1.0000 </r>
       <r>    1.9935    1.0000 </r>
       <r>    2.0059    1.0000 </r>
       <r>    2.0064    1.0000 </r>
       <r>    2.0100    1.0000 </r>
       <r>    2.0185    1.0000 </r>
       <r>    2.0202    1.0000 </r>
       <r>    2.0206    1.0000 </r>
       <r>    2.0397    1.0000 </r>
       <r>    2.0467    1.0000 </r>
       <r>    2.0470    1.0000 </r>
       <r>    2.0573    1.0000 </r>
       <r>    2.0690    1.0000 </r>
       <r>    2.0692    1.0000 </r>
       <r>    2.0915    1.0000 </r>
       <r>    2.1129    1.0000 </r>
       <r>    2.1907    1.0000 </r>
       <r>    2.1907    1.0000 </r>
       <r>    2.2469    1.0000 </r>
       <r>    2.2471    1.0000 </r>
       <r>    2.2707    1.0000 </r>
       <r>    2.2729    1.0000 </r>
       <r>    2.2846    1.0000 </r>
       <r>    2.4278    1.0000 </r>
       <r>    2.4663    1.0000 </r>
       <r>    2.4665    1.0000 </r>
       <r>    2.4776    1.0000 </r>
       <r>    2.5036    1.0000 </r>
       <r>    2.5273    1.0000 </r>
       <r>    2.5543    1.0000 </r>
       <r>    2.5923    1.0000 </r>
       <r>    2.6267    1.0000 </r>
       <r>    2.6268    1.0000 </r>
       <r>    2.6562    1.0000 </r>
       <r>    2.7382    1.0000 </r>
       <r>    2.7386    1.0000 </r>
       <r>    2.7609    1.0000 </r>
       <r>    2.7612    1.0000 </r>
       <r>    2.8336    1.0000 </r>
       <r>    2.8721    1.0000 </r>
       <r>    2.9264    1.0000 </r>
       <r>    2.9342    1.0000 </r>
       <r>    2.9346    1.0000 </r>
       <r>    2.9691    1.0000 </r>
       <r>    3.0272    1.0000 </r>
       <r>    3.0278    1.0000 </r>
       <r>    3.0616    1.0000 </r>
       <r>    3.0977    1.0000 </r>
       <r>    3.3080    1.0000 </r>
       <r>    3.3111    1.0000 </r>
       <r>    3.3480    1.0000 </r>
       <r>    3.3757    1.0000 </r>
       <r>    3.4215    1.0000 </r>
       <r>    3.4220    1.0000 </r>
       <r>    3.4407    1.0000 </r>
       <r>    3.4583    1.0000 </r>
       <r>    3.4592    1.0000 </r>
       <r>    3.5318    1.0000 </r>
       <r>    3.7480    1.0000 </r>
       <r>    3.8083    1.0000 </r>
       <r>    3.8092    1.0000 </r>
       <r>    3.8150    1.0000 </r>
       <r>    3.8154    1.0000 </r>
       <r>    3.8824    1.0000 </r>
       <r>    3.8827    1.0000 </r>
       <r>    3.9322    1.0000 </r>
       <r>    3.9354    1.0000 </r>
       <r>    3.9406    1.0000 </r>
       <r>    3.9407    1.0000 </r>
       <r>    4.0392    1.0000 </r>
       <r>    4.0395    1.0000 </r>
       <r>    4.0703    1.0000 </r>
       <r>    4.1386    1.0000 </r>
       <r>    4.1491    1.0000 </r>
       <r>    4.1517    1.0000 </r>
       <r>    4.3146    1.0000 </r>
       <r>    4.3181    1.0000 </r>
       <r>    4.3379    1.0000 </r>
       <r>    4.3584    1.0000 </r>
       <r>    4.3586    1.0000 </r>
       <r>    4.4291    1.0000 </r>
       <r>    4.4445    1.0000 </r>
       <r>    4.4462    1.0000 </r>
       <r>    4.4540    1.0000 </r>
       <r>    4.4562    1.0000 </r>
       <r>    4.4568    1.0000 </r>
       <r>    4.6364    1.0000 </r>
       <r>    4.6368    1.0000 </r>
       <r>    4.7322    1.0000 </r>
       <r>    4.7328    1.0000 </r>
       <r>    4.7640    1.0000 </r>
       <r>    4.7642    1.0000 </r>
       <r>    4.7693    1.0000 </r>
       <r>    4.7696    1.0000 </r>
       <r>    4.8105    1.0000 </r>
       <r>    4.8531    1.0000 </r>
       <r>    4.8537    1.0000 </r>
       <r>    4.8574    1.0000 </r>
       <r>    7.3436    0.0000 </r>
       <r>    8.1286    0.0000 </r>
       <r>    8.4450    0.0000 </r>
       <r>    8.6423    0.0000 </r>
       <r>    8.6428    0.0000 </r>
       <r>    8.8581    0.0000 </r>
       <r>    9.0843    0.0000 </r>
       <r>    9.0849    0.0000 </r>
       <r>    9.2613    0.0000 </r>
       <r>    9.2733    0.0000 </r>
       <r>    9.2886    0.0000 </r>
       <r>    9.2902    0.0000 </r>
       <r>    9.7263    0.0000 </r>
       <r>    9.7712    0.0000 </r>
       <r>    9.7725    0.0000 </r>
       <r>    9.7898    0.0000 </r>
       <r>    9.8542    0.0000 </r>
       <r>    9.8550    0.0000 </r>
       <r>    9.8591    0.0000 </r>
       <r>    9.8789    0.0000 </r>
       <r>    9.8893    0.0000 </r>
       <r>   10.0604    0.0000 </r>
       <r>   10.0831    0.0000 </r>
       <r>   10.1351    0.0000 </r>
       <r>   10.1368    0.0000 </r>
       <r>   10.3054    0.0000 </r>
       <r>   10.3064    0.0000 </r>
       <r>   10.4169    0.0000 </r>
       <r>   10.5268    0.0000 </r>
       <r>   10.5703    0.0000 </r>
       <r>   10.5716    0.0000 </r>
       <r>   10.5726    0.0000 </r>
       <r>   10.5772    0.0000 </r>
       <r>   10.5804    0.0000 </r>
       <r>   10.6758    0.0000 </r>
       <r>   10.9769    0.0000 </r>
       <r>   11.0182    0.0000 </r>
       <r>   11.0197    0.0000 </r>
       <r>   11.0407    0.0000 </r>
       <r>   11.0410    0.0000 </r>
       <r>   11.0774    0.0000 </r>
       <r>   11.1276    0.0000 </r>
       <r>   11.1778    0.0000 </r>
       <r>   11.1880    0.0000 </r>
       <r>   11.2287    0.0000 </r>
       <r>   11.2495    0.0000 </r>
       <r>   11.2498    0.0000 </r>
       <r>   11.2905    0.0000 </r>
       <r>   11.3074    0.0000 </r>
       <r>   11.4154    0.0000 </r>
       <r>   11.4179    0.0000 </r>
       <r>   11.4587    0.0000 </r>
       <r>   11.5203    0.0000 </r>
       <r>   11.5213    0.0000 </r>
       <r>   11.5302    0.0000 </r>
       <r>   11.5771    0.0000 </r>
       <r>   11.6794    0.0000 </r>
       <r>   11.6825    0.0000 </r>
       <r>   11.7970    0.0000 </r>
       <r>   11.7979    0.0000 </r>
       <r>   11.8156    0.0000 </r>
       <r>   11.8157    0.0000 </r>
       <r>   11.8821    0.0000 </r>
       <r>   11.9411    0.0000 </r>
       <r>   11.9760    0.0000 </r>
       <r>   11.9775    0.0000 </r>
       <r>   11.9822    0.0000 </r>
       <r>   12.0268    0.0000 </r>
       <r>   12.0299    0.0000 </r>
       <r>   12.0581    0.0000 </r>
       <r>   12.1615    0.0000 </r>
       <r>   12.2429    0.0000 </r>
       <r>   12.2563    0.0000 </r>
       <r>   12.2581    0.0000 </r>
       <r>   12.3158    0.0000 </r>
       <r>   12.3177    0.0000 </r>
       <r>   12.3213    0.0000 </r>
       <r>   12.3483    0.0000 </r>
       <r>   12.4619    0.0000 </r>
       <r>   12.4807    0.0000 </r>
       <r>   12.5159    0.0000 </r>
       <r>   12.5165    0.0000 </r>
       <r>   12.6135    0.0000 </r>
       <r>   12.6156    0.0000 </r>
       <r>   12.6607    0.0000 </r>
       <r>   12.6627    0.0000 </r>
       <r>   12.6637    0.0000 </r>
       <r>   12.6896    0.0000 </r>
       <r>   12.7480    0.0000 </r>
       <r>   12.8308    0.0000 </r>
       <r>   12.8723    0.0000 </r>
       <r>   12.8727    0.0000 </r>
       <r>   12.8731    0.0000 </r>
       <r>   13.1198    0.0000 </r>
       <r>   13.1207    0.0000 </r>
       <r>   13.2009    0.0000 </r>
       <r>   13.3817    0.0000 </r>
       <r>   13.4102    0.0000 </r>
       <r>   13.4119    0.0000 </r>
       <r>   13.4344    0.0000 </r>
       <r>   13.4382    0.0000 </r>
       <r>   13.4550    0.0000 </r>
       <r>   13.4970    0.0000 </r>
       <r>   13.5120    0.0000 </r>
       <r>   13.5452    0.0000 </r>
       <r>   13.5547    0.0000 </r>
      </set>
      <set comment="kpoint 2">
       <r>  -51.0581    1.0000 </r>
       <r>  -51.0551    1.0000 </r>
       <r>  -51.0549    1.0000 </r>
       <r>  -51.0548    1.0000 </r>
       <r>  -51.0544    1.0000 </r>
       <r>  -51.0542    1.0000 </r>
       <r>  -51.0540    1.0000 </r>
       <r>  -51.0535    1.0000 </r>
       <r>  -51.0531    1.0000 </r>
       <r>  -51.0527    1.0000 </r>
       <r>  -51.0523    1.0000 </r>
       <r>  -51.0521    1.0000 </r>
       <r>  -51.0518    1.0000 </r>
       <r>  -51.0514    1.0000 </r>
       <r>  -51.0509    1.0000 </r>
       <r>  -51.0470    1.0000 </r>
       <r>  -51.0459    1.0000 </r>
       <r>  -51.0446    1.0000 </r>
       <r>  -51.0444    1.0000 </r>
       <r>  -51.0444    1.0000 </r>
       <r>  -51.0439    1.0000 </r>
       <r>  -51.0438    1.0000 </r>
       <r>  -51.0438    1.0000 </r>
       <r>  -51.0418    1.0000 </r>
       <r>  -51.0409    1.0000 </r>
       <r>  -51.0400    1.0000 </r>
       <r>  -51.0399    1.0000 </r>
       <r>  -51.0398    1.0000 </r>
       <r>  -51.0392    1.0000 </r>
       <r>  -51.0392    1.0000 </r>
       <r>  -51.0389    1.0000 </r>
       <r>  -51.0372    1.0000 </r>
       <r>  -49.7039    1.0000 </r>
       <r>  -49.7023    1.0000 </r>
       <r>  -49.7020    1.0000 </r>
       <r>  -49.7019    1.0000 </r>
       <r>  -49.7015    1.0000 </r>
       <r>  -49.7012    1.0000 </r>
       <r>  -49.7012    1.0000 </r>
       <r>  -49.7005    1.0000 </r>
       <r>  -49.6953    1.0000 </r>
       <r>  -49.6946    1.0000 </r>
       <r>  -49.6945    1.0000 </r>
       <r>  -49.6944    1.0000 </r>
       <r>  -49.6939    1.0000 </r>
       <r>  -49.6938    1.0000 </r>
       <r>  -49.6935    1.0000 </r>
       <r>  -49.6921    1.0000 </r>
       <r>  -49.6025    1.0000 </r>
       <r>  -49.5985    1.0000 </r>
       <r>  -49.5981    1.0000 </r>
       <r>  -49.5978    1.0000 </r>
       <r>  -49.5975    1.0000 </r>
       <r>  -49.5972    1.0000 </r>
       <r>  -49.5971    1.0000 </r>
       <r>  -49.5969    1.0000 </r>
       <r>  -49.5967    1.0000 </r>
       <r>  -49.5964    1.0000 </r>
       <r>  -49.5962    1.0000 </r>
       <r>  -49.5960    1.0000 </r>
       <r>  -49.5957    1.0000 </r>
       <r>  -49.5955    1.0000 </r>
       <r>  -49.5954    1.0000 </r>
       <r>  -49.5895    1.0000 </r>
       <r>  -49.5703    1.0000 </r>
       <r>  -49.5673    1.0000 </r>
       <r>  -49.5669    1.0000 </r>
       <r>  -49.5664    1.0000 </r>
       <r>  -49.5661    1.0000 </r>
       <r>  -49.5659    1.0000 </r>
       <r>  -49.5655    1.0000 </r>
       <r>  -49.5653    1.0000 </r>
       <r>  -49.5651    1.0000 </r>
       <r>  -49.5649    1.0000 </r>
       <r>  -49.5646    1.0000 </r>
       <r>  -49.5646    1.0000 </r>
       <r>  -49.5638    1.0000 </r>
       <r>  -49.5637    1.0000 </r>
       <r>  -49.5636    1.0000 </r>
       <r>  -49.5571    1.0000 </r>
       <r>  -49.5558    1.0000 </r>
       <r>  -49.5548    1.0000 </r>
       <r>  -49.5545    1.0000 </r>
       <r>  -49.5545    1.0000 </r>
       <r>  -49.5541    1.0000 </r>
       <r>  -49.5538    1.0000 </r>
       <r>  -49.5537    1.0000 </r>
       <r>  -49.5531    1.0000 </r>
       <r>  -49.5406    1.0000 </r>
       <r>  -49.5400    1.0000 </r>
       <r>  -49.5399    1.0000 </r>
       <r>  -49.5398    1.0000 </r>
       <r>  -49.5393    1.0000 </r>
       <r>  -49.5392    1.0000 </r>
       <r>  -49.5389    1.0000 </r>
       <r>  -49.5381    1.0000 </r>
       <r>  -39.8753    1.0000 </r>
       <r>  -39.8739    1.0000 </r>
       <r>  -39.8736    1.0000 </r>
       <r>  -39.8735    1.0000 </r>
       <r>  -39.8734    1.0000 </r>
       <r>  -39.8730    1.0000 </r>
       <r>  -39.8729    1.0000 </r>
       <r>  -39.8728    1.0000 </r>
       <r>  -39.8725    1.0000 </r>
       <r>  -39.8725    1.0000 </r>
       <r>  -39.8724    1.0000 </r>
       <r>  -39.8720    1.0000 </r>
       <r>  -39.8719    1.0000 </r>
       <r>  -39.8719    1.0000 </r>
       <r>  -39.8715    1.0000 </r>
       <r>  -39.8710    1.0000 </r>
       <r>  -13.2075    1.0000 </r>
       <r>  -13.2075    1.0000 </r>
       <r>  -13.1951    1.0000 </r>
       <r>  -13.1702    1.0000 </r>
       <r>  -13.1591    1.0000 </r>
       <r>  -13.1591    1.0000 </r>
       <r>  -13.1534    1.0000 </r>
       <r>  -13.1333    1.0000 </r>
       <r>  -13.0419    1.0000 </r>
       <r>  -13.0301    1.0000 </r>
       <r>  -13.0170    1.0000 </r>
       <r>  -13.0170    1.0000 </r>
       <r>  -13.0024    1.0000 </r>
       <r>  -12.9916    1.0000 </r>
       <r>  -12.9624    1.0000 </r>
       <r>  -12.9624    1.0000 </r>
       <r>   -7.5968    1.0000 </r>
       <r>   -7.4683    1.0000 </r>
       <r>   -7.3783    1.0000 </r>
       <r>   -7.3199    1.0000 </r>
[...]
       <r>   -49.2840     0.0000     0.0000 </r>
       <r>   -49.0431     0.0000     0.0000 </r>
       <r>   -48.8022     0.0000     0.0000 </r>
       <r>   -48.5613     0.0000     0.0000 </r>
       <r>   -48.3204     0.0000     0.0000 </r>
       <r>   -48.0794     0.0000     0.0000 </r>
       <r>   -47.8385     0.0000     0.0000 </r>
       <r>   -47.5976     0.0000     0.0000 </r>
       <r>   -47.3567     0.0000     0.0000 </r>
       <r>   -47.1158     0.0000     0.0000 </r>
       <r>   -46.8748     0.0000     0.0000 </r>
       <r>   -46.6339     0.0000     0.0000 </r>
       <r>   -46.3930     0.3900     0.0940 </r>
       <r>   -46.1521   132.3930    31.9902 </r>
       <r>   -45.9111    61.2030    46.7353 </r>
       <r>   -45.6702   204.4845    96.0000 </r>
       <r>   -45.4293     0.0000    96.0000 </r>
       <r>   -45.1884     0.0000    96.0000 </r>
       <r>   -44.9475     0.0000    96.0000 </r>
       <r>   -44.7065     0.0000    96.0000 </r>
       <r>   -44.4656     0.0000    96.0000 </r>
       <r>   -44.2247     0.0000    96.0000 </r>
       <r>   -43.9838     0.0000    96.0000 </r>
       <r>   -43.7429     0.0000    96.0000 </r>
       <r>   -43.5019     0.0000    96.0000 </r>
       <r>   -43.2610     0.0000    96.0000 </r>
       <r>   -43.0201     0.0000    96.0000 </r>
       <r>   -42.7792     0.0000    96.0000 </r>
       <r>   -42.5383     0.0000    96.0000 </r>
       <r>   -42.2973     0.0000    96.0000 </r>
       <r>   -42.0564     0.0000    96.0000 </r>
       <r>   -41.8155     0.0000    96.0000 </r>
       <r>   -41.5746     0.0000    96.0000 </r>
       <r>   -41.3336     0.0000    96.0000 </r>
       <r>   -41.0927     0.0000    96.0000 </r>
       <r>   -40.8518     0.0000    96.0000 </r>
       <r>   -40.6109     0.0000    96.0000 </r>
       <r>   -40.3700     0.0000    96.0000 </r>
       <r>   -40.1290     0.0000    96.0000 </r>
       <r>   -39.8881    20.4987   100.9386 </r>
       <r>   -39.6472    45.9131   112.0000 </r>
       <r>   -39.4063     0.0000   112.0000 </r>
       <r>   -39.1654     0.0000   112.0000 </r>
       <r>   -38.9244     0.0000   112.0000 </r>
       <r>   -38.6835     0.0000   112.0000 </r>
       <r>   -38.4426     0.0000   112.0000 </r>
       <r>   -38.2017     0.0000   112.0000 </r>
       <r>   -37.9607     0.0000   112.0000 </r>
       <r>   -37.7198     0.0000   112.0000 </r>
       <r>   -37.4789     0.0000   112.0000 </r>
       <r>   -37.2380     0.0000   112.0000 </r>
       <r>   -36.9971     0.0000   112.0000 </r>
       <r>   -36.7561     0.0000   112.0000 </r>
       <r>   -36.5152     0.0000   112.0000 </r>
       <r>   -36.2743     0.0000   112.0000 </r>
       <r>   -36.0334     0.0000   112.0000 </r>
       <r>   -35.7925     0.0000   112.0000 </r>
       <r>   -35.5515     0.0000   112.0000 </r>
       <r>   -35.3106     0.0000   112.0000 </r>
       <r>   -35.0697     0.0000   112.0000 </r>
       <r>   -34.8288     0.0000   112.0000 </r>
       <r>   -34.5879     0.0000   112.0000 </r>
       <r>   -34.3469     0.0000   112.0000 </r>
       <r>   -34.1060     0.0000   112.0000 </r>
       <r>   -33.8651     0.0000   112.0000 </r>
       <r>   -33.6242     0.0000   112.0000 </r>
       <r>   -33.3832     0.0000   112.0000 </r>
       <r>   -33.1423     0.0000   112.0000 </r>
       <r>   -32.9014     0.0000   112.0000 </r>
       <r>   -32.6605     0.0000   112.0000 </r>
       <r>   -32.4196     0.0000   112.0000 </r>
       <r>   -32.1786     0.0000   112.0000 </r>
       <r>   -31.9377     0.0000   112.0000 </r>
       <r>   -31.6968     0.0000   112.0000 </r>
       <r>   -31.4559     0.0000   112.0000 </r>
       <r>   -31.2150     0.0000   112.0000 </r>
       <r>   -30.9740     0.0000   112.0000 </r>
       <r>   -30.7331     0.0000   112.0000 </r>
       <r>   -30.4922     0.0000   112.0000 </r>
       <r>   -30.2513     0.0000   112.0000 </r>
       <r>   -30.0103     0.0000   112.0000 </r>
       <r>   -29.7694     0.0000   112.0000 </r>
       <r>   -29.5285     0.0000   112.0000 </r>
       <r>   -29.2876     0.0000   112.0000 </r>
       <r>   -29.0467     0.0000   112.0000 </r>
       <r>   -28.8057     0.0000   112.0000 </r>
       <r>   -28.5648     0.0000   112.0000 </r>
       <r>   -28.3239     0.0000   112.0000 </r>
       <r>   -28.0830     0.0000   112.0000 </r>
       <r>   -27.8421     0.0000   112.0000 </r>
       <r>   -27.6011     0.0000   112.0000 </r>
       <r>   -27.3602     0.0000   112.0000 </r>
       <r>   -27.1193     0.0000   112.0000 </r>
       <r>   -26.8784     0.0000   112.0000 </r>
       <r>   -26.6375     0.0000   112.0000 </r>
       <r>   -26.3965     0.0000   112.0000 </r>
       <r>   -26.1556     0.0000   112.0000 </r>
       <r>   -25.9147     0.0000   112.0000 </r>
       <r>   -25.6738     0.0000   112.0000 </r>
       <r>   -25.4328     0.0000   112.0000 </r>
       <r>   -25.1919     0.0000   112.0000 </r>
       <r>   -24.9510     0.0000   112.0000 </r>
       <r>   -24.7101     0.0000   112.0000 </r>
       <r>   -24.4692     0.0000   112.0000 </r>
       <r>   -24.2282     0.0000   112.0000 </r>
       <r>   -23.9873     0.0000   112.0000 </r>
       <r>   -23.7464     0.0000   112.0000 </r>
       <r>   -23.5055     0.0000   112.0000 </r>
       <r>   -23.2646     0.0000   112.0000 </r>
       <r>   -23.0236     0.0000   112.0000 </r>
       <r>   -22.7827     0.0000   112.0000 </r>
       <r>   -22.5418     0.0000   112.0000 </r>
       <r>   -22.3009     0.0000   112.0000 </r>
       <r>   -22.0599     0.0000   112.0000 </r>
       <r>   -21.8190     0.0000   112.0000 </r>
       <r>   -21.5781     0.0000   112.0000 </r>
       <r>   -21.3372     0.0000   112.0000 </r>
       <r>   -21.0963     0.0000   112.0000 </r>
       <r>   -20.8553     0.0000   112.0000 </r>
       <r>   -20.6144     0.0000   112.0000 </r>
       <r>   -20.3735     0.0000   112.0000 </r>
       <r>   -20.1326     0.0000   112.0000 </r>
       <r>   -19.8917     0.0000   112.0000 </r>
       <r>   -19.6507     0.0000   112.0000 </r>
       <r>   -19.4098     0.0000   112.0000 </r>
       <r>   -19.1689     0.0000   112.0000 </r>
       <r>   -18.9280     0.0000   112.0000 </r>
       <r>   -18.6871     0.0000   112.0000 </r>
       <r>   -18.4461     0.0000   112.0000 </r>
       <r>   -18.2052     0.0000   112.0000 </r>
       <r>   -17.9643     0.0000   112.0000 </r>
       <r>   -17.7234     0.0000   112.0000 </r>
       <r>   -17.4824     0.0000   112.0000 </r>
       <r>   -17.2415     0.0000   112.0000 </r>
       <r>   -17.0006     0.0000   112.0000 </r>
       <r>   -16.7597     0.0000   112.0000 </r>
       <r>   -16.5188     0.0000   112.0000 </r>
       <r>   -16.2778     0.0000   112.0000 </r>
       <r>   -16.0369     0.0000   112.0000 </r>
       <r>   -15.7960     0.0000   112.0000 </r>
       <r>   -15.5551     0.0000   112.0000 </r>
       <r>   -15.3142     0.0000   112.0000 </r>
       <r>   -15.0732     0.0000   112.0000 </r>
       <r>   -14.8323     0.0000   112.0000 </r>
       <r>   -14.5914     0.0000   112.0000 </r>
       <r>   -14.3505     0.0000   112.0000 </r>
       <r>   -14.1095     0.0000   112.0000 </r>
       <r>   -13.8686     0.0000   112.0000 </r>
       <r>   -13.6277     0.0000   112.0000 </r>
       <r>   -13.3868     0.0000   112.0000 </r>
       <r>   -13.1459     0.0000   112.0000 </r>
       <r>   -12.9049     0.0300   112.0072 </r>
       <r>   -12.6640    46.3739   123.1797 </r>
       <r>   -12.4231    20.0078   128.0000 </r>
       <r>   -12.1822     0.0000   128.0000 </r>
       <r>   -11.9413     0.0000   128.0000 </r>
       <r>   -11.7003     0.0000   128.0000 </r>
       <r>   -11.4594     0.0000   128.0000 </r>
       <r>   -11.2185     0.0000   128.0000 </r>
       <r>   -10.9776     0.0000   128.0000 </r>
       <r>   -10.7367     0.0000   128.0000 </r>
       <r>   -10.4957     0.0000   128.0000 </r>
       <r>   -10.2548     0.0000   128.0000 </r>
       <r>   -10.0139     0.0000   128.0000 </r>
       <r>    -9.7730     0.0000   128.0000 </r>
       <r>    -9.5320     0.0000   128.0000 </r>
       <r>    -9.2911     0.0000   128.0000 </r>
       <r>    -9.0502     0.0000   128.0000 </r>
       <r>    -8.8093     0.0000   128.0000 </r>
       <r>    -8.5684     0.0000   128.0000 </r>
       <r>    -8.3274     0.0000   128.0000 </r>
       <r>    -8.0865     0.0000   128.0000 </r>
       <r>    -7.8456     0.0000   128.0000 </r>
       <r>    -7.6047     0.0000   128.0000 </r>
       <r>    -7.3638     0.8380   128.2019 </r>
       <r>    -7.1228    15.4433   131.9225 </r>
       <r>    -6.8819    29.1439   138.9439 </r>
       <r>    -6.6410    28.0812   145.7093 </r>
       <r>    -6.4001    26.0940   151.9959 </r>
       <r>    -6.1591     0.0171   152.0000 </r>
       <r>    -5.9182     0.0000   152.0000 </r>
       <r>    -5.6773     0.0000   152.0000 </r>
       <r>    -5.4364     0.0000   152.0000 </r>
       <r>    -5.1955     0.0000   152.0000 </r>
       <r>    -4.9545     0.0000   152.0000 </r>
       <r>    -4.7136     0.0000   152.0000 </r>
       <r>    -4.4727     0.0000   152.0000 </r>
       <r>    -4.2318     0.0000   152.0000 </r>
       <r>    -3.9909     0.0000   152.0000 </r>
       <r>    -3.7499     0.0000   152.0000 </r>
       <r>    -3.5090     0.0000   152.0000 </r>
       <r>    -3.2681     0.0000   152.0000 </r>
       <r>    -3.0272     0.0000   152.0000 </r>
       <r>    -2.7863     0.0000   152.0000 </r>
       <r>    -2.5453     0.0000   152.0000 </r>
       <r>    -2.3044     0.0000   152.0000 </r>
       <r>    -2.0635     0.0000   152.0000 </r>
       <r>    -1.8226     0.0000   152.0000 </r>
       <r>    -1.5816     0.0000   152.0000 </r>
       <r>    -1.3407     0.0000   152.0000 </r>
       <r>    -1.0998     0.0000   152.0000 </r>
       <r>    -0.8589     0.0000   152.0000 </r>
       <r>    -0.6180     0.0000   152.0000 </r>
       <r>    -0.3770     5.6658   153.3650 </r>
       <r>    -0.1361    20.0478   158.1950 </r>
       <r>     0.1048    12.4844   161.2027 </r>
       <r>     0.3457    19.3380   165.8617 </r>
       <r>     0.5866    29.9009   173.0654 </r>
       <r>     0.8276    40.0419   182.7124 </r>
       <r>     1.0685    37.1419   191.6606 </r>
       <r>     1.3094    29.8267   198.8465 </r>
       <r>     1.5503    21.1989   203.9538 </r>
       <r>     1.7912    28.5176   210.8243 </r>
       <r>     2.0322    38.2346   220.0358 </r>
       <r>     2.2731    25.6014   226.2037 </r>
       <r>     2.5140    27.2952   232.7797 </r>
       <r>     2.7549    33.0312   240.7377 </r>
       <r>     2.9959    45.1232   251.6088 </r>
       <r>     3.2368    45.2568   262.5121 </r>
       <r>     3.4777    29.3045   269.5722 </r>
       <r>     3.7186    11.3481   272.3062 </r>
       <r>     3.9595    20.4023   277.2216 </r>
       <r>     4.2005    50.7481   289.4478 </r>
       <r>     4.4414    46.4765   300.6450 </r>
       <r>     4.6823    13.9249   303.9998 </r>
       <r>     4.9232     0.0007   304.0000 </r>
       <r>     5.1641     0.0000   304.0000 </r>
       <r>     5.4051     0.0000   304.0000 </r>
       <r>     5.6460     0.0000   304.0000 </r>
       <r>     5.8869     0.0000   304.0000 </r>
       <r>     6.1278     0.0000   304.0000 </r>
       <r>     6.3688     0.5560   304.1339 </r>
       <r>     6.6097     4.2435   305.1563 </r>
       <r>     6.8506     8.3683   307.1724 </r>
       <r>     7.0915    21.6246   312.3822 </r>
       <r>     7.3324    45.5363   323.3529 </r>
       <r>     7.5734    55.1779   336.6464 </r>
       <r>     7.8143    62.2981   351.6553 </r>
       <r>     8.0552    66.7533   367.7376 </r>
       <r>     8.2961    71.2862   384.9120 </r>
       <r>     8.5370    57.6860   398.8098 </r>
       <r>     8.7780    58.9406   413.0098 </r>
       <r>     9.0189    44.9126   423.8302 </r>
       <r>     9.2598    27.7152   430.5074 </r>
       <r>     9.5007     8.0375   432.4438 </r>
       <r>     9.7416     3.5996   433.3110 </r>
       <r>     9.9826     8.7871   435.4280 </r>
       <r>    10.2235    19.0620   440.0205 </r>
       <r>    10.4644    18.0164   444.3610 </r>
       <r>    10.7053    18.0244   448.7035 </r>
       <r>    10.9463    27.0012   455.2086 </r>
       <r>    11.1872    19.0566   459.7998 </r>
       <r>    11.4281    24.0954   465.6049 </r>
       <r>    11.6690    13.7452   468.9164 </r>
       <r>    11.9099    14.1237   472.3191 </r>
       <r>    12.1509    17.0541   476.4278 </r>
       <r>    12.3918    38.2410   485.6408 </r>
       <r>    12.6327    32.0563   493.3639 </r>
       <r>    12.8736    28.1566   500.1474 </r>
       <r>    13.1145    20.2486   505.0257 </r>
       <r>    13.3555    23.1312   510.5985 </r>
       <r>    13.5964    27.4581   517.2138 </r>
       <r>    13.8373    23.7398   522.9332 </r>
       <r>    14.0782    25.7854   529.1454 </r>
       <r>    14.3192    18.5289   533.6094 </r>
       <r>    14.5601    15.5751   537.3618 </r>
       <r>    14.8010     2.6491   538.0000 </r>
       <r>    15.0419     0.0000   538.0000 </r>
       <r>    15.2828     0.0000   538.0000 </r>
       <r>    15.5238     0.0000   538.0000 </r>
       <r>    15.7647     0.0000   538.0000 </r>
       <r>    16.0056     0.0000   538.0000 </r>
       <r>    16.2465     0.0000   538.0000 </r>
       <r>    16.4874     0.0000   538.0000 </r>
       <r>    16.7284     0.0000   538.0000 </r>
       <r>    16.9693     0.0000   538.0000 </r>
       <r>    17.2102     0.0000   538.0000 </r>
       <r>    17.4511     0.0000   538.0000 </r>
       <r>    17.6920     0.0000   538.0000 </r>
       <r>    17.9330     0.0000   538.0000 </r>
      </set>
     </set>
    </array>
   </total>
  </dos>
 </calculation>
 <structure name="finalpos" >
  <crystal>
   <varray name="basis" >
    <v>      11.11223374       0.00000000      -0.00029034 </v>
    <v>       0.00000000      11.11745194       0.00000000 </v>
    <v>      -2.77510898       0.00000000      10.19872221 </v>
   </varray>
   <i name="volume">   1259.93837498 </i>
   <varray name="rec_basis" >
    <v>       0.08999155       0.00000000       0.02448702 </v>
    <v>       0.00000000       0.08994867       0.00000000 </v>
    <v>       0.00000256       0.00000000       0.09805220 </v>
   </varray>
  </crystal>
  <varray name="positions" >
   <v>       0.28894969       0.46933910       0.15583616 </v>
   <v>       0.78894969       0.46933910       0.15583616 </v>
   <v>       0.28894969       0.96933910       0.15583616 </v>
   <v>       0.78894969       0.96933910       0.15583616 </v>
   <v>       0.04646972       0.21934976       0.18586770 </v>
   <v>       0.54646972       0.21934976       0.18586770 </v>
   <v>       0.04646972       0.71934976       0.18586770 </v>
   <v>       0.54646972       0.71934976       0.18586770 </v>
   <v>       0.45353028       0.46934976       0.81413230 </v>
   <v>       0.95353028       0.46934976       0.81413230 </v>
   <v>       0.45353028       0.96934976       0.81413230 </v>
   <v>       0.95353028       0.96934976       0.81413230 </v>
   <v>       0.21105031       0.21933910       0.84416384 </v>
   <v>       0.71105031       0.21933910       0.84416384 </v>
   <v>       0.21105031       0.71933910       0.84416384 </v>
   <v>       0.71105031       0.71933910       0.84416384 </v>
   <v>       0.07654971       0.09530995       0.80250593 </v>
   <v>       0.57654971       0.09530995       0.80250593 </v>
   <v>       0.07654971       0.59530995       0.80250593 </v>
   <v>       0.57654971       0.59530995       0.80250593 </v>
   <v>       0.32470466       0.34338175       0.80250383 </v>
   <v>       0.82470466       0.34338175       0.80250383 </v>
   <v>       0.32470466       0.84338175       0.80250383 </v>
   <v>       0.82470466       0.84338175       0.80250383 </v>
   <v>       0.17529534       0.09338175       0.19749617 </v>
   <v>       0.67529534       0.09338175       0.19749617 </v>
   <v>       0.17529534       0.59338175       0.19749617 </v>
   <v>       0.67529534       0.59338175       0.19749617 </v>
   <v>       0.42345029       0.34530995       0.19749407 </v>
   <v>       0.92345029       0.34530995       0.19749407 </v>
   <v>       0.42345029       0.84530995       0.19749407 </v>
   <v>       0.92345029       0.84530995       0.19749407 </v>
   <v>       0.21868463       0.34523395       0.37102476 </v>
   <v>       0.71868463       0.34523395       0.37102476 </v>
   <v>       0.21868463       0.84523395       0.37102476 </v>
   <v>       0.71868463       0.84523395       0.37102476 </v>
   <v>       0.46681660       0.09254948       0.37102399 </v>
   <v>       0.96681660       0.09344897       0.37102399 </v>
   <v>       0.46681660       0.59344897       0.37102399 </v>
   <v>       0.96681660       0.59344897       0.37102399 </v>
   <v>       0.03318340       0.34344897       0.62897601 </v>
   <v>       0.53318340       0.34344897       0.62897601 </v>
   <v>       0.03318340       0.84344897       0.62897601 </v>
   <v>       0.53318340       0.84344897       0.62897601 </v>
   <v>       0.28131537       0.09523395       0.62897524 </v>
   <v>       0.78131537       0.09523395       0.62897524 </v>
   <v>       0.28131537       0.59523395       0.62897524 </v>
   <v>       0.78131537       0.59523395       0.62897524 </v>
   <v>       0.12439279       0.34434306       0.00000412 </v>
   <v>       0.62439279       0.34434306       0.00000412 </v>
   <v>       0.12439279       0.84434306       0.00000412 </v>
   <v>       0.62439279       0.84434306       0.00000412 </v>
   <v>       0.37560721       0.09434306       0.99999588 </v>
   <v>       0.87560721       0.09434306       0.99999588 </v>
   <v>       0.37560721       0.59434306       0.99999588 </v>
   <v>       0.87560721       0.59434306       0.99999588 </v>
   <v>       0.03824426       0.10634799       0.60632306 </v>
   <v>       0.53824426       0.10634799       0.60632306 </v>
   <v>       0.03824426       0.60634799       0.60632306 </v>
   <v>       0.53824426       0.60634799       0.60632306 </v>
   <v>       0.26492712       0.33232651       0.60632763 </v>
   <v>       0.76492712       0.33232651       0.60632763 </v>
   <v>       0.26492712       0.83232651       0.60632763 </v>
   <v>       0.76492712       0.83232651       0.60632763 </v>
   <v>       0.23507288       0.08232651       0.39367237 </v>
   <v>       0.73507288       0.08232651       0.39367237 </v>
   <v>       0.23507288       0.58232651       0.39367237 </v>
   <v>       0.73507288       0.58232651       0.39367237 </v>
   <v>       0.46175574       0.35634799       0.39367694 </v>
   <v>       0.96175574       0.35634799       0.39367694 </v>
   <v>       0.46175574       0.85634799       0.39367694 </v>
   <v>       0.96175574       0.85634799       0.39367694 </v>
   <v>       0.03848398       0.46936404       0.15397331 </v>
   <v>       0.53848398       0.46936404       0.15397331 </v>
   <v>       0.03848398       0.96936404       0.15397331 </v>
   <v>       0.53848398       0.96936404       0.15397331 </v>
   <v>       0.28861657       0.21935690       0.15447525 </v>
   <v>       0.78861657       0.21935690       0.15447525 </v>
   <v>       0.28861657       0.71935690       0.15447525 </v>
   <v>       0.78861657       0.71935690       0.15447525 </v>
   <v>       0.21138343       0.46935690       0.84552475 </v>
   <v>       0.71138343       0.46935690       0.84552475 </v>
   <v>       0.21138343       0.96935690       0.84552475 </v>
   <v>       0.71138343       0.96935690       0.84552475 </v>
   <v>       0.46151602       0.21936404       0.84602669 </v>
   <v>       0.96151602       0.21936404       0.84602669 </v>
   <v>       0.46151602       0.71936404       0.84602669 </v>
   <v>       0.96151602       0.71936404       0.84602669 </v>
  </varray>
 </structure>
</modeling>
