   11   11   60    2
  0.1433317E+02  0.3932495E-09  0.3932495E-09  0.1057109E-08  0.5000000E-15
  1.000000000000000E-004
  CAR 
 unknown system                          
     92     26     68
 
  0.0000000E+00  0.0000000E+00  0.0000000E+00  0.1388889E-01
    1      -55.739453    -49.115612   1.000000   1.000000
    2      -55.739445    -49.115597   1.000000   1.000000
    3      -55.708883    -49.066375   1.000000   1.000000
    4      -55.706296    -49.064146   1.000000   1.000000
    5      -54.330488    -49.048981   1.000000   1.000000
    6      -54.330481    -49.048938   1.000000   1.000000
    7      -54.185783    -49.042452   1.000000   1.000000
    8      -54.185576    -49.039867   1.000000   1.000000
    9      -54.172903    -49.021532   1.000000   1.000000
   10      -54.172394    -49.020706   1.000000   1.000000
   11      -54.157796    -49.016376   1.000000   1.000000
   12      -54.157471    -49.015620   1.000000   1.000000
   13      -43.245361    -43.244419   1.000000   1.000000
   14      -43.245066    -43.244104   1.000000   1.000000
   15      -15.841602    -15.309155   1.000000   1.000000
   16      -15.811095    -15.275796   1.000000   1.000000
   17       -9.402914     -9.041134   1.000000   1.000000
   18       -9.151047     -8.842559   1.000000   1.000000
   19       -8.647674     -8.231429   1.000000   1.000000
   20       -2.104891     -0.349672   1.000000   1.000000
   21       -1.786278     -0.207592   1.000000   1.000000
   22       -1.778462     -0.201449   1.000000   1.000000
   23       -1.734373     -0.001477   1.000000   1.000000
   24       -1.076734      0.125699   1.000000   1.000000
   25       -1.004529      0.272466   1.000000   1.000000
   26       -0.982351      0.308884   1.000000   1.000000
   27       -0.743986      0.621363   1.000000   1.000000
   28       -0.402779      2.375818   1.000000   1.000000
   29       -0.402600      2.423119   1.000000   1.000000
   30       -0.230696      2.628618   1.000000   1.000000
   31       -0.193162      2.852448   1.000000   1.000000
   32       -0.033270      3.243411   1.000000   1.000000
   33       -0.022698      3.259659   1.000000   1.000000
   34        0.212216      3.461032   1.000000   1.000000
   35        0.406679      3.712493   1.000000   1.000000
   36        0.627030      3.789183   1.000000   1.000000
   37        0.662146      4.002560   1.000000   1.000000
   38        0.682624      4.574787   1.000000   1.000000
   39        0.797210      7.159837   1.000000   0.000000
   40        1.092918      7.875189   1.000000   0.000000
   41        1.161163      7.906790   1.000000   0.000000
   42        1.195027      7.994558   1.000000   0.000000
   43        1.293376      8.081050   1.000000   0.000000
   44        1.445019      8.351300   1.000000   0.000000
   45        1.956435      8.476024   1.000000   0.000000
   46        2.010991      8.533779   1.000000   0.000000
   47        2.760687      8.756308   1.000000   0.000000
   48        2.869657      8.772751   1.000000   0.000000
   49        2.938653      9.021417   1.000000   0.000000
   50        3.624691      9.062077   1.000000   0.000000
   51        3.641968      9.160719   1.000000   0.000000
   52        3.688935      9.172503   1.000000   0.000000
   53        4.095384      9.879017   1.000000   0.000000
   54        4.103166      9.885211   1.000000   0.000000
   55        8.353723      9.935550   0.000000   0.000000
   56        9.330074     11.014786   0.000000   0.000000
   57       10.698301     11.365410   0.000000   0.000000
   58       10.770817     11.656660   0.000000   0.000000
   59       11.341216     12.203517   0.000000   0.000000
   60       11.966991     12.744955   0.000000   0.000000
   61       12.461227     13.332583   0.000000   0.000000
   62       12.658729     13.381529   0.000000   0.000000
   63       12.740134     13.751367   0.000000   0.000000
   64       13.266601     13.822294   0.000000   0.000000
   65       15.485137     16.060177   0.000000   0.000000
   66       15.573032     16.384353   0.000000   0.000000
   67       15.749214     16.515214   0.000000   0.000000
   68       15.837396     16.718618   0.000000   0.000000
 
  0.1666667E+00  0.1090935E-18  0.1887611E-14  0.5555556E-01
    1      -55.740350    -49.115830   1.000000   1.000000
    2      -55.739433    -49.115387   1.000000   1.000000
    3      -55.708484    -49.065857   1.000000   1.000000
    4      -55.706198    -49.063954   1.000000   1.000000
    5      -54.330710    -49.052162   1.000000   1.000000
    6      -54.330490    -49.048852   1.000000   1.000000
    7      -54.186077    -49.041509   1.000000   1.000000
    8      -54.185626    -49.039027   1.000000   1.000000
    9      -54.172957    -49.021223   1.000000   1.000000
   10      -54.172496    -49.020217   1.000000   1.000000
   11      -54.157795    -49.016667   1.000000   1.000000
   12      -54.157374    -49.015611   1.000000   1.000000
   13      -43.245058    -43.244070   1.000000   1.000000
   14      -43.244847    -43.243843   1.000000   1.000000
   15      -15.836150    -15.302364   1.000000   1.000000
   16      -15.760972    -15.227885   1.000000   1.000000
   17       -9.301878     -8.949575   1.000000   1.000000
   18       -9.076765     -8.758727   1.000000   1.000000
   19       -8.600473     -8.194177   1.000000   1.000000
   20       -2.389420     -0.819696   1.000000   1.000000
   21       -2.009843     -0.316383   1.000000   1.000000
   22       -1.754769     -0.171106   1.000000   1.000000
   23       -1.513702     -0.124792   1.000000   1.000000
   24       -1.251642     -0.031179   1.000000   1.000000
   25       -1.228864      0.273631   1.000000   1.000000
   26       -1.022514      0.538067   1.000000   1.000000
   27       -0.618057      0.893351   1.000000   1.000000
   28       -0.526277      1.927107   1.000000   1.000000
   29       -0.390468      2.197510   1.000000   1.000000
   30       -0.294603      2.430652   1.000000   1.000000
   31       -0.267446      2.629316   1.000000   1.000000
   32       -0.151164      2.793378   1.000000   1.000000
   33       -0.043178      3.123620   1.000000   1.000000
   34        0.169781      3.485659   1.000000   1.000000
   35        0.288896      3.653902   1.000000   1.000000
   36        0.320666      3.847523   1.000000   1.000000
   37        0.557295      4.035090   1.000000   1.000000
   38        0.849521      4.560623   1.000000   1.000000
   39        0.885712      7.810938   1.000000   0.000000
   40        1.019167      7.852971   1.000000   0.000000
   41        1.080330      7.924393   1.000000   0.000000
   42        1.253517      8.040342   1.000000   0.000000
   43        1.316409      8.278245   1.000000   0.000000
   44        1.616922      8.486855   1.000000   0.000000
   45        1.790271      8.624557   1.000000   0.000000
   46        2.009716      8.693251   1.000000   0.000000
   47        2.179617      8.810447   1.000000   0.000000
   48        3.171880      8.994732   1.000000   0.000000
   49        3.195449      9.059780   1.000000   0.000000
   50        3.635344      9.157817   1.000000   0.000000
   51        3.727200      9.293399   1.000000   0.000000
   52        3.987498      9.315032   1.000000   0.000000
   53        4.150440      9.687733   1.000000   0.000000
   54        4.218015      9.923756   1.000000   0.000000
   55        9.150652     10.509509   0.000000   0.000000
   56        9.685915     11.069770   0.000000   0.000000
   57       10.644288     11.443958   0.000000   0.000000
   58       10.882708     11.932817   0.000000   0.000000
   59       11.709279     12.541700   0.000000   0.000000
   60       12.106604     12.685484   0.000000   0.000000
   61       12.501994     13.219211   0.000000   0.000000
   62       12.615396     13.393850   0.000000   0.000000
   63       12.888616     13.863331   0.000000   0.000000
   64       13.618112     14.290360   0.000000   0.000000
   65       14.258040     14.847859   0.000000   0.000000
   66       14.737418     15.729985   0.000000   0.000000
   67       14.846015     15.781591   0.000000   0.000000
   68       15.002126     16.180776   0.000000   0.000000
 
  0.3333333E+00  0.3024693E-18  0.1190171E-15  0.5555556E-01
    1      -55.742071    -49.116297   1.000000   1.000000
    2      -55.739399    -49.114946   1.000000   1.000000
    3      -55.707848    -49.065127   1.000000   1.000000
    4      -55.705916    -49.063215   1.000000   1.000000
    5      -54.331159    -49.056440   1.000000   1.000000
    6      -54.330502    -49.048683   1.000000   1.000000
    7      -54.186804    -49.041321   1.000000   1.000000
    8      -54.185577    -49.037858   1.000000   1.000000
    9      -54.173211    -49.020569   1.000000   1.000000
   10      -54.172560    -49.019088   1.000000   1.000000
   11      -54.157816    -49.017225   1.000000   1.000000
   12      -54.157165    -49.015781   1.000000   1.000000
   13      -43.244544    -43.243447   1.000000   1.000000
   14      -43.244353    -43.243283   1.000000   1.000000
   15      -15.848793    -15.313729   1.000000   1.000000
   16      -15.632948    -15.103370   1.000000   1.000000
   17       -9.112219     -8.784060   1.000000   1.000000
   18       -8.864894     -8.520223   1.000000   1.000000
   19       -8.530734     -8.149733   1.000000   1.000000
   20       -2.837750     -1.415750   1.000000   1.000000
   21       -2.084079     -0.754257   1.000000   1.000000
   22       -1.749329     -0.458914   1.000000   1.000000
   23       -1.701204     -0.258687   1.000000   1.000000
   24       -1.554914      0.012156   1.000000   1.000000
   25       -1.473720      0.262125   1.000000   1.000000
   26       -1.075904      0.713272   1.000000   1.000000
   27       -0.953987      0.966854   1.000000   1.000000
   28       -0.776017      1.312424   1.000000   1.000000
   29       -0.658633      1.720787   1.000000   1.000000
   30       -0.468882      2.200738   1.000000   1.000000
   31       -0.324991      2.441542   1.000000   1.000000
   32       -0.292605      2.716431   1.000000   1.000000
   33       -0.115604      2.821432   1.000000   1.000000
   34       -0.034881      3.096388   1.000000   1.000000
   35        0.127903      3.818800   1.000000   1.000000
   36        0.285822      4.108348   1.000000   1.000000
   37        0.414457      4.199314   1.000000   1.000000
   38        0.712576      4.443963   1.000000   1.000000
   39        0.916123      7.683287   1.000000   0.000000
   40        1.218669      8.003540   1.000000   0.000000
   41        1.335656      8.204125   1.000000   0.000000
   42        1.412040      8.385478   1.000000   0.000000
   43        1.525439      8.401578   1.000000   0.000000
   44        1.689514      8.561867   1.000000   0.000000
   45        1.738299      8.784455   1.000000   0.000000
   46        1.947582      8.869428   1.000000   0.000000
   47        2.256536      8.942752   1.000000   0.000000
   48        2.874563      9.039854   1.000000   0.000000
   49        3.558196      9.222375   1.000000   0.000000
   50        3.651279      9.394700   1.000000   0.000000
   51        4.039036      9.538748   1.000000   0.000000
   52        4.166190      9.931307   1.000000   0.000000
   53        4.549345      9.993535   1.000000   0.000000
   54        4.631699     10.102029   1.000000   0.000000
   55        9.662928     10.650571   0.000000   0.000000
   56       10.173501     11.095916   0.000000   0.000000
   57       10.409929     11.663940   0.000000   0.000000
   58       10.854539     11.909912   0.000000   0.000000
   59       11.703435     12.511806   0.000000   0.000000
   60       12.241760     13.116667   0.000000   0.000000
   61       12.307966     13.268568   0.000000   0.000000
   62       13.038881     13.736368   0.000000   0.000000
   63       13.149674     14.187557   0.000000   0.000000
   64       13.728381     14.596573   0.000000   0.000000
   65       13.932006     14.651323   0.000000   0.000000
   66       14.182009     14.851325   0.000000   0.000000
   67       14.297090     14.998464   0.000000   0.000000
   68       14.969386     15.787217   0.000000   0.000000
 
  0.5000000E+00  0.4712807E-19  0.1968760E-14  0.2777778E-01
    1      -55.742912    -49.116535   1.000000   1.000000
    2      -55.739385    -49.114730   1.000000   1.000000
    3      -55.707602    -49.064929   1.000000   1.000000
    4      -55.705725    -49.062651   1.000000   1.000000
    5      -54.331389    -49.058169   1.000000   1.000000
    6      -54.330510    -49.048602   1.000000   1.000000
    7      -54.187166    -49.041335   1.000000   1.000000
    8      -54.185544    -49.037639   1.000000   1.000000
    9      -54.173382    -49.020209   1.000000   1.000000
   10      -54.172553    -49.018372   1.000000   1.000000
   11      -54.157832    -49.017531   1.000000   1.000000
   12      -54.157059    -49.016021   1.000000   1.000000
   13      -43.244283    -43.243116   1.000000   1.000000
   14      -43.244104    -43.243018   1.000000   1.000000
   15      -15.855991    -15.320476   1.000000   1.000000
   16      -15.565759    -15.038023   1.000000   1.000000
   17       -9.033139     -8.710918   1.000000   1.000000
   18       -8.657923     -8.300766   1.000000   1.000000
   19       -8.566585     -8.205201   1.000000   1.000000
   20       -2.991020     -1.648450   1.000000   1.000000
   21       -2.172191     -1.000806   1.000000   1.000000
   22       -2.007570     -0.741381   1.000000   1.000000
   23       -1.693954     -0.231733   1.000000   1.000000
   24       -1.665086      0.095747   1.000000   1.000000
   25       -1.527856      0.256096   1.000000   1.000000
   26       -1.283937      0.351802   1.000000   1.000000
   27       -1.067064      0.971484   1.000000   1.000000
   28       -1.003330      1.224547   1.000000   1.000000
   29       -0.731000      1.751312   1.000000   1.000000
   30       -0.561131      2.267797   1.000000   1.000000
   31       -0.364747      2.426066   1.000000   1.000000
   32       -0.341125      2.595909   1.000000   1.000000
   33       -0.153718      2.738967   1.000000   1.000000
   34       -0.030363      2.873624   1.000000   1.000000
   35        0.121219      4.067576   1.000000   1.000000
   36        0.277783      4.121449   1.000000   1.000000
   37        0.451860      4.249348   1.000000   1.000000
   38        0.476811      4.353529   1.000000   1.000000
   39        1.080661      7.604150   1.000000   0.000000
   40        1.275807      8.218434   1.000000   0.000000
   41        1.403868      8.277275   1.000000   0.000000
   42        1.469175      8.285721   1.000000   0.000000
   43        1.631639      8.421010   1.000000   0.000000
   44        1.744622      8.520674   1.000000   0.000000
   45        1.924536      8.733010   1.000000   0.000000
   46        2.032835      8.796461   1.000000   0.000000
   47        2.192920      9.108920   1.000000   0.000000
   48        2.881994      9.223137   1.000000   0.000000
   49        3.510334      9.382194   1.000000   0.000000
   50        3.622904      9.448959   1.000000   0.000000
   51        4.421483      9.613802   1.000000   0.000000
   52        4.467963      9.964965   1.000000   0.000000
   53        4.572558     10.295020   1.000000   0.000000
   54        4.657424     10.448394   1.000000   0.000000
   55        9.460586     10.695621   0.000000   0.000000
   56       10.049450     11.098672   0.000000   0.000000
   57       10.595315     11.572713   0.000000   0.000000
   58       11.389312     12.131358   0.000000   0.000000
   59       11.399887     12.743638   0.000000   0.000000
   60       11.980731     12.783205   0.000000   0.000000
   61       12.084966     13.019523   0.000000   0.000000
   62       12.383971     13.174383   0.000000   0.000000
   63       13.073060     13.929130   0.000000   0.000000
   64       13.274044     14.188979   0.000000   0.000000
   65       13.740710     14.441293   0.000000   0.000000
   66       14.503551     15.315505   0.000000   0.000000
   67       14.770444     15.430385   0.000000   0.000000
   68       14.887127     15.616035   0.000000   0.000000
 
  0.1666667E+00  0.1666667E+00 -0.5607029E-15  0.2777778E-01
    1      -55.740347    -49.115720   1.000000   1.000000
    2      -55.740319    -49.115503   1.000000   1.000000
    3      -55.708053    -49.065316   1.000000   1.000000
    4      -55.706119    -49.063779   1.000000   1.000000
    5      -54.330751    -49.052538   1.000000   1.000000
    6      -54.330679    -49.051533   1.000000   1.000000
    7      -54.186102    -49.040000   1.000000   1.000000
    8      -54.185952    -49.038727   1.000000   1.000000
    9      -54.173026    -49.021299   1.000000   1.000000
   10      -54.172587    -49.019623   1.000000   1.000000
   11      -54.158076    -49.017044   1.000000   1.000000
   12      -54.156962    -49.015575   1.000000   1.000000
   13      -43.244821    -43.243808   1.000000   1.000000
   14      -43.244653    -43.243621   1.000000   1.000000
   15      -15.783293    -15.251438   1.000000   1.000000
   16      -15.759924    -15.226038   1.000000   1.000000
   17       -9.204626     -8.860672   1.000000   1.000000
   18       -9.010130     -8.679620   1.000000   1.000000
   19       -8.550784     -8.150356   1.000000   1.000000
   20       -2.414374     -0.870241   1.000000   1.000000
   21       -2.338886     -0.620170   1.000000   1.000000
   22       -1.766498     -0.352521   1.000000   1.000000
   23       -1.451650     -0.179181   1.000000   1.000000
   24       -1.357902      0.006884   1.000000   1.000000
   25       -1.307895      0.162778   1.000000   1.000000
   26       -0.989249      0.820180   1.000000   1.000000
   27       -0.724565      1.132558   1.000000   1.000000
   28       -0.557902      1.775231   1.000000   1.000000
   29       -0.450685      1.938091   1.000000   1.000000
   30       -0.409693      2.078404   1.000000   1.000000
   31       -0.326335      2.285200   1.000000   1.000000
   32       -0.158344      2.559946   1.000000   1.000000
   33       -0.032104      2.882176   1.000000   1.000000
   34        0.196319      3.054769   1.000000   1.000000
   35        0.278236      3.847304   1.000000   1.000000
   36        0.345249      3.989850   1.000000   1.000000
   37        0.445420      4.325897   1.000000   1.000000
   38        0.681441      4.564378   1.000000   1.000000
   39        0.871228      7.666059   1.000000   0.000000
   40        1.031525      7.831560   1.000000   0.000000
   41        1.204108      8.020390   1.000000   0.000000
   42        1.226557      8.092952   1.000000   0.000000
   43        1.339917      8.212886   1.000000   0.000000
   44        1.616901      8.509932   1.000000   0.000000
   45        1.784826      8.608188   1.000000   0.000000
   46        2.090198      8.779530   1.000000   0.000000
   47        2.244007      8.892214   1.000000   0.000000
   48        2.870217      9.051546   1.000000   0.000000
   49        3.127872      9.121767   1.000000   0.000000
   50        3.486816      9.208607   1.000000   0.000000
   51        3.533567      9.413985   1.000000   0.000000
   52        3.855305      9.591225   1.000000   0.000000
   53        4.325711      9.742554   1.000000   0.000000
   54        4.578963     10.175301   1.000000   0.000000
   55        9.779256     11.012331   0.000000   0.000000
   56       10.325038     11.434598   0.000000   0.000000
   57       10.762207     11.953773   0.000000   0.000000
   58       11.487239     12.284116   0.000000   0.000000
   59       11.994372     12.720587   0.000000   0.000000
   60       12.229983     12.838435   0.000000   0.000000
   61       12.311774     13.213067   0.000000   0.000000
   62       12.725954     13.420646   0.000000   0.000000
   63       12.971448     13.652066   0.000000   0.000000
   64       13.020600     13.815683   0.000000   0.000000
   65       13.473234     14.458009   0.000000   0.000000
   66       14.068652     14.901882   0.000000   0.000000
   67       14.187856     15.250692   0.000000   0.000000
   68       14.652814     15.646288   0.000000   0.000000
 
  0.3333333E+00  0.1666667E+00 -0.2311654E-14  0.5555556E-01
    1      -55.742047    -49.116103   1.000000   1.000000
    2      -55.740286    -49.115128   1.000000   1.000000
    3      -55.707343    -49.064507   1.000000   1.000000
    4      -55.705875    -49.063079   1.000000   1.000000
    5      -54.331168    -49.056381   1.000000   1.000000
    6      -54.330709    -49.051824   1.000000   1.000000
    7      -54.186770    -49.039448   1.000000   1.000000
    8      -54.185959    -49.037751   1.000000   1.000000
    9      -54.173552    -49.021243   1.000000   1.000000
   10      -54.172362    -49.018593   1.000000   1.000000
   11      -54.158195    -49.017864   1.000000   1.000000
   12      -54.156597    -49.015491   1.000000   1.000000
   13      -43.244353    -43.243280   1.000000   1.000000
   14      -43.244211    -43.243148   1.000000   1.000000
   15      -15.788509    -15.255168   1.000000   1.000000
   16      -15.642890    -15.113288   1.000000   1.000000
   17       -9.026565     -8.700077   1.000000   1.000000
   18       -8.810093     -8.453488   1.000000   1.000000
   19       -8.481135     -8.092434   1.000000   1.000000
   20       -2.817064     -1.369835   1.000000   1.000000
   21       -2.348697     -0.762740   1.000000   1.000000
   22       -1.887915     -0.513805   1.000000   1.000000
   23       -1.681373     -0.366821   1.000000   1.000000
   24       -1.566439     -0.139888   1.000000   1.000000
   25       -1.387749      0.194555   1.000000   1.000000
   26       -1.035138      0.831024   1.000000   1.000000
   27       -0.943658      1.132062   1.000000   1.000000
   28       -0.801595      1.211718   1.000000   1.000000
   29       -0.703036      1.568805   1.000000   1.000000
   30       -0.512390      2.063106   1.000000   1.000000
   31       -0.328931      2.182679   1.000000   1.000000
   32       -0.233830      2.335889   1.000000   1.000000
   33       -0.080945      2.679274   1.000000   1.000000
   34       -0.024003      2.798422   1.000000   1.000000
   35        0.182209      3.968289   1.000000   1.000000
   36        0.316548      4.177415   1.000000   1.000000
   37        0.448956      4.335301   1.000000   1.000000
   38        0.657818      4.429776   1.000000   1.000000
   39        0.926546      7.560514   1.000000   0.000000
   40        1.087892      7.832394   1.000000   0.000000
   41        1.280976      8.075136   1.000000   0.000000
   42        1.456346      8.248198   1.000000   0.000000
   43        1.556079      8.337595   1.000000   0.000000
   44        1.678399      8.495217   1.000000   0.000000
   45        1.752014      8.588572   1.000000   0.000000
   46        2.021424      8.912269   1.000000   0.000000
   47        2.192574      8.972012   1.000000   0.000000
   48        2.948968      9.146597   1.000000   0.000000
   49        3.138940      9.223058   1.000000   0.000000
   50        3.311515      9.402203   1.000000   0.000000
   51        3.645466      9.520763   1.000000   0.000000
   52        3.944525      9.699797   1.000000   0.000000
   53        4.320067     10.022530   1.000000   0.000000
   54        4.637327     10.170184   1.000000   0.000000
   55       10.222518     11.568723   0.000000   0.000000
   56       10.635758     11.795390   0.000000   0.000000
   57       11.057308     11.930936   0.000000   0.000000
   58       11.123078     12.282345   0.000000   0.000000
   59       11.621302     12.496208   0.000000   0.000000
   60       12.164591     12.976508   0.000000   0.000000
   61       12.392741     13.402273   0.000000   0.000000
   62       12.726894     13.587938   0.000000   0.000000
   63       13.010535     13.914378   0.000000   0.000000
   64       13.354483     14.259232   0.000000   0.000000
   65       13.808371     14.615860   0.000000   0.000000
   66       13.986320     14.739612   0.000000   0.000000
   67       14.288143     14.975589   0.000000   0.000000
   68       14.900262     15.628139   0.000000   0.000000
 
  0.5000000E+00  0.1666667E+00 -0.3231330E-15  0.5555556E-01
    1      -55.742880    -49.116329   1.000000   1.000000
    2      -55.740263    -49.114909   1.000000   1.000000
    3      -55.707088    -49.064271   1.000000   1.000000
    4      -55.705689    -49.062536   1.000000   1.000000
    5      -54.331391    -49.058097   1.000000   1.000000
    6      -54.330711    -49.051778   1.000000   1.000000
    7      -54.187135    -49.039364   1.000000   1.000000
    8      -54.185928    -49.037530   1.000000   1.000000
    9      -54.173852    -49.021071   1.000000   1.000000
   10      -54.172212    -49.018522   1.000000   1.000000
   11      -54.158182    -49.017941   1.000000   1.000000
   12      -54.156502    -49.015498   1.000000   1.000000
   13      -43.244110    -43.242989   1.000000   1.000000
   14      -43.243981    -43.242924   1.000000   1.000000
   15      -15.796552    -15.262897   1.000000   1.000000
   16      -15.576849    -15.049263   1.000000   1.000000
   17       -8.955250     -8.632279   1.000000   1.000000
   18       -8.603572     -8.232475   1.000000   1.000000
   19       -8.523935     -8.147769   1.000000   1.000000
   20       -2.976430     -1.573540   1.000000   1.000000
   21       -2.331500     -0.899723   1.000000   1.000000
   22       -2.054311     -0.629091   1.000000   1.000000
   23       -1.826841     -0.564981   1.000000   1.000000
   24       -1.629513     -0.099395   1.000000   1.000000
   25       -1.539128      0.001767   1.000000   1.000000
   26       -1.153971      0.809740   1.000000   1.000000
   27       -0.966114      1.039586   1.000000   1.000000
   28       -0.907146      1.171971   1.000000   1.000000
   29       -0.738676      1.633536   1.000000   1.000000
   30       -0.593398      1.944116   1.000000   1.000000
   31       -0.378094      2.171339   1.000000   1.000000
   32       -0.271121      2.396115   1.000000   1.000000
   33       -0.145973      2.483982   1.000000   1.000000
   34       -0.035187      2.825728   1.000000   1.000000
   35        0.123363      4.117932   1.000000   1.000000
   36        0.387570      4.182072   1.000000   1.000000
   37        0.470949      4.253477   1.000000   1.000000
   38        0.541198      4.336314   1.000000   1.000000
   39        0.735633      7.592011   1.000000   0.000000
   40        1.285841      7.724634   1.000000   0.000000
   41        1.417458      8.043618   1.000000   0.000000
   42        1.514648      8.165574   1.000000   0.000000
   43        1.613883      8.354416   1.000000   0.000000
   44        1.753614      8.609814   1.000000   0.000000
   45        1.897709      8.785907   1.000000   0.000000
   46        2.048348      9.024009   1.000000   0.000000
   47        2.145538      9.084453   1.000000   0.000000
   48        3.071688      9.177318   1.000000   0.000000
   49        3.202559      9.350105   1.000000   0.000000
   50        3.342974      9.498614   1.000000   0.000000
   51        3.754764      9.603702   1.000000   0.000000
   52        4.011972      9.660332   1.000000   0.000000
   53        4.201139      9.921013   1.000000   0.000000
   54        4.492473     10.128985   1.000000   0.000000
   55       10.014205     11.393674   0.000000   0.000000
   56       10.568914     11.726847   0.000000   0.000000
   57       10.885093     11.788051   0.000000   0.000000
   58       11.003289     12.241605   0.000000   0.000000
   59       11.563204     12.433487   0.000000   0.000000
   60       11.968908     12.875217   0.000000   0.000000
   61       12.398875     13.186781   0.000000   0.000000
   62       12.573778     13.552785   0.000000   0.000000
   63       12.723970     13.780489   0.000000   0.000000
   64       13.309289     14.315273   0.000000   0.000000
   65       13.671006     14.606022   0.000000   0.000000
   66       14.498630     15.215039   0.000000   0.000000
   67       14.806415     15.787204   0.000000   0.000000
   68       15.339370     16.187165   0.000000   0.000000
 
 -0.3333333E+00  0.1666667E+00 -0.2665659E-14  0.5555556E-01
    1      -55.742033    -49.116087   1.000000   1.000000
    2      -55.740276    -49.115112   1.000000   1.000000
    3      -55.707345    -49.064434   1.000000   1.000000
    4      -55.705856    -49.063116   1.000000   1.000000
    5      -54.331153    -49.056390   1.000000   1.000000
    6      -54.330695    -49.051791   1.000000   1.000000
    7      -54.186763    -49.039394   1.000000   1.000000
    8      -54.185944    -49.037758   1.000000   1.000000
    9      -54.173720    -49.021418   1.000000   1.000000
   10      -54.172157    -49.018472   1.000000   1.000000
   11      -54.158044    -49.017770   1.000000   1.000000
   12      -54.156739    -49.015565   1.000000   1.000000
   13      -43.244343    -43.243273   1.000000   1.000000
   14      -43.244206    -43.243148   1.000000   1.000000
   15      -15.788759    -15.255459   1.000000   1.000000
   16      -15.642900    -15.113298   1.000000   1.000000
   17       -9.041634     -8.714493   1.000000   1.000000
   18       -8.774327     -8.419377   1.000000   1.000000
   19       -8.504765     -8.114650   1.000000   1.000000
   20       -2.813385     -1.327947   1.000000   1.000000
   21       -2.327302     -0.707563   1.000000   1.000000
   22       -1.908235     -0.537263   1.000000   1.000000
   23       -1.679800     -0.355802   1.000000   1.000000
   24       -1.564673     -0.174845   1.000000   1.000000
   25       -1.427768      0.128632   1.000000   1.000000
   26       -1.024779      0.738490   1.000000   1.000000
   27       -0.855382      1.110611   1.000000   1.000000
   28       -0.784005      1.327916   1.000000   1.000000
   29       -0.613783      1.573182   1.000000   1.000000