 vasp.6.2.0 18Jan21 (build Jan 29 2021 15:03:46) complex                        
  
 executed on             LinuxIFC date 2021.03.29  14:06:10
 running on  104 total cores
 distrk:  each k-point on    4 cores,   26 groups
 distr:  one band on NCORE=   1 cores,    4 groups


--------------------------------------------------------------------------------------------------------


 INCAR:
   AEXX = 0.25
   ALGO = all
   EDIFF = 1.1e-05
   EDIFFG = -0.03
   ENCUT = 520
   GGA = pe
   HFSCREEN = 0.207
   IBRION = 2
   ISIF = 3
   ISMEAR = 0
   ISPIN = 2
   KPAR = 26
   LASPH = .TRUE.
   LHFCALC = .TRUE.
   LMAXFOCK = 4
   LORBIT = 11
   LREAL = .FALSE.
   LVHAR = .TRUE.
   LWAVE = .TRUE.
   MAGMOM = 0.6 0.6 0.6 0.6 0.6 0.6 0.6 5 5 5 5
   NCORE = 1
   NEDOS = 2000
   NELM = 200
   NELMIN = 4
   NSW = 60
   NWRITE = 1
   PREC = accurate
   PRECFOCK = fast
   SIGMA = 0.05
   TIME = 0.3

 POTCAR:    PAW_PBE Li_sv 10Sep2004               
 POTCAR:    PAW_PBE O 08Apr2002                   
 POTCAR:    PAW_PBE S 06Sep2000                   
 POTCAR:    PAW_PBE Fe_pv 02Aug2007               
 -----------------------------------------------------------------------------
|                                                                             |
|           W    W    AA    RRRRR   N    N  II  N    N   GGGG   !!!           |
|           W    W   A  A   R    R  NN   N  II  NN   N  G    G  !!!           |
|           W    W  A    A  R    R  N N  N  II  N N  N  G       !!!           |
|           W WW W  AAAAAA  RRRRR   N  N N  II  N  N N  G  GGG   !            |
|           WW  WW  A    A  R   R   N   NN  II  N   NN  G    G                |
|           W    W  A    A  R    R  N    N  II  N    N   GGGG   !!!           |
|                                                                             |
|     For optimal performance we recommend to set                             |
|       NCORE = 2 up to number-of-cores-per-socket                            |
|     NCORE specifies how many cores store one orbital (NPAR=cpu/NCORE).      |
|     This setting can greatly improve the performance of VASP for DFT.       |
|     The default, NCORE=1 might be grossly inefficient on modern             |
|     multi-core architectures or massively parallel machines. Do your        |
|     own testing! More info at https://www.vasp.at/wiki/index.php/NCORE      |
|     Unfortunately you need to use the default for GW and RPA                |
|     calculations (for HF NCORE is supported but not extensively tested      |
|     yet).                                                                   |
|                                                                             |
 -----------------------------------------------------------------------------

 POTCAR:    PAW_PBE Li_sv 10Sep2004               
  local pseudopotential read in
  atomic valenz-charges read in
  non local Contribution for L=           0  read in
    real space projection operators read in
  non local Contribution for L=           0  read in
    real space projection operators read in
  non local Contribution for L=           1  read in
    real space projection operators read in
    PAW grid and wavefunctions read in
 
   number of l-projection  operators is LMAX  =           3
   number of lm-projection operators is LMMAX =           5
 
 POTCAR:    PAW_PBE O 08Apr2002                   
  local pseudopotential read in
  partial core-charges read in
  partial kinetic energy density read in
  kinetic energy density of atom read in
  atomic valenz-charges read in
  non local Contribution for L=           0  read in
    real space projection operators read in
  non local Contribution for L=           0  read in
    real space projection operators read in
  non local Contribution for L=           1  read in
    real space projection operators read in
  non local Contribution for L=           1  read in
    real space projection operators read in
    PAW grid and wavefunctions read in
 
   number of l-projection  operators is LMAX  =           4
   number of lm-projection operators is LMMAX =           8
 
 POTCAR:    PAW_PBE S 06Sep2000                   
  local pseudopotential read in
  partial core-charges read in
  partial kinetic energy density read in
  atomic valenz-charges read in
  non local Contribution for L=           0  read in
    real space projection operators read in
  non local Contribution for L=           0  read in
    real space projection operators read in
  non local Contribution for L=           1  read in
    real space projection operators read in
  non local Contribution for L=           1  read in
    real space projection operators read in
    PAW grid and wavefunctions read in
 
   number of l-projection  operators is LMAX  =           4
   number of lm-projection operators is LMMAX =           8
 
 POTCAR:    PAW_PBE Fe_pv 02Aug2007               
  local pseudopotential read in
  partial core-charges read in
  partial kinetic energy density read in
  atomic valenz-charges read in
  non local Contribution for L=           1  read in
    real space projection operators read in
  non local Contribution for L=           1  read in
    real space projection operators read in
  non local Contribution for L=           2  read in
    real space projection operators read in
  non local Contribution for L=           2  read in
    real space projection operators read in
  non local Contribution for L=           0  read in
    real space projection operators read in
  non local Contribution for L=           0  read in
    real space projection operators read in
    PAW grid and wavefunctions read in
 
   number of l-projection  operators is LMAX  =           6
   number of lm-projection operators is LMMAX =          18
 
  PAW_PBE Li_sv 10Sep2004               :
 energy of atom  1       EATOM= -202.7858
 kinetic energy error for atom=    0.0130 (will be added to EATOM!!)
  PAW_PBE O 08Apr2002                   :
 energy of atom  2       EATOM= -432.3788
 kinetic energy error for atom=    0.0208 (will be added to EATOM!!)
  PAW_PBE S 06Sep2000                   :
 energy of atom  3       EATOM= -276.8230
 kinetic energy error for atom=    0.0016 (will be added to EATOM!!)
  PAW_PBE Fe_pv 02Aug2007               :
 energy of atom  4       EATOM=-2457.4239
 kinetic energy error for atom=    0.0062 (will be added to EATOM!!)
 
 
 POSCAR: # Compound: Li2O2S3Fe4. Old comment: LFS
  positions in direct lattice
  No initial velocities read in
 exchange correlation table for  LEXCH =        8
   RHO(1)=    0.500       N(1)  =     2000
   RHO(2)=  100.500       N(2)  =     4000
 


--------------------------------------------------------------------------------------------------------


 ion  position               nearest neighbor table
   1  0.611  0.727  0.835-   4 1.99   4 2.00   7 2.58   7 2.59
   2  0.273  0.389  0.165-   3 1.99   3 2.00   7 2.58   7 2.59
   3  0.790  0.406  0.196-   2 1.99   2 2.00  11 2.01   8 2.01  11 2.01
   4  0.594  0.210  0.804-   1 1.99   1 2.00  10 2.01   9 2.01  10 2.01
   5  0.009  0.616  0.629-   8 2.41   9 2.64   9 2.73
   6  0.384  0.991  0.371-   9 2.41   8 2.64   8 2.73
   7  0.192  0.808  0.000-  10 2.53  11 2.53  10 2.53  11 2.53   2 2.58   1 2.58   2 2.59   1 2.59

   8  0.857  0.519  0.393-   3 2.01   5 2.41   6 2.64   6 2.73
   9  0.481  0.143  0.607-   4 2.01   6 2.41   5 2.64   5 2.73
  10  0.114  0.229  0.844-   4 2.01   4 2.01   7 2.53   7 2.53
  11  0.771  0.886  0.156-   3 2.01   3 2.01   7 2.53   7 2.53
 
  Warning from LATTYP: Got some problem with cell dimensions!
  Tried to take original basis but could not verify dimensions!
  LATTYP: Found a base centered monoclinic cell.
 ALAT       =     5.5491602820
 B/A-ratio  =     1.0044021124
 C/A-ratio  =     1.9032187241
 COS(beta)  =    -0.2609418365
  
  Lattice vectors:
  
 A1 = (  -3.9324192900,   0.0022389800,  -0.0242927000)
 A2 = (   0.0151846200,  -3.9323906100,  -0.0242927000)
 A3 = (   1.8823979400,   1.8886050900,  10.2191038300)


Analysis of symmetry for initial positions (statically):
=====================================================================
 Subroutine PRICEL returns:
 Original cell was already a primitive cell.
 

 Routine SETGRP: Setting up the symmetry group for a 
 base centered monoclinic supercell.


 Subroutine GETGRP returns: Found  2 space group operations
 (whereof  2 operations were pure point group operations)
 out of a pool of  4 trial point group operations.


The static configuration has the point symmetry C_2 .


Analysis of symmetry for dynamics (positions and initial velocities):
=====================================================================
 Subroutine PRICEL returns:
 Original cell was already a primitive cell.
 

 Routine SETGRP: Setting up the symmetry group for a 
 base centered monoclinic supercell.


 Subroutine GETGRP returns: Found  2 space group operations
 (whereof  2 operations were pure point group operations)
 out of a pool of  4 trial point group operations.


The dynamic configuration has the point symmetry C_2 .


Analysis of structural, dynamic, and magnetic symmetry:
=====================================================================
 Subroutine PRICEL returns:
 Original cell was already a primitive cell.
 

 Routine SETGRP: Setting up the symmetry group for a 
 base centered monoclinic supercell.


 Subroutine GETGRP returns: Found  2 space group operations
 (whereof  2 operations were pure point group operations)
 out of a pool of  4 trial point group operations.


The overall configuration has the point symmetry C_2 .


 Subroutine INISYM returns: Found  2 space group operations
 (whereof  2 operations are pure point group operations),
 and found     1 'primitive' translations


----------------------------------------------------------------------------------------

                                     Primitive cell                                     

  volume of cell :     157.6649

  direct lattice vectors                    reciprocal lattice vectors
     3.932419290 -0.002238980  0.024292700     0.253982026  0.000665993  0.050948397
    -0.015184620  3.932390610  0.024292700    -0.000170127  0.253982842  0.050948397
    -2.034836730 -2.041546540 10.170518430    -0.000606240 -0.000608239  0.098080020

  length of vectors
     3.932494961  3.932494961 10.571088777     0.259042568  0.259042568  0.098083780

  position of ions in fractional coordinates (direct lattice)
     0.610653320  0.727303470  0.835207750
     0.272696530  0.389346680  0.164792250
     0.790481320  0.406218590  0.196430270
     0.593781410  0.209518680  0.803569730
     0.009075620  0.616074690  0.629066560
     0.383925310  0.990924380  0.370933440
     0.192173950  0.807826050  0.000000000
     0.856863140  0.519087200  0.393194960
     0.480912800  0.143136860  0.606805040
     0.113855560  0.228814950  0.844277150
     0.771185050  0.886144440  0.155722850

  ion indices of the primitive-cell ions
   primitive index   ion index
                 1           1
                 2           2
                 3           3
                 4           4
                 5           5
                 6           6
                 7           7
                 8           8
                 9           9
                10          10
                11          11

----------------------------------------------------------------------------------------

 
 
 KPOINTS: # No comment                            

Automatic generation of k-mesh.
 Grid dimensions read from file:
 generate k-points for:    6    6    2

 Generating k-lattice:

  Cartesian coordinates                     Fractional coordinates (reciprocal lattice)
     0.042330338  0.000110999  0.008491400     0.166666667 -0.000000000 -0.000000000
    -0.000028355  0.042330474  0.008491400     0.000000000  0.166666667  0.000000000
    -0.000303120 -0.000304120  0.049040010    -0.000000000  0.000000000  0.500000000

  Length of vectors
     0.043173761  0.043173761  0.049041890

  Shift w.r.t. Gamma in fractional coordinates (k-lattice)
     0.000000000  0.000000000  0.000000000

 
 Subroutine IBZKPT returns following result:
 ===========================================
 
 Found     26 irreducible k-points:
 
 Following reciprocal coordinates:
            Coordinates               Weight
  0.000000  0.000000  0.000000      1.000000
  0.166667  0.000000  0.000000      4.000000
  0.333333  0.000000  0.000000      4.000000
  0.500000  0.000000  0.000000      2.000000
  0.166667  0.166667 -0.000000      2.000000
  0.333333  0.166667 -0.000000      4.000000
  0.500000  0.166667 -0.000000      4.000000
 -0.333333  0.166667 -0.000000      4.000000
 -0.166667  0.166667  0.000000      2.000000
  0.333333  0.333333 -0.000000      2.000000
  0.500000  0.333333  0.000000      4.000000
 -0.333333  0.333333  0.000000      2.000000
  0.500000  0.500000 -0.000000      1.000000
  0.000000 -0.000000  0.500000      1.000000
  0.166667 -0.000000  0.500000      4.000000
  0.333333  0.000000  0.500000      4.000000
  0.500000  0.000000  0.500000      2.000000
  0.166667  0.166667  0.500000      2.000000
  0.333333  0.166667  0.500000      4.000000
  0.500000  0.166667  0.500000      4.000000
 -0.333333  0.166667  0.500000      4.000000
 -0.166667  0.166667  0.500000      2.000000
  0.333333  0.333333  0.500000      2.000000
  0.500000  0.333333  0.500000      4.000000
 -0.333333  0.333333  0.500000      2.000000
  0.500000  0.500000  0.500000      1.000000
 
 Following cartesian coordinates:
            Coordinates               Weight
  0.000000  0.000000  0.000000      1.000000
  0.042330  0.000111  0.008491      4.000000
  0.084661  0.000222  0.016983      4.000000
  0.126991  0.000333  0.025474      2.000000
  0.042302  0.042441  0.016983      2.000000
  0.084632  0.042552  0.025474      4.000000
  0.126963  0.042663  0.033966      4.000000
 -0.084689  0.042108 -0.008491      4.000000
 -0.042359  0.042219 -0.000000      2.000000
  0.084604  0.084883  0.033966      2.000000
  0.126934  0.084994  0.042457      4.000000
 -0.084717  0.084439 -0.000000      2.000000
  0.126906  0.127324  0.050948      1.000000
 -0.000303 -0.000304  0.049040      1.000000
  0.042027 -0.000193  0.057531      4.000000
  0.084358 -0.000082  0.066023      4.000000
  0.126688  0.000029  0.074514      2.000000
  0.041999  0.042137  0.066023      2.000000
  0.084329  0.042248  0.074514      4.000000
  0.126660  0.042359  0.083006      4.000000
 -0.084992  0.041804  0.040549      4.000000
 -0.042662  0.041915  0.049040      2.000000
  0.084301  0.084579  0.083006      2.000000
  0.126631  0.084690  0.091497      4.000000
 -0.085021  0.084135  0.049040      2.000000
  0.126603  0.127020  0.099988      1.000000
 
 
 Subroutine IBZKPT_HF returns following result:
 ==============================================
 
 Found     72 k-points in 1st BZ
 the following     72 k-points will be used (e.g. in the exchange kernel)
 Following reciprocal coordinates:   # in IRBZ
  0.000000  0.000000  0.000000    0.01388889   1 t-inv F
  0.166667  0.000000  0.000000    0.01388889   2 t-inv F
  0.333333  0.000000  0.000000    0.01388889   3 t-inv F
  0.500000  0.000000  0.000000    0.01388889   4 t-inv F
  0.166667  0.166667 -0.000000    0.01388889   5 t-inv F
  0.333333  0.166667 -0.000000    0.01388889   6 t-inv F
  0.500000  0.166667 -0.000000    0.01388889   7 t-inv F
 -0.333333  0.166667 -0.000000    0.01388889   8 t-inv F
 -0.166667  0.166667  0.000000    0.01388889   9 t-inv F
  0.333333  0.333333 -0.000000    0.01388889  10 t-inv F
  0.500000  0.333333  0.000000    0.01388889  11 t-inv F
 -0.333333  0.333333  0.000000    0.01388889  12 t-inv F
  0.500000  0.500000 -0.000000    0.01388889  13 t-inv F
  0.000000 -0.000000  0.500000    0.01388889  14 t-inv F
  0.166667 -0.000000  0.500000    0.01388889  15 t-inv F
  0.333333  0.000000  0.500000    0.01388889  16 t-inv F
  0.500000  0.000000  0.500000    0.01388889  17 t-inv F
  0.166667  0.166667  0.500000    0.01388889  18 t-inv F
  0.333333  0.166667  0.500000    0.01388889  19 t-inv F
  0.500000  0.166667  0.500000    0.01388889  20 t-inv F
 -0.333333  0.166667  0.500000    0.01388889  21 t-inv F
 -0.166667  0.166667  0.500000    0.01388889  22 t-inv F
  0.333333  0.333333  0.500000    0.01388889  23 t-inv F
  0.500000  0.333333  0.500000    0.01388889  24 t-inv F
 -0.333333  0.333333  0.500000    0.01388889  25 t-inv F
  0.500000  0.500000  0.500000    0.01388889  26 t-inv F
 -0.000000 -0.166667 -0.000000    0.01388889   2 t-inv F
 -0.000000 -0.333333 -0.000000    0.01388889   3 t-inv F
 -0.000000 -0.500000 -0.000000    0.01388889   4 t-inv F
 -0.166667 -0.166667  0.000000    0.01388889   5 t-inv F
 -0.166667 -0.333333  0.000000    0.01388889   6 t-inv F
 -0.166667 -0.500000  0.000000    0.01388889   7 t-inv F
 -0.166667  0.333333  0.000000    0.01388889   8 t-inv F
 -0.333333 -0.333333  0.000000    0.01388889  10 t-inv F
 -0.333333 -0.500000 -0.000000    0.01388889  11 t-inv F
  0.000000 -0.166667 -0.500000    0.01388889  15 t-inv F
 -0.000000 -0.333333 -0.500000    0.01388889  16 t-inv F
 -0.000000 -0.500000 -0.500000    0.01388889  17 t-inv F
 -0.166667 -0.166667 -0.500000    0.01388889  18 t-inv F
 -0.166667 -0.333333 -0.500000    0.01388889  19 t-inv F
 -0.166667 -0.500000 -0.500000    0.01388889  20 t-inv F
 -0.166667  0.333333 -0.500000    0.01388889  21 t-inv F
 -0.333333 -0.333333 -0.500000    0.01388889  23 t-inv F
 -0.333333 -0.500000 -0.500000    0.01388889  24 t-inv F
 -0.166667 -0.000000 -0.000000    0.01388889   2 t-inv T
  0.000000  0.166667  0.000000    0.01388889   2 t-inv T
 -0.333333 -0.000000 -0.000000    0.01388889   3 t-inv T
  0.000000  0.333333  0.000000    0.01388889   3 t-inv T
 -0.333333 -0.166667  0.000000    0.01388889   6 t-inv T
  0.166667  0.333333 -0.000000    0.01388889   6 t-inv T
 -0.500000 -0.166667  0.000000    0.01388889   7 t-inv T
  0.166667  0.500000 -0.000000    0.01388889   7 t-inv T
  0.333333 -0.166667  0.000000    0.01388889   8 t-inv T
  0.166667 -0.333333 -0.000000    0.01388889   8 t-inv T
  0.166667 -0.166667 -0.000000    0.01388889   9 t-inv T
 -0.500000 -0.333333 -0.000000    0.01388889  11 t-inv T
  0.333333  0.500000  0.000000    0.01388889  11 t-inv T
  0.333333 -0.333333 -0.000000    0.01388889  12 t-inv T
 -0.166667  0.000000 -0.500000    0.01388889  15 t-inv T
 -0.000000  0.166667  0.500000    0.01388889  15 t-inv T
 -0.333333 -0.000000 -0.500000    0.01388889  16 t-inv T
  0.000000  0.333333  0.500000    0.01388889  16 t-inv T
 -0.333333 -0.166667 -0.500000    0.01388889  19 t-inv T
  0.166667  0.333333  0.500000    0.01388889  19 t-inv T
 -0.500000 -0.166667 -0.500000    0.01388889  20 t-inv T
  0.166667  0.500000  0.500000    0.01388889  20 t-inv T
  0.333333 -0.166667 -0.500000    0.01388889  21 t-inv T
  0.166667 -0.333333  0.500000    0.01388889  21 t-inv T
  0.166667 -0.166667 -0.500000    0.01388889  22 t-inv T
 -0.500000 -0.333333 -0.500000    0.01388889  24 t-inv T
  0.333333  0.500000  0.500000    0.01388889  24 t-inv T
  0.333333 -0.333333 -0.500000    0.01388889  25 t-inv T


--------------------------------------------------------------------------------------------------------




 Dimension of arrays:
   k-points           NKPTS =     26   k-points in BZ     NKDIM =     72   number of bands    NBANDS=     68
   number of dos      NEDOS =   2000   number of ions     NIONS =     11
   non local maximal  LDIM  =      6   non local SUM 2l+1 LMDIM =     18
   total plane-waves  NPLWV =  72000
   max r-space proj   IRMAX =      1   max aug-charges    IRDMAX=  14585
   dimension x,y,z NGX =    30 NGY =   30 NGZ =   80
   dimension x,y,z NGXF=    60 NGYF=   60 NGZF=  160
   support grid    NGXF=    60 NGYF=   60 NGZF=  160
   ions per type =               2   2   3   4
   NGX,Y,Z   is equivalent  to a cutoff of  12.68, 12.68, 12.58 a.u.
   NGXF,Y,Z  is equivalent  to a cutoff of  25.36, 25.36, 25.16 a.u.

 SYSTEM =  unknown system                          
 POSCAR =  # Compound: Li2O2S3Fe4. Old comment: LFS

 Startparameter for this run:
   NWRITE =      1    write-flag & timer
   PREC   = accura    normal or accurate (medium, high low for compatibility)
   ISTART =      0    job   : 0-new  1-cont  2-samecut
   ICHARG =      2    charge: 1-file 2-atom 10-const
   ISPIN  =      2    spin polarized calculation?
   LNONCOLLINEAR =      F non collinear calculations
   LSORBIT =      F    spin-orbit coupling
   INIWAV =      1    electr: 0-lowe 1-rand  2-diag
   LASPH  =      T    aspherical Exc in radial PAW
   METAGGA=      F    non-selfconsistent MetaGGA calc.

 Electronic Relaxation 1
   ENCUT  =  520.0 eV  38.22 Ry    6.18 a.u.   7.31  7.31 19.66*2*pi/ulx,y,z
   ENINI  =  520.0     initial cutoff
   ENAUG  =  628.9 eV  augmentation charge cutoff
   NELM   =    200;   NELMIN=  4; NELMDL= -5     # of ELM steps 
   EDIFF  = 0.1E-04   stopping-criterion for ELM
   LREAL  =      F    real-space projection
   NLSPLINE    = F    spline interpolate recip. space projectors
   LCOMPAT=      F    compatible to vasp.4.4
   GGA_COMPAT  = T    GGA compatible to vasp.4.4-vasp.4.6
   LMAXPAW     = -100 max onsite density
   LMAXMIX     =    2 max onsite mixed and CHGCAR
   VOSKOWN=      0    Vosko Wilk Nusair interpolation
   ROPT   =    0.00000   0.00000   0.00000   0.00000
 Ionic relaxation
   EDIFFG = -.3E-01   stopping-criterion for IOM
   NSW    =     60    number of steps for IOM
   NBLOCK =      1;   KBLOCK =     60    inner block; outer block 
   IBRION =      2    ionic relax: 0-MD 1-quasi-New 2-CG
   NFREE  =      1    steps in history (QN), initial steepest desc. (CG)
   ISIF   =      3    stress and relaxation
   IWAVPR =     11    prediction:  0-non 1-charg 2-wave 3-comb
   ISYM   =      3    0-nonsym 1-usesym 2-fastsym
   LCORR  =      T    Harris-Foulkes like correction to forces

   POTIM  = 0.5000    time-step for ionic-motion
   TEIN   =    0.0    initial temperature
   TEBEG  =    0.0;   TEEND  =   0.0 temperature during run
   SMASS  =  -3.00    Nose mass-parameter (am)
   estimated Nose-frequenzy (Omega)   =  0.10E-29 period in steps = 0.13E+47 mass=  -0.353E-27a.u.
   SCALEE = 1.0000    scale energy and forces
   NPACO  =    256;   APACO  = 16.0  distance and # of slots for P.C.
   PSTRESS=    0.0 pullay stress

  Mass of Ions in am
   POMASS =   7.01 16.00 32.07 55.85
  Ionic Valenz
   ZVAL   =   3.00  6.00  6.00 14.00
  Atomic Wigner-Seitz radii
   RWIGS  =  -1.00 -1.00 -1.00 -1.00
  virtual crystal weights 
   VCA    =   1.00  1.00  1.00  1.00
   NELECT =      92.0000    total number of electrons
   NUPDOWN=      -1.0000    fix difference up-down

 DOS related values:
   EMIN   =  10.00;   EMAX   =-10.00  energy-range for DOS
   EFERMI =   0.00
   ISMEAR =     0;   SIGMA  =   0.05  broadening in eV -4-tet -1-fermi 0-gaus

 Electronic relaxation 2 (details)
   IALGO  =     58    algorithm
   LDIAG  =      T    sub-space diagonalisation (order eigenvalues)
   LSUBROT=      F    optimize rotation matrix (better conditioning)
   TURBO    =      0    0=normal 1=particle mesh
   IRESTART =      0    0=no restart 2=restart with 2 vectors
   NREBOOT  =      0    no. of reboots
   NMIN     =      0    reboot dimension
   EREF     =   0.00    reference energy to select bands
   IMIX   =      4    mixing-type and parameters
     AMIX     =   0.40;   BMIX     =  1.00
     AMIX_MAG =   1.60;   BMIX_MAG =  1.00
     AMIN     =   0.10
     WC   =   100.;   INIMIX=   1;  MIXPRE=   1;  MAXMIX= -45

 Intra band minimization:
   WEIMIN = 0.0010     energy-eigenvalue tresh-hold
   EBREAK =  0.40E-07  absolut break condition
   DEPER  =   0.30     relativ break condition  

   TIME   =   0.30     timestep for ELM

  volume/ion in A,a.u.               =      14.33        96.73
  Fermi-wavevector in a.u.,A,eV,Ry     =   1.368020  2.585183 25.463014  1.871479
  Thomas-Fermi vector in A             =   2.494021
 
 Write flags
   LWAVE        =      T    write WAVECAR
   LDOWNSAMPLE  =      F    k-point downsampling of WAVECAR
   LCHARG       =      T    write CHGCAR
   LVTOT        =      F    write LOCPOT, total local potential
   LVHAR        =      T    write LOCPOT, Hartree potential only
   LELF         =      F    write electronic localiz. function (ELF)
   LORBIT       =     11    0 simple, 1 ext, 2 COOP (PROOUT), +10 PAW based schemes


 Dipole corrections
   LMONO  =      F    monopole corrections only (constant potential shift)
   LDIPOL =      F    correct potential (dipole corrections)
   IDIPOL =      0    1-x, 2-y, 3-z, 4-all directions 
   EPSILON=  1.0000000 bulk dielectric constant

 Exchange correlation treatment:
   GGA     =    PE    GGA type
   LEXCH   =     8    internal setting for exchange type
   VOSKOWN=      0    Vosko Wilk Nusair interpolation
   EXXOEP  =     0    0=HF, 1=EXX-LHF (local Hartree Fock) 2=EXX OEP
   LHFCALC =     T    Hartree Fock is set to
   LSYMGRAD=     F    symmetrize gradient (conserves proper symmetry)
   PRECFOCK=fast      Normal, Fast or Accurate (Low or Medium for compatibility)
   LRHFCALC=     F    long range Hartree Fock
   LRSCOR  =     F    long range correlation only (use DFT for short range part)
   LTHOMAS =     F    Thomas Fermi screening in HF
   LMODELHF=     F    short range full HF, long range fraction AEXX
   LFOCKACE=     T    use Adeptively-Compressed-Exchange operator
   ENCUT4O =  -1.0   cutoff for four orbital integrals eV
   LMAXFOCK=     4    L truncation for augmentation on plane wave grid
   LMAXFOCKAE=  -1    L truncation for all-electron charge restoration on plane wave grid
   NMAXFOCKAE=   1    number of basis functions for all-electron charge restoration
   LFOCKAEDFT=     F  apply the AE augmentation even for DFT
   NKREDX  =     1    reduce k-point grid by
   NKREDY  =     1    reduce k-point grid by
   NKREDZ  =     1    reduce k-point grid by
   SHIFTRED=     F    shift reduced grid of Gamma
   HFKIDENT=     F    idential grid for each k-point
   ODDONLY =     F    use only odd q-grid points
   EVENONLY=     F    use only even q-grid points
   HFALPHA =   -1.0000 decay constant for conv. correction
   MCALPHA =    0.0000 extent of test-charge in conv. correction in multipole expansion
   AEXX    =    0.2500 exact exchange contribution
   HFSCREEN=    0.2070 screening length (either q_TF or 0.3 A-1)
   HFSCREENC=   0.2070 screening length for correlation (either q_TF or 0.3 A-1)
   HFRCUT  =    0.0000 spherical cutoff for potential kernel
   ALDAX   =    0.7500 LDA exchange part
   AGGAX   =    0.7500 GGA exchange part
   ALDAC   =    1.0000 LDA correlation
   AGGAC   =    1.0000 GGA correlation
   ENCUTFOCK=  -1.0 apply spherical cutoff to Coloumb kernel
   NBANDSGWLOW=     1    first orbital included in HF term
   NBLOCK_FOCK=    64    blocking factor in FOCK_ACC
 Linear response parameters
   LEPSILON=     F    determine dielectric tensor
   LRPA    =     F    only Hartree local field effects (RPA)
   LNABLA  =     F    use nabla operator in PAW spheres
   LVEL    =     F    velocity operator in full k-point grid
   LINTERFAST=   F  fast interpolation
   KINTER  =     0    interpolate to denser k-point grid
   CSHIFT  =0.1000    complex shift for real part using Kramers Kronig
   OMEGAMAX=  -1.0    maximum frequency
   DEG_THRESHOLD= 0.2000000E-02 threshold for treating states as degnerate
   RTIME   =   -0.100 relaxation time in fs
  (WPLASMAI=    0.000 imaginary part of plasma frequency in eV, 0.658/RTIME)
   DFIELD  = 0.0000000 0.0000000 0.0000000 field for delta impulse in time
 
 Orbital magnetization related:
   ORBITALMAG=     F  switch on orbital magnetization
   LCHIMAG   =     F  perturbation theory with respect to B field
   DQ        =  0.001000  dq finite difference perturbation B field
   LLRAUG    =     F  two centre corrections for induced B field



--------------------------------------------------------------------------------------------------------


 conjugate gradient relaxation of ions
 charge density and potential will be updated during run
 spin polarized calculation
 Conjugate gradient for all bands (Freysoldt, et al. PRB 79, 241103 (2009))
 preconditioned conjugated gradient                                        
 perform sub-space diagonalisation
    before iterative eigenvector-optimisation
 modified Broyden-mixing scheme, WC =      100.0
 initial mixing is a Kerker type mixing with AMIX =  0.4000 and BMIX =      1.0000
 Hartree-type preconditioning will be used
 using additional bands           22
 reciprocal scheme for non local part
 use partial core corrections
 no Harris-corrections to forces 
 use gradient corrections 
 use of overlap-Matrix (Vanderbilt PP)
 Gauss-broadening in eV      SIGMA  =   0.05


--------------------------------------------------------------------------------------------------------


  energy-cutoff  :      520.00
  volume of cell :      157.66
      direct lattice vectors                 reciprocal lattice vectors
     3.932419290 -0.002238980  0.024292700     0.253982026  0.000665993  0.050948397
    -0.015184620  3.932390610  0.024292700    -0.000170127  0.253982842  0.050948397
    -2.034836730 -2.041546540 10.170518430    -0.000606240 -0.000608239  0.098080020

  length of vectors
     3.932494961  3.932494961 10.571088777     0.259042568  0.259042568  0.098083780


 
 k-points in units of 2pi/SCALE and weight: # No comment                            
   0.00000000  0.00000000  0.00000000       0.014
   0.04233034  0.00011100  0.00849140       0.056
   0.08466068  0.00022200  0.01698280       0.056
   0.12699101  0.00033300  0.02547420       0.028
   0.04230198  0.04244147  0.01698280       0.028
   0.08463232  0.04255247  0.02547420       0.056
   0.12696266  0.04266347  0.03396560       0.056
  -0.08468903  0.04210848 -0.00849140       0.056
  -0.04235869  0.04221947 -0.00000000       0.028
   0.08460397  0.08488295  0.03396560       0.028
   0.12693430  0.08499394  0.04245700       0.056
  -0.08471738  0.08443895 -0.00000000       0.028
   0.12690595  0.12732442  0.05094840       0.014
  -0.00030312 -0.00030412  0.04904001       0.014
   0.04202722 -0.00019312  0.05753141       0.056
   0.08435756 -0.00008212  0.06602281       0.056
   0.12668789  0.00002888  0.07451421       0.028
   0.04199886  0.04213735  0.06602281       0.028
   0.08432920  0.04224835  0.07451421       0.056
   0.12665954  0.04235935  0.08300561       0.056
  -0.08499215  0.04180436  0.04054861       0.056
  -0.04266181  0.04191536  0.04904001       0.028
   0.08430085  0.08457883  0.08300561       0.028
   0.12663118  0.08468982  0.09149701       0.056
  -0.08502050  0.08413483  0.04904001       0.028
   0.12660283  0.12702030  0.09998841       0.014
 
 k-points in reciprocal lattice and weights: # No comment                            
   0.00000000  0.00000000  0.00000000       0.014
   0.16666667  0.00000000  0.00000000       0.056
   0.33333333  0.00000000  0.00000000       0.056
   0.50000000  0.00000000  0.00000000       0.028
   0.16666667  0.16666667 -0.00000000       0.028
   0.33333333  0.16666667 -0.00000000       0.056
   0.50000000  0.16666667 -0.00000000       0.056
  -0.33333333  0.16666667 -0.00000000       0.056
  -0.16666667  0.16666667  0.00000000       0.028
   0.33333333  0.33333333 -0.00000000       0.028
   0.50000000  0.33333333  0.00000000       0.056
  -0.33333333  0.33333333  0.00000000       0.028
   0.50000000  0.50000000 -0.00000000       0.014
   0.00000000 -0.00000000  0.50000000       0.014
   0.16666667 -0.00000000  0.50000000       0.056
   0.33333333  0.00000000  0.50000000       0.056
   0.50000000  0.00000000  0.50000000       0.028
   0.16666667  0.16666667  0.50000000       0.028
   0.33333333  0.16666667  0.50000000       0.056
   0.50000000  0.16666667  0.50000000       0.056
  -0.33333333  0.16666667  0.50000000       0.056
  -0.16666667  0.16666667  0.50000000       0.028
   0.33333333  0.33333333  0.50000000       0.028
   0.50000000  0.33333333  0.50000000       0.056
  -0.33333333  0.33333333  0.50000000       0.028
   0.50000000  0.50000000  0.50000000       0.014
 
 position of ions in fractional coordinates (direct lattice) 
   0.61065332  0.72730347  0.83520775
   0.27269653  0.38934668  0.16479225
   0.79048132  0.40621859  0.19643027
   0.59378141  0.20951868  0.80356973
   0.00907562  0.61607469  0.62906656
   0.38392531  0.99092438  0.37093344
   0.19217395  0.80782605  0.00000000
   0.85686314  0.51908720  0.39319496
   0.48091280  0.14313686  0.60680504
   0.11385556  0.22881495  0.84427715
   0.77118505  0.88614444  0.15572285
 
 position of ions in cartesian coordinates  (Angst):
   0.69078966  1.15355860  8.52699840
   0.73111969  1.19402162  1.69210543
   2.70263219  1.19461876  2.02686875
   0.69668281 -0.81794518  8.19223508
  -1.25371346  1.13835735  6.41311963
   0.73991950  3.13856425  3.80598420
   0.74344202  3.17625730  0.02429270
   2.56157545  1.23660932  4.03242214
   0.65422811 -0.67702744  6.18668169
  -1.27371282 -0.82409625  8.59506071
   2.70229663  3.16502396  1.62404312
 


--------------------------------------------------------------------------------------------------------


 k-point   1 :   0.0000 0.0000 0.0000  plane waves:    4281
 k-point   2 :   0.1667 0.0000 0.0000  plane waves:    4259
 k-point   3 :   0.3333 0.0000 0.0000  plane waves:    4241
 k-point   4 :   0.5000 0.0000 0.0000  plane waves:    4248
 k-point   5 :   0.1667 0.1667-0.0000  plane waves:    4259
 k-point   6 :   0.3333 0.1667-0.0000  plane waves:    4240
 k-point   7 :   0.5000 0.1667-0.0000  plane waves:    4239
 k-point   8 :  -0.3333 0.1667-0.0000  plane waves:    4248
 k-point   9 :  -0.1667 0.1667 0.0000  plane waves:    4249
 k-point  10 :   0.3333 0.3333-0.0000  plane waves:    4242
 k-point  11 :   0.5000 0.3333 0.0000  plane waves:    4243
 k-point  12 :  -0.3333 0.3333 0.0000  plane waves:    4234
 k-point  13 :   0.5000 0.5000-0.0000  plane waves:    4234
 k-point  14 :   0.0000-0.0000 0.5000  plane waves:    4266
 k-point  15 :   0.1667-0.0000 0.5000  plane waves:    4256
 k-point  16 :   0.3333 0.0000 0.5000  plane waves:    4241
 k-point  17 :   0.5000 0.0000 0.5000  plane waves:    4250
 k-point  18 :   0.1667 0.1667 0.5000  plane waves:    4248
 k-point  19 :   0.3333 0.1667 0.5000  plane waves:    4241
 k-point  20 :   0.5000 0.1667 0.5000  plane waves:    4235
 k-point  21 :  -0.3333 0.1667 0.5000  plane waves:    4236
 k-point  22 :  -0.1667 0.1667 0.5000  plane waves:    4250
 k-point  23 :   0.3333 0.3333 0.5000  plane waves:    4244
 k-point  24 :   0.5000 0.3333 0.5000  plane waves:    4240
 k-point  25 :  -0.3333 0.3333 0.5000  plane waves:    4224
 k-point  26 :   0.5000 0.5000 0.5000  plane waves:    4230

 maximum and minimum number of plane-waves per node :      4281     4224

 maximum number of plane-waves:      4281
 maximum index in each direction: 
   IXMAX=    7   IYMAX=    7   IZMAX=   19
   IXMIN=   -7   IYMIN=   -7   IZMIN=  -20


 serial   3D FFT for wavefunctions
 parallel 3D FFT for charge:
    minimum data exchange during FFTs selected (reduces bandwidth)


 FFT grid for exact exchange (Hartree Fock) 
  NGX = 16; NGY = 16; NGZ = 48

 
 Radii for the augmentation spheres in the non-local exchange
 for species   1 augmentation radius   0.956 (default was   0.708)
       energy cutoff for augmentation   2080.0
 for species   2 augmentation radius   0.974 (default was   0.722)
       energy cutoff for augmentation   2080.0
 for species   3 augmentation radius   1.309 (default was   0.970)
       energy cutoff for augmentation   2080.0
 for species   4 augmentation radius   1.283 (default was   0.950)
       energy cutoff for augmentation   2080.0
 Maximum index for augmentation-charges in exchange          747
  SETUP_FOCK is finished

 total amount of memory used by VASP MPI-rank0   308506. kBytes
=======================================================================

   base      :      30000. kBytes
   nonl-proj :      64911. kBytes
   fftplans  :       5184. kBytes
   grid      :      19756. kBytes
   one-center:        342. kBytes
   HF        :        259. kBytes
   nonlr-proj:       1016. kBytes
   wavefun   :     187038. kBytes
 
     INWAV:  cpu time    0.0000: real time    0.0000
 Broyden mixing: mesh for mixing (old mesh)
   NGX = 15   NGY = 15   NGZ = 39
  (NGX  = 60   NGY  = 60   NGZ  =160)
  gives a total of   8775 points

 initial charge density was supplied:
 charge density of overlapping atoms calculated
 number of electron      92.0000000 magnetization      24.2000000
 keeping initial charge density in first step


--------------------------------------------------------------------------------------------------------


 Maximum index for augmentation-charges         3488 (set IRDMAX)


--------------------------------------------------------------------------------------------------------


 First call to EWALD:  gamma=   0.328
 Maximum number of real-space cells 4x 4x 2
 Maximum number of reciprocal cells 2x 2x 5

    FEWALD:  cpu time    0.0022: real time    0.0027


--------------------------------------- Iteration      1(   1)  ---------------------------------------


    POTLOK:  cpu time    0.1565: real time    0.1569
    SETDIJ:  cpu time    0.5487: real time    0.5502
    TRIAL :  cpu time    0.4815: real time    0.4968
    CORREC:  cpu time    0.0017: real time    0.0017
    --------------------------------------------
      LOOP:  cpu time    1.2352: real time    1.2537

 eigenvalue-minimisations  :  7200
 total energy-change (2. order) :-0.7134691E+03  (-0.5025349E+04)
 number of electron      92.0000000 magnetization      24.2000000
 augmentation part       92.0000000 magnetization      24.2000000

 Free energy of the ion-electron system (eV)
  ---------------------------------------------------
  alpha Z        PSCENC =       288.99538219
  Ewald energy   TEWEN  =     -7214.53978505
  -Hartree energ DENC   =     -3910.92414404
  -exchange      EXHF   =         0.00000000
  -V(xc)+E(xc)   XCENC  =       408.19151432
  PAW double counting   =      9500.59049533   -11446.95746086
  entropy T*S    EENTRO =        -0.00399086
  eigenvalues    EBANDS =      -234.11366143
  atomic energy  EATOM  =     11895.29256912
  ---------------------------------------------------
  free energy    TOTEN  =      -713.46908129 eV

  energy without entropy =     -713.46509043  energy(sigma->0) =     -713.46708586
  exchange ACFDT corr.  =         0.00000000  see jH, gK, PRB 81, 115126


--------------------------------------------------------------------------------------------------------




--------------------------------------- Iteration      1(   2)  ---------------------------------------


    TRIAL :  cpu time    0.4471: real time    0.4488
    CORREC:  cpu time    0.0016: real time    0.0016
    --------------------------------------------
      LOOP:  cpu time    0.4525: real time    0.4547

 eigenvalue-minimisations  :  7072
 total energy-change (2. order) :-0.1035229E+04  (-0.9606337E+03)
 number of electron      92.0000000 magnetization      24.2000000
 augmentation part       92.0000000 magnetization      24.2000000

 Free energy of the ion-electron system (eV)
  ---------------------------------------------------
  alpha Z        PSCENC =       288.99538219
  Ewald energy   TEWEN  =     -7214.53978505
  -Hartree energ DENC   =     -3910.92414404
  -exchange      EXHF   =         0.00000000
  -V(xc)+E(xc)   XCENC  =       408.19151432
  PAW double counting   =      9500.59049533   -11446.95746086
  entropy T*S    EENTRO =        -0.01033371
  eigenvalues    EBANDS =     -1269.33603133
  atomic energy  EATOM  =     11895.29256912
  ---------------------------------------------------
  free energy    TOTEN  =     -1748.69779404 eV

  energy without entropy =    -1748.68746033  energy(sigma->0) =    -1748.69262719
  exchange ACFDT corr.  =         0.00000000  see jH, gK, PRB 81, 115126


--------------------------------------------------------------------------------------------------------




--------------------------------------- Iteration      1(   3)  ---------------------------------------


    TRIAL :  cpu time    0.4710: real time    0.4728
    CORREC:  cpu time    0.0017: real time    0.0017
    --------------------------------------------
      LOOP:  cpu time    0.4744: real time    0.4788

 eigenvalue-minimisations  :  7820
 total energy-change (2. order) :-0.1420388E+03  (-0.1326477E+03)
 number of electron      92.0000000 magnetization      24.2000000
 augmentation part       92.0000000 magnetization      24.2000000

 Free energy of the ion-electron system (eV)
  ---------------------------------------------------
  alpha Z        PSCENC =       288.99538219
  Ewald energy   TEWEN  =     -7214.53978505
  -Hartree energ DENC   =     -3910.92414404
  -exchange      EXHF   =         0.00000000
  -V(xc)+E(xc)   XCENC  =       408.19151432
  PAW double counting   =      9500.59049533   -11446.95746086
  entropy T*S    EENTRO =        -0.01564286
  eigenvalues    EBANDS =     -1411.36952899
  atomic energy  EATOM  =     11895.29256912
  ---------------------------------------------------
  free energy    TOTEN  =     -1890.73660085 eV

  energy without entropy =    -1890.72095798  energy(sigma->0) =    -1890.72877942
  exchange ACFDT corr.  =         0.00000000  see jH, gK, PRB 81, 115126


--------------------------------------------------------------------------------------------------------




--------------------------------------- Iteration      1(   4)  ---------------------------------------


    TRIAL :  cpu time    0.5308: real time    0.5322
    CORREC:  cpu time    0.0017: real time    0.0017
    --------------------------------------------
      LOOP:  cpu time    0.5350: real time    0.5377

 eigenvalue-minimisations  :  9332
 total energy-change (2. order) :-0.1251462E+02  (-0.1240976E+02)
 number of electron      92.0000000 magnetization      24.2000000
 augmentation part       92.0000000 magnetization      24.2000000

 Free energy of the ion-electron system (eV)
  ---------------------------------------------------
  alpha Z        PSCENC =       288.99538219
  Ewald energy   TEWEN  =     -7214.53978505
  -Hartree energ DENC   =     -3910.92414404
  -exchange      EXHF   =         0.00000000
  -V(xc)+E(xc)   XCENC  =       408.19151432
  PAW double counting   =      9500.59049533   -11446.95746086
  entropy T*S    EENTRO =        -0.01335844
  eigenvalues    EBANDS =     -1423.88643149
  atomic energy  EATOM  =     11895.29256912
  ---------------------------------------------------
  free energy    TOTEN  =     -1903.25121893 eV

  energy without entropy =    -1903.23786049  energy(sigma->0) =    -1903.24453971
  exchange ACFDT corr.  =         0.00000000  see jH, gK, PRB 81, 115126


--------------------------------------------------------------------------------------------------------




--------------------------------------- Iteration      1(   5)  ---------------------------------------


    POTLOK:  cpu time    0.3756: real time    0.3769
    SETDIJ:  cpu time    1.0362: real time    1.0387
    TRIAL :  cpu time   54.6849: real time   54.8280
    CORREC:  cpu time    0.0017: real time    0.0017
    CHARGE:  cpu time    0.0848: real time    0.0850
    --------------------------------------------
      LOOP:  cpu time   56.1868: real time   56.3341

 eigenvalue-minimisations  :  8972
 total energy-change (2. order) : 0.1798483E+04  (-0.4732933E+01)
 number of electron      91.9999972 magnetization      16.4305766
 augmentation part       33.1400252 magnetization      11.4872264

 Free energy of the ion-electron system (eV)
  ---------------------------------------------------
  alpha Z        PSCENC =       288.99538219
  Ewald energy   TEWEN  =     -7214.53978505
  -Hartree energ DENC   =     -3910.92414404
  -exchange      EXHF   =       271.91167144
  -V(xc)+E(xc)   XCENC  =       310.07134826
  PAW double counting   =      9594.94623076    -9917.39403610
  entropy T*S    EENTRO =        -0.00278919
  eigenvalues    EBANDS =     -1423.12512315
  atomic energy  EATOM  =     11895.29256912
  ---------------------------------------------------
  free energy    TOTEN  =      -104.76867576 eV

  energy without entropy =     -104.76588657  energy(sigma->0) =     -104.76728116
  exchange ACFDT corr.  =        -0.03967494  see jH, gK, PRB 81, 115126


--------------------------------------------------------------------------------------------------------




--------------------------------------- Iteration      1(   6)  ---------------------------------------


    POTLOK:  cpu time    0.3726: real time    0.3735
    SETDIJ:  cpu time    1.0438: real time    1.0463
    TRIAL :  cpu time   54.1326: real time   54.2712
    CORREC:  cpu time   54.9941: real time   55.1330
    CHARGE:  cpu time    0.0848: real time    0.0850
    --------------------------------------------
      LOOP:  cpu time  110.6286: real time  110.9117

 eigenvalue-minimisations  :     0
 total energy-change (2. order) : 0.7452704E+02  (-0.3000053E+02)
 number of electron      91.9999974 magnetization      16.4431870
 augmentation part       33.9972452 magnetization      11.9966872

 Free energy of the ion-electron system (eV)
  ---------------------------------------------------
  alpha Z        PSCENC =       288.99538219
  Ewald energy   TEWEN  =     -7214.53978505
  -Hartree energ DENC   =     -3549.80182700
  -exchange      EXHF   =       268.24487770
  -V(xc)+E(xc)   XCENC  =       304.19555046
  PAW double counting   =     10980.60273879   -11289.81217521
  entropy T*S    EENTRO =        -0.00793197
  eigenvalues    EBANDS =     -1713.41618195
  atomic energy  EATOM  =     11895.29256912
  ---------------------------------------------------
  free energy    TOTEN  =       -30.24164014 eV

  energy without entropy =      -30.23370818  energy(sigma->0) =      -30.23767416
  exchange ACFDT corr.  =        -0.00206872  see jH, gK, PRB 81, 115126


--------------------------------------------------------------------------------------------------------




--------------------------------------- Iteration      1(   7)  ---------------------------------------


    POTLOK:  cpu time    0.3750: real time    0.3759
    SETDIJ:  cpu time    1.0409: real time    1.0435
    TRIAL :  cpu time   53.7893: real time   53.9252
    CORREC:  cpu time   54.6953: real time   54.8337
    CHARGE:  cpu time    0.0842: real time    0.0844
    --------------------------------------------
      LOOP:  cpu time  109.9866: real time  110.2654

 eigenvalue-minimisations  :     0
 total energy-change (2. order) :-0.4538631E+02  (-0.8825624E+01)
 number of electron      91.9999975 magnetization      16.0321420
 augmentation part       34.8819690 magnetization      11.9485852

 Free energy of the ion-electron system (eV)
  ---------------------------------------------------
  alpha Z        PSCENC =       288.99538219
  Ewald energy   TEWEN  =     -7214.53978505
  -Hartree energ DENC   =     -3617.09191110
  -exchange      EXHF   =       266.44279582
  -V(xc)+E(xc)   XCENC  =       305.49576727
  PAW double counting   =     11732.63829410   -12072.54571238
  entropy T*S    EENTRO =        -0.00731836
  eigenvalues    EBANDS =     -1660.30742098
  atomic energy  EATOM  =     11895.29256912
  ---------------------------------------------------
  free energy    TOTEN  =       -75.62795297 eV

  energy without entropy =      -75.62063461  energy(sigma->0) =      -75.62429379
  exchange ACFDT corr.  =        -8.36693114  see jH, gK, PRB 81, 115126


--------------------------------------------------------------------------------------------------------




--------------------------------------- Iteration      1(   8)  ---------------------------------------


    POTLOK:  cpu time    0.3654: real time    0.3663
    SETDIJ:  cpu time    1.0481: real time    1.0507
    TRIAL :  cpu time   54.1546: real time   54.2923
    CORREC:  cpu time   54.6761: real time   54.8145
    CHARGE:  cpu time    0.0843: real time    0.0845
    --------------------------------------------
      LOOP:  cpu time  110.3300: real time  110.6114

 eigenvalue-minimisations  :     0
 total energy-change (2. order) :-0.8765644E+01  (-0.1647475E+01)
 number of electron      91.9999975 magnetization      16.0277772
 augmentation part       34.8955884 magnetization      11.8547011

 Free energy of the ion-electron system (eV)
  ---------------------------------------------------
  alpha Z        PSCENC =       288.99538219
  Ewald energy   TEWEN  =     -7214.53978505
  -Hartree energ DENC   =     -3747.36592192
  -exchange      EXHF   =       265.72835105
  -V(xc)+E(xc)   XCENC  =       307.38949657
  PAW double counting   =     12421.40389343   -12783.10782765
  entropy T*S    EENTRO =        -0.00950957
  eigenvalues    EBANDS =     -1518.18243682
  atomic energy  EATOM  =     11895.29256912
  ---------------------------------------------------
  free energy    TOTEN  =       -84.39359744 eV

  energy without entropy =      -84.38408786  energy(sigma->0) =      -84.38884265
  exchange ACFDT corr.  =        -0.88945799  see jH, gK, PRB 81, 115126


--------------------------------------------------------------------------------------------------------




--------------------------------------- Iteration      1(   9)  ---------------------------------------


    POTLOK:  cpu time    0.3738: real time    0.3746
    SETDIJ:  cpu time    1.0398: real time    1.0424
    TRIAL :  cpu time   53.6360: real time   53.7724
    CORREC:  cpu time   54.5339: real time   54.6724
    CHARGE:  cpu time    0.0841: real time    0.0843
    --------------------------------------------
      LOOP:  cpu time  109.6682: real time  109.9488

 eigenvalue-minimisations  :     0
 total energy-change (2. order) :-0.1634772E+01  (-0.2197615E+01)
 number of electron      91.9999975 magnetization      16.0040526
 augmentation part       34.4290523 magnetization      11.6017575

 Free energy of the ion-electron system (eV)
  ---------------------------------------------------
  alpha Z        PSCENC =       288.99538219
  Ewald energy   TEWEN  =     -7214.53978505
  -Hartree energ DENC   =     -3760.10780133
  -exchange      EXHF   =       265.53059322
  -V(xc)+E(xc)   XCENC  =       307.24051589
  PAW double counting   =     12534.51403534   -12894.12684527
  entropy T*S    EENTRO =        -0.00844010
  eigenvalues    EBANDS =     -1508.81752384
  atomic energy  EATOM  =     11895.29256912
  ---------------------------------------------------
  free energy    TOTEN  =       -86.02836930 eV

  energy without entropy =      -86.01992920  energy(sigma->0) =      -86.02414925
  exchange ACFDT corr.  =        -2.21691706  see jH, gK, PRB 81, 115126


--------------------------------------------------------------------------------------------------------




--------------------------------------- Iteration      1(  10)  ---------------------------------------


    POTLOK:  cpu time    0.3642: real time    0.3651
    SETDIJ:  cpu time    1.0685: real time    1.0711
    TRIAL :  cpu time   53.2380: real time   53.3727
    CORREC:  cpu time   54.5499: real time   54.6878
    CHARGE:  cpu time    0.0836: real time    0.0838
    --------------------------------------------
      LOOP:  cpu time  109.3072: real time  109.5835

 eigenvalue-minimisations  :     0
 total energy-change (2. order) :-0.2055456E+01  (-0.1588008E+01)
 number of electron      91.9999975 magnetization      15.9999995
 augmentation part       34.5678782 magnetization      11.2662579

 Free energy of the ion-electron system (eV)
  ---------------------------------------------------
  alpha Z        PSCENC =       288.99538219
  Ewald energy   TEWEN  =     -7214.53978505
  -Hartree energ DENC   =     -3719.35295423
  -exchange      EXHF   =       263.74648979
  -V(xc)+E(xc)   XCENC  =       305.16515266
  PAW double counting   =     12440.28891190   -12781.06437697
  entropy T*S    EENTRO =        -0.00753415
  eigenvalues    EBANDS =     -1566.60677423
  atomic energy  EATOM  =     11895.29256912
  ---------------------------------------------------
  free energy    TOTEN  =       -88.08382492 eV

  energy without entropy =      -88.07629077  energy(sigma->0) =      -88.08005785
  exchange ACFDT corr.  =        -0.17261338  see jH, gK, PRB 81, 115126


--------------------------------------------------------------------------------------------------------




--------------------------------------- Iteration      1(  11)  ---------------------------------------


    POTLOK:  cpu time    0.3642: real time    0.3652
    SETDIJ:  cpu time    1.0511: real time    1.0536
    TRIAL :  cpu time   53.4810: real time   53.6166
    CORREC:  cpu time   54.4177: real time   54.5552
    CHARGE:  cpu time    0.0836: real time    0.0838
    --------------------------------------------
      LOOP:  cpu time  109.3996: real time  109.6775

 eigenvalue-minimisations  :     0
 total energy-change (2. order) :-0.1562445E+01  (-0.6419968E+00)
 number of electron      91.9999975 magnetization      15.9999995
 augmentation part       34.7711007 magnetization      11.1257607

 Free energy of the ion-electron system (eV)
  ---------------------------------------------------
  alpha Z        PSCENC =       288.99538219
  Ewald energy   TEWEN  =     -7214.53978505
  -Hartree energ DENC   =     -3754.36970943
  -exchange      EXHF   =       263.99551633
  -V(xc)+E(xc)   XCENC  =       305.75813196
  PAW double counting   =     12285.69097296   -12624.95721383
  entropy T*S    EENTRO =        -0.00651387
  eigenvalues    EBANDS =     -1535.50460006
  atomic energy  EATOM  =     11895.29256912
  ---------------------------------------------------
  free energy    TOTEN  =       -89.64626996 eV

  energy without entropy =      -89.63975608  energy(sigma->0) =      -89.64301302
  exchange ACFDT corr.  =        -0.11715593  see jH, gK, PRB 81, 115126


--------------------------------------------------------------------------------------------------------




--------------------------------------- Iteration      1(  12)  ---------------------------------------


    POTLOK:  cpu time    0.3620: real time    0.3628
    SETDIJ:  cpu time    1.0537: real time    1.0564
    TRIAL :  cpu time   53.2848: real time   53.4205
    CORREC:  cpu time   54.6252: real time   54.7634
    CHARGE:  cpu time    0.0841: real time    0.0843
    --------------------------------------------
      LOOP:  cpu time  109.4110: real time  109.6905

 eigenvalue-minimisations  :     0
 total energy-change (2. order) :-0.6466347E+00  (-0.4485741E+00)
 number of electron      91.9999974 magnetization      15.9999995
 augmentation part       34.8320349 magnetization      11.0167644

 Free energy of the ion-electron system (eV)
  ---------------------------------------------------
  alpha Z        PSCENC =       288.99538219
  Ewald energy   TEWEN  =     -7214.53978505
  -Hartree energ DENC   =     -3784.35462896
  -exchange      EXHF   =       264.38532432
  -V(xc)+E(xc)   XCENC  =       306.54603044
  PAW double counting   =     12180.48668389   -12524.48816561
  entropy T*S    EENTRO =        -0.00667584
  eigenvalues    EBANDS =     -1502.60980114
  atomic energy  EATOM  =     11895.29256912
  ---------------------------------------------------
  free energy    TOTEN  =       -90.29290468 eV

  energy without entropy =      -90.28622884  energy(sigma->0) =      -90.28956676
  exchange ACFDT corr.  =        -0.11702916  see jH, gK, PRB 81, 115126


--------------------------------------------------------------------------------------------------------




--------------------------------------- Iteration      1(  13)  ---------------------------------------


    POTLOK:  cpu time    0.3613: real time    0.3622
    SETDIJ:  cpu time    1.0522: real time    1.0548
    TRIAL :  cpu time   53.1180: real time   53.2516
    CORREC:  cpu time   54.6507: real time   54.7895
    CHARGE:  cpu time    0.0831: real time    0.0833
    --------------------------------------------
      LOOP:  cpu time  109.2665: real time  109.5439

 eigenvalue-minimisations  :     0
 total energy-change (2. order) :-0.4373989E+00  (-0.2586307E+00)
 number of electron      91.9999974 magnetization      15.9999995
 augmentation part       34.7929953 magnetization      10.9383546

 Free energy of the ion-electron system (eV)
  ---------------------------------------------------
  alpha Z        PSCENC =       288.99538219
  Ewald energy   TEWEN  =     -7214.53978505
  -Hartree energ DENC   =     -3791.33891076
  -exchange      EXHF   =       264.69269953
  -V(xc)+E(xc)   XCENC  =       306.73654597
  PAW double counting   =     12030.66175777   -12376.40781519
  entropy T*S    EENTRO =        -0.00265576
  eigenvalues    EBANDS =     -1494.81607130
  atomic energy  EATOM  =     11895.29256912
  ---------------------------------------------------
  free energy    TOTEN  =       -90.73030357 eV

  energy without entropy =      -90.72764781  energy(sigma->0) =      -90.72897569
  exchange ACFDT corr.  =        -0.18459827  see jH, gK, PRB 81, 115126


--------------------------------------------------------------------------------------------------------




--------------------------------------- Iteration      1(  14)  ---------------------------------------


    POTLOK:  cpu time    0.3808: real time    0.3817
    SETDIJ:  cpu time    1.0330: real time    1.0356
    TRIAL :  cpu time   52.9284: real time   53.0624
    CORREC:  cpu time   54.4677: real time   54.6058
    CHARGE:  cpu time    0.0837: real time    0.0839
    --------------------------------------------
      LOOP:  cpu time  108.8942: real time  109.1720

 eigenvalue-minimisations  :     0
 total energy-change (2. order) :-0.2552098E+00  (-0.3597288E+00)
 number of electron      91.9999974 magnetization      15.9999995
 augmentation part       34.7113697 magnetization      10.8697497

 Free energy of the ion-electron system (eV)
  ---------------------------------------------------
  alpha Z        PSCENC =       288.99538219
  Ewald energy   TEWEN  =     -7214.53978505
  -Hartree energ DENC   =     -3784.76885250
  -exchange      EXHF   =       264.74462461
  -V(xc)+E(xc)   XCENC  =       306.53095078
  PAW double counting   =     11907.19392808   -12252.05624387
  entropy T*S    EENTRO =        -0.00131425
  eigenvalues    EBANDS =     -1502.37543093
  atomic energy  EATOM  =     11895.29256912
  ---------------------------------------------------
  free energy    TOTEN  =       -90.98551334 eV

  energy without entropy =      -90.98419908  energy(sigma->0) =      -90.98485621
  exchange ACFDT corr.  =        -0.06644991  see jH, gK, PRB 81, 115126


--------------------------------------------------------------------------------------------------------




--------------------------------------- Iteration      1(  15)  ---------------------------------------


    POTLOK:  cpu time    0.3774: real time    0.3783
    SETDIJ:  cpu time    1.0396: real time    1.0422
    TRIAL :  cpu time   53.1094: real time   53.2441
    CORREC:  cpu time   54.4504: real time   54.5880
    CHARGE:  cpu time    0.0838: real time    0.0840
    --------------------------------------------
      LOOP:  cpu time  109.0616: real time  109.3396

 eigenvalue-minimisations  :     0
 total energy-change (2. order) :-0.3555826E+00  (-0.2496112E+00)
 number of electron      91.9999974 magnetization      15.9999995
 augmentation part       34.7470171 magnetization      10.8558752

 Free energy of the ion-electron system (eV)
  ---------------------------------------------------
  alpha Z        PSCENC =       288.99538219
  Ewald energy   TEWEN  =     -7214.53978505
  -Hartree energ DENC   =     -3773.63498158
  -exchange      EXHF   =       264.96683429
  -V(xc)+E(xc)   XCENC  =       306.19002769
  PAW double counting   =     11823.38930385   -12165.77545936
  entropy T*S    EENTRO =        -0.00187976
  eigenvalues    EBANDS =     -1516.22367282
  atomic energy  EATOM  =     11895.29256912
  ---------------------------------------------------
  free energy    TOTEN  =       -91.34109592 eV

  energy without entropy =      -91.33921616  energy(sigma->0) =      -91.34015604
  exchange ACFDT corr.  =        -0.02354253  see jH, gK, PRB 81, 115126


--------------------------------------------------------------------------------------------------------




--------------------------------------- Iteration      1(  16)  ---------------------------------------


    POTLOK:  cpu time    0.3807: real time    0.3816
    SETDIJ:  cpu time    1.0296: real time    1.0322
    TRIAL :  cpu time   53.2087: real time   53.3440
    CORREC:  cpu time   54.4506: real time   54.5884
    CHARGE:  cpu time    0.0841: real time    0.0843
    --------------------------------------------
      LOOP:  cpu time  109.1565: real time  109.4332

 eigenvalue-minimisations  :     0
 total energy-change (2. order) :-0.2538468E+00  (-0.2306887E+00)
 number of electron      91.9999974 magnetization      15.9999996
 augmentation part       34.8219762 magnetization      10.8619681

 Free energy of the ion-electron system (eV)
  ---------------------------------------------------
  alpha Z        PSCENC =       288.99538219
  Ewald energy   TEWEN  =     -7214.53978505
  -Hartree energ DENC   =     -3780.10248837
  -exchange      EXHF   =       265.41205779
  -V(xc)+E(xc)   XCENC  =       306.35951168
  PAW double counting   =     11869.20376233   -12212.07702454
  entropy T*S    EENTRO =        -0.00196486
  eigenvalues    EBANDS =     -1510.13704805
  atomic energy  EATOM  =     11895.29256912
  ---------------------------------------------------
  free energy    TOTEN  =       -91.59494267 eV

  energy without entropy =      -91.59297781  energy(sigma->0) =      -91.59396024
  exchange ACFDT corr.  =        -0.01614786  see jH, gK, PRB 81, 115126


--------------------------------------------------------------------------------------------------------




--------------------------------------- Iteration      1(  17)  ---------------------------------------


    POTLOK:  cpu time    0.3758: real time    0.3767
    SETDIJ:  cpu time    1.0378: real time    1.0404
    TRIAL :  cpu time   52.9614: real time   53.0966
    CORREC:  cpu time   54.4072: real time   54.5449
    CHARGE:  cpu time    0.0849: real time    0.0851
    --------------------------------------------
      LOOP:  cpu time  108.8676: real time  109.1465

 eigenvalue-minimisations  :     0
 total energy-change (2. order) :-0.2229600E+00  (-0.2231633E+00)
 number of electron      91.9999973 magnetization      15.9999996
 augmentation part       34.7899656 magnetization      10.8254574

 Free energy of the ion-electron system (eV)
  ---------------------------------------------------
  alpha Z        PSCENC =       288.99538219
  Ewald energy   TEWEN  =     -7214.53978505
  -Hartree energ DENC   =     -3792.29576534
  -exchange      EXHF   =       265.98026524
  -V(xc)+E(xc)   XCENC  =       306.71301933
  PAW double counting   =     11982.17473708   -12326.90058598
  entropy T*S    EENTRO =        -0.00162377
  eigenvalues    EBANDS =     -1497.23577444
  atomic energy  EATOM  =     11895.29256912
  ---------------------------------------------------
  free energy    TOTEN  =       -91.81790270 eV

  energy without entropy =      -91.81627893  energy(sigma->0) =      -91.81709081
  exchange ACFDT corr.  =        -0.02508973  see jH, gK, PRB 81, 115126


--------------------------------------------------------------------------------------------------------




--------------------------------------- Iteration      1(  18)  ---------------------------------------


    POTLOK:  cpu time    0.3675: real time    0.3684
    SETDIJ:  cpu time    1.0518: real time    1.0544
    TRIAL :  cpu time   52.9810: real time   53.1149
    CORREC:  cpu time   54.2175: real time   54.3545
    CHARGE:  cpu time    0.0833: real time    0.0835
    --------------------------------------------
      LOOP:  cpu time  108.7019: real time  108.9786

 eigenvalue-minimisations  :     0
 total energy-change (2. order) :-0.1781958E+00  (-0.1108028E+00)
 number of electron      91.9999973 magnetization      15.9999996
 augmentation part       34.7366733 magnetization      10.7914659

 Free energy of the ion-electron system (eV)
  ---------------------------------------------------
  alpha Z        PSCENC =       288.99538219
  Ewald energy   TEWEN  =     -7214.53978505
  -Hartree energ DENC   =     -3788.32349922
  -exchange      EXHF   =       266.40124715
  -V(xc)+E(xc)   XCENC  =       306.64518676
  PAW double counting   =     12046.34969428   -12390.29221742
  entropy T*S    EENTRO =        -0.00133624
  eigenvalues    EBANDS =     -1502.52305251
  atomic energy  EATOM  =     11895.29256912
  ---------------------------------------------------
  free energy    TOTEN  =       -91.99609848 eV

  energy without entropy =      -91.99476224  energy(sigma->0) =      -91.99543036
  exchange ACFDT corr.  =        -0.06294132  see jH, gK, PRB 81, 115126


--------------------------------------------------------------------------------------------------------




--------------------------------------- Iteration      1(  19)  ---------------------------------------


    POTLOK:  cpu time    0.3767: real time    0.3776
    SETDIJ:  cpu time    1.0378: real time    1.0404
    TRIAL :  cpu time   52.9470: real time   53.0808
    CORREC:  cpu time   54.3713: real time   54.5094
    CHARGE:  cpu time    0.0842: real time    0.0844
    --------------------------------------------
      LOOP:  cpu time  108.8176: real time  109.0953

 eigenvalue-minimisations  :     0
 total energy-change (2. order) :-0.1098920E+00  ( 0.2797742E+00)
 number of electron      91.9999973 magnetization      15.9999996
 augmentation part       34.7455084 magnetization      10.7782076

 Free energy of the ion-electron system (eV)
  ---------------------------------------------------
  alpha Z        PSCENC =       288.99538219
  Ewald energy   TEWEN  =     -7214.53978505
  -Hartree energ DENC   =     -3780.28949771
  -exchange      EXHF   =       266.60980848
  -V(xc)+E(xc)   XCENC  =       306.47667578
  PAW double counting   =     12036.67474655   -12379.30360098
  entropy T*S    EENTRO =        -0.00272540
  eigenvalues    EBANDS =     -1512.02095261
  atomic energy  EATOM  =     11895.29256912
  ---------------------------------------------------
  free energy    TOTEN  =       -92.10599048 eV

  energy without entropy =      -92.10326508  energy(sigma->0) =      -92.10462778
  exchange ACFDT corr.  =        -0.09487313  see jH, gK, PRB 81, 115126


--------------------------------------------------------------------------------------------------------




--------------------------------------- Iteration      1(  20)  ---------------------------------------


    POTLOK:  cpu time    0.3618: real time    0.3627
    SETDIJ:  cpu time    1.0534: real time    1.0561
    TRIAL :  cpu time   53.0201: real time   53.1541
    CORREC:  cpu time   54.2699: real time   54.4078
    CHARGE:  cpu time    0.0851: real time    0.0853
    --------------------------------------------
      LOOP:  cpu time  108.7930: real time  109.0695

 eigenvalue-minimisations  :     0
 total energy-change (2. order) :-0.2227046E+00  ( 0.1339819E+00)
 number of electron      91.9999973 magnetization      15.9999996
 augmentation part       34.7918951 magnetization      10.7794026

 Free energy of the ion-electron system (eV)
  ---------------------------------------------------
  alpha Z        PSCENC =       288.99538219
  Ewald energy   TEWEN  =     -7214.53978505
  -Hartree energ DENC   =     -3781.75786881
  -exchange      EXHF   =       267.02610150
  -V(xc)+E(xc)   XCENC  =       306.56899163
  PAW double counting   =     12036.78574486   -12379.71835603
  entropy T*S    EENTRO =        -0.00314624
  eigenvalues    EBANDS =     -1510.97874908
  atomic energy  EATOM  =     11895.29256912
  ---------------------------------------------------
  free energy    TOTEN  =       -92.32869507 eV

  energy without entropy =      -92.32554884  energy(sigma->0) =      -92.32712196
  exchange ACFDT corr.  =        -0.09068428  see jH, gK, PRB 81, 115126


--------------------------------------------------------------------------------------------------------




--------------------------------------- Iteration      1(  21)  ---------------------------------------


    POTLOK:  cpu time    0.3701: real time    0.3710
    SETDIJ:  cpu time    1.0635: real time    1.0661
    TRIAL :  cpu time   52.8248: real time   52.9587
    CORREC:  cpu time   54.2447: real time   54.3817
    CHARGE:  cpu time    0.0838: real time    0.0840
    --------------------------------------------
      LOOP:  cpu time  108.5889: real time  108.8649

 eigenvalue-minimisations  :     0
 total energy-change (2. order) :-0.2476898E+00  ( 0.2187216E+01)
 number of electron      91.9999973 magnetization      15.9999997
 augmentation part       34.8040177 magnetization      10.7586982

 Free energy of the ion-electron system (eV)
  ---------------------------------------------------
  alpha Z        PSCENC =       288.99538219
  Ewald energy   TEWEN  =     -7214.53978505
  -Hartree energ DENC   =     -3789.42868169
  -exchange      EXHF   =       267.37183055
  -V(xc)+E(xc)   XCENC  =       306.77678555
  PAW double counting   =     12054.26957682   -12398.34145035
  entropy T*S    EENTRO =        -0.00282013
  eigenvalues    EBANDS =     -1502.96946579
  atomic energy  EATOM  =     11895.29256912
  ---------------------------------------------------
  free energy    TOTEN  =       -92.57638489 eV

  energy without entropy =      -92.57356476  energy(sigma->0) =      -92.57497483
  exchange ACFDT corr.  =        -0.06304431  see jH, gK, PRB 81, 115126


--------------------------------------------------------------------------------------------------------




--------------------------------------- Iteration      1(  22)  ---------------------------------------


    POTLOK:  cpu time    0.3827: real time    0.3837
    SETDIJ:  cpu time    1.0332: real time    1.0357
    TRIAL :  cpu time   52.9754: real time   53.1097
    CORREC:  cpu time  216.9509: real time  217.4990
    CHARGE:  cpu time    0.0841: real time    0.0843
    --------------------------------------------
      LOOP:  cpu time  271.4268: real time  272.1148

 eigenvalue-minimisations  :     0
 total energy-change (2. order) :-0.2609712E+00  (-0.9721194E-03)
 number of electron      91.9999972 magnetization      15.9999997
 augmentation part       34.7697270 magnetization      10.6823436

 Free energy of the ion-electron system (eV)
  ---------------------------------------------------
  alpha Z        PSCENC =       288.99538219
  Ewald energy   TEWEN  =     -7214.53978505
  -Hartree energ DENC   =     -3792.25923310
  -exchange      EXHF   =       267.72668364
  -V(xc)+E(xc)   XCENC  =       306.84653496
  PAW double counting   =     12052.03880584   -12396.29997844
  entropy T*S    EENTRO =        -0.00000000
  eigenvalues    EBANDS =     -1500.63551510
  atomic energy  EATOM  =     11895.29256912
  ---------------------------------------------------
  free energy    TOTEN  =       -92.83735609 eV

  energy without entropy =      -92.83735609  energy(sigma->0) =      -92.83735609
  exchange ACFDT corr.  =        -0.02776320  see jH, gK, PRB 81, 115126


--------------------------------------------------------------------------------------------------------




--------------------------------------- Iteration      1(  23)  ---------------------------------------


    POTLOK:  cpu time    0.3685: real time    0.3696
    SETDIJ:  cpu time    1.0504: real time    1.0529
    TRIAL :  cpu time   52.8701: real time   53.0044
    CORREC:  cpu time   54.2010: real time   54.3389
    CHARGE:  cpu time    0.0841: real time    0.0843
    --------------------------------------------
      LOOP:  cpu time  108.5747: real time  108.8527

 eigenvalue-minimisations  :     0
 total energy-change (2. order) :-0.3687621E+00  (-0.3951740E-01)
 number of electron      91.9999972 magnetization      15.9999997
 augmentation part       34.8292646 magnetization      10.7046118

 Free energy of the ion-electron system (eV)
  ---------------------------------------------------
  alpha Z        PSCENC =       288.99538219
  Ewald energy   TEWEN  =     -7214.53978505
  -Hartree energ DENC   =     -3787.60235281
  -exchange      EXHF   =       268.15852802
  -V(xc)+E(xc)   XCENC  =       306.70388633
  PAW double counting   =     11989.82040638   -12333.00711614
  entropy T*S    EENTRO =        -0.00000000
  eigenvalues    EBANDS =     -1507.02763625
  atomic energy  EATOM  =     11895.29256912
  ---------------------------------------------------
  free energy    TOTEN  =       -93.20611822 eV

  energy without entropy =      -93.20611822  energy(sigma->0) =      -93.20611822
  exchange ACFDT corr.  =        -0.00000000  see jH, gK, PRB 81, 115126


--------------------------------------------------------------------------------------------------------




--------------------------------------- Iteration      1(  24)  ---------------------------------------


    POTLOK:  cpu time    0.3658: real time    0.3667
    SETDIJ:  cpu time    1.0511: real time    1.0537
    TRIAL :  cpu time   52.8301: real time   52.9643
    CORREC:  cpu time   54.1456: real time   54.2829
    CHARGE:  cpu time    0.0867: real time    0.0869
    --------------------------------------------
      LOOP:  cpu time  108.4799: real time  108.7576

 eigenvalue-minimisations  :     0
 total energy-change (2. order) :-0.3938714E-01  (-0.1407862E-01)
 number of electron      91.9999972 magnetization      15.9999997
 augmentation part       34.8128007 magnetization      10.7063474

 Free energy of the ion-electron system (eV)
  ---------------------------------------------------
  alpha Z        PSCENC =       288.99538219
  Ewald energy   TEWEN  =     -7214.53978505
  -Hartree energ DENC   =     -3796.87763076
  -exchange      EXHF   =       268.34849710
  -V(xc)+E(xc)   XCENC  =       306.97398238
  PAW double counting   =     12031.88453602   -12376.83414327
  entropy T*S    EENTRO =        -0.00000000
  eigenvalues    EBANDS =     -1496.48891309
  atomic energy  EATOM  =     11895.29256912
  ---------------------------------------------------
  free energy    TOTEN  =       -93.24550536 eV

  energy without entropy =      -93.24550536  energy(sigma->0) =      -93.24550536
  exchange ACFDT corr.  =        -0.00000000  see jH, gK, PRB 81, 115126


--------------------------------------------------------------------------------------------------------




--------------------------------------- Iteration      1(  25)  ---------------------------------------


    POTLOK:  cpu time    0.3740: real time    0.3749
    SETDIJ:  cpu time    1.0509: real time    1.0534
    TRIAL :  cpu time   52.9068: real time   53.0409
    CORREC:  cpu time   54.2863: real time   54.4241
    CHARGE:  cpu time    0.0829: real time    0.0831
    --------------------------------------------
      LOOP:  cpu time  108.7016: real time  108.9789

 eigenvalue-minimisations  :     0
 total energy-change (2. order) :-0.1409233E-01  (-0.4783152E-02)
 number of electron      91.9999972 magnetization      15.9999997
 augmentation part       34.8121013 magnetization      10.7105681

 Free energy of the ion-electron system (eV)
  ---------------------------------------------------
  alpha Z        PSCENC =       288.99538219
  Ewald energy   TEWEN  =     -7214.53978505
  -Hartree energ DENC   =     -3794.71271481
  -exchange      EXHF   =       268.35517241
  -V(xc)+E(xc)   XCENC  =       306.92092500
  PAW double counting   =     12041.01161259   -12385.48930912
  entropy T*S    EENTRO =        -0.00000000
  eigenvalues    EBANDS =     -1499.09345003
  atomic energy  EATOM  =     11895.29256912
  ---------------------------------------------------
  free energy    TOTEN  =       -93.25959769 eV

  energy without entropy =      -93.25959769  energy(sigma->0) =      -93.25959769
  exchange ACFDT corr.  =        -0.00000000  see jH, gK, PRB 81, 115126


--------------------------------------------------------------------------------------------------------




--------------------------------------- Iteration      1(  26)  ---------------------------------------


    POTLOK:  cpu time    0.3820: real time    0.3829
    SETDIJ:  cpu time    1.0340: real time    1.0365
    TRIAL :  cpu time   52.9309: real time   53.0654
    CORREC:  cpu time   54.3571: real time   54.4955
    CHARGE:  cpu time    0.0833: real time    0.0835
    --------------------------------------------
      LOOP:  cpu time  108.7906: real time  109.0671

 eigenvalue-minimisations  :     0
 total energy-change (2. order) :-0.4812831E-02  (-0.2230175E-02)
 number of electron      91.9999972 magnetization      15.9999997
 augmentation part       34.8094096 magnetization      10.7118478

 Free energy of the ion-electron system (eV)
  ---------------------------------------------------
  alpha Z        PSCENC =       288.99538219
  Ewald energy   TEWEN  =     -7214.53978505
  -Hartree energ DENC   =     -3794.23871713
  -exchange      EXHF   =       268.37598303
  -V(xc)+E(xc)   XCENC  =       306.91197856
  PAW double counting   =     12055.14730943   -12399.69817377
  entropy T*S    EENTRO =        -0.00000000
  eigenvalues    EBANDS =     -1499.51095690
  atomic energy  EATOM  =     11895.29256912
  ---------------------------------------------------
  free energy    TOTEN  =       -93.26441052 eV

  energy without entropy =      -93.26441052  energy(sigma->0) =      -93.26441052
  exchange ACFDT corr.  =        -0.00000000  see jH, gK, PRB 81, 115126


--------------------------------------------------------------------------------------------------------




--------------------------------------- Iteration      1(  27)  ---------------------------------------


    POTLOK:  cpu time    0.3659: real time    0.3668
    SETDIJ:  cpu time    1.0498: real time    1.0524
    TRIAL :  cpu time   52.9206: real time   53.0544
    CORREC:  cpu time   54.3628: real time   54.5002
    CHARGE:  cpu time    0.0833: real time    0.0835
    --------------------------------------------
      LOOP:  cpu time  108.7837: real time  109.0601

 eigenvalue-minimisations  :     0
 total energy-change (2. order) :-0.2231553E-02  (-0.1178314E-02)
 number of electron      91.9999972 magnetization      15.9999997
 augmentation part       34.8130389 magnetization      10.7117961

 Free energy of the ion-electron system (eV)
  ---------------------------------------------------
  alpha Z        PSCENC =       288.99538219
  Ewald energy   TEWEN  =     -7214.53978505
  -Hartree energ DENC   =     -3793.81385848
  -exchange      EXHF   =       268.40886611
  -V(xc)+E(xc)   XCENC  =       306.91525755
  PAW double counting   =     12055.47961969   -12400.00585454
  entropy T*S    EENTRO =        -0.00000000
  eigenvalues    EBANDS =     -1499.99883866
  atomic energy  EATOM  =     11895.29256912
  ---------------------------------------------------
  free energy    TOTEN  =       -93.26664208 eV

  energy without entropy =      -93.26664208  energy(sigma->0) =      -93.26664208
  exchange ACFDT corr.  =        -0.00000000  see jH, gK, PRB 81, 115126


--------------------------------------------------------------------------------------------------------




--------------------------------------- Iteration      1(  28)  ---------------------------------------


    POTLOK:  cpu time    0.3814: real time    0.3823
[...]
     44       8.4423      0.00000
     45       8.6651      0.00000
     46       8.8233      0.00000
     47       9.0462      0.00000
     48       9.0992      0.00000
     49       9.3594      0.00000
     50       9.4344      0.00000
     51       9.4446      0.00000
     52       9.7388      0.00000
     53       9.8618      0.00000
     54      10.0613      0.00000
     55      10.7945      0.00000
     56      11.8095      0.00000
     57      12.0267      0.00000
     58      12.7607      0.00000
     59      13.3923      0.00000
     60      13.4645      0.00000
     61      13.8259      0.00000
     62      14.2858      0.00000
     63      14.3427      0.00000
     64      14.6060      0.00000
     65      14.7700      0.00000
     66      15.1630      0.00000
     67      15.2269      0.00000
     68      15.6995      0.00000

 k-point    24 :       0.5000    0.3333    0.5000
  band No.  band energies     occupation 
      1     -49.1160      1.00000
      2     -49.1152      1.00000
      3     -49.0630      1.00000
      4     -49.0622      1.00000
      5     -49.0580      1.00000
      6     -49.0561      1.00000
      7     -49.0377      1.00000
      8     -49.0373      1.00000
      9     -49.0224      1.00000
     10     -49.0196      1.00000
     11     -49.0178      1.00000
     12     -49.0150      1.00000
     13     -43.2428      1.00000
     14     -43.2427      1.00000
     15     -15.1450      1.00000
     16     -15.0714      1.00000
     17      -8.4675      1.00000
     18      -8.0830      1.00000
     19      -8.0285      1.00000
     20      -1.5405      1.00000
     21      -1.3236      1.00000
     22      -0.5043      1.00000
     23      -0.4122      1.00000
     24      -0.2949      1.00000
     25       0.0319      1.00000
     26       0.7607      1.00000
     27       0.9802      1.00000
     28       1.1314      1.00000
     29       1.3822      1.00000
     30       1.4432      1.00000
     31       1.9716      1.00000
     32       2.0974      1.00000
     33       2.4411      1.00000
     34       2.7045      1.00000
     35       4.0987      1.00000
     36       4.1884      1.00000
     37       4.2420      1.00000
     38       4.2798      1.00000
     39       6.9863      0.00000
     40       7.5051      0.00000
     41       7.7129      0.00000
     42       7.9339      0.00000
     43       8.2372      0.00000
     44       8.5516      0.00000
     45       8.7831      0.00000
     46       8.8876      0.00000
     47       9.0725      0.00000
     48       9.1585      0.00000
     49       9.2343      0.00000
     50       9.3993      0.00000
     51       9.4638      0.00000
     52       9.5414      0.00000
     53       9.6659      0.00000
     54       9.9126      0.00000
     55      10.9398      0.00000
     56      11.5407      0.00000
     57      11.9339      0.00000
     58      12.8453      0.00000
     59      13.3396      0.00000
     60      13.5552      0.00000
     61      13.7446      0.00000
     62      14.1653      0.00000
     63      14.5383      0.00000
     64      15.0647      0.00000
     65      15.2629      0.00000
     66      15.5230      0.00000
     67      15.7823      0.00000
     68      15.9961      0.00000

 k-point    25 :      -0.3333    0.3333    0.5000
  band No.  band energies     occupation 
      1     -49.1159      1.00000
      2     -49.1153      1.00000
      3     -49.0634      1.00000
      4     -49.0626      1.00000
      5     -49.0562      1.00000
      6     -49.0561      1.00000
      7     -49.0380      1.00000
      8     -49.0374      1.00000
      9     -49.0222      1.00000
     10     -49.0190      1.00000
     11     -49.0179      1.00000
     12     -49.0152      1.00000
     13     -43.2429      1.00000
     14     -43.2428      1.00000
     15     -15.1415      1.00000
     16     -15.1269      1.00000
     17      -8.5359      1.00000
     18      -8.2790      1.00000
     19      -7.9943      1.00000
     20      -1.3598      1.00000
     21      -1.1794      1.00000
     22      -0.5330      1.00000
     23      -0.4112      1.00000
     24      -0.0972      1.00000
     25      -0.0722      1.00000
     26       0.7296      1.00000
     27       1.0351      1.00000
     28       1.2855      1.00000
     29       1.3492      1.00000
     30       1.7798      1.00000
     31       2.0045      1.00000
     32       2.1845      1.00000
     33       2.3593      1.00000
     34       2.6140      1.00000
     35       4.0855      1.00000
     36       4.2094      1.00000
     37       4.3133      1.00000
     38       4.3676      1.00000
     39       7.0959      0.00000
     40       7.7460      0.00000
     41       7.8964      0.00000
     42       7.9695      0.00000
     43       8.2292      0.00000
     44       8.5787      0.00000
     45       8.7321      0.00000
     46       8.8213      0.00000
     47       8.8941      0.00000
     48       9.0253      0.00000
     49       9.2657      0.00000
     50       9.3219      0.00000
     51       9.4836      0.00000
     52       9.7946      0.00000
     53       9.8218      0.00000
     54      10.1177      0.00000
     55      11.4607      0.00000
     56      11.5142      0.00000
     57      12.0164      0.00000
     58      12.5378      0.00000
     59      13.0319      0.00000
     60      13.5790      0.00000
     61      13.9432      0.00000
     62      14.0973      0.00000
     63      14.4739      0.00000
     64      14.6447      0.00000
     65      14.8958      0.00000
     66      15.3196      0.00000
     67      15.5218      0.00000
     68      15.6388      0.00000

 k-point    26 :       0.5000    0.5000    0.5000
  band No.  band energies     occupation 
      1     -49.1160      1.00000
      2     -49.1152      1.00000
      3     -49.0622      1.00000
      4     -49.0622      1.00000
      5     -49.0580      1.00000
      6     -49.0577      1.00000
      7     -49.0372      1.00000
      8     -49.0372      1.00000
      9     -49.0230      1.00000
     10     -49.0201      1.00000
     11     -49.0177      1.00000
     12     -49.0148      1.00000
     13     -43.2426      1.00000
     14     -43.2426      1.00000
     15     -15.0904      1.00000
     16     -15.0763      1.00000
     17      -8.3801      1.00000
     18      -8.0109      1.00000
     19      -7.9572      1.00000
     20      -1.6312      1.00000
     21      -1.5871      1.00000
     22      -0.5465      1.00000
     23      -0.3777      1.00000
     24      -0.0672      1.00000
     25       0.1860      1.00000
     26       0.7309      1.00000
     27       0.8021      1.00000
     28       0.8477      1.00000
     29       1.1311      1.00000
     30       1.7392      1.00000
     31       1.7699      1.00000
     32       1.9641      1.00000
     33       2.3611      1.00000
     34       2.8372      1.00000
     35       4.0735      1.00000
     36       4.1742      1.00000
     37       4.2162      1.00000
     38       4.2262      1.00000
     39       6.7352      0.00000
     40       7.3062      0.00000
     41       7.4469      0.00000
     42       7.6679      0.00000
     43       8.2575      0.00000
     44       8.4925      0.00000
     45       8.8860      0.00000
     46       8.8991      0.00000
     47       8.9751      0.00000
     48       9.0959      0.00000
     49       9.1623      0.00000
     50       9.3420      0.00000
     51       9.3867      0.00000
     52       9.4556      0.00000
     53       9.6980      0.00000
     54       9.9081      0.00000
     55      10.7359      0.00000
     56      11.6025      0.00000
     57      11.7917      0.00000
     58      13.4039      0.00000
     59      13.5703      0.00000
     60      13.6164      0.00000
     61      13.8424      0.00000
     62      14.1070      0.00000
     63      14.8204      0.00000
     64      14.9179      0.00000
     65      15.4109      0.00000
     66      16.4467      0.00000
     67      16.8013      0.00000
     68      16.9180      0.00000


--------------------------------------------------------------------------------------------------------


 soft charge-density along one line, spin component           1
         0         1         2         3         4         5         6         7         8         9
 total charge-density along one line
 
 soft charge-density along one line, spin component           2
         0         1         2         3         4         5         6         7         8         9
 total charge-density along one line
 
 pseudopotential strength for first ion, spin component:           1
-34.831   4.839   0.000  -0.001  -0.000
  4.839 -11.442   0.001  -0.002   0.000
  0.000   0.001   0.027  -0.000   0.000
 -0.001  -0.002  -0.000   0.037  -0.000
 -0.000   0.000   0.000  -0.000   0.036
 pseudopotential strength for first ion, spin component:           2
-34.830   4.839   0.000  -0.001  -0.000
  4.839 -11.442   0.001  -0.001   0.000
  0.000   0.001   0.027  -0.000   0.000
 -0.001  -0.001  -0.000   0.037  -0.000
 -0.000   0.000   0.000  -0.000   0.036
 total augmentation occupancy for first ion, spin component:           1
  1.999  -0.028  -0.000   0.001   0.000
 -0.028   0.695   0.002  -0.001   0.000
 -0.000   0.002   0.049   0.000  -0.000
  0.001  -0.001   0.000   0.020   0.000
  0.000   0.000  -0.000   0.000   0.023
 total augmentation occupancy for first ion, spin component:           2
 -0.000  -0.000   0.000   0.000  -0.000
 -0.000  -0.002   0.001   0.005  -0.000
  0.000   0.001  -0.001  -0.000  -0.000
  0.000   0.005  -0.000   0.001   0.000
 -0.000  -0.000  -0.000   0.000   0.001


------------------------ aborting loop because EDIFF is reached ----------------------------------------





 total charge

# of ion       s       p       d       tot
------------------------------------------
    1        2.020   0.065   0.000   2.085
    2        2.020   0.065   0.000   2.085
    3        1.555   3.541   0.000   5.096
    4        1.555   3.541   0.000   5.096
    5        1.314   2.443   0.000   3.757
    6        1.314   2.443   0.000   3.757
    7        1.301   2.499   0.000   3.799
    8        0.241   6.217   5.899  12.358
    9        0.241   6.217   5.899  12.358
   10        0.253   6.250   5.914  12.417
   11        0.253   6.250   5.914  12.417
--------------------------------------------------
tot         12.070  39.531  23.626  75.227



 magnetization (x)

# of ion       s       p       d       tot
------------------------------------------
    1       -0.000   0.001   0.000   0.001
    2       -0.000   0.001   0.000   0.001
    3        0.014   0.160   0.000   0.174
    4        0.014   0.160   0.000   0.174
    5        0.023   0.122   0.000   0.146
    6        0.023   0.122   0.000   0.146
    7        0.019   0.099   0.000   0.119
    8        0.041   0.026   3.567   3.634
    9        0.041   0.026   3.567   3.634
   10        0.032   0.029   3.573   3.633
   11        0.032   0.029   3.573   3.633
--------------------------------------------------
tot          0.239   0.774  14.280  15.293
 
    FORLOC:  cpu time    0.0099: real time    0.0099
    FORHF :  cpu time  129.7274: real time  130.0527
    FORNL :  cpu time    0.0972: real time    0.0974
    STRESS:  cpu time    0.5946: real time    0.5961
    FORCOR:  cpu time    0.3591: real time    0.3599
    OFIELD:  cpu time    0.0006: real time    0.0006

  FORCE on cell =-STRESS in cart. coord.  units (eV):
  Direction    XX          YY          ZZ          XY          YZ          ZX
  --------------------------------------------------------------------------------------
  Alpha Z   298.43317   298.43317   298.43317
  Ewald   -2476.14650 -2476.18114 -2335.90058    -5.26065   -41.74265   -41.60546
  Hartree  1234.79406  1234.77989  1285.85911    -2.00777   -30.45208   -30.35195
  E(xc)    -388.32798  -388.32800  -388.26121    -0.00540    -0.01245    -0.01241
  Local    -275.37613  -275.32924  -448.81835     6.78431    71.41051    71.17571
  n-local   431.67618   434.90546   437.36687    -0.15073    -0.02154     0.01894
  augment   513.25249   513.25312   502.03295     0.24928     0.44137     0.43906
  Kinetic  1141.57958  1152.14711  1130.63946     0.49883     0.51311     0.56210
  Fock     -487.52251  -485.99968  -481.33294    -0.14711    -0.16788    -0.18583
  -------------------------------------------------------------------------------------
  Total       0.02158     0.02147     0.01849    -0.01624     0.00474     0.00382
  in kB       0.22647     0.22535     0.19407    -0.17043     0.04970     0.04009
  external pressure =        0.22 kB  Pullay stress =        0.00 kB


 VOLUME and BASIS-vectors are now :
 -----------------------------------------------------------------------------
  energy-cutoff  :      520.00
  volume of cell :      152.68
      direct lattice vectors                 reciprocal lattice vectors
     3.890862504 -0.001989187  0.024100685     0.256693761  0.000657284  0.051499641
    -0.014798022  3.890834871  0.024100685    -0.000187764  0.256694534  0.051499641
    -2.013196339 -2.019834790 10.060313669    -0.000614491 -0.000616517  0.099153732

  length of vectors
     3.890937654  3.890937653 10.456701353     0.261809725  0.261809725  0.099157553


 FORCES acting on ions:
    Electron-Ion                     Ewald-Force                    Non-Local-Force
 -----------------------------------------------------------------------------------------------
   -.177E+00 -.956E+00 -.362E+02   0.188E+00 0.105E+01 0.361E+02   -.139E-01 -.101E+00 0.970E-01
   0.956E+00 0.181E+00 0.362E+02   -.105E+01 -.191E+00 -.361E+02   0.101E+00 0.142E-01 -.970E-01
   -.123E+02 0.326E+01 0.131E+03   0.128E+02 -.338E+01 -.136E+03   -.476E+00 0.106E+00 0.445E+01
   -.330E+01 0.123E+02 -.131E+03   0.343E+01 -.128E+02 0.136E+03   -.108E+00 0.475E+00 -.445E+01
   0.492E+01 -.223E+02 -.312E+02   -.501E+01 0.225E+02 0.316E+02   0.944E-01 -.219E+00 -.289E+00
   0.223E+02 -.485E+01 0.312E+02   -.225E+02 0.494E+01 -.316E+02   0.220E+00 -.937E-01 0.289E+00
   -.163E-01 0.162E-01 0.432E-05   0.252E-01 -.251E-01 0.281E-07   -.740E-02 0.738E-02 -.870E-14
   -.643E+01 0.287E+01 -.195E+03   0.509E+01 -.235E+01 0.192E+03   0.122E+01 -.475E+00 0.219E+01
   -.289E+01 0.642E+01 0.195E+03   0.237E+01 -.508E+01 -.192E+03   0.479E+00 -.122E+01 -.219E+01
   0.480E+01 0.958E+01 -.209E+03   -.492E+01 -.958E+01 0.211E+03   0.111E+00 0.520E-02 -.179E+01
   -.956E+01 -.483E+01 0.209E+03   0.956E+01 0.495E+01 -.211E+03   -.483E-02 -.111E+00 0.179E+01
 -----------------------------------------------------------------------------------------------
   -.172E+01 0.171E+01 0.212E-04   -.124E-13 0.533E-14 0.142E-12   0.162E+01 -.161E+01 0.190E-11
 
 
 POSITION                                       TOTAL-FORCE (eV/Angst)
 -----------------------------------------------------------------------------------
      0.68413      1.14205      8.43178         0.001778      0.002306     -0.016222
      0.72307      1.18112      1.67674        -0.002300     -0.001786      0.016222
      2.67450      1.18226      2.00863         0.005411      0.002201      0.017656
      0.68942     -0.80937      8.09988        -0.002183     -0.005418     -0.017656
     -1.23922      1.12395      6.34292         0.005890     -0.009718      0.025786
      0.73484      3.10452      3.76559         0.009737     -0.005858     -0.025786
      0.73598      3.14253      0.02410         0.000518     -0.000517      0.000000
      2.53340      1.22470      3.98595        -0.005251      0.006031      0.004994
      0.64651     -0.66840      6.12256        -0.006048      0.005231     -0.004994
     -1.26062     -0.81409      8.49833         0.000574      0.008129     -0.004512
      2.67280      3.13230      1.61018        -0.008127     -0.000600      0.004512
 -----------------------------------------------------------------------------------
    total drift:                                0.000173     -0.000216      0.000021


--------------------------------------------------------------------------------------------------------



  FREE ENERGIE OF THE ION-ELECTRON SYSTEM (eV)
  ---------------------------------------------------
  free  energy   TOTEN  =       -93.84031233 eV

  energy  without entropy=      -93.84031233  energy(sigma->0) =      -93.84031233
 
 d Force = 0.8567616E-03[ 0.170E-03, 0.154E-02]  d Energy = 0.1103906E-02-0.247E-03
 d Force = 0.9760668E+00[ 0.960E+00, 0.992E+00]  d Ewald  = 0.4829765E+01-0.385E+01


--------------------------------------------------------------------------------------------------------


    POTLOK:  cpu time    1.4084: real time    1.4117


--------------------------------------------------------------------------------------------------------


 Conjugate gradient step on ions:
 trial-energy change:   -0.001104  1 .order   -0.001071   -0.002004   -0.000137
  (g-gl).g = 0.229E-02      g.g   = 0.211E-02  gl.gl    = 0.128E+00
 g(Force)  = 0.166E-02   g(Stress)= 0.446E-03 ortho     =-0.180E-03
 gamma     =   0.01785
 trial     =   0.95309
 opt step  =   1.02286  (harmonic =   1.02286) maximal distance =0.00341967
 next E    =   -93.840284   (d E  =  -0.00108)


--------------------------------------------------------------------------------------------------------


  
 reached required accuracy - stopping structural energy minimisation
 writing wavefunctions
     LOOP+:  cpu time 1282.1998: real time 1285.4590
    4ORBIT:  cpu time    0.0000: real time    0.0000



 total charge

# of ion       s       p       d       tot
------------------------------------------
    1        2.020   0.065   0.000   2.085
    2        2.020   0.065   0.000   2.085
    3        1.555   3.541   0.000   5.096
    4        1.555   3.541   0.000   5.096
    5        1.314   2.443   0.000   3.757
    6        1.314   2.443   0.000   3.757
    7        1.301   2.499   0.000   3.799
    8        0.241   6.217   5.899  12.358
    9        0.241   6.217   5.899  12.358
   10        0.253   6.250   5.914  12.417
   11        0.253   6.250   5.914  12.417
--------------------------------------------------
tot         12.070  39.531  23.626  75.227



 magnetization (x)

# of ion       s       p       d       tot
------------------------------------------
    1       -0.000   0.001   0.000   0.001
    2       -0.000   0.001   0.000   0.001
    3        0.014   0.160   0.000   0.174
    4        0.014   0.160   0.000   0.174
    5        0.023   0.122   0.000   0.146
    6        0.023   0.122   0.000   0.146
    7        0.019   0.099   0.000   0.119
    8        0.041   0.026   3.567   3.634
    9        0.041   0.026   3.567   3.634
   10        0.032   0.029   3.573   3.633
   11        0.032   0.029   3.573   3.633
--------------------------------------------------
tot          0.239   0.774  14.280  15.293
 

 total amount of memory used by VASP MPI-rank0   349179. kBytes
=======================================================================

   base      :      30000. kBytes
   nonl-proj :      64911. kBytes
   fftplans  :       5184. kBytes
   grid      :      19756. kBytes
   one-center:        342. kBytes
   HF        :        259. kBytes
   nonlr-proj:       7496. kBytes
   wavefun   :     187038. kBytes
   fock_wrk  :      34193. kBytes
 
  
  
 General timing and accounting informations for this job:
 ========================================================
  
                  Total CPU time used (sec):    18415.791
                            User time (sec):    18389.122
                          System time (sec):       26.669
                         Elapsed time (sec):    18463.531
  
                   Maximum memory used (kb):      645384.
                   Average memory used (kb):          N/A
  
                          Minor page faults:      5310940
                          Major page faults:           16
                 Voluntary context switches:       241160
