# energy dos(up) dos(down)
-6.410809999999999320e+01 0.000000000000000000e+00 -0.000000000000000000e+00
-6.406810000000000116e+01 0.000000000000000000e+00 -0.000000000000000000e+00
-6.402809999999999491e+01 0.000000000000000000e+00 -0.000000000000000000e+00
-6.398810000000000286e+01 0.000000000000000000e+00 -0.000000000000000000e+00
-6.394819999999999993e+01 0.000000000000000000e+00 -0.000000000000000000e+00
-6.390820000000000078e+01 0.000000000000000000e+00 -0.000000000000000000e+00
-6.386820000000000164e+01 0.000000000000000000e+00 -0.000000000000000000e+00
-6.382820000000000249e+01 0.000000000000000000e+00 -0.000000000000000000e+00
-6.378820000000000334e+01 0.000000000000000000e+00 -0.000000000000000000e+00
-6.374819999999999709e+01 0.000000000000000000e+00 -0.000000000000000000e+00
-6.370819999999999794e+01 0.000000000000000000e+00 -0.000000000000000000e+00
-6.366819999999999879e+01 0.000000000000000000e+00 -0.000000000000000000e+00
-6.362819999999999965e+01 0.000000000000000000e+00 -0.000000000000000000e+00
-6.358829999999999671e+01 0.000000000000000000e+00 -0.000000000000000000e+00
-6.354829999999999757e+01 0.000000000000000000e+00 -0.000000000000000000e+00
-6.350829999999999842e+01 0.000000000000000000e+00 -0.000000000000000000e+00
-6.346829999999999927e+01 0.000000000000000000e+00 -0.000000000000000000e+00
-6.342830000000000013e+01 0.000000000000000000e+00 -0.000000000000000000e+00
-6.338830000000000098e+01 0.000000000000000000e+00 -0.000000000000000000e+00
-6.334830000000000183e+01 0.000000000000000000e+00 -0.000000000000000000e+00
-6.330830000000000268e+01 0.000000000000000000e+00 -0.000000000000000000e+00
-6.326830000000000354e+01 0.000000000000000000e+00 -0.000000000000000000e+00
-6.322829999999999728e+01 0.000000000000000000e+00 -0.000000000000000000e+00
-6.318840000000000146e+01 0.000000000000000000e+00 -0.000000000000000000e+00
-6.314840000000000231e+01 0.000000000000000000e+00 -0.000000000000000000e+00
-6.310840000000000316e+01 0.000000000000000000e+00 -0.000000000000000000e+00
-6.306839999999999691e+01 0.000000000000000000e+00 -0.000000000000000000e+00
-6.302839999999999776e+01 0.000000000000000000e+00 -0.000000000000000000e+00
-6.298839999999999861e+01 0.000000000000000000e+00 -0.000000000000000000e+00
-6.294839999999999947e+01 0.000000000000000000e+00 -0.000000000000000000e+00
-6.290840000000000032e+01 0.000000000000000000e+00 -0.000000000000000000e+00
-6.286840000000000117e+01 0.000000000000000000e+00 -0.000000000000000000e+00
-6.282840000000000202e+01 0.000000000000000000e+00 -0.000000000000000000e+00
-6.278849999999999909e+01 0.000000000000000000e+00 -0.000000000000000000e+00
-6.274849999999999994e+01 0.000000000000000000e+00 -0.000000000000000000e+00
-6.270850000000000080e+01 0.000000000000000000e+00 -0.000000000000000000e+00
-6.266850000000000165e+01 0.000000000000000000e+00 -0.000000000000000000e+00
-6.262850000000000250e+01 0.000000000000000000e+00 -0.000000000000000000e+00
-6.258850000000000335e+01 0.000000000000000000e+00 -0.000000000000000000e+00
-6.254849999999999710e+01 0.000000000000000000e+00 -0.000000000000000000e+00
-6.250849999999999795e+01 0.000000000000000000e+00 -0.000000000000000000e+00
-6.246849999999999881e+01 0.000000000000000000e+00 -0.000000000000000000e+00
-6.242860000000000298e+01 0.000000000000000000e+00 -0.000000000000000000e+00
-6.238859999999999673e+01 0.000000000000000000e+00 -0.000000000000000000e+00
-6.234859999999999758e+01 0.000000000000000000e+00 -0.000000000000000000e+00
-6.230859999999999843e+01 0.000000000000000000e+00 -0.000000000000000000e+00
-6.226859999999999928e+01 0.000000000000000000e+00 -0.000000000000000000e+00
-6.222860000000000014e+01 0.000000000000000000e+00 -0.000000000000000000e+00
-6.218860000000000099e+01 0.000000000000000000e+00 -0.000000000000000000e+00
-6.214860000000000184e+01 0.000000000000000000e+00 -0.000000000000000000e+00
-6.210860000000000269e+01 0.000000000000000000e+00 -0.000000000000000000e+00
-6.206860000000000355e+01 0.000000000000000000e+00 -0.000000000000000000e+00
-6.202870000000000061e+01 0.000000000000000000e+00 -0.000000000000000000e+00
-6.198870000000000147e+01 0.000000000000000000e+00 -0.000000000000000000e+00
-6.194870000000000232e+01 0.000000000000000000e+00 -0.000000000000000000e+00
-6.190870000000000317e+01 0.000000000000000000e+00 -0.000000000000000000e+00
-6.186869999999999692e+01 0.000000000000000000e+00 -0.000000000000000000e+00
-6.182869999999999777e+01 0.000000000000000000e+00 -0.000000000000000000e+00
-6.178869999999999862e+01 0.000000000000000000e+00 -0.000000000000000000e+00
-6.174869999999999948e+01 0.000000000000000000e+00 -0.000000000000000000e+00
-6.170870000000000033e+01 0.000000000000000000e+00 -0.000000000000000000e+00
-6.166870000000000118e+01 0.000000000000000000e+00 -0.000000000000000000e+00
-6.162879999999999825e+01 0.000000000000000000e+00 -0.000000000000000000e+00
-6.158879999999999910e+01 0.000000000000000000e+00 -0.000000000000000000e+00
-6.154879999999999995e+01 0.000000000000000000e+00 -0.000000000000000000e+00
-6.150880000000000081e+01 0.000000000000000000e+00 -0.000000000000000000e+00
-6.146880000000000166e+01 0.000000000000000000e+00 -0.000000000000000000e+00
-6.142880000000000251e+01 0.000000000000000000e+00 -0.000000000000000000e+00
-6.138880000000000337e+01 0.000000000000000000e+00 -0.000000000000000000e+00
-6.134879999999999711e+01 0.000000000000000000e+00 -0.000000000000000000e+00
-6.130879999999999797e+01 0.000000000000000000e+00 -0.000000000000000000e+00
-6.126890000000000214e+01 0.000000000000000000e+00 -0.000000000000000000e+00
-6.122890000000000299e+01 0.000000000000000000e+00 -0.000000000000000000e+00
-6.118889999999999674e+01 0.000000000000000000e+00 -0.000000000000000000e+00
-6.114889999999999759e+01 0.000000000000000000e+00 -0.000000000000000000e+00
-6.110889999999999844e+01 0.000000000000000000e+00 -0.000000000000000000e+00
-6.106889999999999930e+01 0.000000000000000000e+00 -0.000000000000000000e+00
-6.102890000000000015e+01 0.000000000000000000e+00 -0.000000000000000000e+00
-6.098890000000000100e+01 0.000000000000000000e+00 -0.000000000000000000e+00
-6.094890000000000185e+01 0.000000000000000000e+00 -0.000000000000000000e+00
-6.090890000000000271e+01 0.000000000000000000e+00 -0.000000000000000000e+00
-6.086899999999999977e+01 0.000000000000000000e+00 -0.000000000000000000e+00
-6.082900000000000063e+01 0.000000000000000000e+00 -0.000000000000000000e+00
-6.078900000000000148e+01 0.000000000000000000e+00 -0.000000000000000000e+00
-6.074900000000000233e+01 0.000000000000000000e+00 -0.000000000000000000e+00
-6.070900000000000318e+01 0.000000000000000000e+00 -0.000000000000000000e+00
-6.066899999999999693e+01 0.000000000000000000e+00 -0.000000000000000000e+00
-6.062899999999999778e+01 2.999999999999999737e-04 -0.000000000000000000e+00
-6.058899999999999864e+01 2.560000000000000123e-02 -0.000000000000000000e+00
-6.054899999999999949e+01 7.936999999999999611e-01 -0.000000000000000000e+00
-6.050900000000000034e+01 7.934099999999999930e+00 -0.000000000000000000e+00
-6.046909999999999741e+01 2.791100000000000136e+01 -0.000000000000000000e+00
-6.042909999999999826e+01 3.803040000000000020e+01 -0.000000000000000000e+00
-6.038909999999999911e+01 2.075919999999999987e+01 -0.000000000000000000e+00
-6.034909999999999997e+01 4.266000000000000014e+00 -0.000000000000000000e+00
-6.030910000000000082e+01 2.988000000000000100e-01 -0.000000000000000000e+00
-6.026910000000000167e+01 6.599999999999999964e-03 -0.000000000000000000e+00
-6.022910000000000252e+01 0.000000000000000000e+00 -0.000000000000000000e+00
-6.018910000000000338e+01 0.000000000000000000e+00 -0.000000000000000000e+00
-6.014909999999999712e+01 0.000000000000000000e+00 -0.000000000000000000e+00
-6.010920000000000130e+01 0.000000000000000000e+00 -0.000000000000000000e+00
-6.006920000000000215e+01 0.000000000000000000e+00 -0.000000000000000000e+00
-6.002920000000000300e+01 0.000000000000000000e+00 -0.000000000000000000e+00
-5.998919999999999675e+01 0.000000000000000000e+00 -0.000000000000000000e+00
-5.994919999999999760e+01 0.000000000000000000e+00 -0.000000000000000000e+00
-5.990919999999999845e+01 0.000000000000000000e+00 -0.000000000000000000e+00
-5.986919999999999931e+01 0.000000000000000000e+00 -0.000000000000000000e+00
-5.982920000000000016e+01 0.000000000000000000e+00 -0.000000000000000000e+00
-5.978920000000000101e+01 0.000000000000000000e+00 -0.000000000000000000e+00
-5.974920000000000186e+01 0.000000000000000000e+00 -0.000000000000000000e+00
-5.970929999999999893e+01 0.000000000000000000e+00 -0.000000000000000000e+00
-5.966929999999999978e+01 0.000000000000000000e+00 -0.000000000000000000e+00
-5.962930000000000064e+01 0.000000000000000000e+00 -0.000000000000000000e+00
-5.958930000000000149e+01 0.000000000000000000e+00 -0.000000000000000000e+00
-5.954930000000000234e+01 0.000000000000000000e+00 -0.000000000000000000e+00
-5.950930000000000319e+01 0.000000000000000000e+00 -0.000000000000000000e+00
-5.946929999999999694e+01 0.000000000000000000e+00 -0.000000000000000000e+00
-5.942929999999999779e+01 0.000000000000000000e+00 -0.000000000000000000e+00
-5.938929999999999865e+01 0.000000000000000000e+00 -0.000000000000000000e+00
-5.934929999999999950e+01 0.000000000000000000e+00 -0.000000000000000000e+00
-5.930940000000000367e+01 0.000000000000000000e+00 -0.000000000000000000e+00
-5.926939999999999742e+01 0.000000000000000000e+00 -0.000000000000000000e+00
-5.922939999999999827e+01 1.000000000000000048e-04 -0.000000000000000000e+00
-5.918939999999999912e+01 8.300000000000000086e-03 -0.000000000000000000e+00
-5.914939999999999998e+01 3.421000000000000152e-01 -0.000000000000000000e+00
-5.910940000000000083e+01 4.272899999999999920e+00 -0.000000000000000000e+00
-5.906940000000000168e+01 1.652090000000000103e+01 -0.000000000000000000e+00
-5.902940000000000254e+01 2.018990000000000151e+01 -0.000000000000000000e+00
-5.898940000000000339e+01 9.313599999999999213e+00 -0.000000000000000000e+00
-5.894950000000000045e+01 1.595049999999999990e+01 -0.000000000000000000e+00
-5.890950000000000131e+01 4.948160000000000025e+01 -0.000000000000000000e+00
-5.886950000000000216e+01 5.714820000000000277e+01 -0.000000000000000000e+00
-5.882950000000000301e+01 2.335800000000000054e+01 -0.000000000000000000e+00
-5.878949999999999676e+01 3.307500000000000107e+00 -0.000000000000000000e+00
-5.874949999999999761e+01 1.557999999999999940e-01 -0.000000000000000000e+00
-5.870949999999999847e+01 2.299999999999999961e-03 -0.000000000000000000e+00
-5.866949999999999932e+01 0.000000000000000000e+00 -0.000000000000000000e+00
-5.862950000000000017e+01 0.000000000000000000e+00 -0.000000000000000000e+00
-5.858950000000000102e+01 0.000000000000000000e+00 -0.000000000000000000e+00
-5.854959999999999809e+01 0.000000000000000000e+00 -0.000000000000000000e+00
-5.850959999999999894e+01 0.000000000000000000e+00 -0.000000000000000000e+00
-5.846959999999999980e+01 0.000000000000000000e+00 -0.000000000000000000e+00
-5.842960000000000065e+01 0.000000000000000000e+00 -0.000000000000000000e+00
-5.838960000000000150e+01 0.000000000000000000e+00 -0.000000000000000000e+00
-5.834960000000000235e+01 0.000000000000000000e+00 -0.000000000000000000e+00
-5.830960000000000321e+01 0.000000000000000000e+00 -0.000000000000000000e+00
-5.826959999999999695e+01 0.000000000000000000e+00 -0.000000000000000000e+00
-5.822959999999999781e+01 0.000000000000000000e+00 -0.000000000000000000e+00
-5.818959999999999866e+01 0.000000000000000000e+00 -0.000000000000000000e+00
-5.814970000000000283e+01 0.000000000000000000e+00 -0.000000000000000000e+00
-5.810970000000000368e+01 0.000000000000000000e+00 -0.000000000000000000e+00
-5.806969999999999743e+01 0.000000000000000000e+00 -0.000000000000000000e+00
-5.802969999999999828e+01 0.000000000000000000e+00 -0.000000000000000000e+00
-5.798969999999999914e+01 0.000000000000000000e+00 -0.000000000000000000e+00
-5.794969999999999999e+01 0.000000000000000000e+00 -0.000000000000000000e+00
-5.790970000000000084e+01 0.000000000000000000e+00 -0.000000000000000000e+00
-5.786970000000000169e+01 0.000000000000000000e+00 -0.000000000000000000e+00
-5.782970000000000255e+01 0.000000000000000000e+00 -0.000000000000000000e+00
-5.778979999999999961e+01 0.000000000000000000e+00 -0.000000000000000000e+00
-5.774980000000000047e+01 0.000000000000000000e+00 -0.000000000000000000e+00
-5.770980000000000132e+01 0.000000000000000000e+00 -0.000000000000000000e+00
-5.766980000000000217e+01 0.000000000000000000e+00 -0.000000000000000000e+00
-5.762980000000000302e+01 0.000000000000000000e+00 -0.000000000000000000e+00
-5.758979999999999677e+01 0.000000000000000000e+00 -0.000000000000000000e+00
-5.754979999999999762e+01 0.000000000000000000e+00 -0.000000000000000000e+00
-5.750979999999999848e+01 0.000000000000000000e+00 -0.000000000000000000e+00
-5.746979999999999933e+01 0.000000000000000000e+00 -0.000000000000000000e+00
-5.742980000000000018e+01 0.000000000000000000e+00 -0.000000000000000000e+00
-5.738989999999999725e+01 0.000000000000000000e+00 -0.000000000000000000e+00
-5.734989999999999810e+01 0.000000000000000000e+00 -0.000000000000000000e+00
-5.730989999999999895e+01 0.000000000000000000e+00 -0.000000000000000000e+00
-5.726989999999999981e+01 0.000000000000000000e+00 -0.000000000000000000e+00
-5.722990000000000066e+01 0.000000000000000000e+00 -0.000000000000000000e+00
-5.718990000000000151e+01 0.000000000000000000e+00 -0.000000000000000000e+00
-5.714990000000000236e+01 0.000000000000000000e+00 -0.000000000000000000e+00
-5.710990000000000322e+01 0.000000000000000000e+00 -0.000000000000000000e+00
-5.706989999999999696e+01 0.000000000000000000e+00 -0.000000000000000000e+00
-5.702989999999999782e+01 0.000000000000000000e+00 -0.000000000000000000e+00
-5.699000000000000199e+01 0.000000000000000000e+00 -0.000000000000000000e+00
-5.695000000000000284e+01 0.000000000000000000e+00 -0.000000000000000000e+00
-5.691000000000000369e+01 0.000000000000000000e+00 -0.000000000000000000e+00
-5.686999999999999744e+01 0.000000000000000000e+00 -0.000000000000000000e+00
-5.682999999999999829e+01 0.000000000000000000e+00 -0.000000000000000000e+00
-5.678999999999999915e+01 0.000000000000000000e+00 -0.000000000000000000e+00
-5.675000000000000000e+01 0.000000000000000000e+00 -0.000000000000000000e+00
-5.671000000000000085e+01 0.000000000000000000e+00 -0.000000000000000000e+00
-5.667000000000000171e+01 0.000000000000000000e+00 -0.000000000000000000e+00
-5.663009999999999877e+01 0.000000000000000000e+00 -0.000000000000000000e+00
-5.659009999999999962e+01 0.000000000000000000e+00 -0.000000000000000000e+00
-5.655010000000000048e+01 0.000000000000000000e+00 -0.000000000000000000e+00
-5.651010000000000133e+01 0.000000000000000000e+00 -0.000000000000000000e+00
-5.647010000000000218e+01 0.000000000000000000e+00 -0.000000000000000000e+00
-5.643010000000000304e+01 0.000000000000000000e+00 -0.000000000000000000e+00
-5.639009999999999678e+01 0.000000000000000000e+00 -0.000000000000000000e+00
-5.635009999999999764e+01 0.000000000000000000e+00 -0.000000000000000000e+00
-5.631009999999999849e+01 0.000000000000000000e+00 -0.000000000000000000e+00
-5.627009999999999934e+01 0.000000000000000000e+00 -0.000000000000000000e+00
-5.623020000000000351e+01 0.000000000000000000e+00 -0.000000000000000000e+00
-5.619019999999999726e+01 0.000000000000000000e+00 -0.000000000000000000e+00
-5.615019999999999811e+01 0.000000000000000000e+00 -0.000000000000000000e+00
-5.611019999999999897e+01 0.000000000000000000e+00 -0.000000000000000000e+00
-5.607019999999999982e+01 0.000000000000000000e+00 -0.000000000000000000e+00
-5.603020000000000067e+01 0.000000000000000000e+00 -0.000000000000000000e+00
-5.599020000000000152e+01 0.000000000000000000e+00 -0.000000000000000000e+00
-5.595020000000000238e+01 0.000000000000000000e+00 -0.000000000000000000e+00
-5.591020000000000323e+01 0.000000000000000000e+00 -0.000000000000000000e+00
-5.587019999999999698e+01 0.000000000000000000e+00 -0.000000000000000000e+00
-5.583030000000000115e+01 0.000000000000000000e+00 -0.000000000000000000e+00
-5.579030000000000200e+01 0.000000000000000000e+00 -0.000000000000000000e+00
-5.575030000000000285e+01 0.000000000000000000e+00 -0.000000000000000000e+00
-5.571030000000000371e+01 0.000000000000000000e+00 -0.000000000000000000e+00
-5.567029999999999745e+01 0.000000000000000000e+00 -0.000000000000000000e+00
-5.563029999999999831e+01 0.000000000000000000e+00 -0.000000000000000000e+00
-5.559029999999999916e+01 0.000000000000000000e+00 -0.000000000000000000e+00
-5.555030000000000001e+01 0.000000000000000000e+00 -0.000000000000000000e+00
-5.551030000000000086e+01 0.000000000000000000e+00 -0.000000000000000000e+00
-5.547039999999999793e+01 0.000000000000000000e+00 -0.000000000000000000e+00
-5.543039999999999878e+01 0.000000000000000000e+00 -0.000000000000000000e+00
-5.539039999999999964e+01 0.000000000000000000e+00 -0.000000000000000000e+00
-5.535040000000000049e+01 0.000000000000000000e+00 -0.000000000000000000e+00
-5.531040000000000134e+01 0.000000000000000000e+00 -0.000000000000000000e+00
-5.527040000000000219e+01 0.000000000000000000e+00 -0.000000000000000000e+00
-5.523040000000000305e+01 0.000000000000000000e+00 -0.000000000000000000e+00
-5.519039999999999679e+01 0.000000000000000000e+00 -0.000000000000000000e+00
-5.515039999999999765e+01 0.000000000000000000e+00 -0.000000000000000000e+00
-5.511039999999999850e+01 0.000000000000000000e+00 -0.000000000000000000e+00
-5.507050000000000267e+01 0.000000000000000000e+00 -0.000000000000000000e+00
-5.503050000000000352e+01 0.000000000000000000e+00 -0.000000000000000000e+00
-5.499049999999999727e+01 0.000000000000000000e+00 -0.000000000000000000e+00
-5.495049999999999812e+01 0.000000000000000000e+00 -0.000000000000000000e+00
-5.491049999999999898e+01 0.000000000000000000e+00 -0.000000000000000000e+00
-5.487049999999999983e+01 0.000000000000000000e+00 -0.000000000000000000e+00
-5.483050000000000068e+01 0.000000000000000000e+00 -0.000000000000000000e+00
-5.479050000000000153e+01 0.000000000000000000e+00 -0.000000000000000000e+00
-5.475050000000000239e+01 0.000000000000000000e+00 -0.000000000000000000e+00
-5.471050000000000324e+01 0.000000000000000000e+00 -0.000000000000000000e+00
-5.467060000000000031e+01 0.000000000000000000e+00 -0.000000000000000000e+00
-5.463060000000000116e+01 0.000000000000000000e+00 -0.000000000000000000e+00
-5.459060000000000201e+01 0.000000000000000000e+00 -0.000000000000000000e+00
-5.455060000000000286e+01 0.000000000000000000e+00 -0.000000000000000000e+00
-5.451060000000000372e+01 0.000000000000000000e+00 -0.000000000000000000e+00
-5.447059999999999746e+01 0.000000000000000000e+00 -0.000000000000000000e+00
-5.443059999999999832e+01 0.000000000000000000e+00 -0.000000000000000000e+00
-5.439059999999999917e+01 0.000000000000000000e+00 -0.000000000000000000e+00
-5.435060000000000002e+01 0.000000000000000000e+00 -0.000000000000000000e+00
-5.431069999999999709e+01 0.000000000000000000e+00 -0.000000000000000000e+00
-5.427069999999999794e+01 0.000000000000000000e+00 -0.000000000000000000e+00
-5.423069999999999879e+01 0.000000000000000000e+00 -0.000000000000000000e+00
-5.419069999999999965e+01 0.000000000000000000e+00 -0.000000000000000000e+00
-5.415070000000000050e+01 0.000000000000000000e+00 -0.000000000000000000e+00
-5.411070000000000135e+01 0.000000000000000000e+00 -0.000000000000000000e+00
-5.407070000000000221e+01 0.000000000000000000e+00 -0.000000000000000000e+00
-5.403070000000000306e+01 0.000000000000000000e+00 -0.000000000000000000e+00
-5.399069999999999681e+01 0.000000000000000000e+00 -1.199999999999999895e-03
-5.395069999999999766e+01 0.000000000000000000e+00 -8.440000000000000280e-02
-5.391080000000000183e+01 0.000000000000000000e+00 -1.762599999999999945e+00
-5.387080000000000268e+01 0.000000000000000000e+00 -1.216680000000000028e+01
-5.383080000000000354e+01 0.000000000000000000e+00 -3.624249999999999972e+01
-5.379079999999999728e+01 0.000000000000000000e+00 -7.320159999999999911e+01
-5.375079999999999814e+01 0.000000000000000000e+00 -9.763049999999999784e+01
-5.371079999999999899e+01 0.000000000000000000e+00 -6.193310000000000315e+01
-5.367079999999999984e+01 0.000000000000000000e+00 -1.561890000000000001e+01
-5.363080000000000069e+01 0.000000000000000000e+00 -1.395000000000000018e+00
-5.359080000000000155e+01 0.000000000000000000e+00 -4.050000000000000128e-02
-5.355080000000000240e+01 0.000000000000000000e+00 -4.000000000000000192e-04
-5.351089999999999947e+01 0.000000000000000000e+00 -0.000000000000000000e+00
-5.347090000000000032e+01 0.000000000000000000e+00 -0.000000000000000000e+00
-5.343090000000000117e+01 0.000000000000000000e+00 -0.000000000000000000e+00
-5.339090000000000202e+01 0.000000000000000000e+00 -0.000000000000000000e+00
-5.335090000000000288e+01 0.000000000000000000e+00 -0.000000000000000000e+00
-5.331090000000000373e+01 0.000000000000000000e+00 -0.000000000000000000e+00
-5.327089999999999748e+01 0.000000000000000000e+00 -0.000000000000000000e+00
-5.323089999999999833e+01 0.000000000000000000e+00 -0.000000000000000000e+00
-5.319089999999999918e+01 0.000000000000000000e+00 -0.000000000000000000e+00
-5.315100000000000335e+01 0.000000000000000000e+00 -0.000000000000000000e+00
-5.311099999999999710e+01 0.000000000000000000e+00 -0.000000000000000000e+00
-5.307099999999999795e+01 0.000000000000000000e+00 -0.000000000000000000e+00
-5.303099999999999881e+01 0.000000000000000000e+00 -0.000000000000000000e+00
-5.299099999999999966e+01 0.000000000000000000e+00 -0.000000000000000000e+00
-5.295100000000000051e+01 0.000000000000000000e+00 -0.000000000000000000e+00
-5.291100000000000136e+01 0.000000000000000000e+00 -0.000000000000000000e+00
-5.287100000000000222e+01 0.000000000000000000e+00 -0.000000000000000000e+00
-5.283100000000000307e+01 0.000000000000000000e+00 -0.000000000000000000e+00
-5.279099999999999682e+01 0.000000000000000000e+00 -0.000000000000000000e+00
-5.275110000000000099e+01 0.000000000000000000e+00 -0.000000000000000000e+00
-5.271110000000000184e+01 0.000000000000000000e+00 -0.000000000000000000e+00
-5.267110000000000269e+01 0.000000000000000000e+00 -0.000000000000000000e+00
-5.263110000000000355e+01 0.000000000000000000e+00 -0.000000000000000000e+00
-5.259109999999999729e+01 0.000000000000000000e+00 -0.000000000000000000e+00
-5.255109999999999815e+01 0.000000000000000000e+00 -0.000000000000000000e+00
-5.251109999999999900e+01 0.000000000000000000e+00 -0.000000000000000000e+00
-5.247109999999999985e+01 0.000000000000000000e+00 -0.000000000000000000e+00
-5.243110000000000070e+01 0.000000000000000000e+00 -0.000000000000000000e+00
-5.239110000000000156e+01 0.000000000000000000e+00 -0.000000000000000000e+00
-5.235119999999999862e+01 0.000000000000000000e+00 -0.000000000000000000e+00
-5.231119999999999948e+01 0.000000000000000000e+00 -0.000000000000000000e+00
-5.227120000000000033e+01 0.000000000000000000e+00 -0.000000000000000000e+00
-5.223120000000000118e+01 0.000000000000000000e+00 -0.000000000000000000e+00
-5.219120000000000203e+01 0.000000000000000000e+00 -0.000000000000000000e+00
-5.215120000000000289e+01 0.000000000000000000e+00 -0.000000000000000000e+00
-5.211120000000000374e+01 0.000000000000000000e+00 -0.000000000000000000e+00
-5.207119999999999749e+01 0.000000000000000000e+00 -0.000000000000000000e+00
-5.203119999999999834e+01 0.000000000000000000e+00 -0.000000000000000000e+00
-5.199130000000000251e+01 0.000000000000000000e+00 -0.000000000000000000e+00
-5.195130000000000337e+01 0.000000000000000000e+00 -0.000000000000000000e+00
-5.191129999999999711e+01 0.000000000000000000e+00 -0.000000000000000000e+00
-5.187129999999999797e+01 0.000000000000000000e+00 -0.000000000000000000e+00
-5.183129999999999882e+01 0.000000000000000000e+00 -0.000000000000000000e+00
-5.179129999999999967e+01 0.000000000000000000e+00 -0.000000000000000000e+00
-5.175130000000000052e+01 0.000000000000000000e+00 -0.000000000000000000e+00
-5.171130000000000138e+01 0.000000000000000000e+00 -0.000000000000000000e+00
-5.167130000000000223e+01 0.000000000000000000e+00 -0.000000000000000000e+00
-5.163130000000000308e+01 0.000000000000000000e+00 -0.000000000000000000e+00
-5.159140000000000015e+01 0.000000000000000000e+00 -0.000000000000000000e+00
-5.155140000000000100e+01 0.000000000000000000e+00 -0.000000000000000000e+00
-5.151140000000000185e+01 0.000000000000000000e+00 -0.000000000000000000e+00
-5.147140000000000271e+01 0.000000000000000000e+00 -0.000000000000000000e+00
-5.143140000000000356e+01 0.000000000000000000e+00 -0.000000000000000000e+00
-5.139139999999999731e+01 0.000000000000000000e+00 -0.000000000000000000e+00
-5.135139999999999816e+01 0.000000000000000000e+00 -0.000000000000000000e+00
-5.131139999999999901e+01 0.000000000000000000e+00 -0.000000000000000000e+00
-5.127139999999999986e+01 0.000000000000000000e+00 -0.000000000000000000e+00
-5.123140000000000072e+01 0.000000000000000000e+00 -0.000000000000000000e+00
-5.119149999999999778e+01 0.000000000000000000e+00 -0.000000000000000000e+00
-5.115149999999999864e+01 0.000000000000000000e+00 -0.000000000000000000e+00
-5.111149999999999949e+01 0.000000000000000000e+00 -0.000000000000000000e+00
-5.107150000000000034e+01 0.000000000000000000e+00 -0.000000000000000000e+00
-5.103150000000000119e+01 0.000000000000000000e+00 -0.000000000000000000e+00
-5.099150000000000205e+01 0.000000000000000000e+00 -0.000000000000000000e+00
-5.095150000000000290e+01 0.000000000000000000e+00 -0.000000000000000000e+00
-5.091150000000000375e+01 0.000000000000000000e+00 -0.000000000000000000e+00
-5.087149999999999750e+01 0.000000000000000000e+00 -0.000000000000000000e+00
-5.083160000000000167e+01 0.000000000000000000e+00 -0.000000000000000000e+00
-5.079160000000000252e+01 0.000000000000000000e+00 -0.000000000000000000e+00
-5.075160000000000338e+01 0.000000000000000000e+00 -0.000000000000000000e+00
-5.071159999999999712e+01 0.000000000000000000e+00 -0.000000000000000000e+00
-5.067159999999999798e+01 0.000000000000000000e+00 -0.000000000000000000e+00
-5.063159999999999883e+01 0.000000000000000000e+00 -0.000000000000000000e+00
-5.059159999999999968e+01 0.000000000000000000e+00 -0.000000000000000000e+00
-5.055160000000000053e+01 0.000000000000000000e+00 -0.000000000000000000e+00
-5.051160000000000139e+01 0.000000000000000000e+00 -0.000000000000000000e+00
-5.047160000000000224e+01 0.000000000000000000e+00 -0.000000000000000000e+00
-5.043169999999999931e+01 0.000000000000000000e+00 -0.000000000000000000e+00
-5.039170000000000016e+01 0.000000000000000000e+00 -0.000000000000000000e+00
-5.035170000000000101e+01 0.000000000000000000e+00 -0.000000000000000000e+00
-5.031170000000000186e+01 0.000000000000000000e+00 -0.000000000000000000e+00
-5.027170000000000272e+01 0.000000000000000000e+00 -0.000000000000000000e+00
-5.023170000000000357e+01 0.000000000000000000e+00 -0.000000000000000000e+00
-5.019169999999999732e+01 0.000000000000000000e+00 -0.000000000000000000e+00
-5.015169999999999817e+01 0.000000000000000000e+00 -0.000000000000000000e+00
-5.011169999999999902e+01 0.000000000000000000e+00 -0.000000000000000000e+00
-5.007169999999999987e+01 0.000000000000000000e+00 -0.000000000000000000e+00
-5.003179999999999694e+01 0.000000000000000000e+00 -0.000000000000000000e+00
-4.999179999999999779e+01 0.000000000000000000e+00 -0.000000000000000000e+00
-4.995179999999999865e+01 0.000000000000000000e+00 -0.000000000000000000e+00
-4.991179999999999950e+01 0.000000000000000000e+00 -0.000000000000000000e+00
-4.987180000000000035e+01 0.000000000000000000e+00 -0.000000000000000000e+00
-4.983180000000000121e+01 0.000000000000000000e+00 -0.000000000000000000e+00
-4.979180000000000206e+01 0.000000000000000000e+00 -0.000000000000000000e+00
-4.975180000000000291e+01 0.000000000000000000e+00 -0.000000000000000000e+00
-4.971180000000000376e+01 0.000000000000000000e+00 -0.000000000000000000e+00
-4.967190000000000083e+01 0.000000000000000000e+00 -0.000000000000000000e+00
-4.963190000000000168e+01 0.000000000000000000e+00 -0.000000000000000000e+00
-4.959190000000000254e+01 0.000000000000000000e+00 -0.000000000000000000e+00
-4.955190000000000339e+01 0.000000000000000000e+00 -0.000000000000000000e+00
-4.951189999999999714e+01 0.000000000000000000e+00 -0.000000000000000000e+00
-4.947189999999999799e+01 0.000000000000000000e+00 -0.000000000000000000e+00
-4.943189999999999884e+01 0.000000000000000000e+00 -0.000000000000000000e+00
-4.939189999999999969e+01 0.000000000000000000e+00 -0.000000000000000000e+00
-4.935190000000000055e+01 0.000000000000000000e+00 -0.000000000000000000e+00
-4.931190000000000140e+01 0.000000000000000000e+00 -0.000000000000000000e+00
-4.927199999999999847e+01 0.000000000000000000e+00 -0.000000000000000000e+00
-4.923199999999999932e+01 0.000000000000000000e+00 -0.000000000000000000e+00
-4.919200000000000017e+01 0.000000000000000000e+00 -0.000000000000000000e+00
-4.915200000000000102e+01 0.000000000000000000e+00 -0.000000000000000000e+00
-4.911200000000000188e+01 0.000000000000000000e+00 -0.000000000000000000e+00
-4.907200000000000273e+01 0.000000000000000000e+00 -0.000000000000000000e+00
-4.903200000000000358e+01 0.000000000000000000e+00 -0.000000000000000000e+00
-4.899199999999999733e+01 0.000000000000000000e+00 -0.000000000000000000e+00
-4.895199999999999818e+01 0.000000000000000000e+00 -0.000000000000000000e+00
-4.891199999999999903e+01 0.000000000000000000e+00 -0.000000000000000000e+00
-4.887210000000000321e+01 0.000000000000000000e+00 -0.000000000000000000e+00
-4.883209999999999695e+01 0.000000000000000000e+00 -0.000000000000000000e+00
-4.879209999999999781e+01 0.000000000000000000e+00 -0.000000000000000000e+00
-4.875209999999999866e+01 0.000000000000000000e+00 -0.000000000000000000e+00
-4.871209999999999951e+01 0.000000000000000000e+00 -0.000000000000000000e+00
-4.867210000000000036e+01 0.000000000000000000e+00 -0.000000000000000000e+00
-4.863210000000000122e+01 0.000000000000000000e+00 -0.000000000000000000e+00
-4.859210000000000207e+01 0.000000000000000000e+00 -0.000000000000000000e+00