  88  88   0   0
  0.1431748E+02  0.1111223E-08  0.1111745E-08  0.1056954E-08  0.5000000E-15
  1.000000000000000E-004
  CAR 
 unknown system                          
     17.90737071    -54.34198558  301      5.20352556      1.00000000
    -54.342  0.0000E+00  0.0000E+00  0.0000E+00  0.0000E+00
    -54.101  0.0000E+00  0.0000E+00  0.0000E+00  0.0000E+00
    -53.860  0.0000E+00  0.0000E+00  0.0000E+00  0.0000E+00
    -53.619  0.0000E+00  0.0000E+00  0.0000E+00  0.0000E+00
    -53.379  0.0000E+00  0.0000E+00  0.0000E+00  0.0000E+00
    -53.138  0.0000E+00  0.0000E+00  0.0000E+00  0.0000E+00
    -52.897  0.0000E+00  0.0000E+00  0.0000E+00  0.0000E+00
    -52.656  0.0000E+00  0.0000E+00  0.0000E+00  0.0000E+00
    -52.415  0.0000E+00  0.0000E+00  0.0000E+00  0.0000E+00
    -52.175  0.0000E+00  0.0000E+00  0.0000E+00  0.0000E+00
    -51.934  0.0000E+00  0.0000E+00  0.0000E+00  0.0000E+00
    -51.693  0.0000E+00  0.0000E+00  0.0000E+00  0.0000E+00
    -51.452  0.0000E+00  0.0000E+00  0.0000E+00  0.0000E+00
    -51.211  0.3281E-03  0.0000E+00  0.7901E-04  0.0000E+00
    -50.970  0.1308E+03  0.0000E+00  0.3149E+02  0.0000E+00
    -50.730  0.2121E+01  0.0000E+00  0.3200E+02  0.0000E+00
    -50.489  0.0000E+00  0.0000E+00  0.3200E+02  0.0000E+00
    -50.248  0.0000E+00  0.0000E+00  0.3200E+02  0.0000E+00
    -50.007  0.0000E+00  0.0000E+00  0.3200E+02  0.0000E+00
    -49.766  0.1815E+01  0.0000E+00  0.3244E+02  0.0000E+00
    -49.525  0.2354E+03  0.0000E+00  0.8913E+02  0.0000E+00
    -49.285  0.2854E+02  0.0000E+00  0.9600E+02  0.0000E+00
    -49.044  0.0000E+00  0.0000E+00  0.9600E+02  0.0000E+00
    -48.803  0.0000E+00  0.0000E+00  0.9600E+02  0.0000E+00
    -48.562  0.0000E+00  0.0000E+00  0.9600E+02  0.0000E+00
    -48.321  0.0000E+00  0.0000E+00  0.9600E+02  0.0000E+00
    -48.080  0.0000E+00  0.0000E+00  0.9600E+02  0.0000E+00
    -47.840  0.0000E+00  0.0000E+00  0.9600E+02  0.0000E+00
    -47.599  0.0000E+00  0.0000E+00  0.9600E+02  0.0000E+00
    -47.358  0.0000E+00  0.0000E+00  0.9600E+02  0.0000E+00
    -47.117  0.0000E+00  0.0000E+00  0.9600E+02  0.0000E+00
    -46.876  0.0000E+00  0.0000E+00  0.9600E+02  0.0000E+00
    -46.635  0.0000E+00  0.0000E+00  0.9600E+02  0.0000E+00
    -46.395  0.0000E+00  0.3417E+00  0.9600E+02  0.8228E-01
    -46.154  0.0000E+00  0.1325E+03  0.9600E+02  0.3199E+02
    -45.913  0.0000E+00  0.5892E+02  0.9600E+02  0.4618E+02
    -45.672  0.0000E+00  0.2069E+03  0.9600E+02  0.9600E+02
    -45.431  0.0000E+00  0.0000E+00  0.9600E+02  0.9600E+02
    -45.190  0.0000E+00  0.0000E+00  0.9600E+02  0.9600E+02
    -44.950  0.0000E+00  0.0000E+00  0.9600E+02  0.9600E+02
    -44.709  0.0000E+00  0.0000E+00  0.9600E+02  0.9600E+02
    -44.468  0.0000E+00  0.0000E+00  0.9600E+02  0.9600E+02
    -44.227  0.0000E+00  0.0000E+00  0.9600E+02  0.9600E+02
    -43.986  0.0000E+00  0.0000E+00  0.9600E+02  0.9600E+02
    -43.745  0.0000E+00  0.0000E+00  0.9600E+02  0.9600E+02
    -43.505  0.0000E+00  0.0000E+00  0.9600E+02  0.9600E+02
    -43.264  0.0000E+00  0.0000E+00  0.9600E+02  0.9600E+02
    -43.023  0.0000E+00  0.0000E+00  0.9600E+02  0.9600E+02
    -42.782  0.0000E+00  0.0000E+00  0.9600E+02  0.9600E+02
    -42.541  0.0000E+00  0.0000E+00  0.9600E+02  0.9600E+02
    -42.300  0.0000E+00  0.0000E+00  0.9600E+02  0.9600E+02
    -42.060  0.0000E+00  0.0000E+00  0.9600E+02  0.9600E+02
    -41.819  0.0000E+00  0.0000E+00  0.9600E+02  0.9600E+02
    -41.578  0.0000E+00  0.0000E+00  0.9600E+02  0.9600E+02
    -41.337  0.0000E+00  0.0000E+00  0.9600E+02  0.9600E+02
    -41.096  0.0000E+00  0.0000E+00  0.9600E+02  0.9600E+02
    -40.855  0.0000E+00  0.0000E+00  0.9600E+02  0.9600E+02
    -40.615  0.0000E+00  0.0000E+00  0.9600E+02  0.9600E+02
    -40.374  0.0000E+00  0.0000E+00  0.9600E+02  0.9600E+02
    -40.133  0.1470E-11  0.9494E-12  0.9600E+02  0.9600E+02
    -39.892  0.1474E+02  0.1361E+02  0.9955E+02  0.9928E+02
    -39.651  0.5169E+02  0.5282E+02  0.1120E+03  0.1120E+03
    -39.410  0.0000E+00  0.0000E+00  0.1120E+03  0.1120E+03
    -39.170  0.0000E+00  0.0000E+00  0.1120E+03  0.1120E+03
    -38.929  0.0000E+00  0.0000E+00  0.1120E+03  0.1120E+03
    -38.688  0.0000E+00  0.0000E+00  0.1120E+03  0.1120E+03
    -38.447  0.0000E+00  0.0000E+00  0.1120E+03  0.1120E+03
    -38.206  0.0000E+00  0.0000E+00  0.1120E+03  0.1120E+03
    -37.965  0.0000E+00  0.0000E+00  0.1120E+03  0.1120E+03
    -37.725  0.0000E+00  0.0000E+00  0.1120E+03  0.1120E+03
    -37.484  0.0000E+00  0.0000E+00  0.1120E+03  0.1120E+03
    -37.243  0.0000E+00  0.0000E+00  0.1120E+03  0.1120E+03
    -37.002  0.0000E+00  0.0000E+00  0.1120E+03  0.1120E+03
    -36.761  0.0000E+00  0.0000E+00  0.1120E+03  0.1120E+03
    -36.520  0.0000E+00  0.0000E+00  0.1120E+03  0.1120E+03
    -36.280  0.0000E+00  0.0000E+00  0.1120E+03  0.1120E+03
    -36.039  0.0000E+00  0.0000E+00  0.1120E+03  0.1120E+03
    -35.798  0.0000E+00  0.0000E+00  0.1120E+03  0.1120E+03
    -35.557  0.0000E+00  0.0000E+00  0.1120E+03  0.1120E+03
    -35.316  0.0000E+00  0.0000E+00  0.1120E+03  0.1120E+03
    -35.075  0.0000E+00  0.0000E+00  0.1120E+03  0.1120E+03
    -34.835  0.0000E+00  0.0000E+00  0.1120E+03  0.1120E+03
    -34.594  0.0000E+00  0.0000E+00  0.1120E+03  0.1120E+03
    -34.353  0.0000E+00  0.0000E+00  0.1120E+03  0.1120E+03
    -34.112  0.0000E+00  0.0000E+00  0.1120E+03  0.1120E+03
    -33.871  0.0000E+00  0.0000E+00  0.1120E+03  0.1120E+03
    -33.631  0.0000E+00  0.0000E+00  0.1120E+03  0.1120E+03
    -33.390  0.0000E+00  0.0000E+00  0.1120E+03  0.1120E+03
    -33.149  0.0000E+00  0.0000E+00  0.1120E+03  0.1120E+03
    -32.908  0.0000E+00  0.0000E+00  0.1120E+03  0.1120E+03
    -32.667  0.0000E+00  0.0000E+00  0.1120E+03  0.1120E+03
    -32.426  0.0000E+00  0.0000E+00  0.1120E+03  0.1120E+03
    -32.186  0.0000E+00  0.0000E+00  0.1120E+03  0.1120E+03
    -31.945  0.0000E+00  0.0000E+00  0.1120E+03  0.1120E+03
    -31.704  0.0000E+00  0.0000E+00  0.1120E+03  0.1120E+03
    -31.463  0.0000E+00  0.0000E+00  0.1120E+03  0.1120E+03
    -31.222  0.0000E+00  0.0000E+00  0.1120E+03  0.1120E+03
    -30.981  0.0000E+00  0.0000E+00  0.1120E+03  0.1120E+03
    -30.741  0.0000E+00  0.0000E+00  0.1120E+03  0.1120E+03
    -30.500  0.0000E+00  0.0000E+00  0.1120E+03  0.1120E+03
    -30.259  0.0000E+00  0.0000E+00  0.1120E+03  0.1120E+03
    -30.018  0.0000E+00  0.0000E+00  0.1120E+03  0.1120E+03
    -29.777  0.0000E+00  0.0000E+00  0.1120E+03  0.1120E+03
    -29.536  0.0000E+00  0.0000E+00  0.1120E+03  0.1120E+03
    -29.296  0.0000E+00  0.0000E+00  0.1120E+03  0.1120E+03
    -29.055  0.0000E+00  0.0000E+00  0.1120E+03  0.1120E+03
    -28.814  0.0000E+00  0.0000E+00  0.1120E+03  0.1120E+03
    -28.573  0.0000E+00  0.0000E+00  0.1120E+03  0.1120E+03
    -28.332  0.0000E+00  0.0000E+00  0.1120E+03  0.1120E+03
    -28.091  0.0000E+00  0.0000E+00  0.1120E+03  0.1120E+03
    -27.851  0.0000E+00  0.0000E+00  0.1120E+03  0.1120E+03
    -27.610  0.0000E+00  0.0000E+00  0.1120E+03  0.1120E+03
    -27.369  0.0000E+00  0.0000E+00  0.1120E+03  0.1120E+03
    -27.128  0.0000E+00  0.0000E+00  0.1120E+03  0.1120E+03
    -26.887  0.0000E+00  0.0000E+00  0.1120E+03  0.1120E+03
    -26.646  0.0000E+00  0.0000E+00  0.1120E+03  0.1120E+03
    -26.406  0.0000E+00  0.0000E+00  0.1120E+03  0.1120E+03
    -26.165  0.0000E+00  0.0000E+00  0.1120E+03  0.1120E+03
    -25.924  0.0000E+00  0.0000E+00  0.1120E+03  0.1120E+03
    -25.683  0.0000E+00  0.0000E+00  0.1120E+03  0.1120E+03
    -25.442  0.0000E+00  0.0000E+00  0.1120E+03  0.1120E+03
    -25.201  0.0000E+00  0.0000E+00  0.1120E+03  0.1120E+03
    -24.961  0.0000E+00  0.0000E+00  0.1120E+03  0.1120E+03
    -24.720  0.0000E+00  0.0000E+00  0.1120E+03  0.1120E+03
    -24.479  0.0000E+00  0.0000E+00  0.1120E+03  0.1120E+03
    -24.238  0.0000E+00  0.0000E+00  0.1120E+03  0.1120E+03
    -23.997  0.0000E+00  0.0000E+00  0.1120E+03  0.1120E+03
    -23.756  0.0000E+00  0.0000E+00  0.1120E+03  0.1120E+03
    -23.516  0.0000E+00  0.0000E+00  0.1120E+03  0.1120E+03
    -23.275  0.0000E+00  0.0000E+00  0.1120E+03  0.1120E+03
    -23.034  0.0000E+00  0.0000E+00  0.1120E+03  0.1120E+03
    -22.793  0.0000E+00  0.0000E+00  0.1120E+03  0.1120E+03
    -22.552  0.0000E+00  0.0000E+00  0.1120E+03  0.1120E+03
    -22.311  0.0000E+00  0.0000E+00  0.1120E+03  0.1120E+03
    -22.071  0.0000E+00  0.0000E+00  0.1120E+03  0.1120E+03
    -21.830  0.0000E+00  0.0000E+00  0.1120E+03  0.1120E+03
    -21.589  0.0000E+00  0.0000E+00  0.1120E+03  0.1120E+03
    -21.348  0.0000E+00  0.0000E+00  0.1120E+03  0.1120E+03
    -21.107  0.0000E+00  0.0000E+00  0.1120E+03  0.1120E+03
    -20.866  0.0000E+00  0.0000E+00  0.1120E+03  0.1120E+03
    -20.626  0.0000E+00  0.0000E+00  0.1120E+03  0.1120E+03
    -20.385  0.0000E+00  0.0000E+00  0.1120E+03  0.1120E+03
    -20.144  0.0000E+00  0.0000E+00  0.1120E+03  0.1120E+03
    -19.903  0.0000E+00  0.0000E+00  0.1120E+03  0.1120E+03
    -19.662  0.0000E+00  0.0000E+00  0.1120E+03  0.1120E+03
    -19.421  0.0000E+00  0.0000E+00  0.1120E+03  0.1120E+03
    -19.181  0.0000E+00  0.0000E+00  0.1120E+03  0.1120E+03
    -18.940  0.0000E+00  0.0000E+00  0.1120E+03  0.1120E+03
    -18.699  0.0000E+00  0.0000E+00  0.1120E+03  0.1120E+03
    -18.458  0.0000E+00  0.0000E+00  0.1120E+03  0.1120E+03
    -18.217  0.0000E+00  0.0000E+00  0.1120E+03  0.1120E+03
    -17.976  0.0000E+00  0.0000E+00  0.1120E+03  0.1120E+03
    -17.736  0.0000E+00  0.0000E+00  0.1120E+03  0.1120E+03
    -17.495  0.0000E+00  0.0000E+00  0.1120E+03  0.1120E+03
    -17.254  0.0000E+00  0.0000E+00  0.1120E+03  0.1120E+03
    -17.013  0.0000E+00  0.0000E+00  0.1120E+03  0.1120E+03
    -16.772  0.0000E+00  0.0000E+00  0.1120E+03  0.1120E+03
    -16.531  0.0000E+00  0.0000E+00  0.1120E+03  0.1120E+03
    -16.291  0.0000E+00  0.0000E+00  0.1120E+03  0.1120E+03
    -16.050  0.0000E+00  0.0000E+00  0.1120E+03  0.1120E+03
    -15.809  0.0000E+00  0.0000E+00  0.1120E+03  0.1120E+03
    -15.568  0.0000E+00  0.0000E+00  0.1120E+03  0.1120E+03
    -15.327  0.0000E+00  0.0000E+00  0.1120E+03  0.1120E+03
    -15.087  0.0000E+00  0.0000E+00  0.1120E+03  0.1120E+03
    -14.846  0.0000E+00  0.0000E+00  0.1120E+03  0.1120E+03
    -14.605  0.0000E+00  0.0000E+00  0.1120E+03  0.1120E+03
    -14.364  0.0000E+00  0.0000E+00  0.1120E+03  0.1120E+03
    -14.123  0.0000E+00  0.0000E+00  0.1120E+03  0.1120E+03
    -13.882  0.0000E+00  0.0000E+00  0.1120E+03  0.1120E+03
    -13.642  0.0000E+00  0.0000E+00  0.1120E+03  0.1120E+03
    -13.401  0.7075E-06  0.0000E+00  0.1120E+03  0.1120E+03
    -13.160  0.1915E+02  0.0000E+00  0.1166E+03  0.1120E+03
    -12.919  0.4589E+02  0.8510E-02  0.1277E+03  0.1120E+03
    -12.678  0.1396E+01  0.4241E+02  0.1280E+03  0.1222E+03
    -12.437  0.0000E+00  0.2401E+02  0.1280E+03  0.1280E+03
    -12.197  0.0000E+00  0.0000E+00  0.1280E+03  0.1280E+03
    -11.956  0.0000E+00  0.0000E+00  0.1280E+03  0.1280E+03
    -11.715  0.0000E+00  0.0000E+00  0.1280E+03  0.1280E+03
    -11.474  0.0000E+00  0.0000E+00  0.1280E+03  0.1280E+03
    -11.233  0.0000E+00  0.0000E+00  0.1280E+03  0.1280E+03
    -10.992  0.0000E+00  0.0000E+00  0.1280E+03  0.1280E+03
    -10.752  0.0000E+00  0.0000E+00  0.1280E+03  0.1280E+03
    -10.511  0.0000E+00  0.0000E+00  0.1280E+03  0.1280E+03
    -10.270  0.0000E+00  0.0000E+00  0.1280E+03  0.1280E+03
    -10.029  0.0000E+00  0.0000E+00  0.1280E+03  0.1280E+03
     -9.788  0.0000E+00  0.0000E+00  0.1280E+03  0.1280E+03
     -9.547  0.0000E+00  0.0000E+00  0.1280E+03  0.1280E+03
     -9.307  0.0000E+00  0.0000E+00  0.1280E+03  0.1280E+03
     -9.066  0.0000E+00  0.0000E+00  0.1280E+03  0.1280E+03
     -8.825  0.0000E+00  0.0000E+00  0.1280E+03  0.1280E+03
     -8.584  0.0000E+00  0.0000E+00  0.1280E+03  0.1280E+03
     -8.343  0.0000E+00  0.0000E+00  0.1280E+03  0.1280E+03
     -8.102  0.0000E+00  0.0000E+00  0.1280E+03  0.1280E+03
     -7.862  0.7640E-10  0.0000E+00  0.1280E+03  0.1280E+03
     -7.621  0.5785E+00  0.1370E-10  0.1281E+03  0.1280E+03
     -7.380  0.1263E+02  0.5103E+00  0.1312E+03  0.1281E+03
     -7.139  0.3025E+02  0.1388E+02  0.1385E+03  0.1315E+03
     -6.898  0.3410E+02  0.2946E+02  0.1467E+03  0.1386E+03
     -6.657  0.2210E+02  0.2616E+02  0.1520E+03  0.1449E+03
     -6.417  0.2141E-04  0.2959E+02  0.1520E+03  0.1520E+03
     -6.176  0.0000E+00  0.5468E-01  0.1520E+03  0.1520E+03
     -5.935  0.0000E+00  0.0000E+00  0.1520E+03  0.1520E+03
     -5.694  0.0000E+00  0.0000E+00  0.1520E+03  0.1520E+03
     -5.453  0.0000E+00  0.0000E+00  0.1520E+03  0.1520E+03
     -5.212  0.0000E+00  0.0000E+00  0.1520E+03  0.1520E+03
     -4.972  0.0000E+00  0.0000E+00  0.1520E+03  0.1520E+03
     -4.731  0.0000E+00  0.0000E+00  0.1520E+03  0.1520E+03
     -4.490  0.0000E+00  0.0000E+00  0.1520E+03  0.1520E+03
     -4.249  0.0000E+00  0.0000E+00  0.1520E+03  0.1520E+03
     -4.008  0.0000E+00  0.0000E+00  0.1520E+03  0.1520E+03
     -3.767  0.0000E+00  0.0000E+00  0.1520E+03  0.1520E+03
     -3.527  0.0000E+00  0.0000E+00  0.1520E+03  0.1520E+03
     -3.286  0.0000E+00  0.0000E+00  0.1520E+03  0.1520E+03
     -3.045  0.0000E+00  0.0000E+00  0.1520E+03  0.1520E+03
     -2.804  0.0000E+00  0.0000E+00  0.1520E+03  0.1520E+03
     -2.563  0.0000E+00  0.0000E+00  0.1520E+03  0.1520E+03
     -2.322  0.0000E+00  0.0000E+00  0.1520E+03  0.1520E+03
     -2.082  0.2586E-04  0.0000E+00  0.1520E+03  0.1520E+03
     -1.841  0.1602E+02  0.0000E+00  0.1559E+03  0.1520E+03
     -1.600  0.1953E+02  0.0000E+00  0.1606E+03  0.1520E+03
     -1.359  0.1480E+02  0.0000E+00  0.1641E+03  0.1520E+03
     -1.118  0.1713E+02  0.0000E+00  0.1683E+03  0.1520E+03
     -0.877  0.4589E+02  0.0000E+00  0.1793E+03  0.1520E+03
     -0.637  0.5901E+02  0.9560E-06  0.1935E+03  0.1520E+03
     -0.396  0.3870E+02  0.4190E+01  0.2028E+03  0.1530E+03
     -0.155  0.6796E+02  0.2034E+02  0.2192E+03  0.1579E+03
      0.086  0.7371E+02  0.1224E+02  0.2370E+03  0.1609E+03
      0.327  0.7758E+02  0.1855E+02  0.2556E+03  0.1653E+03
      0.568  0.6987E+02  0.2957E+02  0.2725E+03  0.1724E+03
      0.808  0.5554E+02  0.3922E+02  0.2858E+03  0.1819E+03
      1.049  0.3641E+02  0.3731E+02  0.2946E+03  0.1909E+03
      1.290  0.3060E+02  0.3119E+02  0.3020E+03  0.1984E+03
      1.531  0.4507E+02  0.2074E+02  0.3128E+03  0.2034E+03
      1.772  0.4226E+02  0.2894E+02  0.3230E+03  0.2103E+03
      2.013  0.6889E+02  0.3693E+02  0.3396E+03  0.2192E+03
      2.253  0.5791E+02  0.2760E+02  0.3535E+03  0.2259E+03
      2.494  0.2681E+02  0.2702E+02  0.3600E+03  0.2324E+03
      2.735  0.4268E+02  0.3075E+02  0.3703E+03  0.2398E+03
      2.976  0.3012E+02  0.4439E+02  0.3775E+03  0.2505E+03
      3.217  0.8668E+01  0.4551E+02  0.3796E+03  0.2615E+03
      3.457  0.2794E+02  0.3214E+02  0.3864E+03  0.2692E+03
      3.698  0.2720E+02  0.1244E+02  0.3929E+03  0.2722E+03
      3.939  0.3092E+02  0.1773E+02  0.4003E+03  0.2765E+03
      4.180  0.3591E+02  0.5250E+02  0.4090E+03  0.2891E+03
      4.421  0.3636E+02  0.4489E+02  0.4178E+03  0.2999E+03
      4.662  0.3023E+02  0.1696E+02  0.4250E+03  0.3040E+03
      4.902  0.2578E+02  0.4846E-02  0.4312E+03  0.3040E+03
      5.143  0.3133E+01  0.0000E+00  0.4320E+03  0.3040E+03
      5.384  0.0000E+00  0.0000E+00  0.4320E+03  0.3040E+03
      5.625  0.0000E+00  0.0000E+00  0.4320E+03  0.3040E+03
      5.866  0.0000E+00  0.0000E+00  0.4320E+03  0.3040E+03
      6.107  0.0000E+00  0.3852E-09  0.4320E+03  0.3040E+03
      6.347  0.0000E+00  0.4001E+00  0.4320E+03  0.3041E+03
      6.588  0.0000E+00  0.4199E+01  0.4320E+03  0.3051E+03
      6.829  0.0000E+00  0.7876E+01  0.4320E+03  0.3070E+03
      7.070  0.7683E-15  0.1931E+02  0.4320E+03  0.3117E+03
      7.311  0.2719E-01  0.4420E+02  0.4320E+03  0.3223E+03
      7.552  0.1266E+00  0.5341E+02  0.4320E+03  0.3352E+03
      7.792  0.2488E+00  0.6329E+02  0.4321E+03  0.3504E+03
      8.033  0.7294E+00  0.6591E+02  0.4323E+03  0.3663E+03
      8.274  0.2130E+01  0.7012E+02  0.4328E+03  0.3832E+03
      8.515  0.2643E+01  0.5917E+02  0.4334E+03  0.3974E+03
      8.756  0.8901E+01  0.5868E+02  0.4356E+03  0.4115E+03
      8.997  0.1248E+02  0.4782E+02  0.4386E+03  0.4231E+03
      9.237  0.1310E+02  0.2987E+02  0.4417E+03  0.4303E+03
      9.478  0.1807E+02  0.8884E+01  0.4461E+03  0.4324E+03
      9.719  0.1626E+02  0.3024E+01  0.4500E+03  0.4331E+03
      9.960  0.1572E+02  0.8364E+01  0.4538E+03  0.4351E+03
     10.201  0.2248E+02  0.1868E+02  0.4592E+03  0.4396E+03
     10.442  0.1485E+02  0.1797E+02  0.4628E+03  0.4440E+03
     10.682  0.1532E+02  0.1718E+02  0.4665E+03  0.4481E+03
     10.923  0.1320E+02  0.2758E+02  0.4696E+03  0.4547E+03
     11.164  0.2063E+02  0.1897E+02  0.4746E+03  0.4593E+03
     11.405  0.2477E+02  0.2399E+02  0.4806E+03  0.4651E+03
     11.646  0.2723E+02  0.1480E+02  0.4871E+03  0.4687E+03
     11.887  0.2466E+02  0.1381E+02  0.4931E+03  0.4720E+03
     12.127  0.3347E+02  0.1606E+02  0.5011E+03  0.4759E+03
     12.368  0.1988E+02  0.3677E+02  0.5059E+03  0.4847E+03
     12.609  0.2306E+02  0.3265E+02  0.5115E+03  0.4926E+03
     12.850  0.2144E+02  0.2983E+02  0.5166E+03  0.4998E+03
     13.091  0.2026E+02  0.2025E+02  0.5215E+03  0.5046E+03
     13.332  0.2395E+02  0.2221E+02  0.5273E+03  0.5100E+03
     13.572  0.2431E+02  0.2723E+02  0.5331E+03  0.5165E+03
     13.813  0.1341E+02  0.2373E+02  0.5364E+03  0.5223E+03
     14.054  0.6771E+01  0.2627E+02  0.5380E+03  0.5286E+03
     14.295  0.1224E-02  0.1920E+02  0.5380E+03  0.5332E+03
     14.536  0.0000E+00  0.1669E+02  0.5380E+03  0.5372E+03
     14.777  0.0000E+00  0.3230E+01  0.5380E+03  0.5380E+03
     15.017  0.0000E+00  0.2244E-05  0.5380E+03  0.5380E+03
     15.258  0.0000E+00  0.0000E+00  0.5380E+03  0.5380E+03
     15.499  0.0000E+00  0.0000E+00  0.5380E+03  0.5380E+03
     15.740  0.0000E+00  0.0000E+00  0.5380E+03  0.5380E+03
     15.981  0.0000E+00  0.0000E+00  0.5380E+03  0.5380E+03
     16.222  0.0000E+00  0.0000E+00  0.5380E+03  0.5380E+03
     16.462  0.0000E+00  0.0000E+00  0.5380E+03  0.5380E+03
     16.703  0.0000E+00  0.0000E+00  0.5380E+03  0.5380E+03
     16.944  0.0000E+00  0.0000E+00  0.5380E+03  0.5380E+03
     17.185  0.0000E+00  0.0000E+00  0.5380E+03  0.5380E+03
     17.426  0.0000E+00  0.0000E+00  0.5380E+03  0.5380E+03
     17.667  0.0000E+00  0.0000E+00  0.5380E+03  0.5380E+03
     17.907  0.0000E+00  0.0000E+00  0.5380E+03  0.5380E+03
