 vasp.5.4.4.18Apr17-6-g9f103f2a35 (build Oct 25 2017 14:42:18) complex          
  
 executed on             LinuxIFC date 2021.06.02  18:51:02
 running on   24 total cores
 distrk:  each k-point on   12 cores,    2 groups
 distr:  one band on NCORES_PER_BAND=   6 cores,    2 groups


--------------------------------------------------------------------------------------------------------


 INCAR:
 POTCAR:    PAW_PBE Li_sv 10Sep2004               
 POTCAR:    PAW_PBE O 08Apr2002                   
 POTCAR:    PAW_PBE S 06Sep2000                   
 POTCAR:    PAW_PBE Fe_pv 02Aug2007               

 ----------------------------------------------------------------------------- 
|                                                                             |
|           W    W    AA    RRRRR   N    N  II  N    N   GGGG   !!!           |
|           W    W   A  A   R    R  NN   N  II  NN   N  G    G  !!!           |
|           W    W  A    A  R    R  N N  N  II  N N  N  G       !!!           |
|           W WW W  AAAAAA  RRRRR   N  N N  II  N  N N  G  GGG   !            |
|           WW  WW  A    A  R   R   N   NN  II  N   NN  G    G                |
|           W    W  A    A  R    R  N    N  II  N    N   GGGG   !!!           |
|                                                                             |
|      You have enabled k-point parallelism (KPAR>1).                         |
|      This developmental code was originally  written by Paul Kent at ORNL,  |
|      and carefully double checked in Vienna.                                |
|      GW as well as linear response parallelism added by Martijn Marsman     |
|      and Georg Kresse.                                                      |
|      Carefully verify results versus KPAR=1.                                |
|      Report problems to Paul Kent and Vienna.                               |
|                                                                             |
 ----------------------------------------------------------------------------- 

 POTCAR:    PAW_PBE Li_sv 10Sep2004               
  local pseudopotential read in
  atomic valenz-charges read in
  non local Contribution for L=           0  read in
    real space projection operators read in
  non local Contribution for L=           0  read in
    real space projection operators read in
  non local Contribution for L=           1  read in
    real space projection operators read in
    PAW grid and wavefunctions read in
 
   number of l-projection  operators is LMAX  =           3
   number of lm-projection operators is LMMAX =           5
 
 POTCAR:    PAW_PBE O 08Apr2002                   
  local pseudopotential read in
  partial core-charges read in
  partial kinetic energy density read in
  kinetic energy density of atom read in
  atomic valenz-charges read in
  non local Contribution for L=           0  read in
    real space projection operators read in
  non local Contribution for L=           0  read in
    real space projection operators read in
  non local Contribution for L=           1  read in
    real space projection operators read in
  non local Contribution for L=           1  read in
    real space projection operators read in
    PAW grid and wavefunctions read in
 
   number of l-projection  operators is LMAX  =           4
   number of lm-projection operators is LMMAX =           8
 
 POTCAR:    PAW_PBE S 06Sep2000                   
  local pseudopotential read in
  partial core-charges read in
  partial kinetic energy density read in
  atomic valenz-charges read in
  non local Contribution for L=           0  read in
    real space projection operators read in
  non local Contribution for L=           0  read in
    real space projection operators read in
  non local Contribution for L=           1  read in
    real space projection operators read in
  non local Contribution for L=           1  read in
    real space projection operators read in
    PAW grid and wavefunctions read in
 
   number of l-projection  operators is LMAX  =           4
   number of lm-projection operators is LMMAX =           8
 
 POTCAR:    PAW_PBE Fe_pv 02Aug2007               
  local pseudopotential read in
  partial core-charges read in
  partial kinetic energy density read in
  atomic valenz-charges read in
  non local Contribution for L=           1  read in
    real space projection operators read in
  non local Contribution for L=           1  read in
    real space projection operators read in
  non local Contribution for L=           2  read in
    real space projection operators read in
  non local Contribution for L=           2  read in
    real space projection operators read in
  non local Contribution for L=           0  read in
    real space projection operators read in
  non local Contribution for L=           0  read in
    real space projection operators read in
    PAW grid and wavefunctions read in
 
   number of l-projection  operators is LMAX  =           6
   number of lm-projection operators is LMMAX =          18
 

 ----------------------------------------------------------------------------- 
|                                                                             |
|  ADVICE TO THIS USER RUNNING 'VASP/VAMP'   (HEAR YOUR MASTER'S VOICE ...):  |
|                                                                             |
|      You have a (more or less) 'large supercell' and for larger cells       |
|      it might be more efficient to use real space projection opertators     |
|      So try LREAL= Auto  in the INCAR   file.                               |
|      Mind:          For very  accurate calculation you might also keep the  |
|      reciprocal projection scheme          (i.e. LREAL=.FALSE.)             |
|                                                                             |
 ----------------------------------------------------------------------------- 

  PAW_PBE Li_sv 10Sep2004               :
 energy of atom  1       EATOM= -202.7858
 kinetic energy error for atom=    0.0072 (will be added to EATOM!!)
  PAW_PBE O 08Apr2002                   :
 energy of atom  2       EATOM= -432.3788
 kinetic energy error for atom=    0.0129 (will be added to EATOM!!)
  PAW_PBE S 06Sep2000                   :
 energy of atom  3       EATOM= -276.8230
 kinetic energy error for atom=    0.0008 (will be added to EATOM!!)
  PAW_PBE Fe_pv 02Aug2007               :
 energy of atom  4       EATOM=-2457.4239
 kinetic energy error for atom=    0.0041 (will be added to EATOM!!)
 
 
 POSCAR: # Compound: Li16O16S24Fe32. Old comment:
  positions in direct lattice
  No initial velocities read in
 exchange correlation table for  LEXCH =        8
   RHO(1)=    0.500       N(1)  =     2000
   RHO(2)=  100.500       N(2)  =     4000
 


--------------------------------------------------------------------------------------------------------


 ion  position               nearest neighbor table
   1  0.289  0.469  0.156-  27 2.00  29 2.00  55 2.53  49 2.53
   2  0.789  0.469  0.156-  28 2.00  30 2.00  56 2.53  50 2.53
   3  0.289  0.969  0.156-  25 2.00  31 2.00  53 2.53  51 2.53
   4  0.789  0.969  0.156-  26 2.00  32 2.00  54 2.53  52 2.53
   5  0.046  0.219  0.186-  30 1.98  25 1.98
   6  0.546  0.219  0.186-  29 1.98  26 1.98
   7  0.046  0.719  0.186-  32 1.98  27 1.98
   8  0.546  0.719  0.186-  31 1.98  28 1.98
   9  0.454  0.469  0.814-  20 1.98  21 1.98
  10  0.954  0.469  0.814-  19 1.98  22 1.98
  11  0.454  0.969  0.814-  18 1.98  23 1.98
  12  0.954  0.969  0.814-  17 1.98  24 1.98
  13  0.211  0.219  0.844-  21 2.00  17 2.00  49 2.53  53 2.53
  14  0.711  0.219  0.844-  22 2.00  18 2.00  50 2.53  54 2.53
  15  0.211  0.719  0.844-  23 2.00  19 2.00  51 2.53  55 2.53
  16  0.711  0.719  0.844-  24 2.00  20 2.00  52 2.53  56 2.53
  17  0.077  0.095  0.803-  12 1.98  13 2.00  57 2.01  83 2.01  86 2.01
  18  0.577  0.095  0.803-  11 1.98  14 2.00  58 2.01  84 2.01  85 2.01
  19  0.077  0.595  0.803-  10 1.98  15 2.00  59 2.01  81 2.01  88 2.01
  20  0.577  0.595  0.803-   9 1.98  16 2.00  60 2.01  82 2.01  87 2.01
  21  0.325  0.343  0.803-   9 1.98  13 2.00  61 2.01  81 2.01  85 2.01
  22  0.825  0.343  0.803-  10 1.98  14 2.00  62 2.01  82 2.01  86 2.01
  23  0.325  0.843  0.803-  11 1.98  15 2.00  63 2.01  83 2.01  87 2.01
  24  0.825  0.843  0.803-  12 1.98  16 2.00  64 2.01  84 2.01  88 2.01
  25  0.175  0.093  0.197-   5 1.98   3 2.00  65 2.01  77 2.01  75 2.01
  26  0.675  0.093  0.197-   6 1.98   4 2.00  66 2.01  78 2.01  76 2.01
  27  0.175  0.593  0.197-   7 1.98   1 2.00  67 2.01  79 2.01  73 2.02
  28  0.675  0.593  0.197-   8 1.98   2 2.00  68 2.01  80 2.01  74 2.01
  29  0.423  0.345  0.197-   6 1.98   1 2.00  69 2.01  77 2.01  74 2.01
  30  0.923  0.345  0.197-   5 1.98   2 2.00  73 2.01  70 2.01  78 2.01
  31  0.423  0.845  0.197-   8 1.98   3 2.00  71 2.01  79 2.01  76 2.01
  32  0.923  0.845  0.197-   7 1.98   4 2.00  72 2.01  80 2.01  75 2.01
  33  0.219  0.345  0.371-  61 2.41  67 2.65  69 2.65
  34  0.719  0.345  0.371-  62 2.41  68 2.65  70 2.65
  35  0.219  0.845  0.371-  63 2.41  65 2.65  71 2.65
  36  0.719  0.845  0.371-  64 2.41  66 2.65  72 2.65
  37  0.467  0.093  0.371-  58 2.41  71 2.65  65 2.65
  38  0.967  0.093  0.371-  57 2.41  72 2.65  66 2.65
  39  0.467  0.593  0.371-  60 2.41  69 2.65  67 2.65
  40  0.967  0.593  0.371-  59 2.41  70 2.65  68 2.65
  41  0.033  0.343  0.629-  70 2.41  57 2.65  61 2.65
  42  0.533  0.343  0.629-  69 2.41  58 2.65  62 2.65
  43  0.033  0.843  0.629-  72 2.41  59 2.65  63 2.65
  44  0.533  0.843  0.629-  71 2.41  60 2.65  64 2.65
  45  0.281  0.095  0.629-  65 2.41  61 2.65  57 2.65
  46  0.781  0.095  0.629-  66 2.41  62 2.65  58 2.65
  47  0.281  0.595  0.629-  67 2.41  63 2.65  59 2.65
  48  0.781  0.595  0.629-  68 2.41  64 2.65  60 2.65
  49  0.124  0.344  0.000-  86 2.51  73 2.52  81 2.52  77 2.52  13 2.53   1 2.53
  50  0.624  0.344  0.000-  74 2.51  85 2.51  82 2.52  78 2.52  14 2.53   2 2.53
  51  0.124  0.844  0.000-  75 2.51  88 2.51  83 2.52  79 2.52  15 2.53   3 2.53
  52  0.624  0.844  0.000-  76 2.51  87 2.51  84 2.52  80 2.52  16 2.53   4 2.53
  53  0.376  0.094  1.000-  85 2.51  76 2.51  77 2.52  83 2.52   3 2.53  13 2.53
  54  0.876  0.094  1.000-  86 2.51  75 2.51  78 2.52  84 2.52   4 2.53  14 2.53
  55  0.376  0.594  1.000-  87 2.51  74 2.51  79 2.52  81 2.52   1 2.53  15 2.53
  56  0.876  0.594  1.000-  73 2.51  88 2.51  80 2.52  82 2.52   2 2.53  16 2.53
  57  0.038  0.106  0.606-  17 2.01  38 2.41  41 2.65  45 2.65
  58  0.538  0.106  0.606-  18 2.01  37 2.41  42 2.65  46 2.65
  59  0.038  0.606  0.606-  19 2.01  40 2.41  43 2.65  47 2.65
  60  0.538  0.606  0.606-  20 2.01  39 2.41  44 2.65  48 2.65
  61  0.265  0.332  0.606-  21 2.01  33 2.41  45 2.65  41 2.65
  62  0.765  0.332  0.606-  22 2.01  34 2.41  46 2.65  42 2.65
  63  0.265  0.832  0.606-  23 2.01  35 2.41  47 2.65  43 2.65
  64  0.765  0.832  0.606-  24 2.01  36 2.41  48 2.65  44 2.65
  65  0.235  0.082  0.394-  25 2.01  45 2.41  35 2.65  37 2.65
  66  0.735  0.082  0.394-  26 2.01  46 2.41  36 2.65  38 2.65
  67  0.235  0.582  0.394-  27 2.01  47 2.41  33 2.65  39 2.65
  68  0.735  0.582  0.394-  28 2.01  48 2.41  34 2.65  40 2.65
  69  0.462  0.356  0.394-  29 2.01  42 2.41  39 2.65  33 2.65
  70  0.962  0.356  0.394-  30 2.01  41 2.41  40 2.65  34 2.65
  71  0.462  0.856  0.394-  31 2.01  44 2.41  37 2.65  35 2.65
  72  0.962  0.856  0.394-  32 2.01  43 2.41  38 2.65  36 2.65
  73  0.038  0.469  0.154-  30 2.01  27 2.02  56 2.51  49 2.52
  74  0.538  0.469  0.154-  29 2.01  28 2.01  50 2.51  55 2.51
  75  0.038  0.969  0.154-  32 2.01  25 2.01  51 2.51  54 2.51
  76  0.538  0.969  0.154-  31 2.01  26 2.01  52 2.51  53 2.51
  77  0.289  0.219  0.154-  25 2.01  29 2.01  53 2.52  49 2.52
  78  0.789  0.219  0.154-  26 2.01  30 2.01  54 2.52  50 2.52
  79  0.289  0.719  0.154-  27 2.01  31 2.01  55 2.52  51 2.52
  80  0.789  0.719  0.154-  28 2.01  32 2.01  56 2.52  52 2.52
  81  0.211  0.469  0.846-  21 2.01  19 2.01  49 2.52  55 2.52
  82  0.711  0.469  0.846-  22 2.01  20 2.01  50 2.52  56 2.52
  83  0.211  0.969  0.846-  23 2.01  17 2.01  51 2.52  53 2.52
  84  0.711  0.969  0.846-  24 2.01  18 2.01  52 2.52  54 2.52
  85  0.462  0.219  0.846-  18 2.01  21 2.01  53 2.51  50 2.51
  86  0.962  0.219  0.846-  17 2.01  22 2.01  54 2.51  49 2.51
  87  0.462  0.719  0.846-  20 2.01  23 2.01  55 2.51  52 2.51
  88  0.962  0.719  0.846-  19 2.01  24 2.01  56 2.51  51 2.51
 

IMPORTANT INFORMATION: All symmetrisations will be switched off!
NOSYMM: (Re-)initialisation of all symmetry stuff for point group C_1.

 
 
 KPOINTS: # No comment                            

Automatic generation of k-mesh.
Space group operators:
 irot       det(A)        alpha          n_x          n_y          n_z        tau_x        tau_y        tau_z
    1     1.000000     0.000000     1.000000     0.000000     0.000000     0.000000     0.000000     0.000000
 
 Subroutine IBZKPT returns following result:
 ===========================================
 
 Found     14 irreducible k-points:
 
 Following reciprocal coordinates:
            Coordinates               Weight
  0.000000  0.000000  0.000000      1.000000
  0.333333  0.000000  0.000000      2.000000
  0.000000  0.333333  0.000000      2.000000
  0.333333  0.333333  0.000000      2.000000
 -0.333333  0.333333 -0.000000      2.000000
  0.000000  0.000000  0.333333      2.000000
  0.333333  0.000000  0.333333      2.000000
 -0.333333  0.000000  0.333333      2.000000
  0.000000  0.333333  0.333333      2.000000
  0.333333  0.333333  0.333333      2.000000
 -0.333333  0.333333  0.333333      2.000000
  0.000000 -0.333333  0.333333      2.000000
  0.333333 -0.333333  0.333333      2.000000
 -0.333333 -0.333333  0.333333      2.000000
 
 Following cartesian coordinates:
            Coordinates               Weight
  0.000000  0.000000  0.000000      1.000000
  0.029997  0.000000  0.008162      2.000000
  0.000000  0.029983  0.000000      2.000000
  0.029997  0.029983  0.008162      2.000000
 -0.029997  0.029983 -0.008162      2.000000
  0.000001  0.000000  0.032684      2.000000
  0.029998  0.000000  0.040846      2.000000
 -0.029996  0.000000  0.024522      2.000000
  0.000001  0.029983  0.032684      2.000000
  0.029998  0.029983  0.040846      2.000000
 -0.029996  0.029983  0.024522      2.000000
  0.000001 -0.029983  0.032684      2.000000
  0.029998 -0.029983  0.040846      2.000000
 -0.029996 -0.029983  0.024522      2.000000
 


--------------------------------------------------------------------------------------------------------




 Dimension of arrays:
   k-points           NKPTS =     14   k-points in BZ     NKDIM =     14   number of bands    NBANDS=    538
   number of dos      NEDOS =    301   number of ions     NIONS =     88
   non local maximal  LDIM  =      6   non local SUM 2l+1 LMDIM =     18
   total plane-waves  NPLWV = 829440
   max r-space proj   IRMAX =      1   max aug-charges    IRDMAX= 166102
   dimension x,y,z NGX =    96 NGY =   96 NGZ =   90
   dimension x,y,z NGXF=   192 NGYF=  192 NGZF=  180
   support grid    NGXF=   384 NGYF=  384 NGZF=  360
   ions per type =              16  16  24  32
   NGX,Y,Z   is equivalent  to a cutoff of  14.36, 14.36, 14.16 a.u.
   NGXF,Y,Z  is equivalent  to a cutoff of  28.72, 28.71, 28.31 a.u.

 SYSTEM =  unknown system                          
 POSCAR =  # Compound: Li16O16S24Fe32. Old comment:

 Startparameter for this run:
   NWRITE =      1    write-flag & timer
   PREC   = accura    normal or accurate (medium, high low for compatibility)
   ISTART =      0    job   : 0-new  1-cont  2-samecut
   ICHARG =      1    charge: 1-file 2-atom 10-const
   ISPIN  =      2    spin polarized calculation?
   LNONCOLLINEAR =      F non collinear calculations
   LSORBIT =      F    spin-orbit coupling
   INIWAV =      1    electr: 0-lowe 1-rand  2-diag
   LASPH  =      T    aspherical Exc in radial PAW
   METAGGA=      F    non-selfconsistent MetaGGA calc.

 Electronic Relaxation 1
   ENCUT  =  650.0 eV  47.77 Ry    6.91 a.u.  23.10 23.11 21.97*2*pi/ulx,y,z
   ENINI  =  650.0     initial cutoff
   ENAUG  =  628.9 eV  augmentation charge cutoff
   NELM   =    200;   NELMIN=  8; NELMDL=  0     # of ELM steps 
   EDIFF  = 0.1E-05   stopping-criterion for ELM
   LREAL  =      F    real-space projection
   NLSPLINE    = F    spline interpolate recip. space projectors
   LCOMPAT=      F    compatible to vasp.4.4
   GGA_COMPAT  = T    GGA compatible to vasp.4.4-vasp.4.6
   LMAXPAW     = -100 max onsite density
   LMAXMIX     =    4 max onsite mixed and CHGCAR
   VOSKOWN=      0    Vosko Wilk Nusair interpolation
   ROPT   =    0.00000   0.00000   0.00000   0.00000
 Ionic relaxation
   EDIFFG = 0.1E-04   stopping-criterion for IOM
   NSW    =      0    number of steps for IOM
   NBLOCK =      1;   KBLOCK =      1    inner block; outer block 
   IBRION =     -1    ionic relax: 0-MD 1-quasi-New 2-CG
   NFREE  =      0    steps in history (QN), initial steepest desc. (CG)
   ISIF   =      2    stress and relaxation
   IWAVPR =     10    prediction:  0-non 1-charg 2-wave 3-comb
   ISYM   =      0    0-nonsym 1-usesym 2-fastsym
   LCORR  =      T    Harris-Foulkes like correction to forces

   POTIM  = 0.5000    time-step for ionic-motion
   TEIN   =    0.0    initial temperature
   TEBEG  =    0.0;   TEEND  =   0.0 temperature during run
   SMASS  =  -3.00    Nose mass-parameter (am)
   estimated Nose-frequenzy (Omega)   =  0.10E-29 period in steps =****** mass=  -0.282E-26a.u.
   SCALEE = 1.0000    scale energy and forces
   NPACO  =    256;   APACO  = 16.0  distance and # of slots for P.C.
   PSTRESS=    0.0 pullay stress

  Mass of Ions in am
   POMASS =   7.01 16.00 32.07 55.85
  Ionic Valenz
   ZVAL   =   3.00  6.00  6.00 14.00
  Atomic Wigner-Seitz radii
   RWIGS  =  -1.00 -1.00 -1.00 -1.00
  virtual crystal weights 
   VCA    =   1.00  1.00  1.00  1.00
   NELECT =     736.0000    total number of electrons
   NUPDOWN=      -1.0000    fix difference up-down

 DOS related values:
   EMIN   =  10.00;   EMAX   =-10.00  energy-range for DOS
   EFERMI =   0.00
   ISMEAR =     0;   SIGMA  =   0.05  broadening in eV -4-tet -1-fermi 0-gaus

 Electronic relaxation 2 (details)
   IALGO  =     38    algorithm
   LDIAG  =      T    sub-space diagonalisation (order eigenvalues)
   LSUBROT=      F    optimize rotation matrix (better conditioning)
   TURBO    =      0    0=normal 1=particle mesh
   IRESTART =      0    0=no restart 2=restart with 2 vectors
   NREBOOT  =      0    no. of reboots
   NMIN     =      0    reboot dimension
   EREF     =   0.00    reference energy to select bands
   IMIX   =      4    mixing-type and parameters
     AMIX     =   0.40;   BMIX     =  1.00
     AMIX_MAG =   1.60;   BMIX_MAG =  1.00
     AMIN     =   0.10
     WC   =   100.;   INIMIX=   1;  MIXPRE=   1;  MAXMIX= -45

 Intra band minimization:
   WEIMIN = 0.0000     energy-eigenvalue tresh-hold
   EBREAK =  0.46E-09  absolut break condition
   DEPER  =   0.30     relativ break condition  

   TIME   =   0.40     timestep for ELM

  volume/ion in A,a.u.               =      14.32        96.62
  Fermi-wavevector in a.u.,A,eV,Ry     =   1.368520  2.586127 25.481613  1.872846
  Thomas-Fermi vector in A             =   2.494476
 
 Write flags
   LWAVE        =      F    write WAVECAR
   LDOWNSAMPLE  =      F    k-point downsampling of WAVECAR
   LCHARG       =      T    write CHGCAR
   LVTOT        =      F    write LOCPOT, total local potential
   LVHAR        =      F    write LOCPOT, Hartree potential only
   LELF         =      F    write electronic localiz. function (ELF)
   LORBIT       =      0    0 simple, 1 ext, 2 COOP (PROOUT), +10 PAW based schemes


 Dipole corrections
   LMONO  =      F    monopole corrections only (constant potential shift)
   LDIPOL =      F    correct potential (dipole corrections)
   IDIPOL =      0    1-x, 2-y, 3-z, 4-all directions 
   EPSILON=  1.0000000 bulk dielectric constant

 LDA+U is selected, type is set to LDAUTYPE =  2
   angular momentum for each species LDAUL =    -1   -1   -1    2
   U (eV)           for each species LDAUU =   0.0  0.0  0.0  4.0
   J (eV)           for each species LDAUJ =   0.0  0.0  0.0  0.0
 Exchange correlation treatment:
   GGA     =    PE    GGA type
   LEXCH   =     8    internal setting for exchange type
   VOSKOWN=      0    Vosko Wilk Nusair interpolation
   LHFCALC =     F    Hartree Fock is set to
   LHFONE  =     F    Hartree Fock one center treatment
   AEXX    =    0.0000 exact exchange contribution

 Linear response parameters
   LEPSILON=     F    determine dielectric tensor
   LRPA    =     F    only Hartree local field effects (RPA)
   LNABLA  =     F    use nabla operator in PAW spheres
   LVEL    =     F    velocity operator in full k-point grid
   LINTERFAST=   F  fast interpolation
   KINTER  =     0    interpolate to denser k-point grid
   CSHIFT  =0.1000    complex shift for real part using Kramers Kronig
   OMEGAMAX=  -1.0    maximum frequency
   DEG_THRESHOLD= 0.2000000E-02 threshold for treating states as degnerate
   RTIME   =   -0.100 relaxation time in fs
  (WPLASMAI=    0.000 imaginary part of plasma frequency in eV, 0.658/RTIME)
   DFIELD  = 0.0000000 0.0000000 0.0000000 field for delta impulse in time
 
 Orbital magnetization related:
   ORBITALMAG=     F  switch on orbital magnetization
   LCHIMAG   =     F  perturbation theory with respect to B field
   DQ        =  0.001000  dq finite difference perturbation B field
   LLRAUG    =     F  two centre corrections for induced B field



--------------------------------------------------------------------------------------------------------


 Static calculation
 charge density and potential will be updated during run
 spin polarized calculation
 Variant of blocked Davidson
 Davidson routine will perform the subspace rotation
 perform sub-space diagonalisation
    after iterative eigenvector-optimisation
 modified Broyden-mixing scheme, WC =      100.0
 initial mixing is a Kerker type mixing with AMIX =  0.4000 and BMIX =      1.0000
 Hartree-type preconditioning will be used
 using additional bands          170
 reciprocal scheme for non local part
 use partial core corrections
 calculate Harris-corrections to forces 
   (improved forces if not selfconsistent)
 use gradient corrections 
 use of overlap-Matrix (Vanderbilt PP)
 Gauss-broadening in eV      SIGMA  =   0.05


--------------------------------------------------------------------------------------------------------


  energy-cutoff  :      650.00
  volume of cell :     1259.94
      direct lattice vectors                 reciprocal lattice vectors
    11.112233740  0.000000000 -0.000290340     0.089991547  0.000000000  0.024487024
     0.000000000 11.117451940  0.000000000     0.000000000  0.089948669  0.000000000
    -2.775108980  0.000000000 10.198722210     0.000002562  0.000000000  0.098052196

  length of vectors
    11.112233744 11.117451940 10.569539468     0.093263567  0.089948669  0.098052196


 
 k-points in units of 2pi/SCALE and weight: # No comment                            
   0.00000000  0.00000000  0.00000000       0.037
   0.02999718  0.00000000  0.00816234       0.074
   0.00000000  0.02998289  0.00000000       0.074
   0.02999718  0.02998289  0.00816234       0.074
  -0.02999718  0.02998289 -0.00816234       0.074
   0.00000085  0.00000000  0.03268407       0.074
   0.02999804  0.00000000  0.04084641       0.074
  -0.02999633  0.00000000  0.02452172       0.074
   0.00000085  0.02998289  0.03268407       0.074
   0.02999804  0.02998289  0.04084641       0.074
  -0.02999633  0.02998289  0.02452172       0.074
   0.00000085 -0.02998289  0.03268407       0.074
   0.02999804 -0.02998289  0.04084641       0.074
  -0.02999633 -0.02998289  0.02452172       0.074
 
 k-points in reciprocal lattice and weights: # No comment                            
   0.00000000  0.00000000  0.00000000       0.037
   0.33333333  0.00000000  0.00000000       0.074
   0.00000000  0.33333333  0.00000000       0.074
   0.33333333  0.33333333  0.00000000       0.074
  -0.33333333  0.33333333 -0.00000000       0.074
   0.00000000  0.00000000  0.33333333       0.074
   0.33333333  0.00000000  0.33333333       0.074
  -0.33333333  0.00000000  0.33333333       0.074
   0.00000000  0.33333333  0.33333333       0.074
   0.33333333  0.33333333  0.33333333       0.074
  -0.33333333  0.33333333  0.33333333       0.074
   0.00000000 -0.33333333  0.33333333       0.074
   0.33333333 -0.33333333  0.33333333       0.074
  -0.33333333 -0.33333333  0.33333333       0.074
 
 position of ions in fractional coordinates (direct lattice) 
   0.28894969  0.46933910  0.15583616
   0.78894969  0.46933910  0.15583616
   0.28894969  0.96933910  0.15583616
   0.78894969  0.96933910  0.15583616
   0.04646972  0.21934976  0.18586770
   0.54646972  0.21934976  0.18586770
   0.04646972  0.71934976  0.18586770
   0.54646972  0.71934976  0.18586770
   0.45353028  0.46934976  0.81413230
   0.95353028  0.46934976  0.81413230
   0.45353028  0.96934976  0.81413230
   0.95353028  0.96934976  0.81413230
   0.21105031  0.21933910  0.84416384
   0.71105031  0.21933910  0.84416384
   0.21105031  0.71933910  0.84416384
   0.71105031  0.71933910  0.84416384
   0.07654971  0.09530995  0.80250593
   0.57654971  0.09530995  0.80250593
   0.07654971  0.59530995  0.80250593
   0.57654971  0.59530995  0.80250593
   0.32470466  0.34338175  0.80250383
   0.82470466  0.34338175  0.80250383
   0.32470466  0.84338175  0.80250383
   0.82470466  0.84338175  0.80250383
   0.17529534  0.09338175  0.19749617
   0.67529534  0.09338175  0.19749617
   0.17529534  0.59338175  0.19749617
   0.67529534  0.59338175  0.19749617
   0.42345029  0.34530995  0.19749407
   0.92345029  0.34530995  0.19749407
   0.42345029  0.84530995  0.19749407
   0.92345029  0.84530995  0.19749407
   0.21868463  0.34523395  0.37102476
   0.71868463  0.34523395  0.37102476
   0.21868463  0.84523395  0.37102476
   0.71868463  0.84523395  0.37102476
   0.46681660  0.09344897  0.37102399
   0.96681660  0.09344897  0.37102399
   0.46681660  0.59344897  0.37102399
   0.96681660  0.59344897  0.37102399
   0.03318340  0.34344897  0.62897601
   0.53318340  0.34344897  0.62897601
   0.03318340  0.84344897  0.62897601
   0.53318340  0.84344897  0.62897601
   0.28131537  0.09523395  0.62897524
   0.78131537  0.09523395  0.62897524
   0.28131537  0.59523395  0.62897524
   0.78131537  0.59523395  0.62897524
   0.12439279  0.34434306  0.00000412
   0.62439279  0.34434306  0.00000412
   0.12439279  0.84434306  0.00000412
   0.62439279  0.84434306  0.00000412
   0.37560721  0.09434306  0.99999588
   0.87560721  0.09434306  0.99999588
   0.37560721  0.59434306  0.99999588
   0.87560721  0.59434306  0.99999588
   0.03824426  0.10634799  0.60632306
   0.53824426  0.10634799  0.60632306
   0.03824426  0.60634799  0.60632306
   0.53824426  0.60634799  0.60632306
   0.26492712  0.33232651  0.60632763
   0.76492712  0.33232651  0.60632763
   0.26492712  0.83232651  0.60632763
   0.76492712  0.83232651  0.60632763
   0.23507288  0.08232651  0.39367237
   0.73507288  0.08232651  0.39367237
   0.23507288  0.58232651  0.39367237
   0.73507288  0.58232651  0.39367237
   0.46175574  0.35634799  0.39367694
   0.96175574  0.35634799  0.39367694
   0.46175574  0.85634799  0.39367694
   0.96175574  0.85634799  0.39367694
   0.03758407  0.46936404  0.15397331
   0.53848398  0.46936404  0.15397331
   0.03848398  0.96936404  0.15397331
   0.53848398  0.96936404  0.15397331
   0.28861657  0.21935690  0.15447525
   0.78861657  0.21935690  0.15447525
   0.28861657  0.71935690  0.15447525
   0.78861657  0.71935690  0.15447525
   0.21138343  0.46935690  0.84552475
   0.71138343  0.46935690  0.84552475
   0.21138343  0.96935690  0.84552475
   0.71138343  0.96935690  0.84552475
   0.46151602  0.21936404  0.84602669
   0.96151602  0.21936404  0.84602669
   0.46151602  0.71936404  0.84602669
   0.96151602  0.71936404  0.84602669
 
 position of ions in cartesian coordinates  (Angst):
   2.77841422  5.21785483  1.58924581
   8.33453109  5.21785483  1.58910064
   2.77841422 10.77658080  1.58924581
   8.33453109 10.77658080  1.58910064
   0.00057921  2.43861041  1.89559955
   5.55669608  2.43861041  1.89545438
   0.00057921  7.99733638  1.89559955
   5.55669608  7.99733638  1.89545438
   2.78042868  5.21797340  8.30297749
   8.33654555  5.21797340  8.30283232
   2.78042868 10.77669937  8.30297749
   8.33654555 10.77669937  8.30283232
   0.00259367  2.43849185  8.60933123
   5.55871054  2.43849185  8.60918606
   0.00259367  7.99721782  8.60933123
   5.55871054  7.99721782  8.60918606
  -1.37640314  1.05960384  8.18451283
   4.17971373  1.05960384  8.18436766
  -1.37640314  6.61832981  8.18451283
   4.17971373  6.61832981  8.18436766
   1.38115855  3.81753010  8.18441936
   6.93727542  3.81753010  8.18427419
   1.38115855  9.37625607  8.18441936
   6.93727542  9.37625607  8.18427419
   1.39984934  1.03816712  2.01415768
   6.95596621  1.03816712  2.01401251
   1.39984934  6.59689309  2.01415768
   6.95596621  6.59689309  2.01401251
   4.15741103  3.83896683  2.01406421
   9.71352790  3.83896683  2.01391904
   4.15741103  9.39769280  2.01406421
   9.71352790  9.39769280  2.01391904
   1.40044058  3.83812185  3.78391497
   6.95655745  3.83812185  3.78376980
   1.40044058  9.39684782  3.78391497
   6.95655745  9.39684782  3.78376980
   4.15774317  1.03891443  3.78383507
   9.71386004  1.03891443  3.78368990
   4.15774317  6.59764040  3.78383507
   9.71386004  6.59764040  3.78368990
  -1.37673528  3.81827742  6.41474197
   4.17938159  3.81827742  6.41459680
  -1.37673528  9.37700339  6.41474197
   4.17938159  9.37700339  6.41459680
   1.38056731  1.05875886  6.41466207
   6.93668418  1.05875886  6.41451690
   1.38056731  6.61748483  6.41466207
   6.93668418  6.61748483  6.41451690
   1.38227032  3.82821742  0.00000590
   6.93838719  3.82821742 -0.00013927
   1.38227032  9.38694339  0.00000590
   6.93838719  9.38694339 -0.00013927
   1.39873757  1.04885444 10.19857114
   6.95485444  1.04885444 10.19842597
   1.39873757  6.60758041 10.19857114
   6.95485444  6.60758041 10.19842597
  -1.25763347  1.18231867  6.18370935
   4.29848340  1.18231867  6.18356418
  -1.25763347  6.74104464  6.18370935
   4.29848340  6.74104464  6.18356418
   1.26130689  3.69462400  6.18369015
   6.81742376  3.69462400  6.18354498
   1.26130689  9.25334997  6.18369015
   6.81742376  9.25334997  6.18354498
   1.51970100  0.91526102  4.01488689
   7.07581787  0.91526102  4.01474172
   1.51970100  6.47398699  4.01488689
   7.07581787  6.47398699  4.01474172
   4.03864136  3.96168165  4.01486769
   9.59475823  3.96168165  4.01472252
   4.03864136  9.52040762  4.01486769
   9.59475823  9.52040762  4.01472252
  -0.00964973  5.21813216  1.57032010
   5.55646714  5.21813216  1.57017467
   0.00035027 10.77685813  1.57031984
   5.55646714 10.77685813  1.57017467
   2.77848919  2.43868979  1.57536637
   8.33460606  2.43868979  1.57522120
   2.77848919  7.99741576  1.57536637
   8.33460606  7.99741576  1.57522120
   0.00251870  5.21805278  8.62321067
   5.55863557  5.21805278  8.62306550
   0.00251870 10.77677875  8.62321067
   5.55863557 10.77677875  8.62306550
   2.78065762  2.43876917  8.62825720
   8.33677449  2.43876917  8.62811203
   2.78065762  7.99749514  8.62825720
   8.33677449  7.99749514  8.62811203
 


--------------------------------------------------------------------------------------------------------


 k-point  1 :   0.0000 0.0000 0.0000  plane waves:   47369
 k-point  2 :   0.3333 0.0000 0.0000  plane waves:   47373
 k-point  3 :   0.0000 0.3333 0.0000  plane waves:   47370
 k-point  4 :   0.3333 0.3333 0.0000  plane waves:   47404
 k-point  5 :  -0.3333 0.3333-0.0000  plane waves:   47404
 k-point  6 :   0.0000 0.0000 0.3333  plane waves:   47419
 k-point  7 :   0.3333 0.0000 0.3333  plane waves:   47399
 k-point  8 :  -0.3333 0.0000 0.3333  plane waves:   47417
 k-point  9 :   0.0000 0.3333 0.3333  plane waves:   47409
 k-point 10 :   0.3333 0.3333 0.3333  plane waves:   47422
 k-point 11 :  -0.3333 0.3333 0.3333  plane waves:   47440
 k-point 12 :   0.0000-0.3333 0.3333  plane waves:   47409
 k-point 13 :   0.3333-0.3333 0.3333  plane waves:   47422
 k-point 14 :  -0.3333-0.3333 0.3333  plane waves:   47440

 maximum and minimum number of plane-waves per node :      7942     7858

 maximum number of plane-waves:     47440
 maximum index in each direction: 
   IXMAX=   23   IYMAX=   23   IZMAX=   21
   IXMIN=  -23   IYMIN=  -23   IZMIN=  -22


 parallel 3D FFT for wavefunctions:
    minimum data exchange during FFTs selected (reduces bandwidth)
 parallel 3D FFT for charge:
    minimum data exchange during FFTs selected (reduces bandwidth)


 total amount of memory used by VASP MPI-rank0  1233264. kBytes
=======================================================================

   base      :      30000. kBytes
   nonl-proj :      75226. kBytes
   fftplans  :      85054. kBytes
   grid      :      64684. kBytes
   one-center:        466. kBytes
   wavefun   :     977834. kBytes
 
     INWAV:  cpu time    0.0000: real time    0.0000
 Broyden mixing: mesh for mixing (old mesh)
   NGX = 47   NGY = 47   NGZ = 43
  (NGX  =192   NGY  =192   NGZ  =180)
  gives a total of  94987 points

 initial charge density was supplied:
 number of electron     736.0000016 magnetization     127.9999885
 keeping initial charge density in first step


--------------------------------------------------------------------------------------------------------


 Maximum index for augmentation-charges        13229 (set IRDMAX)


--------------------------------------------------------------------------------------------------------


 First call to EWALD:  gamma=   0.164
 Maximum number of real-space cells 3x 3x 3
 Maximum number of reciprocal cells 3x 3x 3

    FEWALD:  cpu time    0.0168: real time    0.0183


--------------------------------------- Iteration      1(   1)  ---------------------------------------


    POTLOK:  cpu time    1.0434: real time    1.0542
    SETDIJ:  cpu time    2.2797: real time    2.2840
     EDDAV:  cpu time  308.4810: real time  311.8889
       DOS:  cpu time    0.0079: real time    0.0084
    --------------------------------------------
      LOOP:  cpu time  311.8120: real time  315.2356

 eigenvalue-minimisations  : 30944
 total energy-change (2. order) : 0.1040967E+05  (-0.4118844E+05)
 number of electron     736.0000016 magnetization     127.9999885
 augmentation part      736.0000016 magnetization     127.9999885

 Free energy of the ion-electron system (eV)
  ---------------------------------------------------
  alpha Z        PSCENC =      2314.49656628
  Ewald energy   TEWEN  =    -57723.01444613
  -Hartree energ DENC   =    -30348.90749861
  -exchange      EXHF   =         0.00000000
  -V(xc)+E(xc)   XCENC  =      3229.30093189
  PAW double counting   =     92679.89207989   -95535.38516353
  entropy T*S    EENTRO =        -0.01763803
  eigenvalues    EBANDS =       349.82787115
  atomic energy  EATOM  =     95443.47970955
  Solvation  Ediel_sol  =         0.00000000
  ---------------------------------------------------
  free energy    TOTEN  =     10409.67241246 eV

  energy without entropy =    10409.69005049  energy(sigma->0) =    10409.68123147


--------------------------------------------------------------------------------------------------------




--------------------------------------- Iteration      1(   2)  ---------------------------------------


     EDDAV:  cpu time  302.8331: real time  305.8921
       DOS:  cpu time    0.0092: real time    0.0094
    --------------------------------------------
      LOOP:  cpu time  302.8424: real time  305.9014

 eigenvalue-minimisations  : 30128
 total energy-change (2. order) :-0.9232195E+04  (-0.8658439E+04)
 number of electron     736.0000016 magnetization     127.9999885
 augmentation part      736.0000016 magnetization     127.9999885

 Free energy of the ion-electron system (eV)
  ---------------------------------------------------
  alpha Z        PSCENC =      2314.49656628
  Ewald energy   TEWEN  =    -57723.01444613
  -Hartree energ DENC   =    -30348.90749861
  -exchange      EXHF   =         0.00000000
  -V(xc)+E(xc)   XCENC  =      3229.30093189
  PAW double counting   =     92679.89207989   -95535.38516353
  entropy T*S    EENTRO =        -0.06573433
  eigenvalues    EBANDS =     -8882.31865462
  atomic energy  EATOM  =     95443.47970955
  Solvation  Ediel_sol  =         0.00000000
  ---------------------------------------------------
  free energy    TOTEN  =      1177.47779039 eV

  energy without entropy =     1177.54352472  energy(sigma->0) =     1177.51065755


--------------------------------------------------------------------------------------------------------




--------------------------------------- Iteration      1(   3)  ---------------------------------------


     EDDAV:  cpu time  319.3316: real time  322.4805
       DOS:  cpu time    0.0025: real time    0.0025
    --------------------------------------------
      LOOP:  cpu time  319.3341: real time  322.4831

 eigenvalue-minimisations  : 32392
 total energy-change (2. order) :-0.1485726E+04  (-0.1279040E+04)
 number of electron     736.0000016 magnetization     127.9999885
 augmentation part      736.0000016 magnetization     127.9999885

 Free energy of the ion-electron system (eV)
  ---------------------------------------------------
  alpha Z        PSCENC =      2314.49656628
  Ewald energy   TEWEN  =    -57723.01444613
  -Hartree energ DENC   =    -30348.90749861
  -exchange      EXHF   =         0.00000000
  -V(xc)+E(xc)   XCENC  =      3229.30093189
  PAW double counting   =     92679.89207989   -95535.38516353
  entropy T*S    EENTRO =        -0.00000000
  eigenvalues    EBANDS =    -10368.11040875
  atomic energy  EATOM  =     95443.47970955
  Solvation  Ediel_sol  =         0.00000000
  ---------------------------------------------------
  free energy    TOTEN  =      -308.24822941 eV

  energy without entropy =     -308.24822941  energy(sigma->0) =     -308.24822941


--------------------------------------------------------------------------------------------------------




--------------------------------------- Iteration      1(   4)  ---------------------------------------


     EDDAV:  cpu time  339.6919: real time  343.1573
       DOS:  cpu time    0.0025: real time    0.0025
    --------------------------------------------
      LOOP:  cpu time  339.6943: real time  343.1597

 eigenvalue-minimisations  : 34984
 total energy-change (2. order) :-0.1680555E+03  (-0.1653126E+03)
 number of electron     736.0000016 magnetization     127.9999885
 augmentation part      736.0000016 magnetization     127.9999885

 Free energy of the ion-electron system (eV)
  ---------------------------------------------------
  alpha Z        PSCENC =      2314.49656628
  Ewald energy   TEWEN  =    -57723.01444613
  -Hartree energ DENC   =    -30348.90749861
  -exchange      EXHF   =         0.00000000
  -V(xc)+E(xc)   XCENC  =      3229.30093189
  PAW double counting   =     92679.89207989   -95535.38516353
  entropy T*S    EENTRO =        -0.00000000
  eigenvalues    EBANDS =    -10536.16595016
  atomic energy  EATOM  =     95443.47970955
  Solvation  Ediel_sol  =         0.00000000
  ---------------------------------------------------
  free energy    TOTEN  =      -476.30377082 eV

  energy without entropy =     -476.30377082  energy(sigma->0) =     -476.30377082


--------------------------------------------------------------------------------------------------------




--------------------------------------- Iteration      1(   5)  ---------------------------------------


     EDDAV:  cpu time  450.3764: real time  454.5307
       DOS:  cpu time    0.0026: real time    0.0026
    CHARGE:  cpu time    9.0284: real time    9.2387
    MIXING:  cpu time    0.0255: real time    0.0295
    --------------------------------------------
      LOOP:  cpu time  459.4329: real time  463.8015

 eigenvalue-minimisations  : 49768
 total energy-change (2. order) :-0.1242653E+02  (-0.1230326E+02)
 number of electron     736.0000016 magnetization     127.9999932
 augmentation part      278.4633760 magnetization      84.1338736

 Broyden mixing:
  rms(total) = 0.21730E+00    rms(broyden)= 0.21714E+00
  rms(prec ) = 0.22063E+00
  weight for this iteration     100.00

 Free energy of the ion-electron system (eV)
  ---------------------------------------------------
  alpha Z        PSCENC =      2314.49656628
  Ewald energy   TEWEN  =    -57723.01444613
  -Hartree energ DENC   =    -30348.90749861
  -exchange      EXHF   =         0.00000000
  -V(xc)+E(xc)   XCENC  =      3229.30093189
  PAW double counting   =     92679.89207989   -95535.38516353
  entropy T*S    EENTRO =        -0.00000000
  eigenvalues    EBANDS =    -10548.59248206
  atomic energy  EATOM  =     95443.47970955
  Solvation  Ediel_sol  =         0.00000000
  ---------------------------------------------------
  free energy    TOTEN  =      -488.73030272 eV

  energy without entropy =     -488.73030272  energy(sigma->0) =     -488.73030272


--------------------------------------------------------------------------------------------------------




--------------------------------------- Iteration      1(   6)  ---------------------------------------


    POTLOK:  cpu time    1.0381: real time    1.0572
    SETDIJ:  cpu time    2.2429: real time    2.2884
     EDDAV:  cpu time  395.7374: real time  399.6331
       DOS:  cpu time    0.0026: real time    0.0026
    CHARGE:  cpu time    9.3423: real time    9.3581
    MIXING:  cpu time    0.0369: real time    0.0406
    --------------------------------------------
      LOOP:  cpu time  408.4003: real time  412.3800

 eigenvalue-minimisations  : 42424
 total energy-change (2. order) :-0.4692718E+00  (-0.4806330E+00)
 number of electron     736.0000016 magnetization     127.9999951
 augmentation part      277.9605991 magnetization      84.1623446

 Broyden mixing:
  rms(total) = 0.10636E+00    rms(broyden)= 0.10620E+00
  rms(prec ) = 0.10707E+00
  weight for this iteration     100.00

 eigenvalues of (default mixing * dielectric matrix)
  average eigenvalue GAMMA=   0.6704
  0.6704

 Free energy of the ion-electron system (eV)
  ---------------------------------------------------
  alpha Z        PSCENC =      2314.49656628
  Ewald energy   TEWEN  =    -57723.01444613
  -Hartree energ DENC   =    -30347.08867962
  -exchange      EXHF   =         0.00000000
  -V(xc)+E(xc)   XCENC  =      3229.00071843
  PAW double counting   =     92521.33263113   -95375.17299416
  entropy T*S    EENTRO =        -0.00000000
  eigenvalues    EBANDS =    -10552.23308005
  atomic energy  EATOM  =     95443.47970955
  Solvation  Ediel_sol  =         0.00000000
  ---------------------------------------------------
  free energy    TOTEN  =      -489.19957456 eV

  energy without entropy =     -489.19957456  energy(sigma->0) =     -489.19957456


--------------------------------------------------------------------------------------------------------




--------------------------------------- Iteration      1(   7)  ---------------------------------------


    POTLOK:  cpu time    1.0421: real time    1.0445
    SETDIJ:  cpu time    2.2654: real time    2.2727
     EDDAV:  cpu time  418.9543: real time  422.7721
       DOS:  cpu time    0.0041: real time    0.0042
    CHARGE:  cpu time    9.0639: real time    9.2436
    MIXING:  cpu time    0.0291: real time    0.0298
    --------------------------------------------
      LOOP:  cpu time  431.3589: real time  435.3669

 eigenvalue-minimisations  : 45720
 total energy-change (2. order) :-0.1735754E-01  (-0.1767472E-01)
 number of electron     736.0000016 magnetization     127.9999959
 augmentation part      277.8792671 magnetization      84.1547697

 Broyden mixing:
  rms(total) = 0.59444E-01    rms(broyden)= 0.59402E-01
  rms(prec ) = 0.60896E-01
  weight for this iteration     100.00

 eigenvalues of (default mixing * dielectric matrix)
  average eigenvalue GAMMA=   0.5442
  0.5442  0.5442

 Free energy of the ion-electron system (eV)
  ---------------------------------------------------
  alpha Z        PSCENC =      2314.49656628
  Ewald energy   TEWEN  =    -57723.01444613
  -Hartree energ DENC   =    -30348.01506942
  -exchange      EXHF   =         0.00000000
  -V(xc)+E(xc)   XCENC  =      3229.08503372
  PAW double counting   =     92580.05899783   -95434.47304194
  entropy T*S    EENTRO =        -0.00000000
  eigenvalues    EBANDS =    -10550.83468199
  atomic energy  EATOM  =     95443.47970955
  Solvation  Ediel_sol  =         0.00000000
  ---------------------------------------------------
  free energy    TOTEN  =      -489.21693210 eV

  energy without entropy =     -489.21693210  energy(sigma->0) =     -489.21693210


--------------------------------------------------------------------------------------------------------




--------------------------------------- Iteration      1(   8)  ---------------------------------------


    POTLOK:  cpu time    1.0374: real time    1.0563
    SETDIJ:  cpu time    2.2767: real time    2.2787
     EDDAV:  cpu time  399.6948: real time  403.8964
       DOS:  cpu time    0.0028: real time    0.0028
    CHARGE:  cpu time    9.2755: real time    9.3914
    MIXING:  cpu time    0.0366: real time    0.0373
    --------------------------------------------
      LOOP:  cpu time  412.3239: real time  416.6629

 eigenvalue-minimisations  : 42880
 total energy-change (2. order) : 0.4543770E-03  (-0.3615755E-03)
 number of electron     736.0000016 magnetization     127.9999966
 augmentation part      277.8711838 magnetization      84.1567131

 Broyden mixing:
  rms(total) = 0.53402E-01    rms(broyden)= 0.53398E-01
  rms(prec ) = 0.54682E-01
  weight for this iteration     100.00

 eigenvalues of (default mixing * dielectric matrix)
  average eigenvalue GAMMA=   0.5922
  0.5442  0.6163  0.6163

 Free energy of the ion-electron system (eV)
  ---------------------------------------------------
  alpha Z        PSCENC =      2314.49656628
  Ewald energy   TEWEN  =    -57723.01444613
  -Hartree energ DENC   =    -30347.98705132
  -exchange      EXHF   =         0.00000000
  -V(xc)+E(xc)   XCENC  =      3229.11357504
  PAW double counting   =     92593.48429429   -95448.03207295
  entropy T*S    EENTRO =        -0.00000000
  eigenvalues    EBANDS =    -10550.75705249
  atomic energy  EATOM  =     95443.47970955
  Solvation  Ediel_sol  =         0.00000000
  ---------------------------------------------------
  free energy    TOTEN  =      -489.21647773 eV

  energy without entropy =     -489.21647773  energy(sigma->0) =     -489.21647773


--------------------------------------------------------------------------------------------------------




--------------------------------------- Iteration      1(   9)  ---------------------------------------


    POTLOK:  cpu time    1.0417: real time    1.0452
    SETDIJ:  cpu time    2.2890: real time    2.2938
     EDDAV:  cpu time  441.5933: real time  445.8449
       DOS:  cpu time    0.0028: real time    0.0030
    CHARGE:  cpu time    9.2080: real time    9.3530
    MIXING:  cpu time    0.0322: real time    0.0342
    --------------------------------------------
      LOOP:  cpu time  454.1670: real time  458.5741

 eigenvalue-minimisations  : 48208
 total energy-change (2. order) : 0.6859485E-03  (-0.2179858E-04)
 number of electron     736.0000016 magnetization     127.9999996
 augmentation part      277.8736394 magnetization      84.1569859

 Broyden mixing:
  rms(total) = 0.43154E-01    rms(broyden)= 0.43154E-01
  rms(prec ) = 0.44130E-01
  weight for this iteration     100.00

 eigenvalues of (default mixing * dielectric matrix)
  average eigenvalue GAMMA=   1.0822
  1.7257  1.3310  0.6360  0.6360

 Free energy of the ion-electron system (eV)
  ---------------------------------------------------
  alpha Z        PSCENC =      2314.49656628
  Ewald energy   TEWEN  =    -57723.01444613
  -Hartree energ DENC   =    -30348.12485624
  -exchange      EXHF   =         0.00000000
  -V(xc)+E(xc)   XCENC  =      3229.15379227
  PAW double counting   =     92607.57379383   -95462.31113168
  entropy T*S    EENTRO =        -0.00000000
  eigenvalues    EBANDS =    -10550.46921965
  atomic energy  EATOM  =     95443.47970955
  Solvation  Ediel_sol  =         0.00000000
  ---------------------------------------------------
  free energy    TOTEN  =      -489.21579178 eV

  energy without entropy =     -489.21579178  energy(sigma->0) =     -489.21579178


--------------------------------------------------------------------------------------------------------




--------------------------------------- Iteration      1(  10)  ---------------------------------------


    POTLOK:  cpu time    1.0358: real time    1.0609
    SETDIJ:  cpu time    2.2594: real time    2.2918
     EDDAV:  cpu time  442.0710: real time  446.7903
       DOS:  cpu time    0.0033: real time    0.0038
    CHARGE:  cpu time    9.2083: real time    9.2763
    MIXING:  cpu time    0.0408: real time    0.0408
    --------------------------------------------
      LOOP:  cpu time  454.6187: real time  459.4641

 eigenvalue-minimisations  : 48544
 total energy-change (2. order) : 0.9384225E-03  (-0.1878117E-03)
 number of electron     736.0000016 magnetization     128.0000003
 augmentation part      277.8914915 magnetization      84.1587855

 Broyden mixing:
  rms(total) = 0.90255E-02    rms(broyden)= 0.90218E-02
  rms(prec ) = 0.90568E-02
  weight for this iteration     100.00

 eigenvalues of (default mixing * dielectric matrix)
  average eigenvalue GAMMA=   1.0592
  2.5184  0.9362  0.6531  0.6531  0.5349

 Free energy of the ion-electron system (eV)
  ---------------------------------------------------
  alpha Z        PSCENC =      2314.49656628
  Ewald energy   TEWEN  =    -57723.01444613
  -Hartree energ DENC   =    -30348.83717698
  -exchange      EXHF   =         0.00000000
  -V(xc)+E(xc)   XCENC  =      3229.30107873
  PAW double counting   =     92661.35063053   -95516.78843686
  entropy T*S    EENTRO =        -0.00000000
  eigenvalues    EBANDS =    -10549.20277848
  atomic energy  EATOM  =     95443.47970955
  Solvation  Ediel_sol  =         0.00000000
  ---------------------------------------------------
  free energy    TOTEN  =      -489.21485336 eV

  energy without entropy =     -489.21485336  energy(sigma->0) =     -489.21485336


--------------------------------------------------------------------------------------------------------




--------------------------------------- Iteration      1(  11)  ---------------------------------------


    POTLOK:  cpu time    1.0470: real time    1.0494
    SETDIJ:  cpu time    2.2769: real time    2.2922
     EDDAV:  cpu time  355.0860: real time  358.2184
       DOS:  cpu time    0.0028: real time    0.0033
    CHARGE:  cpu time    9.0809: real time    9.2684
    MIXING:  cpu time    0.0328: real time    0.0370
    --------------------------------------------
      LOOP:  cpu time  367.5264: real time  370.8687

 eigenvalue-minimisations  : 37080
 total energy-change (2. order) :-0.8047096E-04  (-0.5032143E-04)
 number of electron     736.0000016 magnetization     128.0000004
 augmentation part      277.8945300 magnetization      84.1585884

 Broyden mixing:
  rms(total) = 0.63779E-02    rms(broyden)= 0.63758E-02
  rms(prec ) = 0.67238E-02
  weight for this iteration     100.00

 eigenvalues of (default mixing * dielectric matrix)
  average eigenvalue GAMMA=   1.0117
  2.5680  0.7001  0.7001  0.8813  0.6105  0.6105

 Free energy of the ion-electron system (eV)
  ---------------------------------------------------
  alpha Z        PSCENC =      2314.49656628
  Ewald energy   TEWEN  =    -57723.01444613
  -Hartree energ DENC   =    -30348.97759847
  -exchange      EXHF   =         0.00000000
  -V(xc)+E(xc)   XCENC  =      3229.32723682
  PAW double counting   =     92675.65041427   -95531.22629616
  entropy T*S    EENTRO =        -0.00000000
  eigenvalues    EBANDS =    -10548.95051998
  atomic energy  EATOM  =     95443.47970955
  Solvation  Ediel_sol  =         0.00000000
  ---------------------------------------------------
  free energy    TOTEN  =      -489.21493383 eV

  energy without entropy =     -489.21493383  energy(sigma->0) =     -489.21493383


--------------------------------------------------------------------------------------------------------




--------------------------------------- Iteration      1(  12)  ---------------------------------------


    POTLOK:  cpu time    1.0387: real time    1.0494
    SETDIJ:  cpu time    2.2652: real time    2.2893
     EDDAV:  cpu time  386.0960: real time  389.7943
       DOS:  cpu time    0.0026: real time    0.0026
    CHARGE:  cpu time    9.0950: real time    9.2618
    MIXING:  cpu time    0.0301: real time    0.0319
    --------------------------------------------
      LOOP:  cpu time  398.5275: real time  402.4294

 eigenvalue-minimisations  : 41112
 total energy-change (2. order) : 0.1191764E-04  (-0.6220088E-05)
 number of electron     736.0000016 magnetization     128.0000004
 augmentation part      277.8967031 magnetization      84.1584414

 Broyden mixing:
  rms(total) = 0.54321E-02    rms(broyden)= 0.54305E-02
  rms(prec ) = 0.57201E-02
  weight for this iteration     100.00

 eigenvalues of (default mixing * dielectric matrix)
  average eigenvalue GAMMA=   1.1284
  2.5866  1.3054  1.3054  0.8693  0.6561  0.6561  0.5197

 Free energy of the ion-electron system (eV)
  ---------------------------------------------------
  alpha Z        PSCENC =      2314.49656628
  Ewald energy   TEWEN  =    -57723.01444613
  -Hartree energ DENC   =    -30348.96690749
  -exchange      EXHF   =         0.00000000
  -V(xc)+E(xc)   XCENC  =      3229.32142645
  PAW double counting   =     92676.44379772   -95531.99540115
  entropy T*S    EENTRO =        -0.00000000
  eigenvalues    EBANDS =    -10548.97966714
  atomic energy  EATOM  =     95443.47970955
  Solvation  Ediel_sol  =         0.00000000
  ---------------------------------------------------
  free energy    TOTEN  =      -489.21492191 eV

  energy without entropy =     -489.21492191  energy(sigma->0) =     -489.21492191


--------------------------------------------------------------------------------------------------------




--------------------------------------- Iteration      1(  13)  ---------------------------------------


    POTLOK:  cpu time    1.0252: real time    1.0464
    SETDIJ:  cpu time    2.2682: real time    2.2921
     EDDAV:  cpu time  352.6922: real time  355.7840
       DOS:  cpu time    0.0027: real time    0.0027
    CHARGE:  cpu time    9.3633: real time    9.3738
    MIXING:  cpu time    0.0406: real time    0.0406
    --------------------------------------------
      LOOP:  cpu time  365.3923: real time  368.5396

 eigenvalue-minimisations  : 36856
 total energy-change (2. order) : 0.1702913E-04  (-0.2458313E-05)
 number of electron     736.0000016 magnetization     128.0000005
 augmentation part      277.8948608 magnetization      84.1581705

 Broyden mixing:
  rms(total) = 0.17147E-02    rms(broyden)= 0.17110E-02
  rms(prec ) = 0.17702E-02
  weight for this iteration     100.00

 eigenvalues of (default mixing * dielectric matrix)
  average eigenvalue GAMMA=   1.1874
  2.8203  1.6775  1.4691  0.9139  0.7291  0.7291  0.5801  0.5801

 Free energy of the ion-electron system (eV)
  ---------------------------------------------------
  alpha Z        PSCENC =      2314.49656628
  Ewald energy   TEWEN  =    -57723.01444613
  -Hartree energ DENC   =    -30348.90988903
  -exchange      EXHF   =         0.00000000
  -V(xc)+E(xc)   XCENC  =      3229.30423462
  PAW double counting   =     92677.64624811   -95533.13544295
  entropy T*S    EENTRO =        -0.00000000
  eigenvalues    EBANDS =    -10549.08188534
  atomic energy  EATOM  =     95443.47970955
  Solvation  Ediel_sol  =         0.00000000
  ---------------------------------------------------
  free energy    TOTEN  =      -489.21490488 eV

  energy without entropy =     -489.21490488  energy(sigma->0) =     -489.21490488


--------------------------------------------------------------------------------------------------------




--------------------------------------- Iteration      1(  14)  ---------------------------------------


    POTLOK:  cpu time    1.0412: real time    1.0427
    SETDIJ:  cpu time    2.2733: real time    2.2906
     EDDAV:  cpu time  315.5216: real time  318.2709
       DOS:  cpu time    0.0029: real time    0.0029
    CHARGE:  cpu time    9.0322: real time    9.2346
    MIXING:  cpu time    0.0432: real time    0.0432
    --------------------------------------------
      LOOP:  cpu time  327.9143: real time  330.8847

 eigenvalue-minimisations  : 31888
 total energy-change (2. order) :-0.5249633E-05  (-0.2275023E-05)
 number of electron     736.0000016 magnetization     128.0000005
 augmentation part      277.8932777 magnetization      84.1581022

 Broyden mixing:
  rms(total) = 0.88739E-03    rms(broyden)= 0.88025E-03
  rms(prec ) = 0.91805E-03
  weight for this iteration     100.00

 eigenvalues of (default mixing * dielectric matrix)
  average eigenvalue GAMMA=   1.1334
  2.9062  1.5418  1.5418  0.9550  0.7419  0.7419  0.6253  0.6253  0.5215

 Free energy of the ion-electron system (eV)
  ---------------------------------------------------
  alpha Z        PSCENC =      2314.49656628
  Ewald energy   TEWEN  =    -57723.01444613
  -Hartree energ DENC   =    -30348.90185703
  -exchange      EXHF   =         0.00000000
  -V(xc)+E(xc)   XCENC  =      3229.29834486
  PAW double counting   =     92679.04963897   -95534.52435417
  entropy T*S    EENTRO =        -0.00000000
  eigenvalues    EBANDS =    -10549.09851245
  atomic energy  EATOM  =     95443.47970955
  Solvation  Ediel_sol  =         0.00000000
  ---------------------------------------------------
  free energy    TOTEN  =      -489.21491013 eV

  energy without entropy =     -489.21491013  energy(sigma->0) =     -489.21491013


--------------------------------------------------------------------------------------------------------




--------------------------------------- Iteration      1(  15)  ---------------------------------------


    POTLOK:  cpu time    1.0422: real time    1.0430
    SETDIJ:  cpu time    2.2809: real time    2.2896
     EDDAV:  cpu time  299.6213: real time  302.5398
       DOS:  cpu time    0.0025: real time    0.0026
    CHARGE:  cpu time    9.1587: real time    9.2543
    MIXING:  cpu time    0.0418: real time    0.0471
    --------------------------------------------
      LOOP:  cpu time  312.1473: real time  315.1765

 eigenvalue-minimisations  : 29848
 total energy-change (2. order) : 0.1315449E-05  (-0.3659780E-06)
 number of electron     736.0000016 magnetization     128.0000005
 augmentation part      277.8929209 magnetization      84.1581615

 Broyden mixing:
  rms(total) = 0.52435E-03    rms(broyden)= 0.51243E-03
  rms(prec ) = 0.52680E-03
  weight for this iteration     100.00

 eigenvalues of (default mixing * dielectric matrix)
  average eigenvalue GAMMA=   1.1119
  2.8272  1.4124  1.4124  1.3559  0.8124  0.8124  0.6539  0.6539  0.5894  0.5894

 Free energy of the ion-electron system (eV)
  ---------------------------------------------------
  alpha Z        PSCENC =      2314.49656628
  Ewald energy   TEWEN  =    -57723.01444613
  -Hartree energ DENC   =    -30348.90636703
  -exchange      EXHF   =         0.00000000
  -V(xc)+E(xc)   XCENC  =      3229.30040580
  PAW double counting   =     92679.46221361   -95534.94924605
  entropy T*S    EENTRO =        -0.00000000
  eigenvalues    EBANDS =    -10549.08374485
  atomic energy  EATOM  =     95443.47970955
  Solvation  Ediel_sol  =         0.00000000
  ---------------------------------------------------
  free energy    TOTEN  =      -489.21490881 eV

  energy without entropy =     -489.21490881  energy(sigma->0) =     -489.21490881


--------------------------------------------------------------------------------------------------------




--------------------------------------- Iteration      1(  16)  ---------------------------------------


    POTLOK:  cpu time    1.0403: real time    1.0569
    SETDIJ:  cpu time    2.2556: real time    2.2801
     EDDAV:  cpu time  214.3198: real time  216.6245
       DOS:  cpu time    0.0024: real time    0.0024
    --------------------------------------------
      LOOP:  cpu time  217.6181: real time  219.9639

 eigenvalue-minimisations  : 18504
 total energy-change (2. order) :-0.4127214E-06  (-0.3844039E-07)
 number of electron     736.0000016 magnetization     128.0000005
 augmentation part      277.8929209 magnetization      84.1581615

 Free energy of the ion-electron system (eV)
  ---------------------------------------------------
  alpha Z        PSCENC =      2314.49656628
  Ewald energy   TEWEN  =    -57723.01444613
  -Hartree energ DENC   =    -30348.90217876
  -exchange      EXHF   =         0.00000000
  -V(xc)+E(xc)   XCENC  =      3229.29989811
  PAW double counting   =     92679.63699601   -95535.12463141
  entropy T*S    EENTRO =        -0.00000000
  eigenvalues    EBANDS =    -10549.08682288
  atomic energy  EATOM  =     95443.47970955
  Solvation  Ediel_sol  =         0.00000000
  ---------------------------------------------------
  free energy    TOTEN  =      -489.21490923 eV

  energy without entropy =     -489.21490923  energy(sigma->0) =     -489.21490923


--------------------------------------------------------------------------------------------------------




 average (electrostatic) potential at core
  the test charge radii are     0.7079  0.7215  0.9698  0.9500
  (the norm of the test charge is              1.0000)
       1 -58.9409       2 -58.9570       3 -58.9482       4 -58.9496       5 -58.9502
       6 -58.9480       7 -58.9455       8 -58.9475       9 -58.9478      10 -58.9481
      11 -58.9476      12 -58.9482      13 -58.9468      14 -58.9494      15 -58.9483
      16 -58.9508      17 -69.8156      18 -69.8164      19 -69.8161      20 -69.8167
      21 -69.8154      22 -69.8169      23 -69.8158      24 -69.8174      25 -69.8154
      26 -69.8173      27 -69.8012      28 -69.8174      29 -69.8152      30 -69.8314
      31 -69.8153      32 -69.8171      33 -85.5763      34 -85.5812      35 -85.5786
      36 -85.5802      37 -85.5795      38 -85.5809      39 -85.5786      40 -85.5832
      41 -85.5799      42 -85.5797      43 -85.5803      44 -85.5797      45 -85.5790
      46 -85.5801      47 -85.5790      48 -85.5806      49 -85.6330      50 -85.6403
      51 -85.6379      52 -85.6391      53 -85.6382      54 -85.6396      55 -85.6371
      56 -85.6446      57 -78.5743      58 -78.5740      59 -78.5753      60 -78.5739
      61 -78.5725      62 -78.5746      63 -78.5734      64 -78.5746      65 -78.5730
      66 -78.5746      67 -78.5699      68 -78.5749      69 -78.5735      70 -78.5780
      71 -78.5736      72 -78.5751      73 -78.5820      74 -78.5819      75 -78.5820
      76 -78.5819      77 -78.5901      78 -78.5955      79 -78.5875      80 -78.5930
      81 -78.5898      82 -78.5932      83 -78.5910      84 -78.5921      85 -78.5820
      86 -78.5807      87 -78.5815      88 -78.5836
 
 
 
 E-fermi :   5.2035     XC(G=0): -10.4849     alpha+bet :-11.8156


 spin component 1

 k-point     1 :       0.0000    0.0000    0.0000
  band No.  band energies     occupation 
      1     -51.0579      1.00000
      2     -51.0553      1.00000
      3     -51.0551      1.00000
      4     -51.0549      1.00000
      5     -51.0543      1.00000
      6     -51.0541      1.00000
      7     -51.0534      1.00000
      8     -51.0533      1.00000
      9     -51.0531      1.00000
     10     -51.0527      1.00000
     11     -51.0524      1.00000
     12     -51.0521      1.00000
     13     -51.0516      1.00000
     14     -51.0509      1.00000
     15     -51.0503      1.00000
     16     -51.0483      1.00000
     17     -51.0477      1.00000
     18     -51.0453      1.00000
     19     -51.0452      1.00000
     20     -51.0445      1.00000
     21     -51.0435      1.00000
     22     -51.0428      1.00000
     23     -51.0427      1.00000
     24     -51.0408      1.00000
     25     -51.0403      1.00000
     26     -51.0394      1.00000
     27     -51.0394      1.00000
     28     -51.0393      1.00000
     29     -51.0393      1.00000
     30     -51.0390      1.00000
     31     -51.0388      1.00000
     32     -51.0383      1.00000
     33     -49.7056      1.00000
     34     -49.7032      1.00000
     35     -49.7028      1.00000
     36     -49.7020      1.00000
     37     -49.7011      1.00000
     38     -49.7003      1.00000
     39     -49.6999      1.00000
     40     -49.6976      1.00000
     41     -49.6955      1.00000
     42     -49.6941      1.00000
     43     -49.6940      1.00000
     44     -49.6940      1.00000
     45     -49.6940      1.00000
     46     -49.6939      1.00000
     47     -49.6936      1.00000
     48     -49.6929      1.00000
     49     -49.6004      1.00000
     50     -49.5986      1.00000
     51     -49.5979      1.00000
     52     -49.5976      1.00000
     53     -49.5976      1.00000
     54     -49.5972      1.00000
     55     -49.5970      1.00000
     56     -49.5967      1.00000
     57     -49.5967      1.00000
     58     -49.5966      1.00000
     59     -49.5960      1.00000
     60     -49.5959      1.00000
     61     -49.5957      1.00000
     62     -49.5953      1.00000
     63     -49.5950      1.00000
     64     -49.5927      1.00000
     65     -49.5695      1.00000
     66     -49.5673      1.00000
     67     -49.5666      1.00000
     68     -49.5664      1.00000
     69     -49.5663      1.00000
     70     -49.5658      1.00000
     71     -49.5655      1.00000
     72     -49.5652      1.00000
     73     -49.5650      1.00000
     74     -49.5648      1.00000
     75     -49.5644      1.00000
     76     -49.5642      1.00000
     77     -49.5640      1.00000
     78     -49.5634      1.00000
     79     -49.5631      1.00000
     80     -49.5606      1.00000
     81     -49.5578      1.00000
     82     -49.5560      1.00000
     83     -49.5558      1.00000
     84     -49.5547      1.00000
     85     -49.5535      1.00000
     86     -49.5524      1.00000
     87     -49.5523      1.00000
     88     -49.5504      1.00000
     89     -49.5412      1.00000
     90     -49.5396      1.00000
     91     -49.5394      1.00000
     92     -49.5394      1.00000
     93     -49.5394      1.00000
     94     -49.5394      1.00000
     95     -49.5389      1.00000
     96     -49.5379      1.00000
     97     -39.8732      1.00000
     98     -39.8671      1.00000
     99     -39.8671      1.00000
    100     -39.8659      1.00000
    101     -39.8657      1.00000
    102     -39.8651      1.00000
    103     -39.8651      1.00000
    104     -39.8649      1.00000
    105     -39.8648      1.00000
    106     -39.8647      1.00000
    107     -39.8646      1.00000
    108     -39.8642      1.00000
    109     -39.8642      1.00000
    110     -39.8630      1.00000
    111     -39.8623      1.00000
    112     -39.8571      1.00000
    113     -13.2256      1.00000
    114     -13.2248      1.00000
    115     -13.2108      1.00000
    116     -13.1840      1.00000
    117     -13.1052      1.00000
    118     -13.0998      1.00000
    119     -13.0968      1.00000
    120     -13.0940      1.00000
    121     -13.0852      1.00000
    122     -13.0822      1.00000
    123     -13.0790      1.00000
    124     -13.0738      1.00000
    125     -12.9877      1.00000
    126     -12.9770      1.00000
    127     -12.9419      1.00000
    128     -12.9412      1.00000
    129      -7.6453      1.00000
    130      -7.4069      1.00000
    131      -7.3277      1.00000
    132      -7.3254      1.00000
    133      -7.3110      1.00000
    134      -7.3090      1.00000
    135      -7.3082      1.00000
    136      -7.3057      1.00000
    137      -7.1699      1.00000
    138      -7.1570      1.00000
    139      -7.1247      1.00000
    140      -7.1229      1.00000
    141      -7.0366      1.00000
    142      -7.0219      1.00000
    143      -7.0024      1.00000
    144      -7.0018      1.00000
    145      -6.9414      1.00000
    146      -6.9403      1.00000
    147      -6.8876      1.00000
    148      -6.8868      1.00000
    149      -6.8661      1.00000
    150      -6.8612      1.00000
    151      -6.8345      1.00000
    152      -6.8038      1.00000
    153      -1.9356      1.00000
    154      -1.9355      1.00000
    155      -1.9106      1.00000
    156      -1.8936      1.00000
    157      -1.6675      1.00000
    158      -1.6656      1.00000
    159      -1.6586      1.00000
    160      -1.6573      1.00000
    161      -1.5997      1.00000
    162      -1.5979      1.00000
    163      -1.5871      1.00000
    164      -1.5852      1.00000
    165      -1.2983      1.00000
    166      -1.1759      1.00000
    167      -1.1737      1.00000
    168      -1.1141      1.00000
    169      -1.1121      1.00000
    170      -1.1072      1.00000
    171      -1.0494      1.00000
    172      -0.9811      1.00000
    173      -0.9648      1.00000
    174      -0.9597      1.00000
    175      -0.9575      1.00000
    176      -0.9575      1.00000
    177      -0.9467      1.00000
    178      -0.9453      1.00000
    179      -0.9228      1.00000
    180      -0.8712      1.00000
    181      -0.8711      1.00000
    182      -0.8035      1.00000
    183      -0.8030      1.00000
    184      -0.8026      1.00000
    185      -0.7762      1.00000
    186      -0.7742      1.00000
    187      -0.7735      1.00000
    188      -0.7606      1.00000
    189      -0.7174      1.00000
    190      -0.7160      1.00000
    191      -0.7071      1.00000
    192      -0.7040      1.00000
    193      -0.6992      1.00000
    194      -0.6985      1.00000
    195      -0.6089      1.00000
    196      -0.6084      1.00000
    197      -0.5615      1.00000
    198      -0.5614      1.00000
    199      -0.5493      1.00000
    200      -0.5479      1.00000
    201      -0.4085      1.00000
    202      -0.4079      1.00000
    203      -0.3570      1.00000
    204      -0.3477      1.00000
    205      -0.3297      1.00000
    206      -0.3292      1.00000
    207      -0.2986      1.00000
    208      -0.2983      1.00000
    209      -0.2814      1.00000
    210      -0.2693      1.00000
    211      -0.2627      1.00000
    212      -0.2559      1.00000
    213      -0.2550      1.00000
    214      -0.2094      1.00000
    215      -0.2085      1.00000
    216      -0.1888      1.00000
    217      -0.1869      1.00000
    218      -0.1867      1.00000
    219      -0.1759      1.00000
    220      -0.1579      1.00000
    221      -0.1260      1.00000
    222      -0.1249      1.00000
    223      -0.1093      1.00000
    224      -0.0709      1.00000
    225      -0.0702      1.00000
    226      -0.0606      1.00000
    227      -0.0433      1.00000
    228      -0.0176      1.00000
    229      -0.0171      1.00000
    230      -0.0115      1.00000
    231       0.0017      1.00000
    232       0.0017      1.00000
    233       0.0461      1.00000
    234       0.0490      1.00000
    235       0.0501      1.00000
    236       0.0915      1.00000
    237       0.0934      1.00000
    238       0.1184      1.00000
    239       0.1188      1.00000
    240       0.1577      1.00000
    241       0.1626      1.00000
    242       0.1768      1.00000
    243       0.1792      1.00000
    244       0.1818      1.00000
    245       0.1823      1.00000
    246       0.1854      1.00000
    247       0.1892      1.00000
    248       0.1933      1.00000
    249       0.1942      1.00000
    250       0.2004      1.00000
    251       0.2018      1.00000
    252       0.2388      1.00000
    253       0.2508      1.00000
    254       0.2570      1.00000
    255       0.2570      1.00000
    256       0.2768      1.00000
    257       0.3374      1.00000
    258       0.3475      1.00000
    259       0.3586      1.00000
    260       0.3590      1.00000
    261       0.3604      1.00000
    262       0.3609      1.00000
    263       0.3883      1.00000
    264       0.4017      1.00000
    265       0.4526      1.00000
    266       0.4526      1.00000
    267       0.5789      1.00000
    268       0.5789      1.00000
    269       0.5845      1.00000
    270       0.6019      1.00000
    271       0.6021      1.00000
    272       0.6064      1.00000
    273       0.6080      1.00000
    274       0.6398      1.00000
    275       0.6511      1.00000
    276       0.6514      1.00000
    277       0.6619      1.00000
    278       0.6625      1.00000
    279       0.6654      1.00000
    280       0.6733      1.00000
    281       0.6747      1.00000
    282       0.6753      1.00000
    283       0.6967      1.00000
    284       0.7229      1.00000
    285       0.7834      1.00000
    286       0.8197      1.00000
    287       0.8297      1.00000
    288       0.8317      1.00000
    289       0.8326      1.00000
    290       0.8611      1.00000
    291       0.8613      1.00000
    292       0.9094      1.00000
    293       0.9405      1.00000
    294       0.9482      1.00000
    295       0.9483      1.00000
    296       0.9832      1.00000
    297       1.0259      1.00000
    298       1.0704      1.00000
    299       1.2694      1.00000
    300       1.2980      1.00000
    301       1.2985      1.00000
    302       1.3117      1.00000
    303       1.3331      1.00000
    304       1.3332      1.00000
    305       1.3377      1.00000
    306       1.3842      1.00000
    307       1.4053      1.00000
    308       1.4283      1.00000
    309       1.4669      1.00000
    310       1.4679      1.00000
    311       1.4681      1.00000
    312       1.4815      1.00000
    313       1.5107      1.00000
    314       1.5111      1.00000
    315       1.5409      1.00000
    316       1.5614      1.00000
    317       1.5769      1.00000
    318       1.6464      1.00000
    319       1.6554      1.00000
    320       1.7560      1.00000
    321       1.7565      1.00000
    322       1.7633      1.00000
    323       1.7780      1.00000
    324       1.8028      1.00000
    325       1.8030      1.00000
    326       1.8108      1.00000
    327       1.8232      1.00000
    328       1.8366      1.00000
    329       1.8367      1.00000
    330       1.8461      1.00000
    331       1.8469      1.00000
    332       1.8784      1.00000
    333       1.8900      1.00000
    334       1.9466      1.00000
    335       1.9929      1.00000
    336       1.9941      1.00000
    337       2.0063      1.00000
    338       2.0065      1.00000
    339       2.0100      1.00000
    340       2.0186      1.00000
    341       2.0202      1.00000
    342       2.0204      1.00000
    343       2.0401      1.00000
    344       2.0468      1.00000
    345       2.0470      1.00000
    346       2.0572      1.00000
    347       2.0687      1.00000
    348       2.0690      1.00000
    349       2.0919      1.00000
    350       2.1129      1.00000
    351       2.1907      1.00000
    352       2.1909      1.00000
    353       2.2466      1.00000
    354       2.2475      1.00000
    355       2.2701      1.00000
    356       2.2731      1.00000
    357       2.2847      1.00000
    358       2.4278      1.00000
    359       2.4666      1.00000
    360       2.4670      1.00000
    361       2.4776      1.00000
    362       2.5036      1.00000
    363       2.5276      1.00000
    364       2.5544      1.00000
    365       2.5924      1.00000
    366       2.6265      1.00000
    367       2.6270      1.00000
    368       2.6562      1.00000
    369       2.7376      1.00000
    370       2.7386      1.00000
    371       2.7608      1.00000
    372       2.7617      1.00000
    373       2.8339      1.00000
    374       2.8726      1.00000
    375       2.9271      1.00000
    376       2.9342      1.00000
    377       2.9346      1.00000
    378       2.9691      1.00000
    379       3.0274      1.00000
    380       3.0276      1.00000
    381       3.0616      1.00000
    382       3.0959      1.00000
    383       3.3077      1.00000
    384       3.3107      1.00000
    385       3.3481      1.00000
    386       3.3757      1.00000
    387       3.4213      1.00000
    388       3.4215      1.00000
    389       3.4405      1.00000
    390       3.4582      1.00000
    391       3.4588      1.00000
    392       3.5316      1.00000
    393       3.7480      1.00000
    394       3.8082      1.00000
    395       3.8094      1.00000
    396       3.8152      1.00000
    397       3.8153      1.00000
    398       3.8824      1.00000
    399       3.8827      1.00000
    400       3.9322      1.00000
    401       3.9353      1.00000
    402       3.9403      1.00000
    403       3.9410      1.00000
    404       4.0391      1.00000
    405       4.0394      1.00000
    406       4.0703      1.00000
    407       4.1386      1.00000
    408       4.1491      1.00000
    409       4.1512      1.00000
    410       4.3147      1.00000
    411       4.3181      1.00000
    412       4.3380      1.00000
    413       4.3582      1.00000
    414       4.3588      1.00000
    415       4.4286      1.00000
    416       4.4444      1.00000
    417       4.4461      1.00000
    418       4.4542      1.00000
    419       4.4560      1.00000
    420       4.4570      1.00000
    421       4.6364      1.00000
    422       4.6365      1.00000
    423       4.7323      1.00000
    424       4.7325      1.00000
    425       4.7637      1.00000
    426       4.7643      1.00000
    427       4.7693      1.00000
    428       4.7699      1.00000
    429       4.8103      1.00000
    430       4.8533      1.00000
    431       4.8533      1.00000
    432       4.8574      1.00000
    433       7.3436      0.00000
    434       8.1284      0.00000
    435       8.4449      0.00000
    436       8.6423      0.00000
    437       8.6426      0.00000
    438       8.8581      0.00000
    439       9.0843      0.00000
    440       9.0849      0.00000
    441       9.2609      0.00000
    442       9.2737      0.00000
    443       9.2891      0.00000
    444       9.2892      0.00000
    445       9.7267      0.00000
    446       9.7718      0.00000
    447       9.7720      0.00000
    448       9.7897      0.00000
    449       9.8546      0.00000
    450       9.8548      0.00000
    451       9.8590      0.00000
    452       9.8789      0.00000
    453       9.8893      0.00000
    454      10.0610      0.00000
    455      10.0826      0.00000
    456      10.1359      0.00000
    457      10.1366      0.00000
    458      10.3059      0.00000
    459      10.3066      0.00000
    460      10.4166      0.00000
    461      10.5267      0.00000
    462      10.5707      0.00000
    463      10.5714      0.00000
    464      10.5722      0.00000
    465      10.5784      0.00000
    466      10.5785      0.00000
    467      10.6757      0.00000
    468      10.9760      0.00000
    469      11.0192      0.00000
    470      11.0197      0.00000
    471      11.0405      0.00000
    472      11.0408      0.00000
    473      11.0773      0.00000
    474      11.1283      0.00000
    475      11.1782      0.00000
[...]
   -.127E+00 -.311E-03 -.259E+02   0.130E+00 -.118E-02 0.257E+02   -.173E-02 0.525E-03 0.250E+00   -.377E-04 0.347E-04 0.105E-04
   0.186E-01 0.177E-02 -.259E+02   -.193E-01 -.118E-02 0.257E+02   0.421E-03 -.557E-03 0.251E+00   0.415E-05 0.141E-04 0.158E-04
   -.225E-01 0.219E-02 -.259E+02   0.242E-01 -.118E-02 0.257E+02   -.111E-02 -.812E-03 0.250E+00   -.150E-04 0.419E-05 0.710E-05
   0.978E-02 -.199E-01 -.421E+02   -.123E-01 0.235E-01 0.421E+02   0.154E-02 -.295E-02 0.890E-02   -.181E-04 -.110E-04 -.407E-04
   0.246E-01 0.483E-01 -.420E+02   -.246E-01 -.475E-01 0.420E+02   -.244E-03 -.964E-03 0.113E-01   0.232E-04 0.483E-05 -.137E-04
   0.132E-01 0.482E-01 -.421E+02   -.123E-01 -.474E-01 0.421E+02   -.723E-03 -.105E-02 0.105E-01   -.111E-04 0.156E-05 -.441E-04
   0.213E-01 -.201E-01 -.420E+02   -.246E-01 0.236E-01 0.420E+02   0.201E-02 -.285E-02 0.127E-01   0.384E-06 -.613E-05 -.111E-04
   0.158E+02 0.149E+02 -.126E+03   -.162E+02 -.153E+02 0.131E+03   0.385E+00 0.376E+00 -.463E+01   -.435E-04 0.689E-04 -.349E-04
   0.159E+02 0.149E+02 -.126E+03   -.163E+02 -.153E+02 0.131E+03   0.388E+00 0.380E+00 -.463E+01   -.134E-05 0.774E-04 0.432E-04
   0.158E+02 0.150E+02 -.126E+03   -.162E+02 -.154E+02 0.131E+03   0.381E+00 0.384E+00 -.463E+01   -.195E-03 0.560E-04 -.332E-04
   0.160E+02 0.149E+02 -.126E+03   -.164E+02 -.153E+02 0.131E+03   0.392E+00 0.379E+00 -.463E+01   -.280E-05 0.587E-04 0.586E-04
   -.159E+02 -.149E+02 -.126E+03   0.162E+02 0.153E+02 0.131E+03   -.385E+00 -.380E+00 -.463E+01   0.268E-04 -.813E-04 -.202E-04
   -.160E+02 -.148E+02 -.126E+03   0.164E+02 0.152E+02 0.130E+03   -.393E+00 -.376E+00 -.462E+01   -.746E-04 -.333E-04 0.405E-04
   -.159E+02 -.149E+02 -.126E+03   0.163E+02 0.152E+02 0.131E+03   -.389E+00 -.379E+00 -.463E+01   0.346E-04 -.925E-05 0.128E-05
   -.160E+02 -.149E+02 -.126E+03   0.163E+02 0.153E+02 0.131E+03   -.389E+00 -.384E+00 -.462E+01   0.645E-05 -.721E-04 0.706E-04
   0.159E+02 -.150E+02 0.126E+03   -.162E+02 0.154E+02 -.131E+03   0.387E+00 -.382E+00 0.463E+01   -.745E-04 -.667E-04 -.394E-04
   0.160E+02 -.148E+02 0.126E+03   -.164E+02 0.152E+02 -.131E+03   0.393E+00 -.376E+00 0.463E+01   -.844E-05 -.804E-05 0.112E-04
   0.166E+02 -.129E+02 0.127E+03   -.170E+02 0.132E+02 -.131E+03   0.429E+00 -.266E+00 0.467E+01   -.306E-04 0.353E-03 -.268E-04
   0.162E+02 -.150E+02 0.126E+03   -.166E+02 0.154E+02 -.131E+03   0.397E+00 -.381E+00 0.463E+01   0.946E-04 -.682E-04 -.567E-04
   -.156E+02 0.148E+02 0.126E+03   0.160E+02 -.152E+02 -.131E+03   -.379E+00 0.378E+00 0.463E+01   0.181E-03 0.227E-04 0.392E-04
   -.153E+02 0.169E+02 0.125E+03   0.156E+02 -.174E+02 -.130E+03   -.348E+00 0.494E+00 0.458E+01   0.672E-04 0.433E-03 -.197E-04
   -.158E+02 0.150E+02 0.126E+03   0.162E+02 -.153E+02 -.131E+03   -.383E+00 0.384E+00 0.463E+01   0.109E-03 0.602E-04 -.390E-04
   -.160E+02 0.148E+02 0.126E+03   0.163E+02 -.152E+02 -.131E+03   -.389E+00 0.377E+00 0.463E+01   0.558E-04 0.275E-04 -.188E-04
   0.279E+02 0.279E+02 0.338E+02   -.282E+02 -.282E+02 -.343E+02   0.348E+00 0.345E+00 0.529E+00   -.661E-04 -.449E-04 0.937E-04
   0.282E+02 0.282E+02 0.333E+02   -.285E+02 -.286E+02 -.338E+02   0.355E+00 0.353E+00 0.517E+00   0.696E-05 0.334E-04 0.132E-04
   0.280E+02 0.282E+02 0.334E+02   -.283E+02 -.286E+02 -.339E+02   0.349E+00 0.357E+00 0.521E+00   -.517E-04 0.455E-04 0.289E-04
   0.281E+02 0.282E+02 0.333E+02   -.284E+02 -.285E+02 -.338E+02   0.352E+00 0.353E+00 0.519E+00   0.231E-04 0.258E-04 0.246E-04
   -.279E+02 -.283E+02 0.334E+02   0.282E+02 0.286E+02 -.339E+02   -.347E+00 -.354E+00 0.519E+00   0.249E-04 -.386E-04 0.471E-04
   -.280E+02 -.282E+02 0.333E+02   0.283E+02 0.285E+02 -.338E+02   -.351E+00 -.350E+00 0.516E+00   0.702E-05 -.342E-04 0.230E-04
   -.277E+02 -.282E+02 0.334E+02   0.281E+02 0.285E+02 -.339E+02   -.344E+00 -.354E+00 0.521E+00   0.724E-04 -.334E-04 0.716E-04
   -.280E+02 -.285E+02 0.328E+02   0.284E+02 0.289E+02 -.333E+02   -.351E+00 -.362E+00 0.508E+00   -.208E-04 -.770E-04 -.443E-04
   0.278E+02 -.282E+02 -.334E+02   -.282E+02 0.286E+02 0.339E+02   0.347E+00 -.353E+00 -.522E+00   -.181E-04 -.352E-04 -.293E-04
   0.280E+02 -.282E+02 -.333E+02   -.283E+02 0.286E+02 0.338E+02   0.351E+00 -.354E+00 -.518E+00   0.288E-04 -.377E-04 -.122E-04
   0.279E+02 -.282E+02 -.334E+02   -.282E+02 0.286E+02 0.339E+02   0.348E+00 -.355E+00 -.521E+00   -.193E-04 -.291E-04 -.346E-04
   0.280E+02 -.282E+02 -.333E+02   -.283E+02 0.286E+02 0.338E+02   0.350E+00 -.354E+00 -.518E+00   0.338E-05 -.392E-04 -.154E-04
   -.280E+02 0.282E+02 -.333E+02   0.284E+02 -.285E+02 0.339E+02   -.351E+00 0.352E+00 -.517E+00   0.251E-04 0.231E-04 -.636E-05
   -.280E+02 0.282E+02 -.333E+02   0.283E+02 -.286E+02 0.339E+02   -.350E+00 0.353E+00 -.519E+00   0.339E-04 0.490E-04 -.107E-04
   -.280E+02 0.282E+02 -.333E+02   0.284E+02 -.286E+02 0.338E+02   -.351E+00 0.354E+00 -.518E+00   0.429E-04 0.555E-04 -.343E-04
   -.280E+02 0.282E+02 -.333E+02   0.283E+02 -.285E+02 0.339E+02   -.349E+00 0.353E+00 -.517E+00   0.404E-04 0.243E-05 0.301E-05
   0.987E+01 -.635E+00 -.790E+00   -.998E+01 0.643E+00 0.797E+00   0.106E+00 -.376E-02 -.325E-02   -.807E-04 -.963E-05 -.385E-04
   0.101E+02 0.123E+00 0.841E-01   -.103E+02 -.123E+00 -.847E-01   0.119E+00 0.763E-03 0.191E-02   0.378E-04 0.656E-04 0.114E-04
   0.983E+01 0.122E+00 -.471E-01   -.994E+01 -.123E+00 0.487E-01   0.112E+00 0.221E-02 -.280E-02   -.103E-03 0.424E-04 0.291E-05
   0.997E+01 0.102E-01 0.151E-01   -.101E+02 -.104E-01 -.154E-01   0.117E+00 0.487E-04 0.472E-03   -.111E-04 0.669E-05 -.517E-05
   -.983E+01 0.964E-02 -.803E-02   0.995E+01 -.982E-02 0.798E-02   -.113E+00 -.547E-04 0.127E-04   0.450E-04 -.213E-05 -.127E-04
   -.996E+01 0.122E+00 0.400E-01   0.101E+02 -.124E+00 -.413E-01   -.117E+00 0.227E-02 0.233E-02   0.774E-04 0.514E-04 -.156E-04
   -.967E+01 0.123E+00 -.733E-01   0.978E+01 -.124E+00 0.736E-01   -.110E+00 0.680E-03 -.138E-02   0.114E-03 0.272E-04 -.339E-04
   -.993E+01 -.638E+00 0.783E+00   0.100E+02 0.647E+00 -.790E+00   -.124E+00 -.352E-02 0.244E-02   0.401E-04 0.236E-05 0.178E-04
   0.189E+02 0.190E+02 0.185E+03   -.179E+02 -.179E+02 -.183E+03   -.106E+01 -.109E+01 -.241E+01   -.671E-04 0.125E-04 -.108E-03
   0.191E+02 0.189E+02 0.185E+03   -.181E+02 -.178E+02 -.183E+03   -.106E+01 -.108E+01 -.241E+01   0.832E-04 0.584E-04 -.347E-04
   0.189E+02 0.189E+02 0.185E+03   -.178E+02 -.178E+02 -.182E+03   -.107E+01 -.108E+01 -.242E+01   -.852E-04 0.809E-04 -.159E-03
   0.192E+02 0.189E+02 0.185E+03   -.181E+02 -.179E+02 -.183E+03   -.106E+01 -.108E+01 -.240E+01   0.864E-04 0.387E-04 0.437E-04
   -.190E+02 -.189E+02 0.185E+03   0.179E+02 0.178E+02 -.183E+03   0.106E+01 0.109E+01 -.239E+01   -.339E-06 -.936E-04 -.511E-04
   -.188E+02 -.188E+02 0.185E+03   0.178E+02 0.177E+02 -.183E+03   0.107E+01 0.109E+01 -.241E+01   -.126E-04 -.476E-04 -.124E-03
   -.189E+02 -.188E+02 0.185E+03   0.179E+02 0.177E+02 -.183E+03   0.106E+01 0.108E+01 -.241E+01   -.307E-04 -.653E-04 -.911E-04
   -.189E+02 -.189E+02 0.185E+03   0.178E+02 0.178E+02 -.183E+03   0.107E+01 0.108E+01 -.241E+01   0.431E-04 -.935E-04 -.110E-03
   0.188E+02 -.190E+02 -.185E+03   -.177E+02 0.179E+02 0.183E+03   -.106E+01 0.108E+01 0.241E+01   -.693E-04 -.115E-03 0.623E-04
   0.190E+02 -.188E+02 -.185E+03   -.179E+02 0.177E+02 0.183E+03   -.106E+01 0.109E+01 0.241E+01   0.371E-04 -.268E-04 0.272E-03
   0.187E+02 -.184E+02 -.184E+03   -.177E+02 0.173E+02 0.182E+03   -.106E+01 0.109E+01 0.245E+01   -.830E-04 0.687E-04 0.634E-03
   0.193E+02 -.190E+02 -.185E+03   -.182E+02 0.179E+02 0.183E+03   -.106E+01 0.108E+01 0.241E+01   0.112E-03 -.149E-03 0.122E-03
   -.186E+02 0.188E+02 -.185E+03   0.175E+02 -.177E+02 0.182E+03   0.107E+01 -.109E+01 0.241E+01   0.165E-03 -.102E-04 0.252E-03
   -.192E+02 0.195E+02 -.186E+03   0.182E+02 -.184E+02 0.184E+03   0.106E+01 -.108E+01 0.237E+01   -.697E-04 0.196E-03 -.554E-03
   -.189E+02 0.190E+02 -.185E+03   0.178E+02 -.179E+02 0.183E+03   0.106E+01 -.108E+01 0.241E+01   0.361E-04 0.110E-03 0.180E-03
   -.191E+02 0.188E+02 -.185E+03   0.181E+02 -.177E+02 0.183E+03   0.106E+01 -.109E+01 0.241E+01   -.685E-04 0.600E-05 -.107E-04
   -.605E+01 -.318E+01 0.209E+03   0.603E+01 0.310E+01 -.211E+03   0.134E+00 0.114E+00 0.206E+01   -.229E-02 -.176E-04 -.180E-03
   0.707E+00 -.698E-01 0.209E+03   -.718E+00 0.685E-01 -.211E+03   0.856E-02 0.140E-02 0.206E+01   0.336E-03 -.520E-04 -.207E-03
   -.190E+00 -.706E-01 0.209E+03   0.197E+00 0.685E-01 -.211E+03   -.539E-02 0.215E-02 0.206E+01   -.136E-03 0.120E-04 -.221E-03
   0.182E+00 -.734E-01 0.209E+03   -.190E+00 0.685E-01 -.211E+03   0.608E-02 0.429E-02 0.206E+01   0.656E-04 -.243E-04 -.216E-03
   0.355E+00 -.689E+00 0.199E+03   -.363E+00 0.696E+00 -.201E+03   0.631E-02 -.460E-02 0.206E+01   -.388E-04 -.304E-03 -.271E-03
   0.330E+00 0.566E+00 0.199E+03   -.361E+00 -.598E+00 -.201E+03   0.236E-01 0.248E-01 0.207E+01   0.448E-03 0.576E-03 -.213E-03
   0.332E+00 0.561E+00 0.199E+03   -.363E+00 -.594E+00 -.201E+03   0.235E-01 0.252E-01 0.205E+01   0.212E-03 0.377E-03 -.332E-03
   0.353E+00 -.693E+00 0.199E+03   -.361E+00 0.700E+00 -.201E+03   0.644E-02 -.501E-02 0.206E+01   0.144E-03 -.170E-03 -.268E-03
   0.155E+00 -.592E-01 -.200E+03   -.158E+00 0.512E-01 0.202E+03   0.254E-02 0.694E-02 -.207E+01   -.506E-04 0.104E-04 0.109E-03
   0.225E+00 -.590E-01 -.199E+03   -.232E+00 0.512E-01 0.201E+03   0.543E-02 0.685E-02 -.205E+01   0.100E-03 -.310E-04 0.428E-03
   -.358E-01 -.526E-01 -.199E+03   0.355E-01 0.512E-01 0.201E+03   0.337E-03 0.150E-02 -.206E+01   -.132E-04 0.468E-04 0.225E-03
   0.276E-02 -.525E-01 -.199E+03   -.662E-02 0.512E-01 0.201E+03   0.300E-02 0.149E-02 -.206E+01   0.703E-04 0.232E-04 0.300E-03
   0.169E+00 -.806E-01 -.209E+03   -.175E+00 0.763E-01 0.211E+03   0.430E-02 0.410E-02 -.206E+01   0.110E-03 0.161E-04 0.214E-03
   -.325E+00 -.557E-01 -.209E+03   0.343E+00 0.612E-01 0.211E+03   -.151E-01 -.449E-02 -.207E+01   -.292E-03 -.115E-03 0.122E-03
   0.169E+00 -.653E-01 -.209E+03   -.175E+00 0.607E-01 0.211E+03   0.428E-02 0.430E-02 -.207E+01   0.147E-03 -.635E-05 0.184E-03
   -.325E+00 -.700E-01 -.209E+03   0.343E+00 0.758E-01 0.211E+03   -.151E-01 -.467E-02 -.206E+01   -.219E-03 -.160E-03 0.231E-03
 -----------------------------------------------------------------------------------------------
   -.297E+00 -.384E+00 0.802E-03   -.147E-12 -.155E-12 -.398E-12   0.297E+00 0.381E+00 -.104E-02   -.849E-03 0.104E-02 0.251E-03
 
 
 POSITION                                       TOTAL-FORCE (eV/Angst)
 -----------------------------------------------------------------------------------
      2.77841      5.21785      1.58925        -0.013412      0.001797     -0.000033
      8.33453      5.21785      1.58910        -0.013681      0.001786     -0.000026
      2.77841     10.77658      1.58925        -0.000023     -0.000139      0.000059
      8.33453     10.77658      1.58910        -0.000029     -0.000155     -0.000112
      0.00058      2.43861      1.89560         0.004770     -0.000482     -0.000480
      5.55670      2.43861      1.89545        -0.000871     -0.000025      0.000035
      0.00058      7.99734      1.89560         0.004773     -0.000529      0.000553
      5.55670      7.99734      1.89545        -0.000869     -0.000020     -0.000096
      2.78043      5.21797      8.30298        -0.000716      0.000297     -0.000124
      8.33655      5.21797      8.30283         0.001476     -0.000918      0.000105
      2.78043     10.77670      8.30298        -0.000281      0.000065     -0.000130
      8.33655     10.77670      8.30283         0.000620      0.000214      0.000113
      0.00259      2.43849      8.60933        -0.000946      0.000633      0.000920
      5.55871      2.43849      8.60919        -0.000164     -0.000130     -0.000415
      0.00259      7.99722      8.60933         0.000197     -0.000201      0.000453
      5.55871      7.99722      8.60919        -0.001303      0.000694     -0.000804
     -1.37640      1.05960      8.18451        -0.000044     -0.001113     -0.001562
      4.17971      1.05960      8.18437         0.000612     -0.000020      0.000288
     -1.37640      6.61833      8.18451        -0.001663      0.001380     -0.001190
      4.17971      6.61833      8.18437         0.001829     -0.000594      0.000628
      1.38116      3.81753      8.18442         0.001092     -0.000445     -0.000136
      6.93728      3.81753      8.18427        -0.001514      0.001302      0.000373
      1.38116      9.37626      8.18442        -0.000081      0.000132     -0.000046
      6.93728      9.37626      8.18427         0.000014     -0.001182      0.001012
      1.39985      1.03817      2.01416        -0.000777     -0.001013      0.000069
      6.95597      1.03817      2.01401         0.001667      0.001451     -0.000220
      1.39985      6.59689      2.01416        -0.027329     -0.020375     -0.001789
      6.95597      6.59689      2.01401         0.002353     -0.000175     -0.000307
      4.15741      3.83897      2.01406         0.002013     -0.000228      0.000586
      9.71353      3.83897      2.01392        -0.028702     -0.021783      0.002230
      4.15741      9.39769      2.01406         0.001363      0.001426      0.000461
      9.71353      9.39769      2.01392        -0.001087     -0.001052     -0.000004
      1.40044      3.83812      3.78391        -0.002103     -0.002083      0.003760
      6.95656      3.83812      3.78377         0.002005     -0.000057     -0.001130
      1.40044      9.39685      3.78391        -0.000644      0.001656      0.001350
      6.95656      9.39685      3.78377         0.000627     -0.000258      0.000088
      4.15774      1.03891      3.78384         0.000847      0.000100      0.000360
      9.71386      1.03891      3.78369        -0.000610      0.001833     -0.001225
      4.15774      6.59764      3.78384         0.002376      0.000128      0.001603
      9.71386      6.59764      3.78369        -0.002247     -0.001751     -0.003666
     -1.37674      3.81828      6.41474        -0.000979      0.000577     -0.002112
      4.17938      3.81828      6.41460         0.000960      0.000149      0.000339
     -1.37674      9.37700      6.41474        -0.000702     -0.000473     -0.001104
      4.17938      9.37700      6.41460         0.000466      0.000180      0.000204
      1.38057      1.05876      6.41466        -0.000111     -0.000646      0.000535
      6.93668      1.05876      6.41452         0.000131     -0.000170     -0.000212
      1.38057      6.61748      6.41466        -0.000492      0.000313      0.000620
      6.93668      6.61748      6.41452         0.000721     -0.000115      0.000555
      1.38227      3.82822      0.00001        -0.009459      0.004965      0.004686
      6.93839      3.82822     -0.00014         0.001935      0.000263      0.001287
      1.38227      9.38694      0.00001        -0.000903      0.000754     -0.001235
      6.93839      9.38694     -0.00014         0.000791     -0.000208      0.000233
      1.39874      1.04885     10.19857         0.000701     -0.000230     -0.000048
      6.95485      1.04885     10.19843        -0.000817      0.000781      0.001052
      1.39874      6.60758     10.19857         0.001833      0.000257     -0.001071
      6.95485      6.60758     10.19843        -0.009498      0.005187     -0.005133
     -1.25763      1.18232      6.18371         0.000136      0.000237      0.001305
      4.29848      1.18232      6.18356        -0.000587     -0.000009     -0.000261
     -1.25763      6.74104      6.18371         0.000719     -0.000443      0.002728
      4.29848      6.74104      6.18356        -0.000786      0.000011     -0.001120
      1.26131      3.69462      6.18369         0.000698     -0.000250     -0.001943
      6.81742      3.69462      6.18354         0.000168     -0.000248      0.000765
      1.26131      9.25335      6.18369         0.000551      0.000012     -0.000359
      6.81742      9.25335      6.18354        -0.000059      0.000143     -0.000265
      1.51970      0.91526      4.01489         0.000081      0.000723      0.000003
      7.07582      0.91526      4.01474        -0.000683     -0.000335      0.000367
      1.51970      6.47399      4.01489        -0.000531     -0.002130     -0.012464
      7.07582      6.47399      4.01474        -0.001832      0.000389      0.000084
      4.03864      3.96168      4.01487        -0.001460      0.000469     -0.000779
      9.59476      3.96168      4.01472         0.000056     -0.002162      0.012815
      4.03864      9.52041      4.01487        -0.000282     -0.000293     -0.000703
      9.59476      9.52041      4.01472         0.000613      0.000749     -0.000081
     -0.00965      5.21813      1.57032         0.106470      0.041639     -0.000128
      5.55647      5.21813      1.57017        -0.002108      0.000059     -0.000003
      0.00035     10.77686      1.57032         0.001458      0.000135      0.000109
      5.55647     10.77686      1.57017        -0.001285     -0.000619     -0.000020
      2.77849      2.43869      1.57537        -0.001753      0.002080     -0.000424
      8.33461      2.43869      1.57522        -0.006623     -0.006954     -0.001483
      2.77849      7.99742      1.57537        -0.006607     -0.006970      0.001359
      8.33461      7.99742      1.57522        -0.001745      0.002148      0.000287
      0.00252      5.21805      8.62321        -0.000645     -0.000996      0.002441
      5.55864      5.21805      8.62307        -0.001490     -0.000998     -0.002318
      0.00252     10.77678      8.62321        -0.000039      0.000194      0.000306
      5.55864     10.77678      8.62307        -0.000797      0.000198     -0.000174
      2.78066      2.43877      8.62826        -0.001083     -0.000180     -0.000697
      8.33677      2.43877      8.62811         0.003203      0.000917      0.001732
      2.78066      7.99750      8.62826        -0.001073     -0.000266      0.000213
      8.33677      7.99750      8.62811         0.003196      0.000995     -0.001436
 -----------------------------------------------------------------------------------
    total drift:                               -0.000247     -0.001113      0.000010


--------------------------------------------------------------------------------------------------------



  FREE ENERGIE OF THE ION-ELECTRON SYSTEM (eV)
  ---------------------------------------------------
  free  energy   TOTEN  =      -489.21490923 eV

  energy  without entropy=     -489.21490923  energy(sigma->0) =     -489.21490923
 


--------------------------------------------------------------------------------------------------------


    POTLOK:  cpu time    3.3331: real time    3.3354


--------------------------------------------------------------------------------------------------------


     LOOP+:  cpu time 6405.7290: real time 6467.0767
    4ORBIT:  cpu time    0.0000: real time    0.0000

 total amount of memory used by VASP MPI-rank0  1233264. kBytes
=======================================================================

   base      :      30000. kBytes
   nonl-proj :      75226. kBytes
   fftplans  :      85054. kBytes
   grid      :      64684. kBytes
   one-center:        466. kBytes
   wavefun   :     977834. kBytes
 
  
  
 General timing and accounting informations for this job:
 ========================================================
  
                  Total CPU time used (sec):     6502.584
                            User time (sec):     6433.146
                          System time (sec):       69.437
                         Elapsed time (sec):     6565.944
  
                   Maximum memory used (kb):     1437756.
                   Average memory used (kb):           0.
  
                          Minor page faults:       850946
                          Major page faults:           20
                 Voluntary context switches:        64025
