 160 160   0   0
  0.1215613E+02  0.1537564E-08  0.1124787E-08  0.1124760E-08  0.5000000E-15
  1.000000000000000E-004
  CAR 
 unknown system                          
     17.04844175    -54.79073285  301      4.89564805      1.00000000
    -54.791  0.0000E+00  0.0000E+00  0.0000E+00  0.0000E+00
    -54.551  0.0000E+00  0.0000E+00  0.0000E+00  0.0000E+00
    -54.312  0.0000E+00  0.0000E+00  0.0000E+00  0.0000E+00
    -54.072  0.0000E+00  0.0000E+00  0.0000E+00  0.0000E+00
    -53.833  0.0000E+00  0.0000E+00  0.0000E+00  0.0000E+00
    -53.593  0.0000E+00  0.0000E+00  0.0000E+00  0.0000E+00
    -53.354  0.0000E+00  0.0000E+00  0.0000E+00  0.0000E+00
    -53.114  0.0000E+00  0.0000E+00  0.0000E+00  0.0000E+00
    -52.875  0.0000E+00  0.0000E+00  0.0000E+00  0.0000E+00
    -52.636  0.0000E+00  0.0000E+00  0.0000E+00  0.0000E+00
    -52.396  0.0000E+00  0.0000E+00  0.0000E+00  0.0000E+00
    -52.157  0.0000E+00  0.0000E+00  0.0000E+00  0.0000E+00
    -51.917  0.0000E+00  0.0000E+00  0.0000E+00  0.0000E+00
    -51.678  0.3622E-03  0.0000E+00  0.8673E-04  0.0000E+00
    -51.438  0.8124E+02  0.0000E+00  0.1945E+02  0.0000E+00
    -51.199  0.5239E+02  0.0000E+00  0.3200E+02  0.0000E+00
    -50.959  0.0000E+00  0.0000E+00  0.3200E+02  0.0000E+00
    -50.720  0.0000E+00  0.0000E+00  0.3200E+02  0.0000E+00
    -50.480  0.4847E-13  0.0000E+00  0.3200E+02  0.0000E+00
    -50.241  0.7536E+01  0.0000E+00  0.3380E+02  0.0000E+00
    -50.001  0.1667E+03  0.0000E+00  0.7373E+02  0.0000E+00
    -49.762  0.9301E+02  0.0000E+00  0.9600E+02  0.0000E+00
    -49.523  0.0000E+00  0.0000E+00  0.9600E+02  0.0000E+00
    -49.283  0.0000E+00  0.0000E+00  0.9600E+02  0.0000E+00
    -49.044  0.0000E+00  0.0000E+00  0.9600E+02  0.0000E+00
    -48.804  0.0000E+00  0.0000E+00  0.9600E+02  0.0000E+00
    -48.565  0.0000E+00  0.0000E+00  0.9600E+02  0.0000E+00
    -48.325  0.0000E+00  0.0000E+00  0.9600E+02  0.0000E+00
    -48.086  0.0000E+00  0.0000E+00  0.9600E+02  0.0000E+00
    -47.846  0.0000E+00  0.0000E+00  0.9600E+02  0.0000E+00
    -47.607  0.0000E+00  0.0000E+00  0.9600E+02  0.0000E+00
    -47.367  0.0000E+00  0.0000E+00  0.9600E+02  0.0000E+00
    -47.128  0.0000E+00  0.0000E+00  0.9600E+02  0.0000E+00
    -46.888  0.0000E+00  0.1859E+00  0.9600E+02  0.4453E-01
    -46.649  0.0000E+00  0.1052E+03  0.9600E+02  0.2523E+02
    -46.409  0.0000E+00  0.1049E+03  0.9600E+02  0.5035E+02
    -46.170  0.0000E+00  0.1903E+03  0.9600E+02  0.9592E+02
    -45.931  0.0000E+00  0.3411E+00  0.9600E+02  0.9600E+02
    -45.691  0.0000E+00  0.0000E+00  0.9600E+02  0.9600E+02
    -45.452  0.0000E+00  0.0000E+00  0.9600E+02  0.9600E+02
    -45.212  0.0000E+00  0.0000E+00  0.9600E+02  0.9600E+02
    -44.973  0.0000E+00  0.0000E+00  0.9600E+02  0.9600E+02
    -44.733  0.0000E+00  0.0000E+00  0.9600E+02  0.9600E+02
    -44.494  0.0000E+00  0.0000E+00  0.9600E+02  0.9600E+02
    -44.254  0.0000E+00  0.0000E+00  0.9600E+02  0.9600E+02
    -44.015  0.0000E+00  0.0000E+00  0.9600E+02  0.9600E+02
    -43.775  0.0000E+00  0.0000E+00  0.9600E+02  0.9600E+02
    -43.536  0.0000E+00  0.0000E+00  0.9600E+02  0.9600E+02
    -43.296  0.0000E+00  0.0000E+00  0.9600E+02  0.9600E+02
    -43.057  0.0000E+00  0.0000E+00  0.9600E+02  0.9600E+02
    -42.818  0.0000E+00  0.0000E+00  0.9600E+02  0.9600E+02
    -42.578  0.0000E+00  0.0000E+00  0.9600E+02  0.9600E+02
    -42.339  0.0000E+00  0.0000E+00  0.9600E+02  0.9600E+02
    -42.099  0.0000E+00  0.0000E+00  0.9600E+02  0.9600E+02
    -41.860  0.0000E+00  0.0000E+00  0.9600E+02  0.9600E+02
    -41.620  0.0000E+00  0.0000E+00  0.9600E+02  0.9600E+02
    -41.381  0.0000E+00  0.0000E+00  0.9600E+02  0.9600E+02
    -41.141  0.0000E+00  0.0000E+00  0.9600E+02  0.9600E+02
    -40.902  0.0000E+00  0.0000E+00  0.9600E+02  0.9600E+02
    -40.662  0.9788E-15  0.2318E-15  0.9600E+02  0.9600E+02
    -40.423  0.3595E+01  0.3160E+01  0.9686E+02  0.9676E+02
    -40.183  0.1787E+03  0.1812E+03  0.1397E+03  0.1401E+03
    -39.944  0.8498E+02  0.8294E+02  0.1600E+03  0.1600E+03
    -39.705  0.0000E+00  0.0000E+00  0.1600E+03  0.1600E+03
    -39.465  0.0000E+00  0.0000E+00  0.1600E+03  0.1600E+03
    -39.226  0.0000E+00  0.0000E+00  0.1600E+03  0.1600E+03
    -38.986  0.0000E+00  0.0000E+00  0.1600E+03  0.1600E+03
    -38.747  0.0000E+00  0.0000E+00  0.1600E+03  0.1600E+03
    -38.507  0.0000E+00  0.0000E+00  0.1600E+03  0.1600E+03
    -38.268  0.0000E+00  0.0000E+00  0.1600E+03  0.1600E+03
    -38.028  0.0000E+00  0.0000E+00  0.1600E+03  0.1600E+03
    -37.789  0.0000E+00  0.0000E+00  0.1600E+03  0.1600E+03
    -37.549  0.0000E+00  0.0000E+00  0.1600E+03  0.1600E+03
    -37.310  0.0000E+00  0.0000E+00  0.1600E+03  0.1600E+03
    -37.070  0.0000E+00  0.0000E+00  0.1600E+03  0.1600E+03
    -36.831  0.0000E+00  0.0000E+00  0.1600E+03  0.1600E+03
    -36.591  0.0000E+00  0.0000E+00  0.1600E+03  0.1600E+03
    -36.352  0.0000E+00  0.0000E+00  0.1600E+03  0.1600E+03
    -36.113  0.0000E+00  0.0000E+00  0.1600E+03  0.1600E+03
    -35.873  0.0000E+00  0.0000E+00  0.1600E+03  0.1600E+03
    -35.634  0.0000E+00  0.0000E+00  0.1600E+03  0.1600E+03
    -35.394  0.0000E+00  0.0000E+00  0.1600E+03  0.1600E+03
    -35.155  0.0000E+00  0.0000E+00  0.1600E+03  0.1600E+03
    -34.915  0.0000E+00  0.0000E+00  0.1600E+03  0.1600E+03
    -34.676  0.0000E+00  0.0000E+00  0.1600E+03  0.1600E+03
    -34.436  0.0000E+00  0.0000E+00  0.1600E+03  0.1600E+03
    -34.197  0.0000E+00  0.0000E+00  0.1600E+03  0.1600E+03
    -33.957  0.0000E+00  0.0000E+00  0.1600E+03  0.1600E+03
    -33.718  0.0000E+00  0.0000E+00  0.1600E+03  0.1600E+03
    -33.478  0.0000E+00  0.0000E+00  0.1600E+03  0.1600E+03
    -33.239  0.0000E+00  0.0000E+00  0.1600E+03  0.1600E+03
    -33.000  0.0000E+00  0.0000E+00  0.1600E+03  0.1600E+03
    -32.760  0.0000E+00  0.0000E+00  0.1600E+03  0.1600E+03
    -32.521  0.0000E+00  0.0000E+00  0.1600E+03  0.1600E+03
    -32.281  0.0000E+00  0.0000E+00  0.1600E+03  0.1600E+03
    -32.042  0.0000E+00  0.0000E+00  0.1600E+03  0.1600E+03
    -31.802  0.0000E+00  0.0000E+00  0.1600E+03  0.1600E+03
    -31.563  0.0000E+00  0.0000E+00  0.1600E+03  0.1600E+03
    -31.323  0.0000E+00  0.0000E+00  0.1600E+03  0.1600E+03
    -31.084  0.0000E+00  0.0000E+00  0.1600E+03  0.1600E+03
    -30.844  0.0000E+00  0.0000E+00  0.1600E+03  0.1600E+03
    -30.605  0.0000E+00  0.0000E+00  0.1600E+03  0.1600E+03
    -30.365  0.0000E+00  0.0000E+00  0.1600E+03  0.1600E+03
    -30.126  0.0000E+00  0.0000E+00  0.1600E+03  0.1600E+03
    -29.886  0.0000E+00  0.0000E+00  0.1600E+03  0.1600E+03
    -29.647  0.0000E+00  0.0000E+00  0.1600E+03  0.1600E+03
    -29.408  0.0000E+00  0.0000E+00  0.1600E+03  0.1600E+03
    -29.168  0.0000E+00  0.0000E+00  0.1600E+03  0.1600E+03
    -28.929  0.0000E+00  0.0000E+00  0.1600E+03  0.1600E+03
    -28.689  0.0000E+00  0.0000E+00  0.1600E+03  0.1600E+03
    -28.450  0.0000E+00  0.0000E+00  0.1600E+03  0.1600E+03
    -28.210  0.0000E+00  0.0000E+00  0.1600E+03  0.1600E+03
    -27.971  0.0000E+00  0.0000E+00  0.1600E+03  0.1600E+03
    -27.731  0.0000E+00  0.0000E+00  0.1600E+03  0.1600E+03
    -27.492  0.0000E+00  0.0000E+00  0.1600E+03  0.1600E+03
    -27.252  0.0000E+00  0.0000E+00  0.1600E+03  0.1600E+03
    -27.013  0.0000E+00  0.0000E+00  0.1600E+03  0.1600E+03
    -26.773  0.0000E+00  0.0000E+00  0.1600E+03  0.1600E+03
    -26.534  0.0000E+00  0.0000E+00  0.1600E+03  0.1600E+03
    -26.295  0.0000E+00  0.0000E+00  0.1600E+03  0.1600E+03
    -26.055  0.0000E+00  0.0000E+00  0.1600E+03  0.1600E+03
    -25.816  0.0000E+00  0.0000E+00  0.1600E+03  0.1600E+03
    -25.576  0.0000E+00  0.0000E+00  0.1600E+03  0.1600E+03
    -25.337  0.0000E+00  0.0000E+00  0.1600E+03  0.1600E+03
    -25.097  0.0000E+00  0.0000E+00  0.1600E+03  0.1600E+03
    -24.858  0.0000E+00  0.0000E+00  0.1600E+03  0.1600E+03
    -24.618  0.0000E+00  0.0000E+00  0.1600E+03  0.1600E+03
    -24.379  0.0000E+00  0.0000E+00  0.1600E+03  0.1600E+03
    -24.139  0.0000E+00  0.0000E+00  0.1600E+03  0.1600E+03
    -23.900  0.0000E+00  0.0000E+00  0.1600E+03  0.1600E+03
    -23.660  0.0000E+00  0.0000E+00  0.1600E+03  0.1600E+03
    -23.421  0.0000E+00  0.0000E+00  0.1600E+03  0.1600E+03
    -23.181  0.0000E+00  0.0000E+00  0.1600E+03  0.1600E+03
    -22.942  0.0000E+00  0.0000E+00  0.1600E+03  0.1600E+03
    -22.703  0.0000E+00  0.0000E+00  0.1600E+03  0.1600E+03
    -22.463  0.0000E+00  0.0000E+00  0.1600E+03  0.1600E+03
    -22.224  0.0000E+00  0.0000E+00  0.1600E+03  0.1600E+03
    -21.984  0.0000E+00  0.0000E+00  0.1600E+03  0.1600E+03
    -21.745  0.0000E+00  0.0000E+00  0.1600E+03  0.1600E+03
    -21.505  0.0000E+00  0.0000E+00  0.1600E+03  0.1600E+03
    -21.266  0.0000E+00  0.0000E+00  0.1600E+03  0.1600E+03
    -21.026  0.0000E+00  0.0000E+00  0.1600E+03  0.1600E+03
    -20.787  0.0000E+00  0.0000E+00  0.1600E+03  0.1600E+03
    -20.547  0.0000E+00  0.0000E+00  0.1600E+03  0.1600E+03
    -20.308  0.0000E+00  0.0000E+00  0.1600E+03  0.1600E+03
    -20.068  0.0000E+00  0.0000E+00  0.1600E+03  0.1600E+03
    -19.829  0.0000E+00  0.0000E+00  0.1600E+03  0.1600E+03
    -19.590  0.0000E+00  0.0000E+00  0.1600E+03  0.1600E+03
    -19.350  0.0000E+00  0.0000E+00  0.1600E+03  0.1600E+03
    -19.111  0.0000E+00  0.0000E+00  0.1600E+03  0.1600E+03
    -18.871  0.0000E+00  0.0000E+00  0.1600E+03  0.1600E+03
    -18.632  0.0000E+00  0.0000E+00  0.1600E+03  0.1600E+03
    -18.392  0.0000E+00  0.0000E+00  0.1600E+03  0.1600E+03
    -18.153  0.0000E+00  0.0000E+00  0.1600E+03  0.1600E+03
    -17.913  0.0000E+00  0.0000E+00  0.1600E+03  0.1600E+03
    -17.674  0.0000E+00  0.0000E+00  0.1600E+03  0.1600E+03
    -17.434  0.0000E+00  0.0000E+00  0.1600E+03  0.1600E+03
    -17.195  0.0000E+00  0.0000E+00  0.1600E+03  0.1600E+03
    -16.955  0.0000E+00  0.0000E+00  0.1600E+03  0.1600E+03
    -16.716  0.0000E+00  0.0000E+00  0.1600E+03  0.1600E+03
    -16.477  0.0000E+00  0.0000E+00  0.1600E+03  0.1600E+03
    -16.237  0.0000E+00  0.0000E+00  0.1600E+03  0.1600E+03
    -15.998  0.0000E+00  0.0000E+00  0.1600E+03  0.1600E+03
    -15.758  0.0000E+00  0.0000E+00  0.1600E+03  0.1600E+03
    -15.519  0.0000E+00  0.0000E+00  0.1600E+03  0.1600E+03
    -15.279  0.0000E+00  0.0000E+00  0.1600E+03  0.1600E+03
    -15.040  0.0000E+00  0.0000E+00  0.1600E+03  0.1600E+03
    -14.800  0.0000E+00  0.0000E+00  0.1600E+03  0.1600E+03
    -14.561  0.0000E+00  0.0000E+00  0.1600E+03  0.1600E+03
    -14.321  0.0000E+00  0.0000E+00  0.1600E+03  0.1600E+03
    -14.082  0.0000E+00  0.0000E+00  0.1600E+03  0.1600E+03
    -13.842  0.0000E+00  0.0000E+00  0.1600E+03  0.1600E+03
    -13.603  0.1869E-01  0.0000E+00  0.1600E+03  0.1600E+03
    -13.363  0.5275E+02  0.2091E-05  0.1726E+03  0.1600E+03
    -13.124  0.7214E+02  0.2864E+02  0.1899E+03  0.1669E+03
    -12.885  0.8730E+01  0.9999E+02  0.1920E+03  0.1908E+03
    -12.645  0.0000E+00  0.5004E+01  0.1920E+03  0.1920E+03
    -12.406  0.0000E+00  0.0000E+00  0.1920E+03  0.1920E+03
    -12.166  0.0000E+00  0.0000E+00  0.1920E+03  0.1920E+03
    -11.927  0.0000E+00  0.0000E+00  0.1920E+03  0.1920E+03
    -11.687  0.0000E+00  0.0000E+00  0.1920E+03  0.1920E+03
    -11.448  0.0000E+00  0.0000E+00  0.1920E+03  0.1920E+03
    -11.208  0.0000E+00  0.0000E+00  0.1920E+03  0.1920E+03
    -10.969  0.0000E+00  0.0000E+00  0.1920E+03  0.1920E+03
    -10.729  0.0000E+00  0.0000E+00  0.1920E+03  0.1920E+03
    -10.490  0.0000E+00  0.0000E+00  0.1920E+03  0.1920E+03
    -10.250  0.0000E+00  0.0000E+00  0.1920E+03  0.1920E+03
    -10.011  0.0000E+00  0.0000E+00  0.1920E+03  0.1920E+03
     -9.772  0.0000E+00  0.0000E+00  0.1920E+03  0.1920E+03
     -9.532  0.0000E+00  0.0000E+00  0.1920E+03  0.1920E+03
     -9.293  0.0000E+00  0.0000E+00  0.1920E+03  0.1920E+03
     -9.053  0.0000E+00  0.0000E+00  0.1920E+03  0.1920E+03
     -8.814  0.0000E+00  0.0000E+00  0.1920E+03  0.1920E+03
     -8.574  0.0000E+00  0.0000E+00  0.1920E+03  0.1920E+03
     -8.335  0.0000E+00  0.0000E+00  0.1920E+03  0.1920E+03
     -8.095  0.0000E+00  0.0000E+00  0.1920E+03  0.1920E+03
     -7.856  0.3731E-10  0.0000E+00  0.1920E+03  0.1920E+03
     -7.616  0.1505E+01  0.3656E-07  0.1924E+03  0.1920E+03
     -7.377  0.4662E+02  0.7518E+01  0.2035E+03  0.1938E+03
     -7.137  0.6534E+02  0.6068E+02  0.2192E+03  0.2083E+03
     -6.898  0.2016E+02  0.5448E+02  0.2240E+03  0.2214E+03
     -6.658  0.1058E-01  0.1095E+02  0.2240E+03  0.2240E+03
     -6.419  0.0000E+00  0.3950E-02  0.2240E+03  0.2240E+03
     -6.180  0.0000E+00  0.0000E+00  0.2240E+03  0.2240E+03
     -5.940  0.0000E+00  0.0000E+00  0.2240E+03  0.2240E+03
     -5.701  0.0000E+00  0.0000E+00  0.2240E+03  0.2240E+03
     -5.461  0.0000E+00  0.0000E+00  0.2240E+03  0.2240E+03
     -5.222  0.0000E+00  0.0000E+00  0.2240E+03  0.2240E+03
     -4.982  0.0000E+00  0.0000E+00  0.2240E+03  0.2240E+03
     -4.743  0.0000E+00  0.0000E+00  0.2240E+03  0.2240E+03
     -4.503  0.0000E+00  0.0000E+00  0.2240E+03  0.2240E+03
     -4.264  0.0000E+00  0.0000E+00  0.2240E+03  0.2240E+03
     -4.024  0.0000E+00  0.0000E+00  0.2240E+03  0.2240E+03
     -3.785  0.0000E+00  0.0000E+00  0.2240E+03  0.2240E+03
     -3.545  0.0000E+00  0.0000E+00  0.2240E+03  0.2240E+03
     -3.306  0.0000E+00  0.0000E+00  0.2240E+03  0.2240E+03
     -3.067  0.0000E+00  0.0000E+00  0.2240E+03  0.2240E+03
     -2.827  0.4507E-15  0.0000E+00  0.2240E+03  0.2240E+03
     -2.588  0.3924E+00  0.0000E+00  0.2241E+03  0.2240E+03
     -2.348  0.3081E+02  0.0000E+00  0.2315E+03  0.2240E+03
     -2.109  0.1160E+02  0.0000E+00  0.2343E+03  0.2240E+03
     -1.869  0.1287E+02  0.0000E+00  0.2373E+03  0.2240E+03
     -1.630  0.1133E+02  0.0000E+00  0.2400E+03  0.2240E+03
     -1.390  0.1565E+02  0.0000E+00  0.2438E+03  0.2240E+03
     -1.151  0.6268E+02  0.2153E-05  0.2588E+03  0.2240E+03
     -0.911  0.7650E+02  0.3362E+01  0.2771E+03  0.2248E+03
     -0.672  0.6754E+02  0.3283E+02  0.2933E+03  0.2327E+03
     -0.432  0.7777E+02  0.1890E+02  0.3119E+03  0.2372E+03
     -0.193  0.1060E+03  0.1910E+02  0.3373E+03  0.2418E+03
      0.047  0.7871E+02  0.1221E+02  0.3562E+03  0.2447E+03
      0.286  0.5348E+02  0.3168E+02  0.3690E+03  0.2523E+03
      0.525  0.4756E+02  0.8130E+02  0.3804E+03  0.2717E+03
      0.765  0.4627E+02  0.6835E+02  0.3914E+03  0.2881E+03
      1.004  0.4662E+02  0.6981E+02  0.4026E+03  0.3048E+03
      1.244  0.7664E+02  0.6352E+02  0.4210E+03  0.3200E+03
      1.483  0.8758E+02  0.2170E+02  0.4419E+03  0.3252E+03
      1.723  0.5838E+02  0.5068E+02  0.4559E+03  0.3374E+03
      1.962  0.4006E+02  0.5159E+02  0.4655E+03  0.3497E+03
      2.202  0.4715E+02  0.3060E+02  0.4768E+03  0.3571E+03
      2.441  0.4167E+02  0.3900E+02  0.4868E+03  0.3664E+03
      2.681  0.5331E+02  0.6456E+02  0.4995E+03  0.3819E+03
      2.920  0.5381E+02  0.7222E+02  0.5124E+03  0.3991E+03
      3.160  0.5660E+02  0.6009E+02  0.5260E+03  0.4135E+03
      3.399  0.5308E+02  0.1613E+02  0.5387E+03  0.4174E+03
      3.638  0.5331E+02  0.3607E+02  0.5515E+03  0.4260E+03
      3.878  0.3996E+02  0.5939E+02  0.5610E+03  0.4403E+03
      4.117  0.3550E+02  0.3226E+02  0.5695E+03  0.4480E+03
      4.357  0.1927E+02  0.4564E-01  0.5741E+03  0.4480E+03
      4.596  0.7459E+01  0.0000E+00  0.5759E+03  0.4480E+03
      4.836  0.3270E+00  0.0000E+00  0.5760E+03  0.4480E+03
      5.075  0.0000E+00  0.0000E+00  0.5760E+03  0.4480E+03
      5.315  0.0000E+00  0.0000E+00  0.5760E+03  0.4480E+03
      5.554  0.0000E+00  0.0000E+00  0.5760E+03  0.4480E+03
      5.794  0.0000E+00  0.0000E+00  0.5760E+03  0.4480E+03
      6.033  0.0000E+00  0.0000E+00  0.5760E+03  0.4480E+03
      6.273  0.0000E+00  0.1545E-15  0.5760E+03  0.4480E+03
      6.512  0.0000E+00  0.6522E-01  0.5760E+03  0.4480E+03
      6.751  0.0000E+00  0.2418E+02  0.5760E+03  0.4538E+03
      6.991  0.6364E-06  0.7763E+02  0.5760E+03  0.4724E+03
      7.230  0.2290E+00  0.6326E+02  0.5761E+03  0.4875E+03
      7.470  0.1838E+00  0.6378E+02  0.5761E+03  0.5028E+03
      7.709  0.1388E+01  0.6310E+02  0.5764E+03  0.5179E+03
      7.949  0.3007E+01  0.9490E+02  0.5772E+03  0.5407E+03
      8.188  0.6534E+01  0.7288E+02  0.5787E+03  0.5581E+03
      8.428  0.9490E+01  0.4922E+02  0.5810E+03  0.5699E+03
      8.667  0.1870E+02  0.2510E+02  0.5855E+03  0.5759E+03
      8.907  0.2337E+02  0.7275E+01  0.5911E+03  0.5776E+03
      9.146  0.3138E+02  0.8595E+01  0.5986E+03  0.5797E+03
      9.386  0.2849E+02  0.1779E+02  0.6054E+03  0.5840E+03
      9.625  0.2981E+02  0.2679E+02  0.6125E+03  0.5904E+03
      9.865  0.2621E+02  0.3191E+02  0.6188E+03  0.5980E+03
     10.104  0.1757E+02  0.3783E+02  0.6230E+03  0.6071E+03
     10.343  0.2592E+02  0.3351E+02  0.6292E+03  0.6151E+03
     10.583  0.3626E+02  0.2857E+02  0.6379E+03  0.6219E+03
     10.822  0.4023E+02  0.3307E+02  0.6475E+03  0.6299E+03
     11.062  0.3299E+02  0.2823E+02  0.6554E+03  0.6366E+03
     11.301  0.4926E+02  0.2601E+02  0.6672E+03  0.6429E+03
     11.541  0.4115E+02  0.2918E+02  0.6771E+03  0.6498E+03
     11.780  0.4151E+02  0.5090E+02  0.6870E+03  0.6620E+03
     12.020  0.3404E+02  0.5025E+02  0.6952E+03  0.6741E+03
     12.259  0.3280E+02  0.5609E+02  0.7030E+03  0.6875E+03
     12.499  0.3251E+02  0.3155E+02  0.7108E+03  0.6950E+03
     12.738  0.3681E+02  0.3267E+02  0.7196E+03  0.7029E+03
     12.978  0.3459E+02  0.3215E+02  0.7279E+03  0.7106E+03
     13.217  0.1567E+02  0.3812E+02  0.7317E+03  0.7197E+03
     13.456  0.9772E+00  0.3410E+02  0.7319E+03  0.7279E+03
     13.696  0.3534E+00  0.1652E+02  0.7320E+03  0.7318E+03
     13.935  0.0000E+00  0.7507E+00  0.7320E+03  0.7320E+03
     14.175  0.0000E+00  0.3153E-05  0.7320E+03  0.7320E+03
     14.414  0.0000E+00  0.0000E+00  0.7320E+03  0.7320E+03
     14.654  0.0000E+00  0.0000E+00  0.7320E+03  0.7320E+03
     14.893  0.0000E+00  0.0000E+00  0.7320E+03  0.7320E+03
     15.133  0.0000E+00  0.0000E+00  0.7320E+03  0.7320E+03
     15.372  0.0000E+00  0.0000E+00  0.7320E+03  0.7320E+03
     15.612  0.0000E+00  0.0000E+00  0.7320E+03  0.7320E+03
     15.851  0.0000E+00  0.0000E+00  0.7320E+03  0.7320E+03
     16.091  0.0000E+00  0.0000E+00  0.7320E+03  0.7320E+03
     16.330  0.0000E+00  0.0000E+00  0.7320E+03  0.7320E+03
     16.570  0.0000E+00  0.0000E+00  0.7320E+03  0.7320E+03
     16.809  0.0000E+00  0.0000E+00  0.7320E+03  0.7320E+03
     17.048  0.0000E+00  0.0000E+00  0.7320E+03  0.7320E+03
