 vasp.5.4.4.18Apr17-6-g9f103f2a35 (build Oct 25 2017 14:42:18) complex          
  
 executed on             LinuxIFC date 2021.06.16  20:09:50
 running on   48 total cores
 distrk:  each k-point on   24 cores,    2 groups
 distr:  one band on NCORES_PER_BAND=   6 cores,    4 groups


--------------------------------------------------------------------------------------------------------


 INCAR:
 POTCAR:    PAW_PBE Li_sv 10Sep2004               
 POTCAR:    PAW_PBE Fe_pv 02Aug2007               
 POTCAR:    PAW_PBE S 06Sep2000                   
 POTCAR:    PAW_PBE O 08Apr2002                   

 ----------------------------------------------------------------------------- 
|                                                                             |
|           W    W    AA    RRRRR   N    N  II  N    N   GGGG   !!!           |
|           W    W   A  A   R    R  NN   N  II  NN   N  G    G  !!!           |
|           W    W  A    A  R    R  N N  N  II  N N  N  G       !!!           |
|           W WW W  AAAAAA  RRRRR   N  N N  II  N  N N  G  GGG   !            |
|           WW  WW  A    A  R   R   N   NN  II  N   NN  G    G                |
|           W    W  A    A  R    R  N    N  II  N    N   GGGG   !!!           |
|                                                                             |
|      You have enabled k-point parallelism (KPAR>1).                         |
|      This developmental code was originally  written by Paul Kent at ORNL,  |
|      and carefully double checked in Vienna.                                |
|      GW as well as linear response parallelism added by Martijn Marsman     |
|      and Georg Kresse.                                                      |
|      Carefully verify results versus KPAR=1.                                |
|      Report problems to Paul Kent and Vienna.                               |
|                                                                             |
 ----------------------------------------------------------------------------- 

 POTCAR:    PAW_PBE Li_sv 10Sep2004               
  local pseudopotential read in
  atomic valenz-charges read in
  non local Contribution for L=           0  read in
    real space projection operators read in
  non local Contribution for L=           0  read in
    real space projection operators read in
  non local Contribution for L=           1  read in
    real space projection operators read in
    PAW grid and wavefunctions read in
 
   number of l-projection  operators is LMAX  =           3
   number of lm-projection operators is LMMAX =           5
 
 POTCAR:    PAW_PBE Fe_pv 02Aug2007               
  local pseudopotential read in
  partial core-charges read in
  partial kinetic energy density read in
  atomic valenz-charges read in
  non local Contribution for L=           1  read in
    real space projection operators read in
  non local Contribution for L=           1  read in
    real space projection operators read in
  non local Contribution for L=           2  read in
    real space projection operators read in
  non local Contribution for L=           2  read in
    real space projection operators read in
  non local Contribution for L=           0  read in
    real space projection operators read in
  non local Contribution for L=           0  read in
    real space projection operators read in
    PAW grid and wavefunctions read in
 
   number of l-projection  operators is LMAX  =           6
   number of lm-projection operators is LMMAX =          18
 
 POTCAR:    PAW_PBE S 06Sep2000                   
  local pseudopotential read in
  partial core-charges read in
  partial kinetic energy density read in
  atomic valenz-charges read in
  non local Contribution for L=           0  read in
    real space projection operators read in
  non local Contribution for L=           0  read in
    real space projection operators read in
  non local Contribution for L=           1  read in
    real space projection operators read in
  non local Contribution for L=           1  read in
    real space projection operators read in
    PAW grid and wavefunctions read in
 
   number of l-projection  operators is LMAX  =           4
   number of lm-projection operators is LMMAX =           8
 
 POTCAR:    PAW_PBE O 08Apr2002                   
  local pseudopotential read in
  partial core-charges read in
  partial kinetic energy density read in
  kinetic energy density of atom read in
  atomic valenz-charges read in
  non local Contribution for L=           0  read in
    real space projection operators read in
  non local Contribution for L=           0  read in
    real space projection operators read in
  non local Contribution for L=           1  read in
    real space projection operators read in
  non local Contribution for L=           1  read in
    real space projection operators read in
    PAW grid and wavefunctions read in
 
   number of l-projection  operators is LMAX  =           4
   number of lm-projection operators is LMMAX =           8
 

 ----------------------------------------------------------------------------- 
|                                                                             |
|  ADVICE TO THIS USER RUNNING 'VASP/VAMP'   (HEAR YOUR MASTER'S VOICE ...):  |
|                                                                             |
|      You have a (more or less) 'large supercell' and for larger cells       |
|      it might be more efficient to use real space projection opertators     |
|      So try LREAL= Auto  in the INCAR   file.                               |
|      Mind:          For very  accurate calculation you might also keep the  |
|      reciprocal projection scheme          (i.e. LREAL=.FALSE.)             |
|                                                                             |
 ----------------------------------------------------------------------------- 

  PAW_PBE Li_sv 10Sep2004               :
 energy of atom  1       EATOM= -202.7858
 kinetic energy error for atom=    0.0072 (will be added to EATOM!!)
  PAW_PBE Fe_pv 02Aug2007               :
 energy of atom  2       EATOM=-2457.4239
 kinetic energy error for atom=    0.0041 (will be added to EATOM!!)
  PAW_PBE S 06Sep2000                   :
 energy of atom  3       EATOM= -276.8230
 kinetic energy error for atom=    0.0008 (will be added to EATOM!!)
  PAW_PBE O 08Apr2002                   :
 energy of atom  4       EATOM= -432.3788
 kinetic energy error for atom=    0.0129 (will be added to EATOM!!)
 
 
 POSCAR: # Compound: Li64Fe32S32O32. Old comment:
  positions in direct lattice
  No initial velocities read in
 exchange correlation table for  LEXCH =        8
   RHO(1)=    0.500       N(1)  =     2000
   RHO(2)=  100.500       N(2)  =     4000
 


--------------------------------------------------------------------------------------------------------


 ion  position               nearest neighbor table
   1  0.125  0.276  0.475- 133 1.96 149 1.97  97 2.54 105 2.54
   2  0.625  0.276  0.475- 150 1.96 134 1.97  98 2.54 106 2.54
   3  0.125  0.776  0.475- 151 1.96 135 1.97  99 2.54 107 2.54
   4  0.625  0.776  0.475- 152 1.96 136 1.97 100 2.54 108 2.54
   5  0.125  0.276  0.975- 145 1.96 129 1.97 101 2.54 109 2.54
   6  0.625  0.276  0.975- 146 1.96 130 1.97 102 2.54 110 2.54
   7  0.125  0.776  0.975- 147 1.96 131 1.97 103 2.54 111 2.54
   8  0.625  0.776  0.975- 148 1.96 132 1.97 104 2.54 112 2.54
   9  0.125  0.474  0.275- 155 1.96 139 1.97 105 2.54  97 2.54
  10  0.625  0.474  0.275- 156 1.96 140 1.97 106 2.54  98 2.54
  11  0.125  0.974  0.275- 153 1.96 137 1.97 107 2.54  99 2.54
  12  0.625  0.974  0.275- 154 1.96 138 1.97 108 2.54 100 2.54
  13  0.125  0.474  0.775- 159 1.96 143 1.97 109 2.54 101 2.54
  14  0.625  0.474  0.775- 160 1.96 144 1.97 110 2.54 102 2.54
  15  0.125  0.974  0.775- 157 1.96 141 1.97 111 2.54 103 2.54
  16  0.625  0.974  0.775- 158 1.96 142 1.97 112 2.54 104 2.54
  17  0.375  0.224  0.025- 145 1.96 130 1.97 113 2.54 121 2.54
  18  0.875  0.224  0.025- 146 1.96 129 1.97 114 2.54 122 2.54
  19  0.375  0.724  0.025- 147 1.96 132 1.97 115 2.54 123 2.54
  20  0.875  0.724  0.025- 148 1.96 131 1.97 116 2.54 124 2.54
  21  0.375  0.224  0.525- 149 1.96 134 1.97 117 2.54 125 2.54
  22  0.875  0.224  0.525- 150 1.96 133 1.97 118 2.54 126 2.54
  23  0.375  0.724  0.525- 151 1.96 136 1.97 119 2.54 127 2.54
  24  0.875  0.724  0.525- 152 1.96 135 1.97 120 2.54 128 2.54
  25  0.375  0.026  0.225- 153 1.96 138 1.97 121 2.54 113 2.54
  26  0.875  0.026  0.225- 154 1.96 137 1.97 122 2.54 114 2.54
  27  0.375  0.526  0.225- 155 1.96 140 1.97 123 2.54 115 2.54
  28  0.875  0.526  0.225- 156 1.96 139 1.97 124 2.54 116 2.54
  29  0.375  0.026  0.725- 157 1.96 142 1.97 125 2.54 117 2.54
  30  0.875  0.026  0.725- 158 1.96 141 1.97 126 2.54 118 2.54
  31  0.375  0.526  0.725- 159 1.96 144 1.97 127 2.54 119 2.54
  32  0.875  0.526  0.725- 160 1.96 143 1.97 128 2.54 120 2.54
  33  0.276  0.375  0.375- 149 2.01 155 2.01 119 2.52 121 2.52
  34  0.776  0.375  0.375- 150 2.01 156 2.01 120 2.52 122 2.52
  35  0.276  0.875  0.375- 151 2.01 153 2.01 117 2.52 123 2.52
  36  0.776  0.875  0.375- 152 2.01 154 2.01 118 2.52 124 2.52
  37  0.276  0.375  0.875- 145 2.01 159 2.01 115 2.52 125 2.52
  38  0.776  0.375  0.875- 146 2.01 160 2.01 116 2.52 126 2.52
  39  0.276  0.875  0.875- 147 2.01 157 2.01 113 2.52 127 2.52
  40  0.776  0.875  0.875- 148 2.01 158 2.01 114 2.52 128 2.52
  41  0.224  0.125  0.125- 145 2.01 153 2.01 103 2.52 105 2.52
  42  0.724  0.125  0.125- 146 2.01 154 2.01 104 2.52 106 2.52
  43  0.224  0.625  0.125- 147 2.01 155 2.01 101 2.52 107 2.52
  44  0.724  0.625  0.125- 148 2.01 156 2.01 102 2.52 108 2.52
  45  0.224  0.125  0.625- 149 2.01 157 2.01  99 2.52 109 2.52
  46  0.724  0.125  0.625- 150 2.01 158 2.01 100 2.52 110 2.52
  47  0.224  0.625  0.625- 151 2.01 159 2.01  97 2.52 111 2.52
  48  0.724  0.625  0.625- 152 2.01 160 2.01  98 2.52 112 2.52
  49  0.500  0.375  0.125- 130 2.00 140 2.00
  50  1.000  0.375  0.125- 129 2.00 139 2.00
  51  0.500  0.875  0.125- 132 2.00 138 2.00
  52  1.000  0.875  0.125- 131 2.00 137 2.00
  53  0.500  0.375  0.625- 134 2.00 144 2.00
  54  1.000  0.375  0.625- 133 2.00 143 2.00
  55  0.500  0.875  0.625- 136 2.00 142 2.00
  56  1.000  0.875  0.625- 135 2.00 141 2.00
  57  0.000  0.125  0.375- 133 2.00 137 2.00
  58  0.500  0.125  0.375- 134 2.00 138 2.00
  59  0.000  0.625  0.375- 135 2.00 139 2.00
  60  0.500  0.625  0.375- 136 2.00 140 2.00
  61  0.000  0.125  0.875- 129 2.00 141 2.00
  62  0.500  0.125  0.875- 130 2.00 142 2.00
  63  0.000  0.625  0.875- 131 2.00 143 2.00
  64  0.500  0.625  0.875- 132 2.00 144 2.00
  65  0.479  0.375  0.375- 134 2.00 140 2.00 119 2.57 121 2.57
  66  0.979  0.375  0.375- 133 2.00 139 2.00 120 2.57 122 2.57
  67  0.479  0.875  0.375- 136 2.00 138 2.00 117 2.57 123 2.57
  68  0.979  0.875  0.375- 135 2.00 137 2.00 118 2.57 124 2.57
  69  0.479  0.375  0.875- 130 2.00 144 2.00 115 2.57 125 2.57
  70  0.979  0.375  0.875- 129 2.00 143 2.00 116 2.57 126 2.57
  71  0.479  0.875  0.875- 132 2.00 142 2.00 113 2.57 127 2.57
  72  0.979  0.875  0.875- 131 2.00 141 2.00 114 2.57 128 2.57
  73  0.021  0.125  0.125- 129 2.00 137 2.00 103 2.57 105 2.57
  74  0.521  0.125  0.125- 130 2.00 138 2.00 104 2.57 106 2.57
  75  0.021  0.625  0.125- 131 2.00 139 2.00 101 2.57 107 2.57
  76  0.521  0.625  0.125- 132 2.00 140 2.00 102 2.57 108 2.57
  77  0.021  0.125  0.625- 133 2.00 141 2.00  99 2.57 109 2.57
  78  0.521  0.125  0.625- 134 2.00 142 2.00 100 2.57 110 2.57
  79  0.021  0.625  0.625- 135 2.00 143 2.00  97 2.57 111 2.57
  80  0.521  0.625  0.625- 136 2.00 144 2.00  98 2.57 112 2.57
  81  0.250  0.375  0.125- 145 2.00 155 2.00 115 2.75 121 2.75 101 2.75 105 2.75
  82  0.750  0.375  0.125- 146 2.00 156 2.00 116 2.75 122 2.75 102 2.75 106 2.75
  83  0.250  0.875  0.125- 147 2.00 153 2.00 113 2.75 123 2.75 103 2.75 107 2.75
  84  0.750  0.875  0.125- 148 2.00 154 2.00 114 2.75 124 2.75 104 2.75 108 2.75
  85  0.250  0.375  0.625- 149 2.00 159 2.00 119 2.75 125 2.75  97 2.75 109 2.75
  86  0.750  0.375  0.625- 150 2.00 160 2.00 120 2.75 126 2.75  98 2.75 110 2.75
  87  0.250  0.875  0.625- 151 2.00 157 2.00 117 2.75 127 2.75  99 2.75 111 2.75
  88  0.750  0.875  0.625- 152 2.00 158 2.00 118 2.75 128 2.75 100 2.75 112 2.75
  89  0.250  0.125  0.375- 149 2.00 153 2.00  99 2.75 105 2.75 117 2.75 121 2.75
  90  0.750  0.125  0.375- 150 2.00 154 2.00 100 2.75 106 2.75 118 2.75 122 2.75
  91  0.250  0.625  0.375- 151 2.00 155 2.00  97 2.75 107 2.75 119 2.75 123 2.75
  92  0.750  0.625  0.375- 152 2.00 156 2.00  98 2.75 108 2.75 120 2.75 124 2.75
  93  0.250  0.125  0.875- 145 2.00 157 2.00 103 2.75 109 2.75 113 2.75 125 2.75
  94  0.750  0.125  0.875- 146 2.00 158 2.00 104 2.75 110 2.75 114 2.75 126 2.75
  95  0.250  0.625  0.875- 147 2.00 159 2.00 101 2.75 111 2.75 115 2.75 127 2.75
  96  0.750  0.625  0.875- 148 2.00 160 2.00 102 2.75 112 2.75 116 2.75 128 2.75
  97  0.125  0.500  0.500-  47 2.52   1 2.54   9 2.54  79 2.57  91 2.75  85 2.75
  98  0.625  0.500  0.500-  48 2.52   2 2.54  10 2.54  80 2.57  92 2.75  86 2.75
  99  0.125  1.000  0.500-  45 2.52   3 2.54  11 2.54  77 2.57  89 2.75  87 2.75
 100  0.625  1.000  0.500-  46 2.52   4 2.54  12 2.54  78 2.57  90 2.75  88 2.75
 101  0.125  0.500  1.000-  43 2.52   5 2.54  13 2.54  75 2.57  95 2.75  81 2.75
 102  0.625  0.500  1.000-  44 2.52   6 2.54  14 2.54  76 2.57  96 2.75  82 2.75
 103  0.125  1.000  1.000-  41 2.52   7 2.54  15 2.54  73 2.57  93 2.75  83 2.75
 104  0.625  1.000  1.000-  42 2.52   8 2.54  16 2.54  74 2.57  94 2.75  84 2.75
 105  0.125  0.250  0.250-  41 2.52   9 2.54   1 2.54  73 2.57  89 2.75  81 2.75
 106  0.625  0.250  0.250-  42 2.52  10 2.54   2 2.54  74 2.57  90 2.75  82 2.75
 107  0.125  0.750  0.250-  43 2.52  11 2.54   3 2.54  75 2.57  91 2.75  83 2.75
 108  0.625  0.750  0.250-  44 2.52  12 2.54   4 2.54  76 2.57  92 2.75  84 2.75
 109  0.125  0.250  0.750-  45 2.52  13 2.54   5 2.54  77 2.57  93 2.75  85 2.75
 110  0.625  0.250  0.750-  46 2.52  14 2.54   6 2.54  78 2.57  94 2.75  86 2.75
 111  0.125  0.750  0.750-  47 2.52  15 2.54   7 2.54  79 2.57  95 2.75  87 2.75
 112  0.625  0.750  0.750-  48 2.52  16 2.54   8 2.54  80 2.57  96 2.75  88 2.75
 113  0.375  0.000  0.000-  39 2.52  17 2.54  25 2.54  71 2.57  83 2.75  93 2.75
 114  0.875  0.000  0.000-  40 2.52  18 2.54  26 2.54  72 2.57  84 2.75  94 2.75
 115  0.375  0.500  0.000-  37 2.52  19 2.54  27 2.54  69 2.57  81 2.75  95 2.75
 116  0.875  0.500  0.000-  38 2.52  20 2.54  28 2.54  70 2.57  82 2.75  96 2.75
 117  0.375  0.000  0.500-  35 2.52  21 2.54  29 2.54  67 2.57  87 2.75  89 2.75
 118  0.875  0.000  0.500-  36 2.52  22 2.54  30 2.54  68 2.57  88 2.75  90 2.75
 119  0.375  0.500  0.500-  33 2.52  23 2.54  31 2.54  65 2.57  85 2.75  91 2.75
 120  0.875  0.500  0.500-  34 2.52  24 2.54  32 2.54  66 2.57  86 2.75  92 2.75
 121  0.375  0.250  0.250-  33 2.52  25 2.54  17 2.54  65 2.57  81 2.75  89 2.75
 122  0.875  0.250  0.250-  34 2.52  26 2.54  18 2.54  66 2.57  82 2.75  90 2.75
 123  0.375  0.750  0.250-  35 2.52  27 2.54  19 2.54  67 2.57  83 2.75  91 2.75
 124  0.875  0.750  0.250-  36 2.52  28 2.54  20 2.54  68 2.57  84 2.75  92 2.75
 125  0.375  0.250  0.750-  37 2.52  29 2.54  21 2.54  69 2.57  85 2.75  93 2.75
 126  0.875  0.250  0.750-  38 2.52  30 2.54  22 2.54  70 2.57  86 2.75  94 2.75
 127  0.375  0.750  0.750-  39 2.52  31 2.54  23 2.54  71 2.57  87 2.75  95 2.75
 128  0.875  0.750  0.750-  40 2.52  32 2.54  24 2.54  72 2.57  88 2.75  96 2.75
 129  0.000  0.250  0.000-   5 1.97  18 1.97  70 2.00  73 2.00  50 2.00  61 2.00
 130  0.500  0.250  0.000-   6 1.97  17 1.97  69 2.00  74 2.00  49 2.00  62 2.00
 131  0.000  0.750  0.000-   7 1.97  20 1.97  72 2.00  75 2.00  52 2.00  63 2.00
 132  0.500  0.750  0.000-   8 1.97  19 1.97  71 2.00  76 2.00  51 2.00  64 2.00
 133  0.000  0.250  0.500-   1 1.96  22 1.97  66 2.00  77 2.00  54 2.00  57 2.00
 134  0.500  0.250  0.500-   2 1.97  21 1.97  65 2.00  78 2.00  53 2.00  58 2.00
 135  0.000  0.750  0.500-   3 1.97  24 1.97  68 2.00  79 2.00  56 2.00  59 2.00
 136  0.500  0.750  0.500-   4 1.97  23 1.97  67 2.00  80 2.00  55 2.00  60 2.00
 137  0.000  0.000  0.250-  11 1.97  26 1.97  68 2.00  73 2.00  52 2.00  57 2.00
 138  0.500  0.000  0.250-  12 1.97  25 1.97  67 2.00  74 2.00  51 2.00  58 2.00
 139  0.000  0.500  0.250-   9 1.97  28 1.97  66 2.00  75 2.00  50 2.00  59 2.00
 140  0.500  0.500  0.250-  10 1.97  27 1.97  65 2.00  76 2.00  49 2.00  60 2.00
 141  0.000  0.000  0.750-  15 1.97  30 1.97  72 2.00  77 2.00  56 2.00  61 2.00
 142  0.500  0.000  0.750-  16 1.97  29 1.97  71 2.00  78 2.00  55 2.00  62 2.00
 143  0.000  0.500  0.750-  13 1.97  32 1.97  70 2.00  79 2.00  54 2.00  63 2.00
 144  0.500  0.500  0.750-  14 1.97  31 1.97  69 2.00  80 2.00  53 2.00  64 2.00
 145  0.250  0.250  0.000-   5 1.96  17 1.96  81 2.00  93 2.00  37 2.01  41 2.01
 146  0.750  0.250  0.000-   6 1.96  18 1.96  82 2.00  94 2.00  38 2.01  42 2.01
 147  0.250  0.750  0.000-   7 1.96  19 1.96  83 2.00  95 2.00  39 2.01  43 2.01
 148  0.750  0.750  0.000-   8 1.96  20 1.96  84 2.00  96 2.00  40 2.01  44 2.01
 149  0.250  0.250  0.500-  21 1.96   1 1.97  85 2.00  89 2.00  33 2.01  45 2.01
 150  0.750  0.250  0.500-   2 1.96  22 1.96  86 2.00  90 2.00  34 2.01  46 2.01
 151  0.250  0.750  0.500-   3 1.96  23 1.96  87 2.00  91 2.00  35 2.01  47 2.01
 152  0.750  0.750  0.500-   4 1.96  24 1.96  88 2.00  92 2.00  36 2.01  48 2.01
 153  0.250  0.000  0.250-  11 1.96  25 1.96  83 2.00  89 2.00  35 2.01  41 2.01
 154  0.750  0.000  0.250-  12 1.96  26 1.96  84 2.00  90 2.00  36 2.01  42 2.01
 155  0.250  0.500  0.250-   9 1.96  27 1.96  81 2.00  91 2.00  33 2.01  43 2.01
 156  0.750  0.500  0.250-  10 1.96  28 1.96  82 2.00  92 2.00  34 2.01  44 2.01
 157  0.250  0.000  0.750-  15 1.96  29 1.96  87 2.00  93 2.00  39 2.01  45 2.01
 158  0.750  0.000  0.750-  16 1.96  30 1.96  88 2.00  94 2.00  40 2.01  46 2.01
 159  0.250  0.500  0.750-  13 1.96  31 1.96  85 2.00  95 2.00  37 2.01  47 2.01
 160  0.750  0.500  0.750-  14 1.96  32 1.96  86 2.00  96 2.00  38 2.01  48 2.01
 
  LATTYP: Found a simple monoclinic cell.
 ALAT       =    16.0245724362
 B/A-ratio  =     0.9595037360
 C/A-ratio  =     1.5788311284
 COS(beta)  =    -0.9500776273
  
  Lattice vectors:
  
 A1 = (   0.0000000000, -11.3322995400, -11.3298680000)
 A2 = ( -15.3756371200,   0.0000000000,   0.0000000000)
 A3 = (   0.0000000000,  22.5798703800,  11.4124580600)


Analysis of symmetry for initial positions (statically):
=====================================================================
 Subroutine PRICEL returns:
 Original cell was already a primitive cell.
 

 Routine SETGRP: Setting up the symmetry group for a 
 simple monoclinic supercell.


 Subroutine GETGRP returns: Found  1 space group operations
 (whereof  1 operations were pure point group operations)
 out of a pool of  4 trial point group operations.


The static configuration has the point symmetry C_1 .


Analysis of symmetry for dynamics (positions and initial velocities):
=====================================================================
 Subroutine PRICEL returns:
 Original cell was already a primitive cell.
 

 Routine SETGRP: Setting up the symmetry group for a 
 simple monoclinic supercell.


 Subroutine GETGRP returns: Found  1 space group operations
 (whereof  1 operations were pure point group operations)
 out of a pool of  4 trial point group operations.


The dynamic configuration has the point symmetry C_1 .


Analysis of structural, dynamic, and magnetic symmetry:
=====================================================================
 Subroutine PRICEL returns:
 Original cell was already a primitive cell.
 

 Routine SETGRP: Setting up the symmetry group for a 
 simple monoclinic supercell.


 Subroutine GETGRP returns: Found  1 space group operations
 (whereof  1 operations were pure point group operations)
 out of a pool of  4 trial point group operations.


The magnetic configuration has the point symmetry C_1 .


 Subroutine INISYM returns: Found  1 space group operations
 (whereof  1 operations are pure point group operations),
 and found     1 'primitive' translations

 
 
 KPOINTS: # No comment                            

Automatic generation of k-mesh.
Space group operators:
 irot       det(A)        alpha          n_x          n_y          n_z        tau_x        tau_y        tau_z
    1     1.000000     0.000001     1.000000     0.000000     0.000000     0.000000     0.000000     0.000000
 
 Subroutine IBZKPT returns following result:
 ===========================================
 
 Found     10 irreducible k-points:
 
 Following reciprocal coordinates:
            Coordinates               Weight
  0.000000  0.000000  0.000000      1.000000
  0.500000  0.000000  0.000000      1.000000
  0.000000  0.333333 -0.000000      2.000000
  0.500000  0.333333 -0.000000      2.000000
  0.000000 -0.000000  0.333333      2.000000
  0.500000 -0.000000  0.333333      2.000000
  0.000000  0.333333  0.333333      2.000000
  0.500000  0.333333  0.333333      2.000000
  0.000000 -0.333333  0.333333      2.000000
  0.500000 -0.333333  0.333333      2.000000
 
 Following cartesian coordinates:
            Coordinates               Weight
  0.000000  0.000000  0.000000      1.000000
  0.032519  0.000000  0.000000      1.000000
  0.000000  0.029638 -0.000223      2.000000
  0.032519  0.029638 -0.000223      2.000000
  0.000000 -0.000218  0.029638      2.000000
  0.032519 -0.000218  0.029638      2.000000
  0.000000  0.029420  0.029415      2.000000
  0.032519  0.029420  0.029415      2.000000
  0.000000 -0.029855  0.029862      2.000000
  0.032519 -0.029855  0.029862      2.000000
 


--------------------------------------------------------------------------------------------------------




 Dimension of arrays:
   k-points           NKPTS =     10   k-points in BZ     NKDIM =     10   number of bands    NBANDS=    732
   number of dos      NEDOS =    301   number of ions     NIONS =    160
   non local maximal  LDIM  =      6   non local SUM 2l+1 LMDIM =     18
   total plane-waves  NPLWV = ******
   max r-space proj   IRMAX =      1   max aug-charges    IRDMAX= 153046
   dimension x,y,z NGX =   128 NGY =   96 NGZ =   96
   dimension x,y,z NGXF=   256 NGYF=  192 NGZF=  192
   support grid    NGXF=   512 NGYF=  384 NGZF=  384
   ions per type =              64  32  32  32
   NGX,Y,Z   is equivalent  to a cutoff of  13.84, 14.19, 14.19 a.u.
   NGXF,Y,Z  is equivalent  to a cutoff of  27.68, 28.38, 28.38 a.u.

 SYSTEM =  unknown system                          
 POSCAR =  # Compound: Li64Fe32S32O32. Old comment:

 Startparameter for this run:
   NWRITE =      1    write-flag & timer
   PREC   = accura    normal or accurate (medium, high low for compatibility)
   ISTART =      0    job   : 0-new  1-cont  2-samecut
   ICHARG =      1    charge: 1-file 2-atom 10-const
   ISPIN  =      2    spin polarized calculation?
   LNONCOLLINEAR =      F non collinear calculations
   LSORBIT =      F    spin-orbit coupling
   INIWAV =      1    electr: 0-lowe 1-rand  2-diag
   LASPH  =      T    aspherical Exc in radial PAW
   METAGGA=      F    non-selfconsistent MetaGGA calc.

 Electronic Relaxation 1
   ENCUT  =  650.0 eV  47.77 Ry    6.91 a.u.  31.96 23.38 23.38*2*pi/ulx,y,z
   ENINI  =  650.0     initial cutoff
   ENAUG  =  628.9 eV  augmentation charge cutoff
   NELM   =    200;   NELMIN=  8; NELMDL=  0     # of ELM steps 
   EDIFF  = 0.1E-07   stopping-criterion for ELM
   LREAL  =      F    real-space projection
   NLSPLINE    = F    spline interpolate recip. space projectors
   LCOMPAT=      F    compatible to vasp.4.4
   GGA_COMPAT  = T    GGA compatible to vasp.4.4-vasp.4.6
   LMAXPAW     = -100 max onsite density
   LMAXMIX     =    4 max onsite mixed and CHGCAR
   VOSKOWN=      0    Vosko Wilk Nusair interpolation
   ROPT   =    0.00000   0.00000   0.00000   0.00000
 Ionic relaxation
   EDIFFG = 0.1E-06   stopping-criterion for IOM
   NSW    =      0    number of steps for IOM
   NBLOCK =      1;   KBLOCK =      1    inner block; outer block 
   IBRION =     -1    ionic relax: 0-MD 1-quasi-New 2-CG
   NFREE  =      0    steps in history (QN), initial steepest desc. (CG)
   ISIF   =      2    stress and relaxation
   IWAVPR =     10    prediction:  0-non 1-charg 2-wave 3-comb
   ISYM   =      2    0-nonsym 1-usesym 2-fastsym
   LCORR  =      T    Harris-Foulkes like correction to forces

   POTIM  = 0.5000    time-step for ionic-motion
   TEIN   =    0.0    initial temperature
   TEBEG  =    0.0;   TEEND  =   0.0 temperature during run
   SMASS  =  -3.00    Nose mass-parameter (am)
   estimated Nose-frequenzy (Omega)   =  0.10E-29 period in steps =****** mass=  -0.540E-26a.u.
   SCALEE = 1.0000    scale energy and forces
   NPACO  =    256;   APACO  = 16.0  distance and # of slots for P.C.
   PSTRESS=    0.0 pullay stress

  Mass of Ions in am
   POMASS =   7.01 55.85 32.07 16.00
  Ionic Valenz
   ZVAL   =   3.00 14.00  6.00  6.00
  Atomic Wigner-Seitz radii
   RWIGS  =  -1.00 -1.00 -1.00 -1.00
  virtual crystal weights 
   VCA    =   1.00  1.00  1.00  1.00
   NELECT =    1024.0000    total number of electrons
   NUPDOWN=      -1.0000    fix difference up-down

 DOS related values:
   EMIN   =  10.00;   EMAX   =-10.00  energy-range for DOS
   EFERMI =   0.00
   ISMEAR =     0;   SIGMA  =   0.05  broadening in eV -4-tet -1-fermi 0-gaus

 Electronic relaxation 2 (details)
   IALGO  =     38    algorithm
   LDIAG  =      T    sub-space diagonalisation (order eigenvalues)
   LSUBROT=      F    optimize rotation matrix (better conditioning)
   TURBO    =      0    0=normal 1=particle mesh
   IRESTART =      0    0=no restart 2=restart with 2 vectors
   NREBOOT  =      0    no. of reboots
   NMIN     =      0    reboot dimension
   EREF     =   0.00    reference energy to select bands
   IMIX   =      4    mixing-type and parameters
     AMIX     =   0.40;   BMIX     =  1.00
     AMIX_MAG =   1.60;   BMIX_MAG =  1.00
     AMIN     =   0.10
     WC   =   100.;   INIMIX=   1;  MIXPRE=   1;  MAXMIX= -45

 Intra band minimization:
   WEIMIN = 0.0000     energy-eigenvalue tresh-hold
   EBREAK =  0.34E-11  absolut break condition
   DEPER  =   0.30     relativ break condition  

   TIME   =   0.40     timestep for ELM

  volume/ion in A,a.u.               =      12.16        82.03
  Fermi-wavevector in a.u.,A,eV,Ry     =   1.321914  2.498054 23.775576  1.747456
  Thomas-Fermi vector in A             =   2.451633
 
 Write flags
   LWAVE        =      F    write WAVECAR
   LDOWNSAMPLE  =      F    k-point downsampling of WAVECAR
   LCHARG       =      T    write CHGCAR
   LVTOT        =      F    write LOCPOT, total local potential
   LVHAR        =      F    write LOCPOT, Hartree potential only
   LELF         =      F    write electronic localiz. function (ELF)
   LORBIT       =      0    0 simple, 1 ext, 2 COOP (PROOUT), +10 PAW based schemes


 Dipole corrections
   LMONO  =      F    monopole corrections only (constant potential shift)
   LDIPOL =      F    correct potential (dipole corrections)
   IDIPOL =      0    1-x, 2-y, 3-z, 4-all directions 
   EPSILON=  1.0000000 bulk dielectric constant

 LDA+U is selected, type is set to LDAUTYPE =  2
   angular momentum for each species LDAUL =    -1    2   -1   -1
   U (eV)           for each species LDAUU =   0.0  4.0  0.0  0.0
   J (eV)           for each species LDAUJ =   0.0  0.0  0.0  0.0
 Exchange correlation treatment:
   GGA     =    PE    GGA type
   LEXCH   =     8    internal setting for exchange type
   VOSKOWN=      0    Vosko Wilk Nusair interpolation
   LHFCALC =     F    Hartree Fock is set to
   LHFONE  =     F    Hartree Fock one center treatment
   AEXX    =    0.0000 exact exchange contribution

 Linear response parameters
   LEPSILON=     F    determine dielectric tensor
   LRPA    =     F    only Hartree local field effects (RPA)
   LNABLA  =     F    use nabla operator in PAW spheres
   LVEL    =     F    velocity operator in full k-point grid
   LINTERFAST=   F  fast interpolation
   KINTER  =     0    interpolate to denser k-point grid
   CSHIFT  =0.1000    complex shift for real part using Kramers Kronig
   OMEGAMAX=  -1.0    maximum frequency
   DEG_THRESHOLD= 0.2000000E-02 threshold for treating states as degnerate
   RTIME   =   -0.100 relaxation time in fs
  (WPLASMAI=    0.000 imaginary part of plasma frequency in eV, 0.658/RTIME)
   DFIELD  = 0.0000000 0.0000000 0.0000000 field for delta impulse in time
 
 Orbital magnetization related:
   ORBITALMAG=     F  switch on orbital magnetization
   LCHIMAG   =     F  perturbation theory with respect to B field
   DQ        =  0.001000  dq finite difference perturbation B field
   LLRAUG    =     F  two centre corrections for induced B field



--------------------------------------------------------------------------------------------------------


 Static calculation
 charge density and potential will be updated during run
 spin polarized calculation
 Variant of blocked Davidson
 Davidson routine will perform the subspace rotation
 perform sub-space diagonalisation
    after iterative eigenvector-optimisation
 modified Broyden-mixing scheme, WC =      100.0
 initial mixing is a Kerker type mixing with AMIX =  0.4000 and BMIX =      1.0000
 Hartree-type preconditioning will be used
 using additional bands          220
 reciprocal scheme for non local part
 use partial core corrections
 calculate Harris-corrections to forces 
   (improved forces if not selfconsistent)
 use gradient corrections 
 use of overlap-Matrix (Vanderbilt PP)
 Gauss-broadening in eV      SIGMA  =   0.05


--------------------------------------------------------------------------------------------------------


  energy-cutoff  :      650.00
  volume of cell :     1944.98
      direct lattice vectors                 reciprocal lattice vectors
    15.375637120  0.000000000  0.000000000     0.065037955  0.000000000  0.000000000
     0.000000000 11.247570840  0.082590060     0.000000000  0.088913005 -0.000669805
     0.000000000  0.084728700 11.247277940     0.000000000 -0.000652898  0.088915320

  length of vectors
    15.375637120 11.247874062 11.247597077     0.065037955  0.088915528  0.088917717


 
 k-points in units of 2pi/SCALE and weight: # No comment                            
   0.00000000  0.00000000  0.00000000       0.056
   0.03251898  0.00000000  0.00000000       0.056
   0.00000000  0.02963767 -0.00022327       0.111
   0.03251898  0.02963767 -0.00022327       0.111
   0.00000000 -0.00021763  0.02963844       0.111
   0.03251898 -0.00021763  0.02963844       0.111
   0.00000000  0.02942004  0.02941517       0.111
   0.03251898  0.02942004  0.02941517       0.111
   0.00000000 -0.02985530  0.02986171       0.111
   0.03251898 -0.02985530  0.02986171       0.111
 
 k-points in reciprocal lattice and weights: # No comment                            
   0.00000000  0.00000000  0.00000000       0.056
   0.50000000  0.00000000  0.00000000       0.056
   0.00000000  0.33333333 -0.00000000       0.111
   0.50000000  0.33333333 -0.00000000       0.111
   0.00000000 -0.00000000  0.33333333       0.111
   0.50000000 -0.00000000  0.33333333       0.111
   0.00000000  0.33333333  0.33333333       0.111
   0.50000000  0.33333333  0.33333333       0.111
   0.00000000 -0.33333333  0.33333333       0.111
   0.50000000 -0.33333333  0.33333333       0.111
 
 position of ions in fractional coordinates (direct lattice) 
   0.12460642  0.27553588  0.47453981
   0.62525680  0.27553588  0.47453981
   0.12525680  0.77553588  0.47453981
   0.62525680  0.77553588  0.47453981
   0.12525680  0.27553588  0.97453981
   0.62525680  0.27553588  0.97453981
   0.12525680  0.77553588  0.97453981
   0.62525680  0.77553588  0.97453981
   0.12525680  0.47446412  0.27546019
   0.62525680  0.47446412  0.27546019
   0.12525680  0.97446412  0.27546019
   0.62525680  0.97446412  0.27546019
   0.12525680  0.47446412  0.77546019
   0.62525680  0.47446412  0.77546019
   0.12525680  0.97446412  0.77546019
   0.62525680  0.97446412  0.77546019
   0.37474320  0.22446412  0.02546019
   0.87474320  0.22446412  0.02546019
   0.37474320  0.72446412  0.02546019
   0.87474320  0.72446412  0.02546019
   0.37474320  0.22446412  0.52546019
   0.87474320  0.22446412  0.52546019
   0.37474320  0.72446412  0.52546019
   0.87474320  0.72446412  0.52546019
   0.37474320  0.02553588  0.22453981
   0.87474320  0.02553588  0.22453981
   0.37474320  0.52553588  0.22453981
   0.87474320  0.52553588  0.22453981
   0.37474320  0.02553588  0.72453981
   0.87474320  0.02553588  0.72453981
   0.37474320  0.52553588  0.72453981
   0.87474320  0.52553588  0.72453981
   0.27600236  0.37500000  0.37500000
   0.77600236  0.37500000  0.37500000
   0.27600236  0.87500000  0.37500000
   0.77600236  0.87500000  0.37500000
   0.27600236  0.37500000  0.87500000
   0.77600236  0.37500000  0.87500000
   0.27600236  0.87500000  0.87500000
   0.77600236  0.87500000  0.87500000
   0.22399764  0.12500000  0.12500000
   0.72399764  0.12500000  0.12500000
   0.22399764  0.62500000  0.12500000
   0.72399764  0.62500000  0.12500000
   0.22399764  0.12500000  0.62500000
   0.72399764  0.12500000  0.62500000
   0.22399764  0.62500000  0.62500000
   0.72399764  0.62500000  0.62500000
   0.49994073  0.37500000  0.12500000
   0.99994073  0.37500000  0.12500000
   0.49994073  0.87500000  0.12500000
   0.99994073  0.87500000  0.12500000
   0.49994073  0.37500000  0.62500000
   0.99994073  0.37500000  0.62500000
   0.49994073  0.87500000  0.62500000
   0.99994073  0.87500000  0.62500000
   0.00005927  0.12500000  0.37500000
   0.50005927  0.12500000  0.37500000
   0.00005927  0.62500000  0.37500000
   0.50005927  0.62500000  0.37500000
   0.00005927  0.12500000  0.87500000
   0.50005927  0.12500000  0.87500000
   0.00005927  0.62500000  0.87500000
   0.50005927  0.62500000  0.87500000
   0.47912905  0.37500000  0.37500000
   0.97912905  0.37500000  0.37500000
   0.47912905  0.87500000  0.37500000
   0.97912905  0.87500000  0.37500000
   0.47912905  0.37500000  0.87500000
   0.97912905  0.37500000  0.87500000
   0.47912905  0.87500000  0.87500000
   0.97912905  0.87500000  0.87500000
   0.02087095  0.12500000  0.12500000
   0.52087095  0.12500000  0.12500000
   0.02087095  0.62500000  0.12500000
   0.52087095  0.62500000  0.12500000
   0.02087095  0.12500000  0.62500000
   0.52087095  0.12500000  0.62500000
   0.02087095  0.62500000  0.62500000
   0.52087095  0.62500000  0.62500000
   0.25003487  0.37500000  0.12500000
   0.75003487  0.37500000  0.12500000
   0.25003487  0.87500000  0.12500000
   0.75003487  0.87500000  0.12500000
   0.25003487  0.37500000  0.62500000
   0.75003487  0.37500000  0.62500000
   0.25003487  0.87500000  0.62500000
   0.75003487  0.87500000  0.62500000
   0.24996513  0.12500000  0.37500000
   0.74996513  0.12500000  0.37500000
   0.24996513  0.62500000  0.37500000
   0.74996513  0.62500000  0.37500000
   0.24996513  0.12500000  0.87500000
   0.74996513  0.12500000  0.87500000
   0.24996513  0.62500000  0.87500000
   0.74996513  0.62500000  0.87500000
   0.12546906  0.49959881  0.49958956
   0.62546906  0.49959881  0.49958956
   0.12546906  0.99959881  0.49958956
   0.62546906  0.99959881  0.49958956
   0.12546906  0.49959881  0.99958956
   0.62546906  0.49959881  0.99958956
   0.12546906  0.99959881  0.99958956
   0.62546906  0.99959881  0.99958956
   0.12546906  0.25040119  0.25041044
   0.62546906  0.25040119  0.25041044
   0.12546906  0.75040119  0.25041044
   0.62546906  0.75040119  0.25041044
   0.12546906  0.25040119  0.75041044
   0.62546906  0.25040119  0.75041044
   0.12546906  0.75040119  0.75041044
   0.62546906  0.75040119  0.75041044
   0.37453094  0.00040119  0.00041044
   0.87453094  0.00040119  0.00041044
   0.37453094  0.50040119  0.00041044
   0.87453094  0.50040119  0.00041044
   0.37453094  0.00040119  0.50041044
   0.87453094  0.00040119  0.50041044
   0.37453094  0.50040119  0.50041044
   0.87453094  0.50040119  0.50041044
   0.37453094  0.24959881  0.24958956
   0.87453094  0.24959881  0.24958956
   0.37453094  0.74959881  0.24958956
   0.87453094  0.74959881  0.24958956
   0.37453094  0.24959881  0.74958956
   0.87453094  0.24959881  0.74958956
   0.37453094  0.74959881  0.74958956
   0.87453094  0.74959881  0.74958956
   0.00000000  0.25000000  0.00000000
   0.50000000  0.25000000  0.00000000
   0.00000000  0.75000000  0.00000000
   0.50000000  0.75000000  0.00000000
   0.00000000  0.25000000  0.50000000
   0.50000000  0.25000000  0.50000000
   0.00000000  0.75000000  0.50000000
   0.50000000  0.75000000  0.50000000
   0.00000000  0.00000000  0.25000000
   0.50000000  0.00000000  0.25000000
   0.00000000  0.50000000  0.25000000
   0.50000000  0.50000000  0.25000000
   0.00000000  0.00000000  0.75000000
   0.50000000  0.00000000  0.75000000
   0.00000000  0.50000000  0.75000000
   0.50000000  0.50000000  0.75000000
   0.25000000  0.25000000  0.00000000
   0.75000000  0.25000000  0.00000000
   0.25000000  0.75000000  0.00000000
   0.75000000  0.75000000  0.00000000
   0.25000000  0.25000000  0.50000000
   0.75000000  0.25000000  0.50000000
   0.25000000  0.75000000  0.50000000
   0.75000000  0.75000000  0.50000000
   0.25000000  0.00000000  0.25000000
   0.75000000  0.00000000  0.25000000
   0.25000000  0.50000000  0.25000000
   0.75000000  0.50000000  0.25000000
   0.25000000  0.00000000  0.75000000
   0.75000000  0.00000000  0.75000000
   0.25000000  0.50000000  0.75000000
   0.75000000  0.50000000  0.75000000
 
 position of ions in cartesian coordinates  (Angst):
   1.91590310  3.13931647  5.36003766
   9.61372166  3.13931647  5.36003766
   1.92590310  8.76310189  5.40133269
   9.61372166  8.76310189  5.40133269
   1.92590310  3.18168082 10.98367663
   9.61372166  3.18168082 10.98367663
   1.92590310  8.80546624 11.02497166
   9.61372166  8.80546624 11.02497166
   1.92590310  5.35990818  3.13736334
   9.61372166  5.35990818  3.13736334
   1.92590310 10.98369360  3.17865837
   9.61372166 10.98369360  3.17865837
   1.92590310  5.40227253  8.76100231
   9.61372166  5.40227253  8.76100231
   1.92590310 11.02605795  8.80229734
   9.61372166 11.02605795  8.80229734
   5.76191546  2.52683330  0.30489634
  13.44973402  2.52683330  0.30489634
   5.76191546  8.15061872  0.34619137
  13.44973402  8.15061872  0.34619137
   5.76191546  2.56919765  5.92853531
  13.44973402  2.56919765  5.92853531
   5.76191546  8.19298307  5.96983034
  13.44973402  8.19298307  5.96983034
   5.76191546  0.30624159  2.52757066
  13.44973402  0.30624159  2.52757066
   5.76191546  5.93002701  2.56886569
  13.44973402  5.93002701  2.56886569
   5.76191546  0.34860594  8.15120963
  13.44973402  0.34860594  8.15120963
   5.76191546  5.97239136  8.19250466
  13.44973402  5.97239136  8.19250466
   4.24371213  4.24961233  4.24870050
  11.93153069  4.24961233  4.24870050
   4.24371213  9.87339775  4.28999553
  11.93153069  9.87339775  4.28999553
   4.24371213  4.29197668  9.87233947
  11.93153069  4.29197668  9.87233947
   4.24371213  9.91576210  9.91363450
  11.93153069  9.91576210  9.91363450
   3.44410643  1.41653744  1.41623350
  11.13192499  1.41653744  1.41623350
   3.44410643  7.04032286  1.45752853
  11.13192499  7.04032286  1.45752853
   3.44410643  1.45890179  7.03987247
  11.13192499  1.45890179  7.03987247
   3.44410643  7.08268721  7.08116750
  11.13192499  7.08268721  7.08116750
   7.68690717  4.22843015  1.43688101
  15.37472573  4.22843015  1.43688101
   7.68690717  9.85221557  1.47817605
  15.37472573  9.85221557  1.47817605
   7.68690717  4.27079450  7.06051999
  15.37472573  4.27079450  7.06051999
   7.68690717  9.89457992  7.10181502
  15.37472573  9.89457992  7.10181502
   0.00091139  1.43771962  4.22805298
   7.68872995  1.43771962  4.22805298
   0.00091139  7.06150504  4.26934801
   7.68872995  7.06150504  4.26934801
   0.00091139  1.48008397  9.85169195
   7.68872995  1.48008397  9.85169195
   0.00091139  7.10386939  9.89298699
   7.68872995  7.10386939  9.89298699
   7.36691433  4.24961233  4.24870050
  15.05473289  4.24961233  4.24870050
   7.36691433  9.87339775  4.28999553
  15.05473289  9.87339775  4.28999553
   7.36691433  4.29197668  9.87233947
  15.05473289  4.29197668  9.87233947
   7.36691433  9.91576210  9.91363450
  15.05473289  9.91576210  9.91363450
   0.32090423  1.41653744  1.41623350
   8.00872279  1.41653744  1.41623350
   0.32090423  7.04032286  1.45752853
   8.00872279  7.04032286  1.45752853
   0.32090423  1.45890179  7.03987247
   8.00872279  1.45890179  7.03987247
   0.32090423  7.08268721  7.08116750
   8.00872279  7.08268721  7.08116750
   3.84444535  4.22843015  1.43688101
  11.53226391  4.22843015  1.43688101
   3.84444535  9.85221557  1.47817605
  11.53226391  9.85221557  1.47817605
   3.84444535  4.27079450  7.06051999
  11.53226391  4.27079450  7.06051999
   3.84444535  9.89457992  7.10181502
  11.53226391  9.89457992  7.10181502
   3.84337321  1.43771962  4.22805298
  11.53119177  1.43771962  4.22805298
   3.84337321  7.06150504  4.26934801
  11.53119177  7.06150504  4.26934801
   3.84337321  1.48008397  9.85169195
  11.53119177  1.48008397  9.85169195
   3.84337321  7.10386939  9.89298699
  11.53119177  7.10386939  9.89298699
   1.92916681  5.66160258  5.66028448
   9.61698537  5.66160258  5.66028448
   1.92916681 11.28538800  5.70157951
   9.61698537 11.28538800  5.70157951
   1.92916681  5.70396693 11.28392345
   9.61698537  5.70396693 11.28392345
   1.92916681 11.32775235 11.32521848
   9.61698537 11.32775235 11.32521848
   1.92916681  2.83762207  2.83711652
   9.61698537  2.83762207  2.83711652
   1.92916681  8.46140749  2.87841155
   9.61698537  8.46140749  2.87841155
   1.92916681  2.87998642  8.46075549
   9.61698537  2.87998642  8.46075549
   1.92916681  8.50377184  8.50205052
   9.61698537  8.50377184  8.50205052
   5.75865175  0.00454719  0.00464952
  13.44647031  0.00454719  0.00464952
   5.75865175  5.62833261  0.04594455
  13.44647031  5.62833261  0.04594455
   5.75865175  0.04691154  5.62828849
  13.44647031  0.04691154  5.62828849
   5.75865175  5.67069696  5.66958352
  13.44647031  5.67069696  5.66958352
   5.75865175  2.82852770  2.82781748
  13.44647031  2.82852770  2.82781748
   5.75865175  8.45231312  2.86911251
  13.44647031  8.45231312  2.86911251
   5.75865175  2.87089205  8.45145645
  13.44647031  2.87089205  8.45145645
   5.75865175  8.49467747  8.49275148
  13.44647031  8.49467747  8.49275148
   0.00000000  2.81189271  0.02064752
   7.68781856  2.81189271  0.02064752
   0.00000000  8.43567813  0.06194255
   7.68781856  8.43567813  0.06194255
   0.00000000  2.85425706  5.64428649
   7.68781856  2.85425706  5.64428649
   0.00000000  8.47804248  5.68558151
   7.68781856  8.47804248  5.68558151
   0.00000000  0.02118218  2.81181949
   7.68781856  0.02118218  2.81181949
   0.00000000  5.64496759  2.85311452
   7.68781856  5.64496759  2.85311452
   0.00000000  0.06354653  8.43545845
   7.68781856  0.06354653  8.43545845
   0.00000000  5.68733194  8.47675348
   7.68781856  5.68733194  8.47675348
   3.84390928  2.81189271  0.02064752
  11.53172784  2.81189271  0.02064752
   3.84390928  8.43567813  0.06194255
  11.53172784  8.43567813  0.06194255
   3.84390928  2.85425706  5.64428649
  11.53172784  2.85425706  5.64428649
   3.84390928  8.47804248  5.68558151
  11.53172784  8.47804248  5.68558151
   3.84390928  0.02118218  2.81181949
  11.53172784  0.02118218  2.81181949
   3.84390928  5.64496759  2.85311452
  11.53172784  5.64496759  2.85311452
   3.84390928  0.06354653  8.43545845
  11.53172784  0.06354653  8.43545845
   3.84390928  5.68733194  8.47675348
  11.53172784  5.68733194  8.47675348
 


--------------------------------------------------------------------------------------------------------


 k-point  1 :   0.0000 0.0000 0.0000  plane waves:   73163
 k-point  2 :   0.5000 0.0000 0.0000  plane waves:   73208
 k-point  3 :   0.0000 0.3333-0.0000  plane waves:   73197
 k-point  4 :   0.5000 0.3333-0.0000  plane waves:   73182
 k-point  5 :   0.0000-0.0000 0.3333  plane waves:   73195
 k-point  6 :   0.5000-0.0000 0.3333  plane waves:   73178
 k-point  7 :   0.0000 0.3333 0.3333  plane waves:   73141
 k-point  8 :   0.5000 0.3333 0.3333  plane waves:   73198
 k-point  9 :   0.0000-0.3333 0.3333  plane waves:   73095
 k-point 10 :   0.5000-0.3333 0.3333  plane waves:   73224

 maximum and minimum number of plane-waves per node :     12268    12150

 maximum number of plane-waves:     73224
 maximum index in each direction: 
   IXMAX=   31   IYMAX=   23   IZMAX=   23
   IXMIN=  -32   IYMIN=  -23   IZMIN=  -23


 parallel 3D FFT for wavefunctions:
    minimum data exchange during FFTs selected (reduces bandwidth)
 parallel 3D FFT for charge:
    minimum data exchange during FFTs selected (reduces bandwidth)


 total amount of memory used by VASP MPI-rank0   985864. kBytes
=======================================================================

   base      :      30000. kBytes
   nonl-proj :     102069. kBytes
   fftplans  :      64934. kBytes
   grid      :      55554. kBytes
   one-center:        839. kBytes
   wavefun   :     732468. kBytes
 
     INWAV:  cpu time    0.0000: real time    0.0000
 Broyden mixing: mesh for mixing (old mesh)
   NGX = 63   NGY = 47   NGZ = 47
  (NGX  =256   NGY  =192   NGZ  =192)
  gives a total of 139167 points

 initial charge density was supplied:
 number of electron    1024.0000024 magnetization     128.0000040
 keeping initial charge density in first step


--------------------------------------------------------------------------------------------------------


 Maximum index for augmentation-charges         8015 (set IRDMAX)


--------------------------------------------------------------------------------------------------------


 First call to EWALD:  gamma=   0.142
 Maximum number of real-space cells 2x 3x 3
 Maximum number of reciprocal cells 3x 3x 3

    FEWALD:  cpu time    0.0167: real time    0.0184


--------------------------------------- Iteration      1(   1)  ---------------------------------------


    POTLOK:  cpu time    0.6753: real time    0.6961
    SETDIJ:  cpu time    1.6858: real time    1.6967
     EDDAV:  cpu time  351.5963: real time  358.0940
       DOS:  cpu time    0.0046: real time    0.0046
    --------------------------------------------
      LOOP:  cpu time  353.9621: real time  360.4916

 eigenvalue-minimisations  : 30712
 total energy-change (2. order) : 0.1347183E+05  (-0.5518314E+05)
 number of electron    1024.0000024 magnetization     128.0000040
 augmentation part     1024.0000024 magnetization     128.0000040

 Free energy of the ion-electron system (eV)
  ---------------------------------------------------
  alpha Z        PSCENC =      2580.95227926
  Ewald energy   TEWEN  =    -67508.67919130
  -Hartree energ DENC   =    -35943.95308499
  -exchange      EXHF   =         0.00000000
  -V(xc)+E(xc)   XCENC  =      4397.38252518
  PAW double counting   =    108731.45464712  -112348.03830957
  entropy T*S    EENTRO =        -0.03773776
  eigenvalues    EBANDS =      -746.53366566
  atomic energy  EATOM  =    114309.28505226
  Solvation  Ediel_sol  =         0.00000000
  ---------------------------------------------------
  free energy    TOTEN  =     13471.83251455 eV

  energy without entropy =    13471.87025230  energy(sigma->0) =    13471.85138342


--------------------------------------------------------------------------------------------------------




--------------------------------------- Iteration      1(   2)  ---------------------------------------


     EDDAV:  cpu time  336.8661: real time  342.9358
       DOS:  cpu time    0.0060: real time    0.0060
    --------------------------------------------
      LOOP:  cpu time  336.8721: real time  342.9418

 eigenvalue-minimisations  : 29280
 total energy-change (2. order) :-0.1205991E+05  (-0.1121276E+05)
 number of electron    1024.0000024 magnetization     128.0000040
 augmentation part     1024.0000024 magnetization     128.0000040

 Free energy of the ion-electron system (eV)
  ---------------------------------------------------
  alpha Z        PSCENC =      2580.95227926
  Ewald energy   TEWEN  =    -67508.67919130
  -Hartree energ DENC   =    -35943.95308499
  -exchange      EXHF   =         0.00000000
  -V(xc)+E(xc)   XCENC  =      4397.38252518
  PAW double counting   =    108731.45464712  -112348.03830957
  entropy T*S    EENTRO =        -0.06538036
  eigenvalues    EBANDS =    -12806.41457831
  atomic energy  EATOM  =    114309.28505226
  Solvation  Ediel_sol  =         0.00000000
  ---------------------------------------------------
  free energy    TOTEN  =      1411.92395928 eV

  energy without entropy =     1411.98933965  energy(sigma->0) =     1411.95664946


--------------------------------------------------------------------------------------------------------




--------------------------------------- Iteration      1(   3)  ---------------------------------------


     EDDAV:  cpu time  370.5760: real time  376.9215
       DOS:  cpu time    0.0017: real time    0.0017
    --------------------------------------------
      LOOP:  cpu time  370.5776: real time  376.9231

 eigenvalue-minimisations  : 32896
 total energy-change (2. order) :-0.1937300E+04  (-0.1738693E+04)
 number of electron    1024.0000024 magnetization     128.0000040
 augmentation part     1024.0000024 magnetization     128.0000040

 Free energy of the ion-electron system (eV)
  ---------------------------------------------------
  alpha Z        PSCENC =      2580.95227926
  Ewald energy   TEWEN  =    -67508.67919130
  -Hartree energ DENC   =    -35943.95308499
  -exchange      EXHF   =         0.00000000
  -V(xc)+E(xc)   XCENC  =      4397.38252518
  PAW double counting   =    108731.45464712  -112348.03830957
  entropy T*S    EENTRO =        -0.00000000
  eigenvalues    EBANDS =    -14743.78008789
  atomic energy  EATOM  =    114309.28505226
  Solvation  Ediel_sol  =         0.00000000
  ---------------------------------------------------
  free energy    TOTEN  =      -525.37616993 eV

  energy without entropy =     -525.37616993  energy(sigma->0) =     -525.37616993


--------------------------------------------------------------------------------------------------------




--------------------------------------- Iteration      1(   4)  ---------------------------------------


     EDDAV:  cpu time  423.6745: real time  430.2680
       DOS:  cpu time    0.0026: real time    0.0028
    --------------------------------------------
      LOOP:  cpu time  423.6770: real time  430.2708

 eigenvalue-minimisations  : 39264
 total energy-change (2. order) :-0.2633270E+03  (-0.2604562E+03)
 number of electron    1024.0000024 magnetization     128.0000040
 augmentation part     1024.0000024 magnetization     128.0000040

 Free energy of the ion-electron system (eV)
  ---------------------------------------------------
  alpha Z        PSCENC =      2580.95227926
  Ewald energy   TEWEN  =    -67508.67919130
  -Hartree energ DENC   =    -35943.95308499
  -exchange      EXHF   =         0.00000000
  -V(xc)+E(xc)   XCENC  =      4397.38252518
  PAW double counting   =    108731.45464712  -112348.03830957
  entropy T*S    EENTRO =        -0.00000000
  eigenvalues    EBANDS =    -15007.10712503
  atomic energy  EATOM  =    114309.28505226
  Solvation  Ediel_sol  =         0.00000000
  ---------------------------------------------------
  free energy    TOTEN  =      -788.70320707 eV

  energy without entropy =     -788.70320707  energy(sigma->0) =     -788.70320707


--------------------------------------------------------------------------------------------------------




--------------------------------------- Iteration      1(   5)  ---------------------------------------


     EDDAV:  cpu time  533.4256: real time  542.2594
       DOS:  cpu time    0.0020: real time    0.0020
    CHARGE:  cpu time    8.3661: real time    8.6140
    MIXING:  cpu time    0.0299: real time    0.0301
    --------------------------------------------
      LOOP:  cpu time  541.8236: real time  550.9056

 eigenvalue-minimisations  : 51408
 total energy-change (2. order) :-0.3185370E+02  (-0.3159767E+02)
 number of electron    1024.0000024 magnetization     128.0000033
 augmentation part      329.1861747 magnetization      84.1916756

 Broyden mixing:
  rms(total) = 0.31593E+00    rms(broyden)= 0.31558E+00
  rms(prec ) = 0.31944E+00
  weight for this iteration     100.00

 Free energy of the ion-electron system (eV)
  ---------------------------------------------------
  alpha Z        PSCENC =      2580.95227926
  Ewald energy   TEWEN  =    -67508.67919130
  -Hartree energ DENC   =    -35943.95308499
  -exchange      EXHF   =         0.00000000
  -V(xc)+E(xc)   XCENC  =      4397.38252518
  PAW double counting   =    108731.45464712  -112348.03830957
  entropy T*S    EENTRO =        -0.00000000
  eigenvalues    EBANDS =    -15038.96082566
  atomic energy  EATOM  =    114309.28505226
  Solvation  Ediel_sol  =         0.00000000
  ---------------------------------------------------
  free energy    TOTEN  =      -820.55690770 eV

  energy without entropy =     -820.55690770  energy(sigma->0) =     -820.55690770


--------------------------------------------------------------------------------------------------------




--------------------------------------- Iteration      1(   6)  ---------------------------------------


    POTLOK:  cpu time    0.6701: real time    0.6771
    SETDIJ:  cpu time    1.6872: real time    1.6966
     EDDAV:  cpu time  437.3848: real time  444.3181
       DOS:  cpu time    0.0018: real time    0.0018
    CHARGE:  cpu time    8.3995: real time    8.5798
    MIXING:  cpu time    0.0256: real time    0.0378
    --------------------------------------------
      LOOP:  cpu time  448.1690: real time  455.3111

 eigenvalue-minimisations  : 40624
 total energy-change (2. order) :-0.1437039E+01  (-0.1484096E+01)
 number of electron    1024.0000024 magnetization     128.0000028
 augmentation part      327.4412588 magnetization      84.3703846

 Broyden mixing:
  rms(total) = 0.13377E+00    rms(broyden)= 0.13345E+00
  rms(prec ) = 0.13447E+00
  weight for this iteration     100.00

 eigenvalues of (default mixing * dielectric matrix)
  average eigenvalue GAMMA=   0.6593
  0.6593

 Free energy of the ion-electron system (eV)
  ---------------------------------------------------
  alpha Z        PSCENC =      2580.95227926
  Ewald energy   TEWEN  =    -67508.67919130
  -Hartree energ DENC   =    -35935.56563368
  -exchange      EXHF   =         0.00000000
  -V(xc)+E(xc)   XCENC  =      4396.13672590
  PAW double counting   =    108544.49270585  -112155.47915737
  entropy T*S    EENTRO =        -0.00000000
  eigenvalues    EBANDS =    -15053.13672774
  atomic energy  EATOM  =    114309.28505226
  Solvation  Ediel_sol  =         0.00000000
  ---------------------------------------------------
  free energy    TOTEN  =      -821.99394682 eV

  energy without entropy =     -821.99394682  energy(sigma->0) =     -821.99394682


--------------------------------------------------------------------------------------------------------




--------------------------------------- Iteration      1(   7)  ---------------------------------------


    POTLOK:  cpu time    0.6697: real time    0.6773
    SETDIJ:  cpu time    1.6956: real time    1.6997
     EDDAV:  cpu time  497.4517: real time  505.5729
       DOS:  cpu time    0.0018: real time    0.0018
    CHARGE:  cpu time    8.2531: real time    8.5802
    MIXING:  cpu time    0.0260: real time    0.0294
    --------------------------------------------
      LOOP:  cpu time  508.0979: real time  516.5613

 eigenvalue-minimisations  : 47392
 total energy-change (2. order) :-0.7300797E-01  (-0.7227798E-01)
 number of electron    1024.0000024 magnetization     128.0000026
 augmentation part      327.1441706 magnetization      84.3006820

 Broyden mixing:
  rms(total) = 0.97261E-01    rms(broyden)= 0.97139E-01
  rms(prec ) = 0.98628E-01
  weight for this iteration     100.00

 eigenvalues of (default mixing * dielectric matrix)
  average eigenvalue GAMMA=   0.6008
  0.6008  0.6008

 Free energy of the ion-electron system (eV)
  ---------------------------------------------------
  alpha Z        PSCENC =      2580.95227926
  Ewald energy   TEWEN  =    -67508.67919130
  -Hartree energ DENC   =    -35938.21635559
  -exchange      EXHF   =         0.00000000
  -V(xc)+E(xc)   XCENC  =      4396.47978654
  PAW double counting   =    108587.23311370  -112199.65939705
  entropy T*S    EENTRO =        -0.00000000
  eigenvalues    EBANDS =    -15049.46224261
  atomic energy  EATOM  =    114309.28505226
  Solvation  Ediel_sol  =         0.00000000
  ---------------------------------------------------
  free energy    TOTEN  =      -822.06695479 eV

  energy without entropy =     -822.06695479  energy(sigma->0) =     -822.06695479


--------------------------------------------------------------------------------------------------------




--------------------------------------- Iteration      1(   8)  ---------------------------------------


    POTLOK:  cpu time    0.6579: real time    0.6792
    SETDIJ:  cpu time    1.6633: real time    1.6984
     EDDAV:  cpu time  471.0698: real time  479.1810
       DOS:  cpu time    0.0016: real time    0.0016
    CHARGE:  cpu time    8.4123: real time    8.6166
    MIXING:  cpu time    0.0295: real time    0.0326
    --------------------------------------------
      LOOP:  cpu time  481.8344: real time  490.2094

 eigenvalue-minimisations  : 44552
 total energy-change (2. order) :-0.2199279E-04  (-0.2788392E-02)
 number of electron    1024.0000024 magnetization     128.0000026
 augmentation part      327.0912336 magnetization      84.2869936

 Broyden mixing:
  rms(total) = 0.84432E-01    rms(broyden)= 0.84421E-01
  rms(prec ) = 0.85759E-01
  weight for this iteration     100.00

 eigenvalues of (default mixing * dielectric matrix)
  average eigenvalue GAMMA=   0.5402
  0.6196  0.6196  0.3813

 Free energy of the ion-electron system (eV)
  ---------------------------------------------------
  alpha Z        PSCENC =      2580.95227926
  Ewald energy   TEWEN  =    -67508.67919130
  -Hartree energ DENC   =    -35939.08956089
  -exchange      EXHF   =         0.00000000
  -V(xc)+E(xc)   XCENC  =      4396.62533505
  PAW double counting   =    108613.39216356  -112226.56093035
  entropy T*S    EENTRO =        -0.00000000
  eigenvalues    EBANDS =    -15047.99212438
  atomic energy  EATOM  =    114309.28505226
  Solvation  Ediel_sol  =         0.00000000
  ---------------------------------------------------
  free energy    TOTEN  =      -822.06697679 eV

  energy without entropy =     -822.06697679  energy(sigma->0) =     -822.06697679


--------------------------------------------------------------------------------------------------------




--------------------------------------- Iteration      1(   9)  ---------------------------------------


    POTLOK:  cpu time    0.6930: real time    0.7076
    SETDIJ:  cpu time    1.6997: real time    1.7273
     EDDAV:  cpu time  496.8059: real time  505.0364
       DOS:  cpu time    0.0028: real time    0.0029
    CHARGE:  cpu time    8.5398: real time    8.6444
    MIXING:  cpu time    0.0377: real time    0.0388
    --------------------------------------------
      LOOP:  cpu time  507.7790: real time  516.1574

 eigenvalue-minimisations  : 47336
 total energy-change (2. order) : 0.9236763E-03  (-0.1746764E-03)
 number of electron    1024.0000024 magnetization     128.0000025
 augmentation part      327.1002070 magnetization      84.2819891

 Broyden mixing:
  rms(total) = 0.77731E-01    rms(broyden)= 0.77731E-01
  rms(prec ) = 0.78943E-01
  weight for this iteration     100.00

 eigenvalues of (default mixing * dielectric matrix)
  average eigenvalue GAMMA=   0.5063
  0.6273  0.6273  0.3852  0.3852

 Free energy of the ion-electron system (eV)
  ---------------------------------------------------
  alpha Z        PSCENC =      2580.95227926
  Ewald energy   TEWEN  =    -67508.67919130
  -Hartree energ DENC   =    -35939.34077046
  -exchange      EXHF   =         0.00000000
  -V(xc)+E(xc)   XCENC  =      4396.68330859
  PAW double counting   =    108620.90247348  -112234.32858562
  entropy T*S    EENTRO =        -0.00000000
  eigenvalues    EBANDS =    -15047.54061931
  atomic energy  EATOM  =    114309.28505226
  Solvation  Ediel_sol  =         0.00000000
  ---------------------------------------------------
  free energy    TOTEN  =      -822.06605311 eV

  energy without entropy =     -822.06605311  energy(sigma->0) =     -822.06605311


--------------------------------------------------------------------------------------------------------




--------------------------------------- Iteration      1(  10)  ---------------------------------------


    POTLOK:  cpu time    0.7078: real time    0.7341
    SETDIJ:  cpu time    1.6362: real time    1.6778
     EDDAV:  cpu time  489.2887: real time  497.5966
       DOS:  cpu time    0.0019: real time    0.0019
    CHARGE:  cpu time    8.2198: real time    8.5348
    MIXING:  cpu time    0.0314: real time    0.0326
    --------------------------------------------
      LOOP:  cpu time  499.8859: real time  508.5778

 eigenvalue-minimisations  : 46688
 total energy-change (2. order) : 0.2838325E-03  (-0.1607141E-04)
 number of electron    1024.0000024 magnetization     128.0000021
 augmentation part      327.1056447 magnetization      84.2811673

 Broyden mixing:
  rms(total) = 0.75481E-01    rms(broyden)= 0.75481E-01
  rms(prec ) = 0.76638E-01
  weight for this iteration     100.00

 eigenvalues of (default mixing * dielectric matrix)
  average eigenvalue GAMMA=   0.7325
  1.0740  1.0740  0.5457  0.5457  0.4229

 Free energy of the ion-electron system (eV)
  ---------------------------------------------------
  alpha Z        PSCENC =      2580.95227926
  Ewald energy   TEWEN  =    -67508.67919130
  -Hartree energ DENC   =    -35939.47117306
  -exchange      EXHF   =         0.00000000
  -V(xc)+E(xc)   XCENC  =      4396.70429078
  PAW double counting   =    108623.43431942  -112236.94967445
  entropy T*S    EENTRO =        -0.00000000
  eigenvalues    EBANDS =    -15047.34167218
  atomic energy  EATOM  =    114309.28505226
  Solvation  Ediel_sol  =         0.00000000
  ---------------------------------------------------
  free energy    TOTEN  =      -822.06576928 eV

  energy without entropy =     -822.06576928  energy(sigma->0) =     -822.06576928


--------------------------------------------------------------------------------------------------------




--------------------------------------- Iteration      1(  11)  ---------------------------------------


    POTLOK:  cpu time    0.6750: real time    0.6960
    SETDIJ:  cpu time    1.6705: real time    1.6960
     EDDAV:  cpu time  527.6849: real time  536.4466
       DOS:  cpu time    0.0019: real time    0.0019
    CHARGE:  cpu time    8.2448: real time    8.5963
    MIXING:  cpu time    0.0301: real time    0.0318
    --------------------------------------------
      LOOP:  cpu time  538.3072: real time  547.4685

 eigenvalue-minimisations  : 50936
 total energy-change (2. order) : 0.2929272E-02  (-0.1074039E-03)
 number of electron    1024.0000024 magnetization     128.0000020
 augmentation part      327.1296979 magnetization      84.2807771

 Broyden mixing:
  rms(total) = 0.45945E-01    rms(broyden)= 0.45945E-01
  rms(prec ) = 0.46568E-01
  weight for this iteration     100.00

 eigenvalues of (default mixing * dielectric matrix)
  average eigenvalue GAMMA=   0.6720
  1.0975  1.0975  0.5672  0.5672  0.4038  0.2989

 Free energy of the ion-electron system (eV)
  ---------------------------------------------------
  alpha Z        PSCENC =      2580.95227926
  Ewald energy   TEWEN  =    -67508.67919130
  -Hartree energ DENC   =    -35941.20720973
  -exchange      EXHF   =         0.00000000
  -V(xc)+E(xc)   XCENC  =      4396.99355668
  PAW double counting   =    108663.77586983  -112278.64914916
  entropy T*S    EENTRO =        -0.00000000
  eigenvalues    EBANDS =    -15044.53404784
  atomic energy  EATOM  =    114309.28505226
  Solvation  Ediel_sol  =         0.00000000
  ---------------------------------------------------
  free energy    TOTEN  =      -822.06284001 eV

  energy without entropy =     -822.06284001  energy(sigma->0) =     -822.06284001


--------------------------------------------------------------------------------------------------------




--------------------------------------- Iteration      1(  12)  ---------------------------------------


    POTLOK:  cpu time    0.6627: real time    0.6658
    SETDIJ:  cpu time    1.6874: real time    1.6951
     EDDAV:  cpu time  413.7653: real time  420.8817
       DOS:  cpu time    0.0038: real time    0.0057
    CHARGE:  cpu time    8.2458: real time    8.5563
    MIXING:  cpu time    0.0688: real time    0.0800
    --------------------------------------------
      LOOP:  cpu time  424.4338: real time  431.8847

 eigenvalue-minimisations  : 38080
 total energy-change (2. order) : 0.8254347E-04  (-0.5031002E-04)
 number of electron    1024.0000024 magnetization     128.0000018
 augmentation part      327.1400910 magnetization      84.2795438

 Broyden mixing:
  rms(total) = 0.42760E-01    rms(broyden)= 0.42760E-01
  rms(prec ) = 0.43320E-01
  weight for this iteration     100.00

 eigenvalues of (default mixing * dielectric matrix)
  average eigenvalue GAMMA=   0.7578
  1.3232  1.3232  0.6488  0.6488  0.4794  0.4794  0.4017

 Free energy of the ion-electron system (eV)
  ---------------------------------------------------
  alpha Z        PSCENC =      2580.95227926
  Ewald energy   TEWEN  =    -67508.67919130
  -Hartree energ DENC   =    -35941.40133709
  -exchange      EXHF   =         0.00000000
  -V(xc)+E(xc)   XCENC  =      4397.01752052
  PAW double counting   =    108667.58921212  -112282.56520680
  entropy T*S    EENTRO =        -0.00000000
  eigenvalues    EBANDS =    -15044.26108642
  atomic energy  EATOM  =    114309.28505226
  Solvation  Ediel_sol  =         0.00000000
  ---------------------------------------------------
  free energy    TOTEN  =      -822.06275746 eV

  energy without entropy =     -822.06275746  energy(sigma->0) =     -822.06275746


--------------------------------------------------------------------------------------------------------




--------------------------------------- Iteration      1(  13)  ---------------------------------------


    POTLOK:  cpu time    0.6736: real time    0.6858
    SETDIJ:  cpu time    1.6657: real time    1.6933
     EDDAV:  cpu time  518.0090: real time  526.2937
       DOS:  cpu time    0.0020: real time    0.0020
    CHARGE:  cpu time    8.1748: real time    8.5895
    MIXING:  cpu time    0.0336: real time    0.0380
    --------------------------------------------
      LOOP:  cpu time  528.5588: real time  537.3023

 eigenvalue-minimisations  : 49424
 total energy-change (2. order) : 0.5204648E-03  (-0.1494147E-04)
 number of electron    1024.0000024 magnetization     128.0000016
 augmentation part      327.1484190 magnetization      84.2800085

 Broyden mixing:
  rms(total) = 0.32267E-01    rms(broyden)= 0.32266E-01
  rms(prec ) = 0.32659E-01
  weight for this iteration     100.00

 eigenvalues of (default mixing * dielectric matrix)
  average eigenvalue GAMMA=   0.7892
  1.5147  1.5147  0.7356  0.7356  0.5104  0.5104  0.3960  0.3960

 Free energy of the ion-electron system (eV)
  ---------------------------------------------------
  alpha Z        PSCENC =      2580.95227926
  Ewald energy   TEWEN  =    -67508.67919130
  -Hartree energ DENC   =    -35942.06971054
  -exchange      EXHF   =         0.00000000
  -V(xc)+E(xc)   XCENC  =      4397.11690503
  PAW double counting   =    108682.33910543  -112297.73608947
  entropy T*S    EENTRO =        -0.00000000
  eigenvalues    EBANDS =    -15043.27058767
  atomic energy  EATOM  =    114309.28505226
  Solvation  Ediel_sol  =         0.00000000
  ---------------------------------------------------
  free energy    TOTEN  =      -822.06223700 eV

  energy without entropy =     -822.06223700  energy(sigma->0) =     -822.06223700


--------------------------------------------------------------------------------------------------------




--------------------------------------- Iteration      1(  14)  ---------------------------------------


    POTLOK:  cpu time    0.7061: real time    0.7124
    SETDIJ:  cpu time    1.6582: real time    1.6607
     EDDAV:  cpu time  434.8758: real time  441.9530
       DOS:  cpu time    0.0022: real time    0.0022
    CHARGE:  cpu time    8.2847: real time    8.6029
    MIXING:  cpu time    0.0428: real time    0.0435
    --------------------------------------------
      LOOP:  cpu time  445.5698: real time  452.9746

 eigenvalue-minimisations  : 40216
 total energy-change (2. order) : 0.1621713E-03  (-0.1005857E-04)
 number of electron    1024.0000024 magnetization     128.0000013
 augmentation part      327.1534199 magnetization      84.2793701

 Broyden mixing:
  rms(total) = 0.26930E-01    rms(broyden)= 0.26930E-01
  rms(prec ) = 0.27249E-01
  weight for this iteration     100.00

 eigenvalues of (default mixing * dielectric matrix)
  average eigenvalue GAMMA=   0.9313
  1.9890  1.9890  0.9324  0.9324  0.5978  0.5978  0.4762  0.4762  0.3910

 Free energy of the ion-electron system (eV)
  ---------------------------------------------------
  alpha Z        PSCENC =      2580.95227926
  Ewald energy   TEWEN  =    -67508.67919130
  -Hartree energ DENC   =    -35942.42467665
  -exchange      EXHF   =         0.00000000
  -V(xc)+E(xc)   XCENC  =      4397.16327398
  PAW double counting   =    108690.14039722  -112305.71838278
  entropy T*S    EENTRO =        -0.00000000
  eigenvalues    EBANDS =    -15042.78082680
  atomic energy  EATOM  =    114309.28505226
  Solvation  Ediel_sol  =         0.00000000
  ---------------------------------------------------
  free energy    TOTEN  =      -822.06207483 eV

  energy without entropy =     -822.06207483  energy(sigma->0) =     -822.06207483


--------------------------------------------------------------------------------------------------------




--------------------------------------- Iteration      1(  15)  ---------------------------------------


    POTLOK:  cpu time    0.6616: real time    0.6657
    SETDIJ:  cpu time    1.6638: real time    1.6753
     EDDAV:  cpu time  524.2911: real time  532.6345
       DOS:  cpu time    0.0018: real time    0.0018
    CHARGE:  cpu time    8.4347: real time    8.6765
    MIXING:  cpu time    0.0462: real time    0.0462
    --------------------------------------------
      LOOP:  cpu time  535.0993: real time  543.7000

 eigenvalue-minimisations  : 50616
 total energy-change (2. order) : 0.3239938E-03  (-0.1671230E-04)
 number of electron    1024.0000024 magnetization     128.0000010
 augmentation part      327.1619311 magnetization      84.2798454

 Broyden mixing:
  rms(total) = 0.13217E-01    rms(broyden)= 0.13217E-01
  rms(prec ) = 0.13357E-01
  weight for this iteration     100.00

 eigenvalues of (default mixing * dielectric matrix)
  average eigenvalue GAMMA=   0.9979
  2.3710  2.3710  1.0351  1.0351  0.6649  0.6649  0.5035  0.5035  0.3947  0.4349

 Free energy of the ion-electron system (eV)
  ---------------------------------------------------
  alpha Z        PSCENC =      2580.95227926
  Ewald energy   TEWEN  =    -67508.67919130
  -Hartree energ DENC   =    -35943.26228865
  -exchange      EXHF   =         0.00000000
  -V(xc)+E(xc)   XCENC  =      4397.28316669
  PAW double counting   =    108710.13083695  -112326.19973345
  entropy T*S    EENTRO =        -0.00000000
  eigenvalues    EBANDS =    -15041.57187259
  atomic energy  EATOM  =    114309.28505226
  Solvation  Ediel_sol  =         0.00000000
  ---------------------------------------------------
  free energy    TOTEN  =      -822.06175083 eV

  energy without entropy =     -822.06175083  energy(sigma->0) =     -822.06175083


--------------------------------------------------------------------------------------------------------




--------------------------------------- Iteration      1(  16)  ---------------------------------------


    POTLOK:  cpu time    0.6597: real time    0.6681
    SETDIJ:  cpu time    1.6571: real time    1.6865
     EDDAV:  cpu time  409.0973: real time  416.1355
       DOS:  cpu time    0.0023: real time    0.0023
    CHARGE:  cpu time    8.3348: real time    8.5955
    MIXING:  cpu time    0.0359: real time    0.0463
    --------------------------------------------
      LOOP:  cpu time  419.7870: real time  427.1341

 eigenvalue-minimisations  : 37184
 total energy-change (2. order) : 0.6644712E-04  (-0.1692802E-04)
 number of electron    1024.0000024 magnetization     128.0000010
 augmentation part      327.1690489 magnetization      84.2790369

 Broyden mixing:
  rms(total) = 0.60948E-02    rms(broyden)= 0.60942E-02
  rms(prec ) = 0.61406E-02
  weight for this iteration     100.00

 eigenvalues of (default mixing * dielectric matrix)
  average eigenvalue GAMMA=   0.9950
  2.5270  2.5270  1.0829  1.0829  0.7038  0.7038  0.5156  0.5156  0.4542  0.4542
  0.3774

 Free energy of the ion-electron system (eV)
  ---------------------------------------------------
  alpha Z        PSCENC =      2580.95227926
  Ewald energy   TEWEN  =    -67508.67919130
  -Hartree energ DENC   =    -35943.70932861
  -exchange      EXHF   =         0.00000000
  -V(xc)+E(xc)   XCENC  =      4397.34398463
  PAW double counting   =    108720.90248080  -112337.22925160
  entropy T*S    EENTRO =        -0.00000000
  eigenvalues    EBANDS =    -15040.92770981
  atomic energy  EATOM  =    114309.28505226
  Solvation  Ediel_sol  =         0.00000000
  ---------------------------------------------------
  free energy    TOTEN  =      -822.06168438 eV

  energy without entropy =     -822.06168438  energy(sigma->0) =     -822.06168438


--------------------------------------------------------------------------------------------------------




--------------------------------------- Iteration      1(  17)  ---------------------------------------


    POTLOK:  cpu time    0.6630: real time    0.6715
    SETDIJ:  cpu time    1.6736: real time    1.6961
     EDDAV:  cpu time  472.4803: real time  480.8679
       DOS:  cpu time    0.0020: real time    0.0021
    CHARGE:  cpu time    8.3358: real time    8.5513
    MIXING:  cpu time    0.0234: real time    0.0352
    --------------------------------------------
      LOOP:  cpu time  483.1780: real time  491.8242

 eigenvalue-minimisations  : 44592
 total energy-change (2. order) : 0.3035617E-05  (-0.3518324E-05)
 number of electron    1024.0000024 magnetization     128.0000010
 augmentation part      327.1718818 magnetization      84.2795092

 Broyden mixing:
  rms(total) = 0.48216E-02    rms(broyden)= 0.48210E-02
  rms(prec ) = 0.48484E-02
  weight for this iteration     100.00

 eigenvalues of (default mixing * dielectric matrix)
  average eigenvalue GAMMA=   0.9221
  2.5434  2.5434  1.0851  1.0851  0.7046  0.7046  0.5124  0.5124  0.4540  0.4540
  0.3760  0.0902

 Free energy of the ion-electron system (eV)
  ---------------------------------------------------
  alpha Z        PSCENC =      2580.95227926
  Ewald energy   TEWEN  =    -67508.67919130
  -Hartree energ DENC   =    -35943.77980649
  -exchange      EXHF   =         0.00000000
  -V(xc)+E(xc)   XCENC  =      4397.35395329
  PAW double counting   =    108723.08916434  -112339.46410317
  entropy T*S    EENTRO =        -0.00000000
  eigenvalues    EBANDS =    -15040.81902953
  atomic energy  EATOM  =    114309.28505226
  Solvation  Ediel_sol  =         0.00000000
  ---------------------------------------------------
  free energy    TOTEN  =      -822.06168135 eV

  energy without entropy =     -822.06168135  energy(sigma->0) =     -822.06168135


--------------------------------------------------------------------------------------------------------




--------------------------------------- Iteration      1(  18)  ---------------------------------------


    POTLOK:  cpu time    0.6610: real time    0.6725
    SETDIJ:  cpu time    1.6795: real time    1.6947
     EDDAV:  cpu time  449.3228: real time  456.5830
       DOS:  cpu time    0.0034: real time    0.0034
    CHARGE:  cpu time    8.4010: real time    8.6224
    MIXING:  cpu time    0.0407: real time    0.0414
    --------------------------------------------
      LOOP:  cpu time  460.1084: real time  467.6174

 eigenvalue-minimisations  : 42200
 total energy-change (2. order) :-0.8792995E-06  (-0.2613259E-06)
 number of electron    1024.0000024 magnetization     128.0000009
 augmentation part      327.1728793 magnetization      84.2794387

 Broyden mixing:
  rms(total) = 0.47355E-02    rms(broyden)= 0.47351E-02
  rms(prec ) = 0.47615E-02
  weight for this iteration     100.00

 eigenvalues of (default mixing * dielectric matrix)
  average eigenvalue GAMMA=   0.8761
  2.5677  2.5677  1.0854  1.0854  0.7042  0.7042  0.5110  0.5110  0.4534  0.4534
  0.3759  0.1851  0.1851

 Free energy of the ion-electron system (eV)
  ---------------------------------------------------
  alpha Z        PSCENC =      2580.95227926
  Ewald energy   TEWEN  =    -67508.67919130
  -Hartree energ DENC   =    -35943.77728962
  -exchange      EXHF   =         0.00000000
  -V(xc)+E(xc)   XCENC  =      4397.35355438
  PAW double counting   =    108723.11118935  -112339.48592225
  entropy T*S    EENTRO =        -0.00000000
  eigenvalues    EBANDS =    -15040.82135430
  atomic energy  EATOM  =    114309.28505226
  Solvation  Ediel_sol  =         0.00000000
  ---------------------------------------------------
  free energy    TOTEN  =      -822.06168223 eV

  energy without entropy =     -822.06168223  energy(sigma->0) =     -822.06168223


--------------------------------------------------------------------------------------------------------




--------------------------------------- Iteration      1(  19)  ---------------------------------------


    POTLOK:  cpu time    0.6593: real time    0.6660
    SETDIJ:  cpu time    1.6615: real time    1.6786
     EDDAV:  cpu time  362.6551: real time  369.1234
       DOS:  cpu time    0.0027: real time    0.0027
    CHARGE:  cpu time    8.4181: real time    8.6366
    MIXING:  cpu time    0.0472: real time    0.0501
    --------------------------------------------
      LOOP:  cpu time  373.4438: real time  380.1575

 eigenvalue-minimisations  : 32272
 total energy-change (2. order) :-0.3165987E-05  (-0.1613544E-07)
 number of electron    1024.0000024 magnetization     128.0000008
 augmentation part      327.1728108 magnetization      84.2794032

 Broyden mixing:
  rms(total) = 0.45260E-02    rms(broyden)= 0.45255E-02
  rms(prec ) = 0.45572E-02
  weight for this iteration     100.00

 eigenvalues of (default mixing * dielectric matrix)
  average eigenvalue GAMMA=   1.0227
  2.9114  2.9114  1.2575  1.2575  0.8791  0.8791  0.7371  0.7371  0.5395  0.5395
  0.4633  0.4633  0.3710  0.3710

 Free energy of the ion-electron system (eV)
  ---------------------------------------------------
  alpha Z        PSCENC =      2580.95227926
  Ewald energy   TEWEN  =    -67508.67919130
  -Hartree energ DENC   =    -35943.78001487
  -exchange      EXHF   =         0.00000000
  -V(xc)+E(xc)   XCENC  =      4397.35226757
  PAW double counting   =    108723.54413388  -112339.91893801
  entropy T*S    EENTRO =        -0.00000000
[...]
   0.123E-01 -.408E-03 -.101E-02   -.133E-01 0.422E-03 0.101E-02   0.140E-02 -.391E-04 0.684E-05   0.668E-06 0.166E-06 0.109E-08
   -.810E-02 -.654E-03 0.653E-03   0.850E-02 0.709E-03 -.707E-03   -.552E-03 -.870E-04 0.870E-04   0.484E-06 0.538E-07 -.119E-07
   0.812E-02 0.373E-03 -.373E-03   -.851E-02 -.373E-03 0.372E-03   0.541E-03 -.104E-04 0.104E-04   -.357E-07 0.180E-06 0.310E-06
   0.571E+00 0.131E+00 -.131E+00   -.644E+00 -.146E+00 0.146E+00   0.569E-01 0.135E-01 -.135E-01   0.114E-05 0.244E-06 -.283E-06
   0.342E-01 -.165E-02 0.165E-02   -.358E-01 0.162E-02 -.161E-02   0.216E-02 0.119E-04 -.122E-04   -.407E-07 0.124E-06 0.170E-06
   -.114E-01 -.440E-02 -.965E-03   0.130E-01 0.399E-02 0.104E-02   -.211E-02 0.600E-03 -.161E-03   0.135E-06 0.161E-07 0.745E-07
   0.123E-01 0.101E-02 0.407E-03   -.133E-01 -.101E-02 -.420E-03   0.140E-02 -.630E-05 0.389E-04   -.410E-06 0.705E-07 0.206E-06
   -.125E-01 0.238E-01 0.196E-01   0.134E-01 -.244E-01 -.204E-01   -.112E-02 0.654E-03 0.106E-02   -.892E-07 0.451E-07 0.125E-06
   0.150E-01 -.480E-02 -.418E-02   -.157E-01 0.502E-02 0.440E-02   0.101E-02 -.280E-03 -.326E-03   0.447E-06 -.142E-06 0.377E-07
   -.123E-01 -.324E-01 0.324E-01   0.125E-01 0.338E-01 -.338E-01   -.497E-03 -.265E-02 0.265E-02   -.132E-06 0.391E-07 -.565E-07
   0.173E-01 0.518E-02 -.518E-02   -.181E-01 -.542E-02 0.542E-02   0.113E-02 0.390E-03 -.390E-03   0.177E-06 -.741E-07 -.237E-07
   -.124E-01 0.165E-01 -.165E-01   0.129E-01 -.173E-01 0.173E-01   -.651E-03 0.152E-02 -.152E-02   -.724E-06 0.182E-06 0.458E-07
   0.135E-01 -.407E-02 0.407E-02   -.143E-01 0.430E-02 -.430E-02   0.102E-02 -.355E-03 0.354E-03   0.397E-06 -.213E-06 -.131E-06
   -.125E-01 -.196E-01 -.238E-01   0.134E-01 0.204E-01 0.244E-01   -.112E-02 -.106E-02 -.655E-03   0.464E-06 -.719E-07 -.202E-07
   0.150E-01 0.418E-02 0.480E-02   -.157E-01 -.441E-02 -.502E-02   0.101E-02 0.326E-03 0.280E-03   -.423E-06 -.250E-06 -.450E-06
   -.115E-01 -.108E-02 -.434E-02   0.129E-01 0.104E-02 0.397E-02   -.196E-02 0.854E-04 0.523E-03   -.139E-06 0.334E-06 -.344E-06
   0.123E-01 0.436E-03 0.885E-03   -.133E-01 -.422E-03 -.101E-02   0.139E-02 -.134E-04 0.189E-03   -.613E-07 0.172E-06 -.170E-06
   -.812E-02 0.712E-03 -.711E-03   0.849E-02 -.709E-03 0.707E-03   -.519E-03 -.290E-05 0.312E-05   -.641E-06 0.433E-06 -.460E-06
   0.812E-02 -.347E-03 0.346E-03   -.851E-02 0.373E-03 -.372E-03   0.530E-03 -.380E-04 0.380E-04   0.517E-07 -.372E-06 0.311E-06
   0.569E+00 -.129E+00 0.129E+00   -.642E+00 0.145E+00 -.145E+00   0.570E-01 -.146E-01 0.146E-01   -.456E-06 -.125E-07 0.482E-07
   0.341E-01 0.158E-02 -.157E-02   -.358E-01 -.162E-02 0.161E-02   0.223E-02 0.489E-04 -.489E-04   -.560E-06 -.114E-06 0.129E-06
   -.115E-01 0.435E-02 0.108E-02   0.129E-01 -.399E-02 -.104E-02   -.196E-02 -.525E-03 -.861E-04   -.862E-07 0.106E-07 -.550E-07
   0.123E-01 -.889E-03 -.435E-03   -.133E-01 0.102E-02 0.421E-03   0.139E-02 -.189E-03 0.135E-04   0.386E-06 -.278E-07 -.556E-07
   -.130E-01 -.235E-01 -.196E-01   0.133E-01 0.244E-01 0.204E-01   -.399E-03 -.167E-02 -.163E-02   0.884E-06 -.555E-07 0.281E-06
   0.149E-01 0.471E-02 0.422E-02   -.157E-01 -.503E-02 -.441E-02   0.109E-02 0.506E-03 0.317E-03   -.854E-06 -.158E-06 0.122E-06
   -.118E-01 0.327E-01 -.327E-01   0.125E-01 -.338E-01 0.338E-01   -.101E-02 0.143E-02 -.143E-02   -.167E-06 -.188E-06 0.290E-06
   0.173E-01 -.517E-02 0.518E-02   -.181E-01 0.542E-02 -.543E-02   0.109E-02 -.333E-03 0.333E-03   -.334E-06 0.249E-06 -.180E-06
   -.122E-01 -.167E-01 0.167E-01   0.129E-01 0.173E-01 -.173E-01   -.892E-03 -.883E-03 0.884E-03   0.986E-07 -.227E-06 0.147E-06
   0.136E-01 0.409E-02 -.409E-02   -.143E-01 -.431E-02 0.431E-02   0.933E-03 0.296E-03 -.296E-03   0.159E-06 0.203E-06 -.238E-06
   -.130E-01 0.196E-01 0.235E-01   0.133E-01 -.204E-01 -.244E-01   -.398E-03 0.164E-02 0.167E-02   0.245E-06 -.312E-06 0.607E-07
   0.149E-01 -.422E-02 -.471E-02   -.157E-01 0.441E-02 0.503E-02   0.109E-02 -.317E-03 -.506E-03   0.256E-06 -.142E-06 0.278E-06
 -----------------------------------------------------------------------------------------------
   -.232E+00 0.707E-02 -.710E-02   -.663E-12 -.191E-12 0.455E-13   0.231E+00 -.707E-02 0.710E-02   0.621E-06 0.265E-06 -.232E-06
 
 
 POSITION                                       TOTAL-FORCE (eV/Angst)
 -----------------------------------------------------------------------------------
      1.91590      3.13932      5.36004         0.064092     -0.001089      0.000974
      9.61372      3.13932      5.36004        -0.000218     -0.000053     -0.000070
      1.92590      8.76310      5.40133        -0.000133     -0.000098     -0.000033
      9.61372      8.76310      5.40133        -0.000167     -0.000054     -0.000065
      1.92590      3.18168     10.98368        -0.000133     -0.000089     -0.000025
      9.61372      3.18168     10.98368        -0.000167     -0.000057     -0.000069
      1.92590      8.80547     11.02497         0.000122     -0.000050     -0.000073
      9.61372      8.80547     11.02497        -0.000052     -0.000055     -0.000068
      1.92590      5.35991      3.13736         0.000703     -0.000014      0.000137
      9.61372      5.35991      3.13736        -0.000131      0.000055      0.000068
      1.92590     10.98369      3.17866         0.000299      0.000188      0.000072
      9.61372     10.98369      3.17866        -0.000129      0.000054      0.000067
      1.92590      5.40227      8.76100         0.000300      0.000051     -0.000065
      9.61372      5.40227      8.76100        -0.000129      0.000055      0.000069
      1.92590     11.02606      8.80230         0.000248      0.000005      0.000118
      9.61372     11.02606      8.80230        -0.000111      0.000057      0.000066
      5.76192      2.52683      0.30490         0.000118      0.000102      0.000127
     13.44973      2.52683      0.30490         0.000123      0.000026     -0.000057
      5.76192      8.15062      0.34619        -0.000023      0.000050      0.000073
     13.44973      8.15062      0.34619        -0.000023      0.000074      0.000049
      5.76192      2.56920      5.92854        -0.001491      0.000229     -0.000105
     13.44973      2.56920      5.92854        -0.001413     -0.000210      0.000333
      5.76192      8.19298      5.96983         0.000118     -0.000004      0.000021
     13.44973      8.19298      5.96983         0.000123      0.000180      0.000096
      5.76192      0.30624      2.52757        -0.000065      0.000042      0.000010
     13.44973      0.30624      2.52757         0.000035     -0.000219     -0.000160
      5.76192      5.93003      2.56887        -0.000027     -0.000154      0.000032
     13.44973      5.93003      2.56887        -0.000108     -0.000003     -0.000120
      5.76192      0.34861      8.15121        -0.000027      0.000078     -0.000201
     13.44973      0.34861      8.15121        -0.000108     -0.000176      0.000054
      5.76192      5.97239      8.19250        -0.000065     -0.000133     -0.000164
     13.44973      5.97239      8.19250         0.000035      0.000037      0.000096
      4.24371      4.24961      4.24870        -0.003546     -0.002842      0.002843
     11.93153      4.24961      4.24870        -0.000316      0.000077     -0.000077
      4.24371      9.87340      4.29000         0.000287      0.000204     -0.000062
     11.93153      9.87340      4.29000        -0.000102     -0.000060     -0.000115
      4.24371      4.29198      9.87234         0.000288      0.000062     -0.000205
     11.93153      4.29198      9.87234        -0.000102      0.000115      0.000060
      4.24371      9.91576      9.91363         0.000135      0.000014     -0.000014
     11.93153      9.91576      9.91363        -0.000020     -0.000023      0.000023
      3.44411      1.41654      1.41623         0.000163     -0.000228      0.000148
     11.13192      1.41654      1.41623        -0.000287     -0.000085     -0.000053
      3.44411      7.04032      1.45753         0.000069     -0.000028      0.000028
     11.13192      7.04032      1.45753        -0.000152      0.000027     -0.000027
      3.44411      1.45890      7.03987        -0.000510      0.002711     -0.002710
     11.13192      1.45890      7.03987        -0.000275     -0.000035      0.000035
      3.44411      7.08269      7.08117         0.000163     -0.000148      0.000229
     11.13192      7.08269      7.08117        -0.000287      0.000053      0.000085
      7.68691      4.22843      1.43688        -0.000152     -0.000110      0.000058
     15.37473      4.22843      1.43688         0.000401     -0.000206     -0.000248
      7.68691      9.85222      1.47818        -0.000021      0.000026      0.000027
     15.37473      9.85222      1.47818         0.000180      0.000004     -0.000013
      7.68691      4.27079      7.06052        -0.000196     -0.000032     -0.000032
     15.37473      4.27079      7.06052        -0.001743      0.002586      0.003273
      7.68691      9.89458      7.10182        -0.000141      0.000057     -0.000106
     15.37473      9.89458      7.10182         0.000315     -0.000170     -0.000110
      0.00091      1.43772      4.22805        -0.001884     -0.003275     -0.002587
      7.68873      1.43772      4.22805        -0.000341      0.000033      0.000031
      0.00091      7.06151      4.26935         0.000256      0.000248      0.000206
      7.68873      7.06151      4.26935        -0.000297     -0.000058      0.000110
      0.00091      1.48008      9.85169         0.000170      0.000111      0.000169
      7.68873      1.48008      9.85169        -0.000286      0.000106     -0.000057
      0.00091      7.10387      9.89299         0.000035      0.000014     -0.000004
      7.68873      7.10387      9.89299        -0.000166     -0.000026     -0.000026
      7.36691      4.24961      4.24870        -0.000476     -0.000082      0.000082
     15.05473      4.24961      4.24870        -0.007917      0.007711     -0.007716
      7.36691      9.87340      4.29000        -0.000296      0.000094      0.000249
     15.05473      9.87340      4.29000         0.000503     -0.000199      0.000109
      7.36691      4.29198      9.87234        -0.000296     -0.000249     -0.000094
     15.05473      4.29198      9.87234         0.000504     -0.000109      0.000199
      7.36691      9.91576      9.91363        -0.000094      0.000075     -0.000075
     15.05473      9.91576      9.91363         0.000228     -0.000203      0.000204
      0.32090      1.41654      1.41623         0.000588      0.000427     -0.000100
      8.00872      1.41654      1.41623        -0.000442      0.000170      0.000058
      0.32090      7.04032      1.45753         0.000201      0.000358     -0.000358
      8.00872      7.04032      1.45753        -0.000249     -0.000079      0.000079
      0.32090      1.45890      7.03987        -0.001407     -0.006583      0.006583
      8.00872      1.45890      7.03987        -0.000514      0.000089     -0.000088
      0.32090      7.08269      7.08117         0.000588      0.000100     -0.000427
      8.00872      7.08269      7.08117        -0.000442     -0.000058     -0.000170
      3.84445      4.22843      1.43688         0.000511      0.000347      0.000253
     11.53226      4.22843      1.43688        -0.000461      0.000220     -0.000103
      3.84445      9.85222      1.47818         0.000140      0.000240      0.000230
     11.53226      9.85222      1.47818        -0.000235     -0.000073     -0.000095
      3.84445      4.27079      7.06052        -0.004171     -0.006418     -0.007936
     11.53226      4.27079      7.06052        -0.000570      0.000017      0.000143
      3.84445      9.89458      7.10182         0.000400      0.000176      0.000183
     11.53226      9.89458      7.10182        -0.000415     -0.000063      0.000219
      3.84337      1.43772      4.22805        -0.004042      0.007936      0.006415
     11.53119      1.43772      4.22805        -0.000450     -0.000143     -0.000017
      3.84337      7.06151      4.26935         0.000631     -0.000253     -0.000348
     11.53119      7.06151      4.26935        -0.000341      0.000103     -0.000220
      3.84337      1.48008      9.85169         0.000520     -0.000183     -0.000176
     11.53119      1.48008      9.85169        -0.000296     -0.000219      0.000063
      3.84337      7.10387      9.89299         0.000259     -0.000231     -0.000240
     11.53119      7.10387      9.89299        -0.000115      0.000095      0.000073
      1.92917      5.66160      5.66028        -0.003603      0.000045      0.000385
      9.61699      5.66160      5.66028         0.000478      0.000008     -0.000010
      1.92917     11.28539      5.70158        -0.002217      0.000077      0.000095
      9.61699     11.28539      5.70158         0.000445      0.000015     -0.000032
      1.92917      5.70397     11.28392        -0.000277      0.000017      0.000096
      9.61699      5.70397     11.28392         0.000268      0.000006     -0.000007
      1.92917     11.32775     11.32522        -0.000245     -0.000017     -0.000116
      9.61699     11.32775     11.32522         0.000255      0.000010     -0.000027
      1.92917      2.83762      2.83712        -0.003601     -0.000411     -0.000017
      9.61699      2.83762      2.83712         0.000478     -0.000018      0.000020
      1.92917      8.46141      2.87841        -0.000277     -0.000124      0.000011
      9.61699      8.46141      2.87841         0.000268     -0.000021      0.000021
      1.92917      2.87999      8.46076        -0.002218     -0.000123     -0.000049
      9.61699      2.87999      8.46076         0.000445      0.000004      0.000013
      1.92917      8.50377      8.50205        -0.000245      0.000088      0.000044
      9.61699      8.50377      8.50205         0.000255     -0.000001      0.000018
      5.75865      0.00455      0.00465         0.000027     -0.000102     -0.000028
     13.44647      0.00455      0.00465        -0.000014      0.000070     -0.000015
      5.75865      5.62833      0.04594         0.000022      0.000073      0.000059
     13.44647      5.62833      0.04594         0.000032     -0.000099      0.000096
      5.75865      0.04691      5.62829         0.000664     -0.000983      0.000042
     13.44647      0.04691      5.62829         0.000605      0.000898      0.000067
      5.75865      5.67070      5.66958         0.000662      0.000983     -0.000018
     13.44647      5.67070      5.66958         0.000717     -0.001053     -0.000176
      5.75865      2.82853      2.82782         0.000662      0.000046     -0.001010
     13.44647      2.82853      2.82782         0.000718      0.000204      0.001024
      5.75865      8.45231      2.86911         0.000022     -0.000031     -0.000101
     13.44647      8.45231      2.86911         0.000032     -0.000068      0.000071
      5.75865      2.87089      8.45146         0.000665     -0.000014      0.000956
     13.44647      2.87089      8.45146         0.000605     -0.000040     -0.000926
      5.75865      8.49468      8.49275         0.000027      0.000056      0.000074
     13.44647      8.49468      8.49275        -0.000014      0.000043     -0.000098
      0.00000      2.81189      0.02065        -0.000588      0.000088     -0.000190
      7.68782      2.81189      0.02065         0.000396     -0.000026      0.000009
      0.00000      8.43568      0.06194        -0.000140     -0.000033      0.000033
      7.68782      8.43568      0.06194         0.000154     -0.000010      0.000010
      0.00000      2.85426      5.64429        -0.016176     -0.001373      0.001369
      7.68782      2.85426      5.64429         0.000555     -0.000023      0.000023
      0.00000      8.47804      5.68558        -0.000588      0.000191     -0.000088
      7.68782      8.47804      5.68558         0.000396     -0.000008      0.000026
      0.00000      0.02118      2.81182        -0.000301      0.000107      0.000292
      7.68782      0.02118      2.81182         0.000281     -0.000058     -0.000099
      0.00000      5.64497      2.85311        -0.000229     -0.001281      0.001281
      7.68782      5.64497      2.85311         0.000327      0.000156     -0.000156
      0.00000      0.06355      8.43546        -0.000070      0.000720     -0.000720
      7.68782      0.06355      8.43546         0.000275     -0.000126      0.000126
      0.00000      5.68733      8.47675        -0.000302     -0.000292     -0.000107
      7.68782      5.68733      8.47675         0.000281      0.000100      0.000058
      3.84391      2.81189      0.02065        -0.000538      0.000048      0.000160
     11.53173      2.81189      0.02065         0.000390      0.000001      0.000062
      3.84391      8.43568      0.06194        -0.000134      0.000000     -0.000000
     11.53173      8.43568      0.06194         0.000149     -0.000012      0.000012
      3.84391      2.85426      5.64429        -0.015808      0.001388     -0.001385
     11.53173      2.85426      5.64429         0.000568      0.000009     -0.000009
      3.84391      8.47804      5.68558        -0.000538     -0.000161     -0.000049
     11.53173      8.47804      5.68558         0.000390     -0.000062     -0.000001
      3.84391      0.02118      2.81182        -0.000067     -0.000826     -0.000809
     11.53173      0.02118      2.81182         0.000303      0.000183      0.000125
      3.84391      5.64497      2.85311        -0.000268      0.000339     -0.000338
     11.53173      5.64497      2.85311         0.000298     -0.000083      0.000083
      3.84391      0.06355      8.43546        -0.000226     -0.000216      0.000216
     11.53173      0.06355      8.43546         0.000254      0.000079     -0.000079
      3.84391      5.68733      8.47675        -0.000067      0.000810      0.000827
     11.53173      5.68733      8.47675         0.000304     -0.000125     -0.000183
 -----------------------------------------------------------------------------------
    total drift:                               -0.001123      0.000004     -0.000005


--------------------------------------------------------------------------------------------------------



  FREE ENERGIE OF THE ION-ELECTRON SYSTEM (eV)
  ---------------------------------------------------
  free  energy   TOTEN  =      -822.06168187 eV

  energy  without entropy=     -822.06168187  energy(sigma->0) =     -822.06168187
 


--------------------------------------------------------------------------------------------------------


    POTLOK:  cpu time    2.3713: real time    2.3912


--------------------------------------------------------------------------------------------------------


     LOOP+:  cpu time17199.6448: real time17497.3781
    4ORBIT:  cpu time    0.0000: real time    0.0000

 total amount of memory used by VASP MPI-rank0   985864. kBytes
=======================================================================

   base      :      30000. kBytes
   nonl-proj :     102069. kBytes
   fftplans  :      64934. kBytes
   grid      :      55554. kBytes
   one-center:        839. kBytes
   wavefun   :     732468. kBytes
 
  
  
 General timing and accounting informations for this job:
 ========================================================
  
                  Total CPU time used (sec):    17339.570
                            User time (sec):    17232.085
                          System time (sec):      107.486
                         Elapsed time (sec):    17639.942
  
                   Maximum memory used (kb):     1180572.
                   Average memory used (kb):           0.
  
                          Minor page faults:      1217006
                          Major page faults:           22
                 Voluntary context switches:       106024
