   11   11   60    2
  0.1387989E+02  0.3890938E-09  0.3890938E-09  0.1045670E-08  0.5000000E-15
  1.000000000000000E-004
  CAR 
 unknown system                          
     92     26     68
 
  0.0000000E+00  0.0000000E+00  0.0000000E+00  0.1388889E-01
    1      -55.739780    -49.116028   1.000000   1.000000
    2      -55.739774    -49.116019   1.000000   1.000000
    3      -55.709299    -49.066793   1.000000   1.000000
    4      -55.706721    -49.064563   1.000000   1.000000
    5      -54.331122    -49.049415   1.000000   1.000000
    6      -54.331121    -49.049374   1.000000   1.000000
    7      -54.185856    -49.042909   1.000000   1.000000
    8      -54.185651    -49.040338   1.000000   1.000000
    9      -54.173294    -49.021975   1.000000   1.000000
   10      -54.172781    -49.021147   1.000000   1.000000
   11      -54.158259    -49.016826   1.000000   1.000000
   12      -54.157931    -49.016068   1.000000   1.000000
   13      -43.245918    -43.244977   1.000000   1.000000
   14      -43.245648    -43.244688   1.000000   1.000000
   15      -15.841149    -15.308597   1.000000   1.000000
   16      -15.810685    -15.275288   1.000000   1.000000
   17       -9.402920     -9.041125   1.000000   1.000000
   18       -9.151235     -8.842690   1.000000   1.000000
   19       -8.647663     -8.231386   1.000000   1.000000
   20       -2.104946     -0.349557   1.000000   1.000000
   21       -1.786267     -0.207350   1.000000   1.000000
   22       -1.778455     -0.201225   1.000000   1.000000
   23       -1.734437     -0.001292   1.000000   1.000000
   24       -1.076926      0.125797   1.000000   1.000000
   25       -1.004538      0.272711   1.000000   1.000000
   26       -0.982431      0.309082   1.000000   1.000000
   27       -0.744102      0.621460   1.000000   1.000000
   28       -0.402960      2.375747   1.000000   1.000000
   29       -0.402762      2.423028   1.000000   1.000000
   30       -0.231015      2.628541   1.000000   1.000000
   31       -0.193474      2.852516   1.000000   1.000000
   32       -0.033452      3.243370   1.000000   1.000000
   33       -0.022887      3.259718   1.000000   1.000000
   34        0.211959      3.460936   1.000000   1.000000
   35        0.406458      3.712391   1.000000   1.000000
   36        0.626966      3.789210   1.000000   1.000000
   37        0.662084      4.002539   1.000000   1.000000
   38        0.682550      4.574420   1.000000   1.000000
   39        0.797020      7.159644   1.000000   0.000000
   40        1.092776      7.874860   1.000000   0.000000
   41        1.161144      7.906551   1.000000   0.000000
   42        1.194959      7.994342   1.000000   0.000000
   43        1.293134      8.080732   1.000000   0.000000
   44        1.444783      8.351110   1.000000   0.000000
   45        1.956451      8.475764   1.000000   0.000000
   46        2.010904      8.533554   1.000000   0.000000
   47        2.760734      8.756115   1.000000   0.000000
   48        2.869719      8.772607   1.000000   0.000000
   49        2.938626      9.021387   1.000000   0.000000
   50        3.624688      9.061817   1.000000   0.000000
   51        3.641973      9.160454   1.000000   0.000000
   52        3.688804      9.172241   1.000000   0.000000
   53        4.095301      9.878870   1.000000   0.000000
   54        4.103084      9.884972   1.000000   0.000000
   55        8.353815      9.935455   0.000000   0.000000
   56        9.330095     11.014736   0.000000   0.000000
   57       10.698358     11.365433   0.000000   0.000000
   58       10.770865     11.656599   0.000000   0.000000
   59       11.341279     12.203534   0.000000   0.000000
   60       11.967060     12.744951   0.000000   0.000000
   61       12.461241     13.332671   0.000000   0.000000
   62       12.658792     13.381643   0.000000   0.000000
   63       12.740211     13.751383   0.000000   0.000000
   64       13.266943     13.822603   0.000000   0.000000
   65       15.485178     16.059883   0.000000   0.000000
   66       15.573047     16.384412   0.000000   0.000000
   67       15.746581     16.513185   0.000000   0.000000
   68       15.836816     16.717747   0.000000   0.000000
 
  0.1666667E+00 -0.1838108E-18  0.4285892E-14  0.5555556E-01
    1      -55.740682    -49.116251   1.000000   1.000000
    2      -55.739769    -49.115805   1.000000   1.000000
    3      -55.708891    -49.066275   1.000000   1.000000
    4      -55.706611    -49.064370   1.000000   1.000000
    5      -54.331353    -49.052589   1.000000   1.000000
    6      -54.331132    -49.049290   1.000000   1.000000
    7      -54.186147    -49.041961   1.000000   1.000000
    8      -54.185695    -49.039492   1.000000   1.000000
    9      -54.173345    -49.021667   1.000000   1.000000
   10      -54.172884    -49.020659   1.000000   1.000000
   11      -54.158255    -49.017112   1.000000   1.000000
   12      -54.157830    -49.016054   1.000000   1.000000
   13      -43.245635    -43.244648   1.000000   1.000000
   14      -43.245425    -43.244423   1.000000   1.000000
   15      -15.835732    -15.301845   1.000000   1.000000
   16      -15.760541    -15.227353   1.000000   1.000000
   17       -9.301912     -8.949595   1.000000   1.000000
   18       -9.076922     -8.758821   1.000000   1.000000
   19       -8.600461     -8.194135   1.000000   1.000000
   20       -2.389397     -0.819540   1.000000   1.000000
   21       -2.009879     -0.316207   1.000000   1.000000
   22       -1.754762     -0.170953   1.000000   1.000000
   23       -1.513752     -0.124587   1.000000   1.000000
   24       -1.251689     -0.030994   1.000000   1.000000
   25       -1.228912      0.273845   1.000000   1.000000
   26       -1.022730      0.538175   1.000000   1.000000
   27       -0.618203      0.893425   1.000000   1.000000
   28       -0.526490      1.927147   1.000000   1.000000
   29       -0.390628      2.197446   1.000000   1.000000
   30       -0.294860      2.430570   1.000000   1.000000
   31       -0.267649      2.629305   1.000000   1.000000
   32       -0.151404      2.793412   1.000000   1.000000
   33       -0.043408      3.123657   1.000000   1.000000
   34        0.169531      3.485712   1.000000   1.000000
   35        0.288766      3.653838   1.000000   1.000000
   36        0.320488      3.847369   1.000000   1.000000
   37        0.557154      4.034934   1.000000   1.000000
   38        0.849364      4.560278   1.000000   1.000000
   39        0.885637      7.810706   1.000000   0.000000
   40        1.019087      7.852685   1.000000   0.000000
   41        1.080224      7.924202   1.000000   0.000000
   42        1.253510      8.040075   1.000000   0.000000
   43        1.316208      8.277968   1.000000   0.000000
   44        1.616729      8.486697   1.000000   0.000000
   45        1.790245      8.624345   1.000000   0.000000
   46        2.009654      8.693012   1.000000   0.000000
   47        2.179575      8.810238   1.000000   0.000000
   48        3.171825      8.994497   1.000000   0.000000
   49        3.195447      9.059544   1.000000   0.000000
   50        3.635226      9.157574   1.000000   0.000000
   51        3.727144      9.293213   1.000000   0.000000
   52        3.987446      9.314840   1.000000   0.000000
   53        4.150420      9.687550   1.000000   0.000000
   54        4.217961      9.923526   1.000000   0.000000
   55        9.150728     10.509504   0.000000   0.000000
   56        9.685944     11.069750   0.000000   0.000000
   57       10.644332     11.443963   0.000000   0.000000
   58       10.882787     11.932839   0.000000   0.000000
   59       11.709341     12.541713   0.000000   0.000000
   60       12.106681     12.685514   0.000000   0.000000
   61       12.502053     13.219380   0.000000   0.000000
   62       12.615416     13.393905   0.000000   0.000000
   63       12.888693     13.863412   0.000000   0.000000
   64       13.618236     14.290506   0.000000   0.000000
   65       14.258165     14.847969   0.000000   0.000000
   66       14.737511     15.730039   0.000000   0.000000
   67       14.846173     15.781545   0.000000   0.000000
   68       15.002124     16.173125   0.000000   0.000000
 
  0.3333333E+00  0.5551922E-20 -0.2177408E-14  0.5555556E-01
    1      -55.742425    -49.116720   1.000000   1.000000
    2      -55.739745    -49.115370   1.000000   1.000000
    3      -55.708263    -49.065552   1.000000   1.000000
    4      -55.706330    -49.063655   1.000000   1.000000
    5      -54.331813    -49.056847   1.000000   1.000000
    6      -54.331151    -49.049127   1.000000   1.000000
    7      -54.186887    -49.041778   1.000000   1.000000
    8      -54.185648    -49.038334   1.000000   1.000000
    9      -54.173603    -49.021014   1.000000   1.000000
   10      -54.172952    -49.019537   1.000000   1.000000
   11      -54.158278    -49.017673   1.000000   1.000000
   12      -54.157621    -49.016229   1.000000   1.000000
   13      -43.245149    -43.244054   1.000000   1.000000
   14      -43.244965    -43.243898   1.000000   1.000000
   15      -15.848428    -15.313265   1.000000   1.000000
   16      -15.632573    -15.102894   1.000000   1.000000
   17       -9.112368     -8.784173   1.000000   1.000000
   18       -8.864943     -8.520231   1.000000   1.000000
   19       -8.530731     -8.149697   1.000000   1.000000
   20       -2.837734     -1.415650   1.000000   1.000000
   21       -2.084094     -0.754128   1.000000   1.000000
   22       -1.749364     -0.458798   1.000000   1.000000
   23       -1.701209     -0.258576   1.000000   1.000000
   24       -1.554983      0.012385   1.000000   1.000000
   25       -1.473762      0.262328   1.000000   1.000000
   26       -1.076103      0.713345   1.000000   1.000000
   27       -0.954109      0.966899   1.000000   1.000000
   28       -0.776169      1.312463   1.000000   1.000000
   29       -0.658867      1.720876   1.000000   1.000000
   30       -0.469108      2.200754   1.000000   1.000000
   31       -0.325185      2.441446   1.000000   1.000000
   32       -0.292847      2.716428   1.000000   1.000000
   33       -0.115739      2.821481   1.000000   1.000000
   34       -0.035111      3.096421   1.000000   1.000000
   35        0.127628      3.818623   1.000000   1.000000
   36        0.285585      4.108175   1.000000   1.000000
   37        0.414352      4.199080   1.000000   1.000000
   38        0.712429      4.443690   1.000000   1.000000
   39        0.915859      7.682982   1.000000   0.000000
   40        1.218624      8.003353   1.000000   0.000000
   41        1.335644      8.203902   1.000000   0.000000
   42        1.411854      8.385271   1.000000   0.000000
   43        1.525265      8.401434   1.000000   0.000000
   44        1.689459      8.561636   1.000000   0.000000
   45        1.738101      8.784217   1.000000   0.000000
   46        1.947501      8.869236   1.000000   0.000000
   47        2.256477      8.942470   1.000000   0.000000
   48        2.874584      9.039599   1.000000   0.000000
   49        3.558065      9.222088   1.000000   0.000000
   50        3.651118      9.394506   1.000000   0.000000
   51        4.038975      9.538507   1.000000   0.000000
   52        4.166112      9.931061   1.000000   0.000000
   53        4.549291      9.993328   1.000000   0.000000
   54        4.631641     10.101792   1.000000   0.000000
   55        9.662997     10.650572   0.000000   0.000000
   56       10.173596     11.095924   0.000000   0.000000
   57       10.409967     11.663944   0.000000   0.000000
   58       10.854624     11.909871   0.000000   0.000000
   59       11.703522     12.511898   0.000000   0.000000
   60       12.241773     13.116680   0.000000   0.000000
   61       12.307983     13.268540   0.000000   0.000000
   62       13.038987     13.736518   0.000000   0.000000
   63       13.149821     14.187523   0.000000   0.000000
   64       13.728418     14.596404   0.000000   0.000000
   65       13.932010     14.651331   0.000000   0.000000
   66       14.182012     14.851159   0.000000   0.000000
   67       14.296585     14.997946   0.000000   0.000000
   68       14.968899     15.787081   0.000000   0.000000
 
  0.5000000E+00 -0.3555922E-18  0.2063277E-14  0.2777778E-01
    1      -55.743270    -49.116960   1.000000   1.000000
    2      -55.739728    -49.115153   1.000000   1.000000
    3      -55.708018    -49.065349   1.000000   1.000000
    4      -55.706137    -49.063125   1.000000   1.000000
    5      -54.332042    -49.058542   1.000000   1.000000
    6      -54.331158    -49.049045   1.000000   1.000000
    7      -54.187253    -49.041793   1.000000   1.000000
    8      -54.185615    -49.038120   1.000000   1.000000
    9      -54.173775    -49.020655   1.000000   1.000000
   10      -54.172944    -49.018819   1.000000   1.000000
   11      -54.158295    -49.017979   1.000000   1.000000
   12      -54.157513    -49.016470   1.000000   1.000000
   13      -43.244889    -43.243721   1.000000   1.000000
   14      -43.244718    -43.243636   1.000000   1.000000
   15      -15.855622    -15.320005   1.000000   1.000000
   16      -15.565390    -15.037551   1.000000   1.000000
   17       -9.033338     -8.711064   1.000000   1.000000
   18       -8.657904     -8.300722   1.000000   1.000000
   19       -8.566606     -8.205188   1.000000   1.000000
   20       -2.991002     -1.648360   1.000000   1.000000
   21       -2.172203     -1.000705   1.000000   1.000000
   22       -2.007580     -0.741274   1.000000   1.000000
   23       -1.694024     -0.231656   1.000000   1.000000
   24       -1.665091      0.095990   1.000000   1.000000
   25       -1.527897      0.256291   1.000000   1.000000
   26       -1.284074      0.351839   1.000000   1.000000
   27       -1.067241      0.971634   1.000000   1.000000
   28       -1.003472      1.224612   1.000000   1.000000
   29       -0.731237      1.751350   1.000000   1.000000
   30       -0.561337      2.267768   1.000000   1.000000
   31       -0.364972      2.425961   1.000000   1.000000
   32       -0.341342      2.596021   1.000000   1.000000
   33       -0.153805      2.738992   1.000000   1.000000
   34       -0.030591      2.873619   1.000000   1.000000
   35        0.120938      4.067211   1.000000   1.000000
   36        0.277543      4.121376   1.000000   1.000000
   37        0.451739      4.249151   1.000000   1.000000
   38        0.476586      4.353303   1.000000   1.000000
   39        1.080407      7.603858   1.000000   0.000000
   40        1.275668      8.218213   1.000000   0.000000
   41        1.403864      8.277098   1.000000   0.000000
   42        1.468983      8.285548   1.000000   0.000000
   43        1.631472      8.420831   1.000000   0.000000
   44        1.744400      8.520423   1.000000   0.000000
   45        1.924518      8.732840   1.000000   0.000000
   46        2.032809      8.796261   1.000000   0.000000
   47        2.192875      9.108621   1.000000   0.000000
   48        2.882035      9.222856   1.000000   0.000000
   49        3.510158      9.382004   1.000000   0.000000
   50        3.622745      9.448745   1.000000   0.000000
   51        4.421447      9.613525   1.000000   0.000000
   52        4.467891      9.964754   1.000000   0.000000
   53        4.572476     10.294854   1.000000   0.000000
   54        4.657354     10.448175   1.000000   0.000000
   55        9.460656     10.695511   0.000000   0.000000
   56       10.049558     11.098589   0.000000   0.000000
   57       10.595396     11.572751   0.000000   0.000000
   58       11.389336     12.131301   0.000000   0.000000
   59       11.399978     12.743663   0.000000   0.000000
   60       11.980785     12.783310   0.000000   0.000000
   61       12.085006     13.019521   0.000000   0.000000
   62       12.384060     13.174415   0.000000   0.000000
   63       13.073128     13.929191   0.000000   0.000000
   64       13.274118     14.188975   0.000000   0.000000
   65       13.740779     14.441394   0.000000   0.000000
   66       14.503361     15.315454   0.000000   0.000000
   67       14.769281     15.430311   0.000000   0.000000
   68       14.886739     15.614457   0.000000   0.000000
 
  0.1666667E+00  0.1666667E+00 -0.4904158E-15  0.2777778E-01
    1      -55.740682    -49.116137   1.000000   1.000000
    2      -55.740651    -49.115921   1.000000   1.000000
    3      -55.708457    -49.065739   1.000000   1.000000
    4      -55.706532    -49.064197   1.000000   1.000000
    5      -54.331392    -49.052966   1.000000   1.000000
    6      -54.331322    -49.051966   1.000000   1.000000
    7      -54.186171    -49.040456   1.000000   1.000000
    8      -54.186025    -49.039193   1.000000   1.000000
    9      -54.173413    -49.021738   1.000000   1.000000
   10      -54.172974    -49.020068   1.000000   1.000000
   11      -54.158533    -49.017488   1.000000   1.000000
   12      -54.157417    -49.016016   1.000000   1.000000
   13      -43.245401    -43.244391   1.000000   1.000000
   14      -43.245229    -43.244200   1.000000   1.000000
   15      -15.782882    -15.250925   1.000000   1.000000
   16      -15.759478    -15.225491   1.000000   1.000000
   17       -9.204694     -8.860727   1.000000   1.000000
   18       -9.010254     -8.679679   1.000000   1.000000
   19       -8.550774     -8.150315   1.000000   1.000000
   20       -2.414366     -0.870110   1.000000   1.000000
   21       -2.338865     -0.619972   1.000000   1.000000
   22       -1.766528     -0.352341   1.000000   1.000000
   23       -1.451706     -0.179015   1.000000   1.000000
   24       -1.357953      0.007072   1.000000   1.000000
   25       -1.307952      0.162968   1.000000   1.000000
   26       -0.989470      0.820289   1.000000   1.000000
   27       -0.724738      1.132639   1.000000   1.000000
   28       -0.558080      1.775205   1.000000   1.000000
   29       -0.450844      1.938087   1.000000   1.000000
   30       -0.409888      2.078371   1.000000   1.000000
   31       -0.326531      2.285221   1.000000   1.000000
   32       -0.158525      2.559938   1.000000   1.000000
   33       -0.032345      2.882141   1.000000   1.000000
   34        0.196120      3.054827   1.000000   1.000000
   35        0.278105      3.847236   1.000000   1.000000
   36        0.345099      3.989694   1.000000   1.000000
   37        0.445289      4.325770   1.000000   1.000000
   38        0.681299      4.564073   1.000000   1.000000
   39        0.871059      7.665869   1.000000   0.000000
   40        1.031371      7.831324   1.000000   0.000000
   41        1.204039      8.020093   1.000000   0.000000
   42        1.226429      8.092707   1.000000   0.000000
   43        1.339779      8.212661   1.000000   0.000000
   44        1.616751      8.509796   1.000000   0.000000
   45        1.784760      8.607932   1.000000   0.000000
   46        2.090161      8.779277   1.000000   0.000000
   47        2.243975      8.891993   1.000000   0.000000
   48        2.870168      9.051244   1.000000   0.000000
   49        3.127813      9.121509   1.000000   0.000000
   50        3.486771      9.208422   1.000000   0.000000
   51        3.533471      9.413768   1.000000   0.000000
   52        3.855230      9.591056   1.000000   0.000000
   53        4.325656      9.742309   1.000000   0.000000
   54        4.578935     10.175102   1.000000   0.000000
   55        9.779333     11.012379   0.000000   0.000000
   56       10.325075     11.434601   0.000000   0.000000
   57       10.762267     11.953821   0.000000   0.000000
   58       11.487309     12.284137   0.000000   0.000000
   59       11.994430     12.720616   0.000000   0.000000
   60       12.230060     12.838465   0.000000   0.000000
   61       12.311878     13.213134   0.000000   0.000000
   62       12.726065     13.420733   0.000000   0.000000
   63       12.971551     13.652230   0.000000   0.000000
   64       13.020812     13.815766   0.000000   0.000000
   65       13.473300     14.458069   0.000000   0.000000
   66       14.068706     14.901846   0.000000   0.000000
   67       14.187890     15.250196   0.000000   0.000000
   68       14.652562     15.642282   0.000000   0.000000
 
  0.3333333E+00  0.1666667E+00  0.5162925E-16  0.5555556E-01
    1      -55.742401    -49.116525   1.000000   1.000000
    2      -55.740627    -49.115547   1.000000   1.000000
    3      -55.707755    -49.064935   1.000000   1.000000
    4      -55.706289    -49.063517   1.000000   1.000000
    5      -54.331817    -49.056788   1.000000   1.000000
    6      -54.331353    -49.052257   1.000000   1.000000
    7      -54.186853    -49.039911   1.000000   1.000000
    8      -54.186034    -49.038226   1.000000   1.000000
    9      -54.173943    -49.021683   1.000000   1.000000
   10      -54.172753    -49.019038   1.000000   1.000000
   11      -54.158652    -49.018310   1.000000   1.000000
   12      -54.157053    -49.015936   1.000000   1.000000
   13      -43.244952    -43.243880   1.000000   1.000000
   14      -43.244816    -43.243755   1.000000   1.000000
   15      -15.788119    -15.254679   1.000000   1.000000
   16      -15.642503    -15.112798   1.000000   1.000000
   17       -9.026740     -8.700209   1.000000   1.000000
   18       -8.810115     -8.453473   1.000000   1.000000
   19       -8.481135     -8.092402   1.000000   1.000000
   20       -2.817054     -1.369725   1.000000   1.000000
   21       -2.348696     -0.762598   1.000000   1.000000
   22       -1.887927     -0.513642   1.000000   1.000000
   23       -1.681428     -0.366693   1.000000   1.000000
   24       -1.566488     -0.139716   1.000000   1.000000
   25       -1.387799      0.194739   1.000000   1.000000
   26       -1.035321      0.831079   1.000000   1.000000
   27       -0.943801      1.132134   1.000000   1.000000
   28       -0.801743      1.211751   1.000000   1.000000
   29       -0.703225      1.568809   1.000000   1.000000
   30       -0.512580      2.063101   1.000000   1.000000
   31       -0.329092      2.182615   1.000000   1.000000
   32       -0.234062      2.335926   1.000000   1.000000
   33       -0.081098      2.679306   1.000000   1.000000
   34       -0.024219      2.798462   1.000000   1.000000
   35        0.181959      3.968189   1.000000   1.000000
   36        0.316362      4.177232   1.000000   1.000000
   37        0.448795      4.335101   1.000000   1.000000
   38        0.657711      4.429516   1.000000   1.000000
   39        0.926414      7.560349   1.000000   0.000000
   40        1.087726      7.832144   1.000000   0.000000
   41        1.280826      8.074938   1.000000   0.000000
   42        1.456149      8.247962   1.000000   0.000000
   43        1.555932      8.337405   1.000000   0.000000
   44        1.678299      8.494961   1.000000   0.000000
   45        1.751820      8.588351   1.000000   0.000000
   46        2.021346      8.912006   1.000000   0.000000
   47        2.192517      8.971773   1.000000   0.000000
   48        2.948938      9.146323   1.000000   0.000000
   49        3.138890      9.222821   1.000000   0.000000
   50        3.311404      9.401942   1.000000   0.000000
   51        3.645432      9.520513   1.000000   0.000000
   52        3.944448      9.699591   1.000000   0.000000
   53        4.320019     10.022343   1.000000   0.000000
   54        4.637265     10.169942   1.000000   0.000000
   55       10.222579     11.568740   0.000000   0.000000
   56       10.635795     11.795449   0.000000   0.000000
   57       11.057385     11.930927   0.000000   0.000000
   58       11.123143     12.282350   0.000000   0.000000
   59       11.621371     12.496198   0.000000   0.000000
   60       12.164658     12.976535   0.000000   0.000000
   61       12.392801     13.402312   0.000000   0.000000
   62       12.726948     13.587956   0.000000   0.000000
   63       13.010625     13.914454   0.000000   0.000000
   64       13.354554     14.258976   0.000000   0.000000
   65       13.808459     14.615901   0.000000   0.000000
   66       13.985942     14.738034   0.000000   0.000000
   67       14.287672     14.974527   0.000000   0.000000
   68       14.898219     15.624821   0.000000   0.000000
 
  0.5000000E+00  0.1666667E+00  0.4327218E-14  0.5555556E-01
    1      -55.743236    -49.116751   1.000000   1.000000
    2      -55.740606    -49.115329   1.000000   1.000000
    3      -55.707506    -49.064696   1.000000   1.000000
    4      -55.706105    -49.063012   1.000000   1.000000
    5      -54.332040    -49.058473   1.000000   1.000000
    6      -54.331357    -49.052213   1.000000   1.000000
    7      -54.187224    -49.039828   1.000000   1.000000
    8      -54.186004    -49.038008   1.000000   1.000000
    9      -54.174244    -49.021515   1.000000   1.000000
   10      -54.172604    -49.018966   1.000000   1.000000
   11      -54.158636    -49.018386   1.000000   1.000000
   12      -54.156956    -49.015944   1.000000   1.000000
   13      -43.244713    -43.243593   1.000000   1.000000
   14      -43.244586    -43.243531   1.000000   1.000000
   15      -15.796175    -15.262420   1.000000   1.000000
   16      -15.576466    -15.048777   1.000000   1.000000
   17       -8.955454     -8.632430   1.000000   1.000000
   18       -8.603555     -8.232431   1.000000   1.000000
   19       -8.523953     -8.147752   1.000000   1.000000
   20       -2.976412     -1.573434   1.000000   1.000000
   21       -2.331508     -0.899614   1.000000   1.000000
   22       -2.054321     -0.628976   1.000000   1.000000
   23       -1.826899     -0.564847   1.000000   1.000000
   24       -1.629526     -0.099238   1.000000   1.000000
   25       -1.539165      0.001921   1.000000   1.000000
   26       -1.154119      0.809841   1.000000   1.000000
   27       -0.966257      1.039670   1.000000   1.000000
   28       -0.907310      1.172061   1.000000   1.000000
   29       -0.738874      1.633580   1.000000   1.000000
   30       -0.593576      1.944040   1.000000   1.000000
   31       -0.378290      2.171308   1.000000   1.000000
   32       -0.271326      2.396122   1.000000   1.000000
   33       -0.146140      2.483975   1.000000   1.000000
   34       -0.035391      2.825825   1.000000   1.000000
   35        0.123107      4.117817   1.000000   1.000000
   36        0.387378      4.181840   1.000000   1.000000
   37        0.470736      4.253273   1.000000   1.000000
   38        0.541034      4.336077   1.000000   1.000000
   39        0.735515      7.591832   1.000000   0.000000
   40        1.285760      7.724400   1.000000   0.000000
   41        1.417233      8.043382   1.000000   0.000000
   42        1.514449      8.165423   1.000000   0.000000
   43        1.613729      8.354199   1.000000   0.000000
   44        1.753386      8.609577   1.000000   0.000000
   45        1.897630      8.785642   1.000000   0.000000
   46        2.048294      9.023785   1.000000   0.000000
   47        2.145475      9.084219   1.000000   0.000000
   48        3.071641      9.177084   1.000000   0.000000
   49        3.202470      9.349851   1.000000   0.000000
   50        3.342864      9.498368   1.000000   0.000000
   51        3.754745      9.603454   1.000000   0.000000
   52        4.011924      9.660127   1.000000   0.000000
   53        4.201085      9.920769   1.000000   0.000000
   54        4.492399     10.128718   1.000000   0.000000
   55       10.014274     11.393688   0.000000   0.000000
   56       10.568958     11.726868   0.000000   0.000000
   57       10.885202     11.788067   0.000000   0.000000
   58       11.003345     12.241587   0.000000   0.000000
   59       11.563259     12.433474   0.000000   0.000000
   60       11.968976     12.875266   0.000000   0.000000
   61       12.398939     13.186793   0.000000   0.000000
   62       12.573845     13.552812   0.000000   0.000000
   63       12.724019     13.780492   0.000000   0.000000
   64       13.309376     14.315321   0.000000   0.000000
   65       13.671117     14.606081   0.000000   0.000000
   66       14.498761     15.214989   0.000000   0.000000
   67       14.806448     15.769588   0.000000   0.000000
   68       15.334560     16.181024   0.000000   0.000000
 
 -0.3333333E+00  0.1666667E+00 -0.2630230E-14  0.5555556E-01
    1      -55.742387    -49.116510   1.000000   1.000000
    2      -55.740613    -49.115532   1.000000   1.000000
    3      -55.707759    -49.064863   1.000000   1.000000
    4      -55.706271    -49.063558   1.000000   1.000000
    5      -54.331804    -49.056796   1.000000   1.000000
    6      -54.331340    -49.052223   1.000000   1.000000
    7      -54.186846    -49.039855   1.000000   1.000000
    8      -54.186018    -49.038233   1.000000   1.000000
    9      -54.174111    -49.021861   1.000000   1.000000
   10      -54.172546    -49.018916   1.000000   1.000000
   11      -54.158501    -49.018216   1.000000   1.000000
   12      -54.157194    -49.016012   1.000000   1.000000
   13      -43.244942    -43.243875   1.000000   1.000000
   14      -43.244806    -43.243749   1.000000   1.000000
   15      -15.788371    -15.254972   1.000000   1.000000
   16      -15.642511    -15.112806   1.000000   1.000000
   17       -9.041792     -8.714611   1.000000   1.000000
   18       -8.774378     -8.419386   1.000000   1.000000
   19       -8.504754     -8.114609   1.000000   1.000000
   20       -2.813376     -1.327830   1.000000   1.000000
   21       -2.327298     -0.707417   1.000000   1.000000
   22       -1.908251     -0.537110   1.000000   1.000000
   23       -1.679859     -0.355668   1.000000   1.000000
   24       -1.564710     -0.174692   1.000000   1.000000
   25       -1.427809      0.128809   1.000000   1.000000
   26       -1.024967      0.738549   1.000000   1.000000
   27       -0.855508      1.110689   1.000000   1.000000
   28       -0.784147      1.327948   1.000000   1.000000
   29       -0.613982      1.573216   1.000000   1.000000