  88  88   0   0
  0.1431748E+02  0.1111223E-08  0.1111745E-08  0.1056954E-08  0.5000000E-15
  1.000000000000000E-004
  CAR 
 unknown system                          
     17.90495400    -54.34215452  301      5.20150408      1.00000000
    -54.342  0.0000E+00  0.0000E+00  0.0000E+00  0.0000E+00
    -54.101  0.0000E+00  0.0000E+00  0.0000E+00  0.0000E+00
    -53.861  0.0000E+00  0.0000E+00  0.0000E+00  0.0000E+00
    -53.620  0.0000E+00  0.0000E+00  0.0000E+00  0.0000E+00
    -53.379  0.0000E+00  0.0000E+00  0.0000E+00  0.0000E+00
    -53.138  0.0000E+00  0.0000E+00  0.0000E+00  0.0000E+00
    -52.897  0.0000E+00  0.0000E+00  0.0000E+00  0.0000E+00
    -52.656  0.0000E+00  0.0000E+00  0.0000E+00  0.0000E+00
    -52.416  0.0000E+00  0.0000E+00  0.0000E+00  0.0000E+00
    -52.175  0.0000E+00  0.0000E+00  0.0000E+00  0.0000E+00
    -51.934  0.0000E+00  0.0000E+00  0.0000E+00  0.0000E+00
    -51.693  0.0000E+00  0.0000E+00  0.0000E+00  0.0000E+00
    -51.452  0.0000E+00  0.0000E+00  0.0000E+00  0.0000E+00
    -51.211  0.3257E-03  0.0000E+00  0.7843E-04  0.0000E+00
    -50.971  0.1307E+03  0.0000E+00  0.3147E+02  0.0000E+00
    -50.730  0.2189E+01  0.0000E+00  0.3200E+02  0.0000E+00
    -50.489  0.0000E+00  0.0000E+00  0.3200E+02  0.0000E+00
    -50.248  0.0000E+00  0.0000E+00  0.3200E+02  0.0000E+00
    -50.007  0.0000E+00  0.0000E+00  0.3200E+02  0.0000E+00
    -49.767  0.1799E+01  0.0000E+00  0.3243E+02  0.0000E+00
    -49.526  0.2351E+03  0.0000E+00  0.8906E+02  0.0000E+00
    -49.285  0.2882E+02  0.0000E+00  0.9600E+02  0.0000E+00
    -49.044  0.0000E+00  0.0000E+00  0.9600E+02  0.0000E+00
    -48.803  0.0000E+00  0.0000E+00  0.9600E+02  0.0000E+00
    -48.562  0.0000E+00  0.0000E+00  0.9600E+02  0.0000E+00
    -48.322  0.0000E+00  0.0000E+00  0.9600E+02  0.0000E+00
    -48.081  0.0000E+00  0.0000E+00  0.9600E+02  0.0000E+00
    -47.840  0.0000E+00  0.0000E+00  0.9600E+02  0.0000E+00
    -47.599  0.0000E+00  0.0000E+00  0.9600E+02  0.0000E+00
    -47.358  0.0000E+00  0.0000E+00  0.9600E+02  0.0000E+00
    -47.117  0.0000E+00  0.0000E+00  0.9600E+02  0.0000E+00
    -46.877  0.0000E+00  0.0000E+00  0.9600E+02  0.0000E+00
    -46.636  0.0000E+00  0.0000E+00  0.9600E+02  0.0000E+00
    -46.395  0.0000E+00  0.3314E+00  0.9600E+02  0.7980E-01
    -46.154  0.0000E+00  0.1325E+03  0.9600E+02  0.3199E+02
    -45.913  0.0000E+00  0.5839E+02  0.9600E+02  0.4605E+02
    -45.673  0.0000E+00  0.2074E+03  0.9600E+02  0.9600E+02
    -45.432  0.0000E+00  0.0000E+00  0.9600E+02  0.9600E+02
    -45.191  0.0000E+00  0.0000E+00  0.9600E+02  0.9600E+02
    -44.950  0.0000E+00  0.0000E+00  0.9600E+02  0.9600E+02
    -44.709  0.0000E+00  0.0000E+00  0.9600E+02  0.9600E+02
    -44.468  0.0000E+00  0.0000E+00  0.9600E+02  0.9600E+02
    -44.228  0.0000E+00  0.0000E+00  0.9600E+02  0.9600E+02
    -43.987  0.0000E+00  0.0000E+00  0.9600E+02  0.9600E+02
    -43.746  0.0000E+00  0.0000E+00  0.9600E+02  0.9600E+02
    -43.505  0.0000E+00  0.0000E+00  0.9600E+02  0.9600E+02
    -43.264  0.0000E+00  0.0000E+00  0.9600E+02  0.9600E+02
    -43.023  0.0000E+00  0.0000E+00  0.9600E+02  0.9600E+02
    -42.783  0.0000E+00  0.0000E+00  0.9600E+02  0.9600E+02
    -42.542  0.0000E+00  0.0000E+00  0.9600E+02  0.9600E+02
    -42.301  0.0000E+00  0.0000E+00  0.9600E+02  0.9600E+02
    -42.060  0.0000E+00  0.0000E+00  0.9600E+02  0.9600E+02
    -41.819  0.0000E+00  0.0000E+00  0.9600E+02  0.9600E+02
    -41.578  0.0000E+00  0.0000E+00  0.9600E+02  0.9600E+02
    -41.338  0.0000E+00  0.0000E+00  0.9600E+02  0.9600E+02
    -41.097  0.0000E+00  0.0000E+00  0.9600E+02  0.9600E+02
    -40.856  0.0000E+00  0.0000E+00  0.9600E+02  0.9600E+02
    -40.615  0.0000E+00  0.0000E+00  0.9600E+02  0.9600E+02
    -40.374  0.0000E+00  0.0000E+00  0.9600E+02  0.9600E+02
    -40.134  0.1622E-11  0.1068E-11  0.9600E+02  0.9600E+02
    -39.893  0.1431E+02  0.1321E+02  0.9945E+02  0.9918E+02
    -39.652  0.5213E+02  0.5323E+02  0.1120E+03  0.1120E+03
    -39.411  0.0000E+00  0.0000E+00  0.1120E+03  0.1120E+03
    -39.170  0.0000E+00  0.0000E+00  0.1120E+03  0.1120E+03
    -38.929  0.0000E+00  0.0000E+00  0.1120E+03  0.1120E+03
    -38.689  0.0000E+00  0.0000E+00  0.1120E+03  0.1120E+03
    -38.448  0.0000E+00  0.0000E+00  0.1120E+03  0.1120E+03
    -38.207  0.0000E+00  0.0000E+00  0.1120E+03  0.1120E+03
    -37.966  0.0000E+00  0.0000E+00  0.1120E+03  0.1120E+03
    -37.725  0.0000E+00  0.0000E+00  0.1120E+03  0.1120E+03
    -37.484  0.0000E+00  0.0000E+00  0.1120E+03  0.1120E+03
    -37.244  0.0000E+00  0.0000E+00  0.1120E+03  0.1120E+03
    -37.003  0.0000E+00  0.0000E+00  0.1120E+03  0.1120E+03
    -36.762  0.0000E+00  0.0000E+00  0.1120E+03  0.1120E+03
    -36.521  0.0000E+00  0.0000E+00  0.1120E+03  0.1120E+03
    -36.280  0.0000E+00  0.0000E+00  0.1120E+03  0.1120E+03
    -36.040  0.0000E+00  0.0000E+00  0.1120E+03  0.1120E+03
    -35.799  0.0000E+00  0.0000E+00  0.1120E+03  0.1120E+03
    -35.558  0.0000E+00  0.0000E+00  0.1120E+03  0.1120E+03
    -35.317  0.0000E+00  0.0000E+00  0.1120E+03  0.1120E+03
    -35.076  0.0000E+00  0.0000E+00  0.1120E+03  0.1120E+03
    -34.835  0.0000E+00  0.0000E+00  0.1120E+03  0.1120E+03
    -34.595  0.0000E+00  0.0000E+00  0.1120E+03  0.1120E+03
    -34.354  0.0000E+00  0.0000E+00  0.1120E+03  0.1120E+03
    -34.113  0.0000E+00  0.0000E+00  0.1120E+03  0.1120E+03
    -33.872  0.0000E+00  0.0000E+00  0.1120E+03  0.1120E+03
    -33.631  0.0000E+00  0.0000E+00  0.1120E+03  0.1120E+03
    -33.390  0.0000E+00  0.0000E+00  0.1120E+03  0.1120E+03
    -33.150  0.0000E+00  0.0000E+00  0.1120E+03  0.1120E+03
    -32.909  0.0000E+00  0.0000E+00  0.1120E+03  0.1120E+03
    -32.668  0.0000E+00  0.0000E+00  0.1120E+03  0.1120E+03
    -32.427  0.0000E+00  0.0000E+00  0.1120E+03  0.1120E+03
    -32.186  0.0000E+00  0.0000E+00  0.1120E+03  0.1120E+03
    -31.946  0.0000E+00  0.0000E+00  0.1120E+03  0.1120E+03
    -31.705  0.0000E+00  0.0000E+00  0.1120E+03  0.1120E+03
    -31.464  0.0000E+00  0.0000E+00  0.1120E+03  0.1120E+03
    -31.223  0.0000E+00  0.0000E+00  0.1120E+03  0.1120E+03
    -30.982  0.0000E+00  0.0000E+00  0.1120E+03  0.1120E+03
    -30.741  0.0000E+00  0.0000E+00  0.1120E+03  0.1120E+03
    -30.501  0.0000E+00  0.0000E+00  0.1120E+03  0.1120E+03
    -30.260  0.0000E+00  0.0000E+00  0.1120E+03  0.1120E+03
    -30.019  0.0000E+00  0.0000E+00  0.1120E+03  0.1120E+03
    -29.778  0.0000E+00  0.0000E+00  0.1120E+03  0.1120E+03
    -29.537  0.0000E+00  0.0000E+00  0.1120E+03  0.1120E+03
    -29.296  0.0000E+00  0.0000E+00  0.1120E+03  0.1120E+03
    -29.056  0.0000E+00  0.0000E+00  0.1120E+03  0.1120E+03
    -28.815  0.0000E+00  0.0000E+00  0.1120E+03  0.1120E+03
    -28.574  0.0000E+00  0.0000E+00  0.1120E+03  0.1120E+03
    -28.333  0.0000E+00  0.0000E+00  0.1120E+03  0.1120E+03
    -28.092  0.0000E+00  0.0000E+00  0.1120E+03  0.1120E+03
    -27.852  0.0000E+00  0.0000E+00  0.1120E+03  0.1120E+03
    -27.611  0.0000E+00  0.0000E+00  0.1120E+03  0.1120E+03
    -27.370  0.0000E+00  0.0000E+00  0.1120E+03  0.1120E+03
    -27.129  0.0000E+00  0.0000E+00  0.1120E+03  0.1120E+03
    -26.888  0.0000E+00  0.0000E+00  0.1120E+03  0.1120E+03
    -26.647  0.0000E+00  0.0000E+00  0.1120E+03  0.1120E+03
    -26.407  0.0000E+00  0.0000E+00  0.1120E+03  0.1120E+03
    -26.166  0.0000E+00  0.0000E+00  0.1120E+03  0.1120E+03
    -25.925  0.0000E+00  0.0000E+00  0.1120E+03  0.1120E+03
    -25.684  0.0000E+00  0.0000E+00  0.1120E+03  0.1120E+03
    -25.443  0.0000E+00  0.0000E+00  0.1120E+03  0.1120E+03
    -25.202  0.0000E+00  0.0000E+00  0.1120E+03  0.1120E+03
    -24.962  0.0000E+00  0.0000E+00  0.1120E+03  0.1120E+03
    -24.721  0.0000E+00  0.0000E+00  0.1120E+03  0.1120E+03
    -24.480  0.0000E+00  0.0000E+00  0.1120E+03  0.1120E+03
    -24.239  0.0000E+00  0.0000E+00  0.1120E+03  0.1120E+03
    -23.998  0.0000E+00  0.0000E+00  0.1120E+03  0.1120E+03
    -23.758  0.0000E+00  0.0000E+00  0.1120E+03  0.1120E+03
    -23.517  0.0000E+00  0.0000E+00  0.1120E+03  0.1120E+03
    -23.276  0.0000E+00  0.0000E+00  0.1120E+03  0.1120E+03
    -23.035  0.0000E+00  0.0000E+00  0.1120E+03  0.1120E+03
    -22.794  0.0000E+00  0.0000E+00  0.1120E+03  0.1120E+03
    -22.553  0.0000E+00  0.0000E+00  0.1120E+03  0.1120E+03
    -22.313  0.0000E+00  0.0000E+00  0.1120E+03  0.1120E+03
    -22.072  0.0000E+00  0.0000E+00  0.1120E+03  0.1120E+03
    -21.831  0.0000E+00  0.0000E+00  0.1120E+03  0.1120E+03
    -21.590  0.0000E+00  0.0000E+00  0.1120E+03  0.1120E+03
    -21.349  0.0000E+00  0.0000E+00  0.1120E+03  0.1120E+03
    -21.108  0.0000E+00  0.0000E+00  0.1120E+03  0.1120E+03
    -20.868  0.0000E+00  0.0000E+00  0.1120E+03  0.1120E+03
    -20.627  0.0000E+00  0.0000E+00  0.1120E+03  0.1120E+03
    -20.386  0.0000E+00  0.0000E+00  0.1120E+03  0.1120E+03
    -20.145  0.0000E+00  0.0000E+00  0.1120E+03  0.1120E+03
    -19.904  0.0000E+00  0.0000E+00  0.1120E+03  0.1120E+03
    -19.664  0.0000E+00  0.0000E+00  0.1120E+03  0.1120E+03
    -19.423  0.0000E+00  0.0000E+00  0.1120E+03  0.1120E+03
    -19.182  0.0000E+00  0.0000E+00  0.1120E+03  0.1120E+03
    -18.941  0.0000E+00  0.0000E+00  0.1120E+03  0.1120E+03
    -18.700  0.0000E+00  0.0000E+00  0.1120E+03  0.1120E+03
    -18.459  0.0000E+00  0.0000E+00  0.1120E+03  0.1120E+03
    -18.219  0.0000E+00  0.0000E+00  0.1120E+03  0.1120E+03
    -17.978  0.0000E+00  0.0000E+00  0.1120E+03  0.1120E+03
    -17.737  0.0000E+00  0.0000E+00  0.1120E+03  0.1120E+03
    -17.496  0.0000E+00  0.0000E+00  0.1120E+03  0.1120E+03
    -17.255  0.0000E+00  0.0000E+00  0.1120E+03  0.1120E+03
    -17.014  0.0000E+00  0.0000E+00  0.1120E+03  0.1120E+03
    -16.774  0.0000E+00  0.0000E+00  0.1120E+03  0.1120E+03
    -16.533  0.0000E+00  0.0000E+00  0.1120E+03  0.1120E+03
    -16.292  0.0000E+00  0.0000E+00  0.1120E+03  0.1120E+03
    -16.051  0.0000E+00  0.0000E+00  0.1120E+03  0.1120E+03
    -15.810  0.0000E+00  0.0000E+00  0.1120E+03  0.1120E+03
    -15.570  0.0000E+00  0.0000E+00  0.1120E+03  0.1120E+03
    -15.329  0.0000E+00  0.0000E+00  0.1120E+03  0.1120E+03
    -15.088  0.0000E+00  0.0000E+00  0.1120E+03  0.1120E+03
    -14.847  0.0000E+00  0.0000E+00  0.1120E+03  0.1120E+03
    -14.606  0.0000E+00  0.0000E+00  0.1120E+03  0.1120E+03
    -14.365  0.0000E+00  0.0000E+00  0.1120E+03  0.1120E+03
    -14.125  0.0000E+00  0.0000E+00  0.1120E+03  0.1120E+03
    -13.884  0.0000E+00  0.0000E+00  0.1120E+03  0.1120E+03
    -13.643  0.0000E+00  0.0000E+00  0.1120E+03  0.1120E+03
    -13.402  0.5317E-06  0.0000E+00  0.1120E+03  0.1120E+03
    -13.161  0.1875E+02  0.0000E+00  0.1165E+03  0.1120E+03
    -12.920  0.4622E+02  0.6985E-02  0.1276E+03  0.1120E+03
    -12.680  0.1471E+01  0.4206E+02  0.1280E+03  0.1221E+03
    -12.439  0.0000E+00  0.2437E+02  0.1280E+03  0.1280E+03
    -12.198  0.0000E+00  0.0000E+00  0.1280E+03  0.1280E+03
    -11.957  0.0000E+00  0.0000E+00  0.1280E+03  0.1280E+03
    -11.716  0.0000E+00  0.0000E+00  0.1280E+03  0.1280E+03
    -11.476  0.0000E+00  0.0000E+00  0.1280E+03  0.1280E+03
    -11.235  0.0000E+00  0.0000E+00  0.1280E+03  0.1280E+03
    -10.994  0.0000E+00  0.0000E+00  0.1280E+03  0.1280E+03
    -10.753  0.0000E+00  0.0000E+00  0.1280E+03  0.1280E+03
    -10.512  0.0000E+00  0.0000E+00  0.1280E+03  0.1280E+03
    -10.271  0.0000E+00  0.0000E+00  0.1280E+03  0.1280E+03
    -10.031  0.0000E+00  0.0000E+00  0.1280E+03  0.1280E+03
     -9.790  0.0000E+00  0.0000E+00  0.1280E+03  0.1280E+03
     -9.549  0.0000E+00  0.0000E+00  0.1280E+03  0.1280E+03
     -9.308  0.0000E+00  0.0000E+00  0.1280E+03  0.1280E+03
     -9.067  0.0000E+00  0.0000E+00  0.1280E+03  0.1280E+03
     -8.826  0.0000E+00  0.0000E+00  0.1280E+03  0.1280E+03
     -8.586  0.0000E+00  0.0000E+00  0.1280E+03  0.1280E+03
     -8.345  0.0000E+00  0.0000E+00  0.1280E+03  0.1280E+03
     -8.104  0.0000E+00  0.0000E+00  0.1280E+03  0.1280E+03
     -7.863  0.5766E-10  0.0000E+00  0.1280E+03  0.1280E+03
     -7.622  0.5506E+00  0.1020E-10  0.1281E+03  0.1280E+03
     -7.382  0.1249E+02  0.4838E+00  0.1311E+03  0.1281E+03
     -7.141  0.3025E+02  0.1373E+02  0.1384E+03  0.1314E+03
     -6.900  0.3385E+02  0.2949E+02  0.1466E+03  0.1385E+03
     -6.659  0.2251E+02  0.2598E+02  0.1520E+03  0.1448E+03
     -6.418  0.2614E-04  0.2992E+02  0.1520E+03  0.1520E+03
     -6.177  0.0000E+00  0.6075E-01  0.1520E+03  0.1520E+03
     -5.937  0.0000E+00  0.0000E+00  0.1520E+03  0.1520E+03
     -5.696  0.0000E+00  0.0000E+00  0.1520E+03  0.1520E+03
     -5.455  0.0000E+00  0.0000E+00  0.1520E+03  0.1520E+03
     -5.214  0.0000E+00  0.0000E+00  0.1520E+03  0.1520E+03
     -4.973  0.0000E+00  0.0000E+00  0.1520E+03  0.1520E+03
     -4.732  0.0000E+00  0.0000E+00  0.1520E+03  0.1520E+03
     -4.492  0.0000E+00  0.0000E+00  0.1520E+03  0.1520E+03
     -4.251  0.0000E+00  0.0000E+00  0.1520E+03  0.1520E+03
     -4.010  0.0000E+00  0.0000E+00  0.1520E+03  0.1520E+03
     -3.769  0.0000E+00  0.0000E+00  0.1520E+03  0.1520E+03
     -3.528  0.0000E+00  0.0000E+00  0.1520E+03  0.1520E+03
     -3.288  0.0000E+00  0.0000E+00  0.1520E+03  0.1520E+03
     -3.047  0.0000E+00  0.0000E+00  0.1520E+03  0.1520E+03
     -2.806  0.0000E+00  0.0000E+00  0.1520E+03  0.1520E+03
     -2.565  0.0000E+00  0.0000E+00  0.1520E+03  0.1520E+03
     -2.324  0.0000E+00  0.0000E+00  0.1520E+03  0.1520E+03
     -2.083  0.2029E-04  0.0000E+00  0.1520E+03  0.1520E+03
     -1.843  0.1579E+02  0.0000E+00  0.1558E+03  0.1520E+03
     -1.602  0.1961E+02  0.0000E+00  0.1605E+03  0.1520E+03
     -1.361  0.1486E+02  0.0000E+00  0.1641E+03  0.1520E+03
     -1.120  0.1708E+02  0.0000E+00  0.1682E+03  0.1520E+03
     -0.879  0.4564E+02  0.0000E+00  0.1792E+03  0.1520E+03
     -0.638  0.5898E+02  0.7328E-06  0.1934E+03  0.1520E+03
     -0.398  0.3870E+02  0.4050E+01  0.2027E+03  0.1530E+03
     -0.157  0.6777E+02  0.2035E+02  0.2191E+03  0.1579E+03
      0.084  0.7380E+02  0.1224E+02  0.2368E+03  0.1608E+03
      0.325  0.7754E+02  0.1846E+02  0.2555E+03  0.1653E+03
      0.566  0.6981E+02  0.2952E+02  0.2723E+03  0.1724E+03
      0.806  0.5587E+02  0.3915E+02  0.2858E+03  0.1818E+03
      1.047  0.3644E+02  0.3732E+02  0.2945E+03  0.1908E+03
      1.288  0.3055E+02  0.3132E+02  0.3019E+03  0.1983E+03
      1.529  0.4507E+02  0.2071E+02  0.3128E+03  0.2033E+03
      1.770  0.4206E+02  0.2899E+02  0.3229E+03  0.2103E+03
      2.011  0.6880E+02  0.3678E+02  0.3395E+03  0.2192E+03
      2.251  0.5829E+02  0.2778E+02  0.3535E+03  0.2259E+03
      2.492  0.2674E+02  0.2699E+02  0.3599E+03  0.2324E+03
      2.733  0.4261E+02  0.3055E+02  0.3702E+03  0.2397E+03
      2.974  0.3043E+02  0.4431E+02  0.3775E+03  0.2504E+03
      3.215  0.8648E+01  0.4552E+02  0.3796E+03  0.2614E+03
      3.456  0.2771E+02  0.3242E+02  0.3863E+03  0.2692E+03
      3.696  0.2734E+02  0.1254E+02  0.3929E+03  0.2722E+03
      3.937  0.3084E+02  0.1751E+02  0.4003E+03  0.2764E+03
      4.178  0.3591E+02  0.5263E+02  0.4089E+03  0.2891E+03
      4.419  0.3636E+02  0.4472E+02  0.4177E+03  0.2998E+03
      4.660  0.3031E+02  0.1728E+02  0.4250E+03  0.3040E+03
      4.900  0.2583E+02  0.5761E-02  0.4312E+03  0.3040E+03
      5.141  0.3262E+01  0.0000E+00  0.4320E+03  0.3040E+03
      5.382  0.0000E+00  0.0000E+00  0.4320E+03  0.3040E+03
      5.623  0.0000E+00  0.0000E+00  0.4320E+03  0.3040E+03
      5.864  0.0000E+00  0.0000E+00  0.4320E+03  0.3040E+03
      6.105  0.0000E+00  0.2718E-09  0.4320E+03  0.3040E+03
      6.345  0.0000E+00  0.3876E+00  0.4320E+03  0.3041E+03
      6.586  0.0000E+00  0.4193E+01  0.4320E+03  0.3051E+03
      6.827  0.0000E+00  0.7822E+01  0.4320E+03  0.3070E+03
      7.068  0.4866E-15  0.1911E+02  0.4320E+03  0.3116E+03
      7.309  0.2492E-01  0.4406E+02  0.4320E+03  0.3222E+03
      7.550  0.1289E+00  0.5324E+02  0.4320E+03  0.3350E+03
      7.790  0.2364E+00  0.6340E+02  0.4321E+03  0.3503E+03
      8.031  0.7370E+00  0.6577E+02  0.4323E+03  0.3661E+03
      8.272  0.2094E+01  0.7003E+02  0.4328E+03  0.3830E+03
      8.513  0.2639E+01  0.5937E+02  0.4334E+03  0.3973E+03
      8.754  0.8873E+01  0.5862E+02  0.4355E+03  0.4114E+03
      8.994  0.1242E+02  0.4807E+02  0.4385E+03  0.4230E+03
      9.235  0.1309E+02  0.3008E+02  0.4417E+03  0.4302E+03
      9.476  0.1805E+02  0.8977E+01  0.4460E+03  0.4324E+03
      9.717  0.1630E+02  0.2979E+01  0.4500E+03  0.4331E+03
      9.958  0.1569E+02  0.8333E+01  0.4537E+03  0.4351E+03
     10.199  0.2249E+02  0.1862E+02  0.4592E+03  0.4396E+03
     10.439  0.1484E+02  0.1798E+02  0.4627E+03  0.4439E+03
     10.680  0.1534E+02  0.1715E+02  0.4664E+03  0.4481E+03
     10.921  0.1315E+02  0.2758E+02  0.4696E+03  0.4547E+03
     11.162  0.2061E+02  0.1898E+02  0.4746E+03  0.4593E+03
     11.403  0.2468E+02  0.2395E+02  0.4805E+03  0.4650E+03
     11.644  0.2732E+02  0.1491E+02  0.4871E+03  0.4686E+03
     11.884  0.2455E+02  0.1378E+02  0.4930E+03  0.4720E+03
     12.125  0.3359E+02  0.1597E+02  0.5011E+03  0.4758E+03
     12.366  0.1991E+02  0.3660E+02  0.5059E+03  0.4846E+03
     12.607  0.2304E+02  0.3274E+02  0.5114E+03  0.4925E+03
     12.848  0.2141E+02  0.2997E+02  0.5166E+03  0.4997E+03
     13.088  0.2035E+02  0.2027E+02  0.5215E+03  0.5046E+03
     13.329  0.2381E+02  0.2210E+02  0.5272E+03  0.5099E+03
     13.570  0.2438E+02  0.2723E+02  0.5331E+03  0.5165E+03
     13.811  0.1346E+02  0.2373E+02  0.5363E+03  0.5222E+03
     14.052  0.6931E+01  0.2631E+02  0.5380E+03  0.5285E+03
     14.293  0.2710E-02  0.1924E+02  0.5380E+03  0.5332E+03
     14.533  0.0000E+00  0.1671E+02  0.5380E+03  0.5372E+03
     14.774  0.0000E+00  0.3387E+01  0.5380E+03  0.5380E+03
     15.015  0.0000E+00  0.2246E-05  0.5380E+03  0.5380E+03
     15.256  0.0000E+00  0.0000E+00  0.5380E+03  0.5380E+03
     15.497  0.0000E+00  0.0000E+00  0.5380E+03  0.5380E+03
     15.738  0.0000E+00  0.0000E+00  0.5380E+03  0.5380E+03
     15.978  0.0000E+00  0.0000E+00  0.5380E+03  0.5380E+03
     16.219  0.0000E+00  0.0000E+00  0.5380E+03  0.5380E+03
     16.460  0.0000E+00  0.0000E+00  0.5380E+03  0.5380E+03
     16.701  0.0000E+00  0.0000E+00  0.5380E+03  0.5380E+03
     16.942  0.0000E+00  0.0000E+00  0.5380E+03  0.5380E+03
     17.182  0.0000E+00  0.0000E+00  0.5380E+03  0.5380E+03
     17.423  0.0000E+00  0.0000E+00  0.5380E+03  0.5380E+03
     17.664  0.0000E+00  0.0000E+00  0.5380E+03  0.5380E+03
     17.905  0.0000E+00  0.0000E+00  0.5380E+03  0.5380E+03
