 vasp.5.4.4.18Apr17-6-g9f103f2a35 (build Oct 25 2017 14:42:18) complex          
  
 executed on             LinuxIFC date 2021.06.02  15:42:03
 running on   24 total cores
 distrk:  each k-point on   12 cores,    2 groups
 distr:  one band on NCORES_PER_BAND=   6 cores,    2 groups


--------------------------------------------------------------------------------------------------------


 INCAR:
 POTCAR:    PAW_PBE Li_sv 10Sep2004               
 POTCAR:    PAW_PBE O 08Apr2002                   
 POTCAR:    PAW_PBE S 06Sep2000                   
 POTCAR:    PAW_PBE Fe_pv 02Aug2007               

 ----------------------------------------------------------------------------- 
|                                                                             |
|           W    W    AA    RRRRR   N    N  II  N    N   GGGG   !!!           |
|           W    W   A  A   R    R  NN   N  II  NN   N  G    G  !!!           |
|           W    W  A    A  R    R  N N  N  II  N N  N  G       !!!           |
|           W WW W  AAAAAA  RRRRR   N  N N  II  N  N N  G  GGG   !            |
|           WW  WW  A    A  R   R   N   NN  II  N   NN  G    G                |
|           W    W  A    A  R    R  N    N  II  N    N   GGGG   !!!           |
|                                                                             |
|      You have enabled k-point parallelism (KPAR>1).                         |
|      This developmental code was originally  written by Paul Kent at ORNL,  |
|      and carefully double checked in Vienna.                                |
|      GW as well as linear response parallelism added by Martijn Marsman     |
|      and Georg Kresse.                                                      |
|      Carefully verify results versus KPAR=1.                                |
|      Report problems to Paul Kent and Vienna.                               |
|                                                                             |
 ----------------------------------------------------------------------------- 

 POTCAR:    PAW_PBE Li_sv 10Sep2004               
  local pseudopotential read in
  atomic valenz-charges read in
  non local Contribution for L=           0  read in
    real space projection operators read in
  non local Contribution for L=           0  read in
    real space projection operators read in
  non local Contribution for L=           1  read in
    real space projection operators read in
    PAW grid and wavefunctions read in
 
   number of l-projection  operators is LMAX  =           3
   number of lm-projection operators is LMMAX =           5
 
 POTCAR:    PAW_PBE O 08Apr2002                   
  local pseudopotential read in
  partial core-charges read in
  partial kinetic energy density read in
  kinetic energy density of atom read in
  atomic valenz-charges read in
  non local Contribution for L=           0  read in
    real space projection operators read in
  non local Contribution for L=           0  read in
    real space projection operators read in
  non local Contribution for L=           1  read in
    real space projection operators read in
  non local Contribution for L=           1  read in
    real space projection operators read in
    PAW grid and wavefunctions read in
 
   number of l-projection  operators is LMAX  =           4
   number of lm-projection operators is LMMAX =           8
 
 POTCAR:    PAW_PBE S 06Sep2000                   
  local pseudopotential read in
  partial core-charges read in
  partial kinetic energy density read in
  atomic valenz-charges read in
  non local Contribution for L=           0  read in
    real space projection operators read in
  non local Contribution for L=           0  read in
    real space projection operators read in
  non local Contribution for L=           1  read in
    real space projection operators read in
  non local Contribution for L=           1  read in
    real space projection operators read in
    PAW grid and wavefunctions read in
 
   number of l-projection  operators is LMAX  =           4
   number of lm-projection operators is LMMAX =           8
 
 POTCAR:    PAW_PBE Fe_pv 02Aug2007               
  local pseudopotential read in
  partial core-charges read in
  partial kinetic energy density read in
  atomic valenz-charges read in
  non local Contribution for L=           1  read in
    real space projection operators read in
  non local Contribution for L=           1  read in
    real space projection operators read in
  non local Contribution for L=           2  read in
    real space projection operators read in
  non local Contribution for L=           2  read in
    real space projection operators read in
  non local Contribution for L=           0  read in
    real space projection operators read in
  non local Contribution for L=           0  read in
    real space projection operators read in
    PAW grid and wavefunctions read in
 
   number of l-projection  operators is LMAX  =           6
   number of lm-projection operators is LMMAX =          18
 

 ----------------------------------------------------------------------------- 
|                                                                             |
|  ADVICE TO THIS USER RUNNING 'VASP/VAMP'   (HEAR YOUR MASTER'S VOICE ...):  |
|                                                                             |
|      You have a (more or less) 'large supercell' and for larger cells       |
|      it might be more efficient to use real space projection opertators     |
|      So try LREAL= Auto  in the INCAR   file.                               |
|      Mind:          For very  accurate calculation you might also keep the  |
|      reciprocal projection scheme          (i.e. LREAL=.FALSE.)             |
|                                                                             |
 ----------------------------------------------------------------------------- 

  PAW_PBE Li_sv 10Sep2004               :
 energy of atom  1       EATOM= -202.7858
 kinetic energy error for atom=    0.0072 (will be added to EATOM!!)
  PAW_PBE O 08Apr2002                   :
 energy of atom  2       EATOM= -432.3788
 kinetic energy error for atom=    0.0129 (will be added to EATOM!!)
  PAW_PBE S 06Sep2000                   :
 energy of atom  3       EATOM= -276.8230
 kinetic energy error for atom=    0.0008 (will be added to EATOM!!)
  PAW_PBE Fe_pv 02Aug2007               :
 energy of atom  4       EATOM=-2457.4239
 kinetic energy error for atom=    0.0041 (will be added to EATOM!!)
 
 
 POSCAR: # Compound: Li16O16S24Fe32. Old comment:
  positions in direct lattice
  No initial velocities read in
 exchange correlation table for  LEXCH =        8
   RHO(1)=    0.500       N(1)  =     2000
   RHO(2)=  100.500       N(2)  =     4000
 


--------------------------------------------------------------------------------------------------------


 ion  position               nearest neighbor table
   1  0.289  0.469  0.156-  27 2.00  29 2.00  55 2.53  49 2.53
   2  0.789  0.469  0.156-  28 2.00  30 2.00  56 2.53  50 2.53
   3  0.289  0.969  0.156-  25 2.00  31 2.00  53 2.53  51 2.53
   4  0.789  0.969  0.156-  26 2.00  32 2.00  54 2.53  52 2.53
   5  0.046  0.219  0.186-  30 1.98  25 1.98
   6  0.546  0.219  0.186-  29 1.98  26 1.98
   7  0.046  0.719  0.186-  32 1.98  27 1.98
   8  0.546  0.719  0.186-  31 1.98  28 1.98
   9  0.454  0.469  0.814-  21 1.98  20 1.98
  10  0.954  0.469  0.814-  19 1.98  22 1.98
  11  0.454  0.969  0.814-  18 1.98  23 1.98
  12  0.954  0.969  0.814-  17 1.98  24 1.98
  13  0.211  0.219  0.844-  17 2.00  21 2.00  49 2.53  53 2.53
  14  0.711  0.219  0.844-  22 2.00  18 2.00  50 2.53  54 2.53
  15  0.211  0.719  0.844-  23 2.00  19 2.00  51 2.53  55 2.53
  16  0.711  0.719  0.844-  24 2.00  20 2.00  52 2.53  56 2.53
  17  0.077  0.095  0.803-  12 1.98  13 2.00  57 2.01  83 2.01  86 2.01
  18  0.577  0.095  0.803-  11 1.98  14 2.00  58 2.01  84 2.01  85 2.01
  19  0.077  0.595  0.803-  10 1.98  15 2.00  59 2.01  81 2.01  88 2.01
  20  0.577  0.595  0.803-   9 1.98  16 2.00  60 2.01  82 2.01  87 2.01
  21  0.325  0.344  0.803-   9 1.98  13 2.00  81 2.01  61 2.01  85 2.02
  22  0.825  0.343  0.803-  10 1.98  14 2.00  62 2.01  82 2.01  86 2.01
  23  0.325  0.843  0.803-  11 1.98  15 2.00  63 2.01  83 2.01  87 2.01
  24  0.825  0.843  0.803-  12 1.98  16 2.00  64 2.01  84 2.01  88 2.01
  25  0.175  0.093  0.197-   5 1.98   3 2.00  65 2.01  77 2.01  75 2.01
  26  0.675  0.093  0.197-   6 1.98   4 2.00  66 2.01  78 2.01  76 2.01
  27  0.175  0.593  0.197-   7 1.98   1 2.00  67 2.01  79 2.01  73 2.01
  28  0.675  0.593  0.197-   8 1.98   2 2.00  68 2.01  80 2.01  74 2.01
  29  0.423  0.345  0.197-   6 1.98   1 2.00  69 2.01  77 2.01  74 2.01
  30  0.923  0.345  0.197-   5 1.98   2 2.00  70 2.01  78 2.01  73 2.01
  31  0.423  0.845  0.197-   8 1.98   3 2.00  71 2.01  79 2.01  76 2.01
  32  0.923  0.845  0.197-   7 1.98   4 2.00  72 2.01  80 2.01  75 2.01
  33  0.219  0.345  0.371-  61 2.41  67 2.65  69 2.65
  34  0.719  0.345  0.371-  62 2.41  68 2.65  70 2.65
  35  0.219  0.845  0.371-  63 2.41  65 2.65  71 2.65
  36  0.719  0.845  0.371-  64 2.41  66 2.65  72 2.65
  37  0.467  0.093  0.371-  58 2.41  71 2.65  65 2.65
  38  0.967  0.093  0.371-  57 2.41  72 2.65  66 2.65
  39  0.467  0.593  0.371-  60 2.41  69 2.65  67 2.65
  40  0.967  0.593  0.371-  59 2.41  70 2.65  68 2.65
  41  0.033  0.343  0.629-  70 2.41  57 2.65  61 2.65
  42  0.533  0.343  0.629-  69 2.41  58 2.65  62 2.65
  43  0.033  0.843  0.629-  72 2.41  59 2.65  63 2.65
  44  0.533  0.843  0.629-  71 2.41  60 2.65  64 2.65
  45  0.281  0.095  0.629-  65 2.41  61 2.65  57 2.65
  46  0.781  0.095  0.629-  66 2.41  62 2.65  58 2.65
  47  0.281  0.595  0.629-  67 2.41  63 2.65  59 2.65
  48  0.781  0.595  0.629-  68 2.41  64 2.65  60 2.65
  49  0.124  0.344  0.000-  73 2.51  86 2.51  81 2.52  77 2.52  13 2.53   1 2.53
  50  0.624  0.344  0.000-  74 2.51  85 2.51  82 2.52  78 2.52  14 2.53   2 2.53
  51  0.124  0.844  0.000-  75 2.51  88 2.51  83 2.52  79 2.52  15 2.53   3 2.53
  52  0.624  0.844  0.000-  76 2.51  87 2.51  84 2.52  80 2.52  16 2.53   4 2.53
  53  0.376  0.094  1.000-  85 2.51  76 2.51  77 2.52  83 2.52   3 2.53  13 2.53
  54  0.876  0.094  1.000-  86 2.51  75 2.51  78 2.52  84 2.52   4 2.53  14 2.53
  55  0.376  0.594  1.000-  87 2.51  74 2.51  79 2.52  81 2.52   1 2.53  15 2.53
  56  0.876  0.594  1.000-  88 2.51  73 2.51  80 2.52  82 2.52   2 2.53  16 2.53
  57  0.038  0.106  0.606-  17 2.01  38 2.41  41 2.65  45 2.65
  58  0.538  0.106  0.606-  18 2.01  37 2.41  42 2.65  46 2.65
  59  0.038  0.606  0.606-  19 2.01  40 2.41  43 2.65  47 2.65
  60  0.538  0.606  0.606-  20 2.01  39 2.41  44 2.65  48 2.65
  61  0.265  0.332  0.606-  21 2.01  33 2.41  45 2.65  41 2.65
  62  0.765  0.332  0.606-  22 2.01  34 2.41  46 2.65  42 2.65
  63  0.265  0.832  0.606-  23 2.01  35 2.41  47 2.65  43 2.65
  64  0.765  0.832  0.606-  24 2.01  36 2.41  48 2.65  44 2.65
  65  0.235  0.082  0.394-  25 2.01  45 2.41  35 2.65  37 2.65
  66  0.735  0.082  0.394-  26 2.01  46 2.41  36 2.65  38 2.65
  67  0.235  0.582  0.394-  27 2.01  47 2.41  33 2.65  39 2.65
  68  0.735  0.582  0.394-  28 2.01  48 2.41  34 2.65  40 2.65
  69  0.462  0.356  0.394-  29 2.01  42 2.41  39 2.65  33 2.65
  70  0.962  0.356  0.394-  30 2.01  41 2.41  40 2.65  34 2.65
  71  0.462  0.856  0.394-  31 2.01  44 2.41  37 2.65  35 2.65
  72  0.962  0.856  0.394-  32 2.01  43 2.41  38 2.65  36 2.65
  73  0.038  0.469  0.154-  30 2.01  27 2.01  49 2.51  56 2.51
  74  0.538  0.469  0.154-  29 2.01  28 2.01  50 2.51  55 2.51
  75  0.038  0.969  0.154-  32 2.01  25 2.01  51 2.51  54 2.51
  76  0.538  0.969  0.154-  31 2.01  26 2.01  52 2.51  53 2.51
  77  0.289  0.219  0.154-  25 2.01  29 2.01  53 2.52  49 2.52
  78  0.789  0.219  0.154-  26 2.01  30 2.01  54 2.52  50 2.52
  79  0.289  0.719  0.154-  27 2.01  31 2.01  55 2.52  51 2.52
  80  0.789  0.719  0.154-  28 2.01  32 2.01  56 2.52  52 2.52
  81  0.211  0.469  0.846-  21 2.01  19 2.01  49 2.52  55 2.52
  82  0.711  0.469  0.846-  22 2.01  20 2.01  50 2.52  56 2.52
  83  0.211  0.969  0.846-  23 2.01  17 2.01  51 2.52  53 2.52
  84  0.711  0.969  0.846-  24 2.01  18 2.01  52 2.52  54 2.52
  85  0.462  0.219  0.846-  18 2.01  21 2.02  53 2.51  50 2.51
  86  0.962  0.219  0.846-  17 2.01  22 2.01  54 2.51  49 2.51
  87  0.462  0.719  0.846-  20 2.01  23 2.01  55 2.51  52 2.51
  88  0.962  0.719  0.846-  19 2.01  24 2.01  56 2.51  51 2.51
 

IMPORTANT INFORMATION: All symmetrisations will be switched off!
NOSYMM: (Re-)initialisation of all symmetry stuff for point group C_1.

 
 
 KPOINTS: # No comment                            

Automatic generation of k-mesh.
Space group operators:
 irot       det(A)        alpha          n_x          n_y          n_z        tau_x        tau_y        tau_z
    1     1.000000     0.000000     1.000000     0.000000     0.000000     0.000000     0.000000     0.000000
 
 Subroutine IBZKPT returns following result:
 ===========================================
 
 Found     14 irreducible k-points:
 
 Following reciprocal coordinates:
            Coordinates               Weight
  0.000000  0.000000  0.000000      1.000000
  0.333333  0.000000  0.000000      2.000000
  0.000000  0.333333  0.000000      2.000000
  0.333333  0.333333  0.000000      2.000000
 -0.333333  0.333333 -0.000000      2.000000
  0.000000  0.000000  0.333333      2.000000
  0.333333  0.000000  0.333333      2.000000
 -0.333333  0.000000  0.333333      2.000000
  0.000000  0.333333  0.333333      2.000000
  0.333333  0.333333  0.333333      2.000000
 -0.333333  0.333333  0.333333      2.000000
  0.000000 -0.333333  0.333333      2.000000
  0.333333 -0.333333  0.333333      2.000000
 -0.333333 -0.333333  0.333333      2.000000
 
 Following cartesian coordinates:
            Coordinates               Weight
  0.000000  0.000000  0.000000      1.000000
  0.029997  0.000000  0.008162      2.000000
  0.000000  0.029983  0.000000      2.000000
  0.029997  0.029983  0.008162      2.000000
 -0.029997  0.029983 -0.008162      2.000000
  0.000001  0.000000  0.032684      2.000000
  0.029998  0.000000  0.040846      2.000000
 -0.029996  0.000000  0.024522      2.000000
  0.000001  0.029983  0.032684      2.000000
  0.029998  0.029983  0.040846      2.000000
 -0.029996  0.029983  0.024522      2.000000
  0.000001 -0.029983  0.032684      2.000000
  0.029998 -0.029983  0.040846      2.000000
 -0.029996 -0.029983  0.024522      2.000000
 


--------------------------------------------------------------------------------------------------------




 Dimension of arrays:
   k-points           NKPTS =     14   k-points in BZ     NKDIM =     14   number of bands    NBANDS=    538
   number of dos      NEDOS =    301   number of ions     NIONS =     88
   non local maximal  LDIM  =      6   non local SUM 2l+1 LMDIM =     18
   total plane-waves  NPLWV = 829440
   max r-space proj   IRMAX =      1   max aug-charges    IRDMAX= 166102
   dimension x,y,z NGX =    96 NGY =   96 NGZ =   90
   dimension x,y,z NGXF=   192 NGYF=  192 NGZF=  180
   support grid    NGXF=   384 NGYF=  384 NGZF=  360
   ions per type =              16  16  24  32
   NGX,Y,Z   is equivalent  to a cutoff of  14.36, 14.36, 14.16 a.u.
   NGXF,Y,Z  is equivalent  to a cutoff of  28.72, 28.71, 28.31 a.u.

 SYSTEM =  unknown system                          
 POSCAR =  # Compound: Li16O16S24Fe32. Old comment:

 Startparameter for this run:
   NWRITE =      1    write-flag & timer
   PREC   = accura    normal or accurate (medium, high low for compatibility)
   ISTART =      0    job   : 0-new  1-cont  2-samecut
   ICHARG =      1    charge: 1-file 2-atom 10-const
   ISPIN  =      2    spin polarized calculation?
   LNONCOLLINEAR =      F non collinear calculations
   LSORBIT =      F    spin-orbit coupling
   INIWAV =      1    electr: 0-lowe 1-rand  2-diag
   LASPH  =      T    aspherical Exc in radial PAW
   METAGGA=      F    non-selfconsistent MetaGGA calc.

 Electronic Relaxation 1
   ENCUT  =  650.0 eV  47.77 Ry    6.91 a.u.  23.10 23.11 21.97*2*pi/ulx,y,z
   ENINI  =  650.0     initial cutoff
   ENAUG  =  628.9 eV  augmentation charge cutoff
   NELM   =    200;   NELMIN=  8; NELMDL=  0     # of ELM steps 
   EDIFF  = 0.1E-05   stopping-criterion for ELM
   LREAL  =      F    real-space projection
   NLSPLINE    = F    spline interpolate recip. space projectors
   LCOMPAT=      F    compatible to vasp.4.4
   GGA_COMPAT  = T    GGA compatible to vasp.4.4-vasp.4.6
   LMAXPAW     = -100 max onsite density
   LMAXMIX     =    4 max onsite mixed and CHGCAR
   VOSKOWN=      0    Vosko Wilk Nusair interpolation
   ROPT   =    0.00000   0.00000   0.00000   0.00000
 Ionic relaxation
   EDIFFG = 0.1E-04   stopping-criterion for IOM
   NSW    =      0    number of steps for IOM
   NBLOCK =      1;   KBLOCK =      1    inner block; outer block 
   IBRION =     -1    ionic relax: 0-MD 1-quasi-New 2-CG
   NFREE  =      0    steps in history (QN), initial steepest desc. (CG)
   ISIF   =      2    stress and relaxation
   IWAVPR =     10    prediction:  0-non 1-charg 2-wave 3-comb
   ISYM   =      0    0-nonsym 1-usesym 2-fastsym
   LCORR  =      T    Harris-Foulkes like correction to forces

   POTIM  = 0.5000    time-step for ionic-motion
   TEIN   =    0.0    initial temperature
   TEBEG  =    0.0;   TEEND  =   0.0 temperature during run
   SMASS  =  -3.00    Nose mass-parameter (am)
   estimated Nose-frequenzy (Omega)   =  0.10E-29 period in steps =****** mass=  -0.282E-26a.u.
   SCALEE = 1.0000    scale energy and forces
   NPACO  =    256;   APACO  = 16.0  distance and # of slots for P.C.
   PSTRESS=    0.0 pullay stress

  Mass of Ions in am
   POMASS =   7.01 16.00 32.07 55.85
  Ionic Valenz
   ZVAL   =   3.00  6.00  6.00 14.00
  Atomic Wigner-Seitz radii
   RWIGS  =  -1.00 -1.00 -1.00 -1.00
  virtual crystal weights 
   VCA    =   1.00  1.00  1.00  1.00
   NELECT =     736.0000    total number of electrons
   NUPDOWN=      -1.0000    fix difference up-down

 DOS related values:
   EMIN   =  10.00;   EMAX   =-10.00  energy-range for DOS
   EFERMI =   0.00
   ISMEAR =     0;   SIGMA  =   0.05  broadening in eV -4-tet -1-fermi 0-gaus

 Electronic relaxation 2 (details)
   IALGO  =     38    algorithm
   LDIAG  =      T    sub-space diagonalisation (order eigenvalues)
   LSUBROT=      F    optimize rotation matrix (better conditioning)
   TURBO    =      0    0=normal 1=particle mesh
   IRESTART =      0    0=no restart 2=restart with 2 vectors
   NREBOOT  =      0    no. of reboots
   NMIN     =      0    reboot dimension
   EREF     =   0.00    reference energy to select bands
   IMIX   =      4    mixing-type and parameters
     AMIX     =   0.40;   BMIX     =  1.00
     AMIX_MAG =   1.60;   BMIX_MAG =  1.00
     AMIN     =   0.10
     WC   =   100.;   INIMIX=   1;  MIXPRE=   1;  MAXMIX= -45

 Intra band minimization:
   WEIMIN = 0.0000     energy-eigenvalue tresh-hold
   EBREAK =  0.46E-09  absolut break condition
   DEPER  =   0.30     relativ break condition  

   TIME   =   0.40     timestep for ELM

  volume/ion in A,a.u.               =      14.32        96.62
  Fermi-wavevector in a.u.,A,eV,Ry     =   1.368520  2.586127 25.481613  1.872846
  Thomas-Fermi vector in A             =   2.494476
 
 Write flags
   LWAVE        =      F    write WAVECAR
   LDOWNSAMPLE  =      F    k-point downsampling of WAVECAR
   LCHARG       =      T    write CHGCAR
   LVTOT        =      F    write LOCPOT, total local potential
   LVHAR        =      F    write LOCPOT, Hartree potential only
   LELF         =      F    write electronic localiz. function (ELF)
   LORBIT       =      0    0 simple, 1 ext, 2 COOP (PROOUT), +10 PAW based schemes


 Dipole corrections
   LMONO  =      F    monopole corrections only (constant potential shift)
   LDIPOL =      F    correct potential (dipole corrections)
   IDIPOL =      0    1-x, 2-y, 3-z, 4-all directions 
   EPSILON=  1.0000000 bulk dielectric constant

 LDA+U is selected, type is set to LDAUTYPE =  2
   angular momentum for each species LDAUL =    -1   -1   -1    2
   U (eV)           for each species LDAUU =   0.0  0.0  0.0  4.0
   J (eV)           for each species LDAUJ =   0.0  0.0  0.0  0.0
 Exchange correlation treatment:
   GGA     =    PE    GGA type
   LEXCH   =     8    internal setting for exchange type
   VOSKOWN=      0    Vosko Wilk Nusair interpolation
   LHFCALC =     F    Hartree Fock is set to
   LHFONE  =     F    Hartree Fock one center treatment
   AEXX    =    0.0000 exact exchange contribution

 Linear response parameters
   LEPSILON=     F    determine dielectric tensor
   LRPA    =     F    only Hartree local field effects (RPA)
   LNABLA  =     F    use nabla operator in PAW spheres
   LVEL    =     F    velocity operator in full k-point grid
   LINTERFAST=   F  fast interpolation
   KINTER  =     0    interpolate to denser k-point grid
   CSHIFT  =0.1000    complex shift for real part using Kramers Kronig
   OMEGAMAX=  -1.0    maximum frequency
   DEG_THRESHOLD= 0.2000000E-02 threshold for treating states as degnerate
   RTIME   =   -0.100 relaxation time in fs
  (WPLASMAI=    0.000 imaginary part of plasma frequency in eV, 0.658/RTIME)
   DFIELD  = 0.0000000 0.0000000 0.0000000 field for delta impulse in time
 
 Orbital magnetization related:
   ORBITALMAG=     F  switch on orbital magnetization
   LCHIMAG   =     F  perturbation theory with respect to B field
   DQ        =  0.001000  dq finite difference perturbation B field
   LLRAUG    =     F  two centre corrections for induced B field



--------------------------------------------------------------------------------------------------------


 Static calculation
 charge density and potential will be updated during run
 spin polarized calculation
 Variant of blocked Davidson
 Davidson routine will perform the subspace rotation
 perform sub-space diagonalisation
    after iterative eigenvector-optimisation
 modified Broyden-mixing scheme, WC =      100.0
 initial mixing is a Kerker type mixing with AMIX =  0.4000 and BMIX =      1.0000
 Hartree-type preconditioning will be used
 using additional bands          170
 reciprocal scheme for non local part
 use partial core corrections
 calculate Harris-corrections to forces 
   (improved forces if not selfconsistent)
 use gradient corrections 
 use of overlap-Matrix (Vanderbilt PP)
 Gauss-broadening in eV      SIGMA  =   0.05


--------------------------------------------------------------------------------------------------------


  energy-cutoff  :      650.00
  volume of cell :     1259.94
      direct lattice vectors                 reciprocal lattice vectors
    11.112233740  0.000000000 -0.000290340     0.089991547  0.000000000  0.024487024
     0.000000000 11.117451940  0.000000000     0.000000000  0.089948669  0.000000000
    -2.775108980  0.000000000 10.198722210     0.000002562  0.000000000  0.098052196

  length of vectors
    11.112233744 11.117451940 10.569539468     0.093263567  0.089948669  0.098052196


 
 k-points in units of 2pi/SCALE and weight: # No comment                            
   0.00000000  0.00000000  0.00000000       0.037
   0.02999718  0.00000000  0.00816234       0.074
   0.00000000  0.02998289  0.00000000       0.074
   0.02999718  0.02998289  0.00816234       0.074
  -0.02999718  0.02998289 -0.00816234       0.074
   0.00000085  0.00000000  0.03268407       0.074
   0.02999804  0.00000000  0.04084641       0.074
  -0.02999633  0.00000000  0.02452172       0.074
   0.00000085  0.02998289  0.03268407       0.074
   0.02999804  0.02998289  0.04084641       0.074
  -0.02999633  0.02998289  0.02452172       0.074
   0.00000085 -0.02998289  0.03268407       0.074
   0.02999804 -0.02998289  0.04084641       0.074
  -0.02999633 -0.02998289  0.02452172       0.074
 
 k-points in reciprocal lattice and weights: # No comment                            
   0.00000000  0.00000000  0.00000000       0.037
   0.33333333  0.00000000  0.00000000       0.074
   0.00000000  0.33333333  0.00000000       0.074
   0.33333333  0.33333333  0.00000000       0.074
  -0.33333333  0.33333333 -0.00000000       0.074
   0.00000000  0.00000000  0.33333333       0.074
   0.33333333  0.00000000  0.33333333       0.074
  -0.33333333  0.00000000  0.33333333       0.074
   0.00000000  0.33333333  0.33333333       0.074
   0.33333333  0.33333333  0.33333333       0.074
  -0.33333333  0.33333333  0.33333333       0.074
   0.00000000 -0.33333333  0.33333333       0.074
   0.33333333 -0.33333333  0.33333333       0.074
  -0.33333333 -0.33333333  0.33333333       0.074
 
 position of ions in fractional coordinates (direct lattice) 
   0.28894969  0.46933910  0.15583616
   0.78894969  0.46933910  0.15583616
   0.28894969  0.96933910  0.15583616
   0.78894969  0.96933910  0.15583616
   0.04646972  0.21934976  0.18586770
   0.54646972  0.21934976  0.18586770
   0.04646972  0.71934976  0.18586770
   0.54646972  0.71934976  0.18586770
   0.45353028  0.46934976  0.81413230
   0.95353028  0.46934976  0.81413230
   0.45353028  0.96934976  0.81413230
   0.95353028  0.96934976  0.81413230
   0.21105031  0.21933910  0.84416384
   0.71105031  0.21933910  0.84416384
   0.21105031  0.71933910  0.84416384
   0.71105031  0.71933910  0.84416384
   0.07654971  0.09530995  0.80250593
   0.57654971  0.09530995  0.80250593
   0.07654971  0.59530995  0.80250593
   0.57654971  0.59530995  0.80250593
   0.32470466  0.34428124  0.80250383
   0.82470466  0.34338175  0.80250383
   0.32470466  0.84338175  0.80250383
   0.82470466  0.84338175  0.80250383
   0.17529534  0.09338175  0.19749617
   0.67529534  0.09338175  0.19749617
   0.17529534  0.59338175  0.19749617
   0.67529534  0.59338175  0.19749617
   0.42345029  0.34530995  0.19749407
   0.92345029  0.34530995  0.19749407
   0.42345029  0.84530995  0.19749407
   0.92345029  0.84530995  0.19749407
   0.21868463  0.34523395  0.37102476
   0.71868463  0.34523395  0.37102476
   0.21868463  0.84523395  0.37102476
   0.71868463  0.84523395  0.37102476
   0.46681660  0.09344897  0.37102399
   0.96681660  0.09344897  0.37102399
   0.46681660  0.59344897  0.37102399
   0.96681660  0.59344897  0.37102399
   0.03318340  0.34344897  0.62897601
   0.53318340  0.34344897  0.62897601
   0.03318340  0.84344897  0.62897601
   0.53318340  0.84344897  0.62897601
   0.28131537  0.09523395  0.62897524
   0.78131537  0.09523395  0.62897524
   0.28131537  0.59523395  0.62897524
   0.78131537  0.59523395  0.62897524
   0.12439279  0.34434306  0.00000412
   0.62439279  0.34434306  0.00000412
   0.12439279  0.84434306  0.00000412
   0.62439279  0.84434306  0.00000412
   0.37560721  0.09434306  0.99999588
   0.87560721  0.09434306  0.99999588
   0.37560721  0.59434306  0.99999588
   0.87560721  0.59434306  0.99999588
   0.03824426  0.10634799  0.60632306
   0.53824426  0.10634799  0.60632306
   0.03824426  0.60634799  0.60632306
   0.53824426  0.60634799  0.60632306
   0.26492712  0.33232651  0.60632763
   0.76492712  0.33232651  0.60632763
   0.26492712  0.83232651  0.60632763
   0.76492712  0.83232651  0.60632763
   0.23507288  0.08232651  0.39367237
   0.73507288  0.08232651  0.39367237
   0.23507288  0.58232651  0.39367237
   0.73507288  0.58232651  0.39367237
   0.46175574  0.35634799  0.39367694
   0.96175574  0.35634799  0.39367694
   0.46175574  0.85634799  0.39367694
   0.96175574  0.85634799  0.39367694
   0.03848398  0.46936404  0.15397331
   0.53848398  0.46936404  0.15397331
   0.03848398  0.96936404  0.15397331
   0.53848398  0.96936404  0.15397331
   0.28861657  0.21935690  0.15447525
   0.78861657  0.21935690  0.15447525
   0.28861657  0.71935690  0.15447525
   0.78861657  0.71935690  0.15447525
   0.21138343  0.46935690  0.84552475
   0.71138343  0.46935690  0.84552475
   0.21138343  0.96935690  0.84552475
   0.71138343  0.96935690  0.84552475
   0.46151602  0.21936404  0.84602669
   0.96151602  0.21936404  0.84602669
   0.46151602  0.71936404  0.84602669
   0.96151602  0.71936404  0.84602669
 
 position of ions in cartesian coordinates  (Angst):
   2.77841422  5.21785483  1.58924581
   8.33453109  5.21785483  1.58910064
   2.77841422 10.77658080  1.58924581
   8.33453109 10.77658080  1.58910064
   0.00057921  2.43861041  1.89559955
   5.55669608  2.43861041  1.89545438
   0.00057921  7.99733638  1.89559955
   5.55669608  7.99733638  1.89545438
   2.78042868  5.21797340  8.30297749
   8.33654555  5.21797340  8.30283232
   2.78042868 10.77669937  8.30297749
   8.33654555 10.77669937  8.30283232
   0.00259367  2.43849185  8.60933123
   5.55871054  2.43849185  8.60918606
   0.00259367  7.99721782  8.60933123
   5.55871054  7.99721782  8.60918606
  -1.37640314  1.05960384  8.18451283
   4.17971373  1.05960384  8.18436766
  -1.37640314  6.61832981  8.18451283
   4.17971373  6.61832981  8.18436766
   1.38115855  3.82753010  8.18441936
   6.93727542  3.81753010  8.18427419
   1.38115855  9.37625607  8.18441936
   6.93727542  9.37625607  8.18427419
   1.39984934  1.03816712  2.01415768
   6.95596621  1.03816712  2.01401251
   1.39984934  6.59689309  2.01415768
   6.95596621  6.59689309  2.01401251
   4.15741103  3.83896683  2.01406421
   9.71352790  3.83896683  2.01391904
   4.15741103  9.39769280  2.01406421
   9.71352790  9.39769280  2.01391904
   1.40044058  3.83812185  3.78391497
   6.95655745  3.83812185  3.78376980
   1.40044058  9.39684782  3.78391497
   6.95655745  9.39684782  3.78376980
   4.15774317  1.03891443  3.78383507
   9.71386004  1.03891443  3.78368990
   4.15774317  6.59764040  3.78383507
   9.71386004  6.59764040  3.78368990
  -1.37673528  3.81827742  6.41474197
   4.17938159  3.81827742  6.41459680
  -1.37673528  9.37700339  6.41474197
   4.17938159  9.37700339  6.41459680
   1.38056731  1.05875886  6.41466207
   6.93668418  1.05875886  6.41451690
   1.38056731  6.61748483  6.41466207
   6.93668418  6.61748483  6.41451690
   1.38227032  3.82821742  0.00000590
   6.93838719  3.82821742 -0.00013927
   1.38227032  9.38694339  0.00000590
   6.93838719  9.38694339 -0.00013927
   1.39873757  1.04885444 10.19857114
   6.95485444  1.04885444 10.19842597
   1.39873757  6.60758041 10.19857114
   6.95485444  6.60758041 10.19842597
  -1.25763347  1.18231867  6.18370935
   4.29848340  1.18231867  6.18356418
  -1.25763347  6.74104464  6.18370935
   4.29848340  6.74104464  6.18356418
   1.26130689  3.69462400  6.18369015
   6.81742376  3.69462400  6.18354498
   1.26130689  9.25334997  6.18369015
   6.81742376  9.25334997  6.18354498
   1.51970100  0.91526102  4.01488689
   7.07581787  0.91526102  4.01474172
   1.51970100  6.47398699  4.01488689
   7.07581787  6.47398699  4.01474172
   4.03864136  3.96168165  4.01486769
   9.59475823  3.96168165  4.01472252
   4.03864136  9.52040762  4.01486769
   9.59475823  9.52040762  4.01472252
   0.00035027  5.21813216  1.57031984
   5.55646714  5.21813216  1.57017467
   0.00035027 10.77685813  1.57031984
   5.55646714 10.77685813  1.57017467
   2.77848919  2.43868979  1.57536637
   8.33460606  2.43868979  1.57522120
   2.77848919  7.99741576  1.57536637
   8.33460606  7.99741576  1.57522120
   0.00251870  5.21805278  8.62321067
   5.55863557  5.21805278  8.62306550
   0.00251870 10.77677875  8.62321067
   5.55863557 10.77677875  8.62306550
   2.78065762  2.43876917  8.62825720
   8.33677449  2.43876917  8.62811203
   2.78065762  7.99749514  8.62825720
   8.33677449  7.99749514  8.62811203
 


--------------------------------------------------------------------------------------------------------


 k-point  1 :   0.0000 0.0000 0.0000  plane waves:   47369
 k-point  2 :   0.3333 0.0000 0.0000  plane waves:   47373
 k-point  3 :   0.0000 0.3333 0.0000  plane waves:   47370
 k-point  4 :   0.3333 0.3333 0.0000  plane waves:   47404
 k-point  5 :  -0.3333 0.3333-0.0000  plane waves:   47404
 k-point  6 :   0.0000 0.0000 0.3333  plane waves:   47419
 k-point  7 :   0.3333 0.0000 0.3333  plane waves:   47399
 k-point  8 :  -0.3333 0.0000 0.3333  plane waves:   47417
 k-point  9 :   0.0000 0.3333 0.3333  plane waves:   47409
 k-point 10 :   0.3333 0.3333 0.3333  plane waves:   47422
 k-point 11 :  -0.3333 0.3333 0.3333  plane waves:   47440
 k-point 12 :   0.0000-0.3333 0.3333  plane waves:   47409
 k-point 13 :   0.3333-0.3333 0.3333  plane waves:   47422
 k-point 14 :  -0.3333-0.3333 0.3333  plane waves:   47440

 maximum and minimum number of plane-waves per node :      7942     7858

 maximum number of plane-waves:     47440
 maximum index in each direction: 
   IXMAX=   23   IYMAX=   23   IZMAX=   21
   IXMIN=  -23   IYMIN=  -23   IZMIN=  -22


 parallel 3D FFT for wavefunctions:
    minimum data exchange during FFTs selected (reduces bandwidth)
 parallel 3D FFT for charge:
    minimum data exchange during FFTs selected (reduces bandwidth)


 total amount of memory used by VASP MPI-rank0  1233264. kBytes
=======================================================================

   base      :      30000. kBytes
   nonl-proj :      75226. kBytes
   fftplans  :      85054. kBytes
   grid      :      64684. kBytes
   one-center:        466. kBytes
   wavefun   :     977834. kBytes
 
     INWAV:  cpu time    0.0000: real time    0.0000
 Broyden mixing: mesh for mixing (old mesh)
   NGX = 47   NGY = 47   NGZ = 43
  (NGX  =192   NGY  =192   NGZ  =180)
  gives a total of  94987 points

 initial charge density was supplied:
 number of electron     736.0000016 magnetization     127.9999885
 keeping initial charge density in first step


--------------------------------------------------------------------------------------------------------


 Maximum index for augmentation-charges        13229 (set IRDMAX)


--------------------------------------------------------------------------------------------------------


 First call to EWALD:  gamma=   0.164
 Maximum number of real-space cells 3x 3x 3
 Maximum number of reciprocal cells 3x 3x 3

    FEWALD:  cpu time    0.0060: real time    0.0081


--------------------------------------- Iteration      1(   1)  ---------------------------------------


    POTLOK:  cpu time    1.0710: real time    1.0890
    SETDIJ:  cpu time    2.2567: real time    2.3048
     EDDAV:  cpu time  315.6084: real time  318.8148
       DOS:  cpu time    0.0079: real time    0.0079
    --------------------------------------------
      LOOP:  cpu time  318.9440: real time  322.2166

 eigenvalue-minimisations  : 30944
 total energy-change (2. order) : 0.1040965E+05  (-0.4118848E+05)
 number of electron     736.0000016 magnetization     127.9999885
 augmentation part      736.0000016 magnetization     127.9999885

 Free energy of the ion-electron system (eV)
  ---------------------------------------------------
  alpha Z        PSCENC =      2314.49656628
  Ewald energy   TEWEN  =    -57723.18595193
  -Hartree energ DENC   =    -30348.73754233
  -exchange      EXHF   =         0.00000000
  -V(xc)+E(xc)   XCENC  =      3229.29913178
  PAW double counting   =     92679.89207989   -95535.38516353
  entropy T*S    EENTRO =        -0.01852969
  eigenvalues    EBANDS =       349.80826970
  atomic energy  EATOM  =     95443.47970955
  Solvation  Ediel_sol  =         0.00000000
  ---------------------------------------------------
  free energy    TOTEN  =     10409.64856972 eV

  energy without entropy =    10409.66709941  energy(sigma->0) =    10409.65783456


--------------------------------------------------------------------------------------------------------




--------------------------------------- Iteration      1(   2)  ---------------------------------------


     EDDAV:  cpu time  308.5458: real time  311.5283
       DOS:  cpu time    0.0081: real time    0.0081
    --------------------------------------------
      LOOP:  cpu time  308.5539: real time  311.5364

 eigenvalue-minimisations  : 30128
 total energy-change (2. order) :-0.9232168E+04  (-0.8658370E+04)
 number of electron     736.0000016 magnetization     127.9999885
 augmentation part      736.0000016 magnetization     127.9999885

 Free energy of the ion-electron system (eV)
  ---------------------------------------------------
  alpha Z        PSCENC =      2314.49656628
  Ewald energy   TEWEN  =    -57723.18595193
  -Hartree energ DENC   =    -30348.73754233
  -exchange      EXHF   =         0.00000000
  -V(xc)+E(xc)   XCENC  =      3229.29913178
  PAW double counting   =     92679.89207989   -95535.38516353
  entropy T*S    EENTRO =        -0.06574331
  eigenvalues    EBANDS =     -8882.31250742
  atomic energy  EATOM  =     95443.47970955
  Solvation  Ediel_sol  =         0.00000000
  ---------------------------------------------------
  free energy    TOTEN  =      1177.48057897 eV

  energy without entropy =     1177.54632228  energy(sigma->0) =     1177.51345062


--------------------------------------------------------------------------------------------------------




--------------------------------------- Iteration      1(   3)  ---------------------------------------


     EDDAV:  cpu time  326.5545: real time  329.5973
       DOS:  cpu time    0.0027: real time    0.0027
    --------------------------------------------
      LOOP:  cpu time  326.5571: real time  329.6000

 eigenvalue-minimisations  : 32384
 total energy-change (2. order) :-0.1485646E+04  (-0.1278935E+04)
 number of electron     736.0000016 magnetization     127.9999885
 augmentation part      736.0000016 magnetization     127.9999885

 Free energy of the ion-electron system (eV)
  ---------------------------------------------------
  alpha Z        PSCENC =      2314.49656628
  Ewald energy   TEWEN  =    -57723.18595193
  -Hartree energ DENC   =    -30348.73754233
  -exchange      EXHF   =         0.00000000
  -V(xc)+E(xc)   XCENC  =      3229.29913178
  PAW double counting   =     92679.89207989   -95535.38516353
  entropy T*S    EENTRO =        -0.00000000
  eigenvalues    EBANDS =    -10368.02384900
  atomic energy  EATOM  =     95443.47970955
  Solvation  Ediel_sol  =         0.00000000
  ---------------------------------------------------
  free energy    TOTEN  =      -308.16501930 eV

  energy without entropy =     -308.16501930  energy(sigma->0) =     -308.16501930


--------------------------------------------------------------------------------------------------------




--------------------------------------- Iteration      1(   4)  ---------------------------------------


     EDDAV:  cpu time  347.4859: real time  350.9619
       DOS:  cpu time    0.0024: real time    0.0024
    --------------------------------------------
      LOOP:  cpu time  347.4883: real time  350.9643

 eigenvalue-minimisations  : 34984
 total energy-change (2. order) :-0.1681381E+03  (-0.1653911E+03)
 number of electron     736.0000016 magnetization     127.9999885
 augmentation part      736.0000016 magnetization     127.9999885

 Free energy of the ion-electron system (eV)
  ---------------------------------------------------
  alpha Z        PSCENC =      2314.49656628
  Ewald energy   TEWEN  =    -57723.18595193
  -Hartree energ DENC   =    -30348.73754233
  -exchange      EXHF   =         0.00000000
  -V(xc)+E(xc)   XCENC  =      3229.29913178
  PAW double counting   =     92679.89207989   -95535.38516353
  entropy T*S    EENTRO =        -0.00000000
  eigenvalues    EBANDS =    -10536.16191969
  atomic energy  EATOM  =     95443.47970955
  Solvation  Ediel_sol  =         0.00000000
  ---------------------------------------------------
  free energy    TOTEN  =      -476.30308998 eV

  energy without entropy =     -476.30308998  energy(sigma->0) =     -476.30308998


--------------------------------------------------------------------------------------------------------




--------------------------------------- Iteration      1(   5)  ---------------------------------------


     EDDAV:  cpu time  461.9207: real time  466.0594
       DOS:  cpu time    0.0026: real time    0.0029
    CHARGE:  cpu time    9.1119: real time    9.2948
    MIXING:  cpu time    0.0260: real time    0.0263
    --------------------------------------------
      LOOP:  cpu time  471.0612: real time  475.3834

 eigenvalue-minimisations  : 49848
 total energy-change (2. order) :-0.1243169E+02  (-0.1230838E+02)
 number of electron     736.0000016 magnetization     127.9999932
 augmentation part      278.4626989 magnetization      84.1335152

 Broyden mixing:
  rms(total) = 0.20710E+00    rms(broyden)= 0.20693E+00
  rms(prec ) = 0.21062E+00
  weight for this iteration     100.00

 Free energy of the ion-electron system (eV)
  ---------------------------------------------------
  alpha Z        PSCENC =      2314.49656628
  Ewald energy   TEWEN  =    -57723.18595193
  -Hartree energ DENC   =    -30348.73754233
  -exchange      EXHF   =         0.00000000
  -V(xc)+E(xc)   XCENC  =      3229.29913178
  PAW double counting   =     92679.89207989   -95535.38516353
  entropy T*S    EENTRO =        -0.00000000
  eigenvalues    EBANDS =    -10548.59361453
  atomic energy  EATOM  =     95443.47970955
  Solvation  Ediel_sol  =         0.00000000
  ---------------------------------------------------
  free energy    TOTEN  =      -488.73478483 eV

  energy without entropy =     -488.73478483  energy(sigma->0) =     -488.73478483


--------------------------------------------------------------------------------------------------------




--------------------------------------- Iteration      1(   6)  ---------------------------------------


    POTLOK:  cpu time    1.0487: real time    1.0855
    SETDIJ:  cpu time    2.2770: real time    2.2782
     EDDAV:  cpu time  402.7664: real time  406.7485
       DOS:  cpu time    0.0025: real time    0.0025
    CHARGE:  cpu time    9.2107: real time    9.3171
    MIXING:  cpu time    0.0388: real time    0.0390
    --------------------------------------------
      LOOP:  cpu time  415.3442: real time  419.4708

 eigenvalue-minimisations  : 42048
 total energy-change (2. order) :-0.4655125E+00  (-0.4797919E+00)
 number of electron     736.0000016 magnetization     127.9999951
 augmentation part      277.9607360 magnetization      84.1626958

 Broyden mixing:
  rms(total) = 0.10233E+00    rms(broyden)= 0.10217E+00
  rms(prec ) = 0.10305E+00
  weight for this iteration     100.00

 eigenvalues of (default mixing * dielectric matrix)
  average eigenvalue GAMMA=   0.6574
  0.6574

 Free energy of the ion-electron system (eV)
  ---------------------------------------------------
  alpha Z        PSCENC =      2314.49656628
  Ewald energy   TEWEN  =    -57723.18595193
  -Hartree energ DENC   =    -30346.90783902
  -exchange      EXHF   =         0.00000000
  -V(xc)+E(xc)   XCENC  =      3228.99941275
  PAW double counting   =     92523.27282143   -95377.11013831
  entropy T*S    EENTRO =        -0.00000000
  eigenvalues    EBANDS =    -10552.24487811
  atomic energy  EATOM  =     95443.47970955
  Solvation  Ediel_sol  =         0.00000000
  ---------------------------------------------------
  free energy    TOTEN  =      -489.20029735 eV

  energy without entropy =     -489.20029735  energy(sigma->0) =     -489.20029735


--------------------------------------------------------------------------------------------------------




--------------------------------------- Iteration      1(   7)  ---------------------------------------


    POTLOK:  cpu time    1.0359: real time    1.0503
    SETDIJ:  cpu time    2.2667: real time    2.3009
     EDDAV:  cpu time  434.8463: real time  439.0306
       DOS:  cpu time    0.0026: real time    0.0032
    CHARGE:  cpu time    9.2016: real time    9.3183
    MIXING:  cpu time    0.0356: real time    0.0370
    --------------------------------------------
      LOOP:  cpu time  447.3887: real time  451.7404

 eigenvalue-minimisations  : 46336
 total energy-change (2. order) :-0.1667204E-01  (-0.1755584E-01)
 number of electron     736.0000016 magnetization     127.9999959
 augmentation part      277.8792058 magnetization      84.1546788

 Broyden mixing:
  rms(total) = 0.59341E-01    rms(broyden)= 0.59299E-01
  rms(prec ) = 0.60781E-01
  weight for this iteration     100.00

 eigenvalues of (default mixing * dielectric matrix)
  average eigenvalue GAMMA=   0.5674
  0.5674  0.5674

 Free energy of the ion-electron system (eV)
  ---------------------------------------------------
  alpha Z        PSCENC =      2314.49656628
  Ewald energy   TEWEN  =    -57723.18595193
  -Hartree energ DENC   =    -30347.84302443
  -exchange      EXHF   =         0.00000000
  -V(xc)+E(xc)   XCENC  =      3229.08470043
  PAW double counting   =     92580.72900174   -95435.14416047
  entropy T*S    EENTRO =        -0.00000000
  eigenvalues    EBANDS =    -10550.83381056
  atomic energy  EATOM  =     95443.47970955
  Solvation  Ediel_sol  =         0.00000000
  ---------------------------------------------------
  free energy    TOTEN  =      -489.21696940 eV

  energy without entropy =     -489.21696940  energy(sigma->0) =     -489.21696940


--------------------------------------------------------------------------------------------------------




--------------------------------------- Iteration      1(   8)  ---------------------------------------


    POTLOK:  cpu time    1.0377: real time    1.0526
    SETDIJ:  cpu time    2.2503: real time    2.2803
     EDDAV:  cpu time  408.8934: real time  412.7466
       DOS:  cpu time    0.0028: real time    0.0028
    CHARGE:  cpu time    9.1548: real time    9.3581
    MIXING:  cpu time    0.0329: real time    0.0342
    --------------------------------------------
      LOOP:  cpu time  421.3719: real time  425.4746

 eigenvalue-minimisations  : 42904
 total energy-change (2. order) : 0.4923662E-03  (-0.3449758E-03)
 number of electron     736.0000016 magnetization     127.9999964
 augmentation part      277.8712230 magnetization      84.1567751

 Broyden mixing:
  rms(total) = 0.52824E-01    rms(broyden)= 0.52820E-01
  rms(prec ) = 0.54093E-01
  weight for this iteration     100.00

 eigenvalues of (default mixing * dielectric matrix)
  average eigenvalue GAMMA=   0.5730
  0.6311  0.6311  0.4570

 Free energy of the ion-electron system (eV)
  ---------------------------------------------------
  alpha Z        PSCENC =      2314.49656628
  Ewald energy   TEWEN  =    -57723.18595193
  -Hartree energ DENC   =    -30347.80274452
  -exchange      EXHF   =         0.00000000
  -V(xc)+E(xc)   XCENC  =      3229.11321161
  PAW double counting   =     92594.11063304   -95448.65718738
  entropy T*S    EENTRO =        -0.00000000
  eigenvalues    EBANDS =    -10550.77071366
  atomic energy  EATOM  =     95443.47970955
  Solvation  Ediel_sol  =         0.00000000
  ---------------------------------------------------
  free energy    TOTEN  =      -489.21647703 eV

  energy without entropy =     -489.21647703  energy(sigma->0) =     -489.21647703


--------------------------------------------------------------------------------------------------------




--------------------------------------- Iteration      1(   9)  ---------------------------------------


    POTLOK:  cpu time    1.0466: real time    1.0529
    SETDIJ:  cpu time    2.2768: real time    2.2971
     EDDAV:  cpu time  450.9209: real time  454.4634
       DOS:  cpu time    0.0026: real time    0.0026
    CHARGE:  cpu time    9.2395: real time    9.3251
    MIXING:  cpu time    0.0278: real time    0.0279
    --------------------------------------------
      LOOP:  cpu time  463.5142: real time  467.1690

 eigenvalue-minimisations  : 48464
 total energy-change (2. order) : 0.5020984E-03  (-0.2168704E-04)
 number of electron     736.0000016 magnetization     127.9999987
 augmentation part      277.8736022 magnetization      84.1569144

 Broyden mixing:
  rms(total) = 0.45546E-01    rms(broyden)= 0.45545E-01
  rms(prec ) = 0.46597E-01
  weight for this iteration     100.00

 eigenvalues of (default mixing * dielectric matrix)
  average eigenvalue GAMMA=   0.8690
  1.1681  1.1681  0.5698  0.5698

 Free energy of the ion-electron system (eV)
  ---------------------------------------------------
  alpha Z        PSCENC =      2314.49656628
  Ewald energy   TEWEN  =    -57723.18595193
  -Hartree energ DENC   =    -30347.89048305
  -exchange      EXHF   =         0.00000000
  -V(xc)+E(xc)   XCENC  =      3229.14072224
  PAW double counting   =     92603.69242601   -95458.36713098
  entropy T*S    EENTRO =        -0.00000000
  eigenvalues    EBANDS =    -10550.58183305
  atomic energy  EATOM  =     95443.47970955
  Solvation  Ediel_sol  =         0.00000000
  ---------------------------------------------------
  free energy    TOTEN  =      -489.21597493 eV

  energy without entropy =     -489.21597493  energy(sigma->0) =     -489.21597493


--------------------------------------------------------------------------------------------------------




--------------------------------------- Iteration      1(  10)  ---------------------------------------


    POTLOK:  cpu time    1.0467: real time    1.0494
    SETDIJ:  cpu time    2.2838: real time    2.2891
     EDDAV:  cpu time  445.5587: real time  449.5206
       DOS:  cpu time    0.0027: real time    0.0029
    CHARGE:  cpu time    9.1614: real time    9.2239
    MIXING:  cpu time    0.0308: real time    0.0308
    --------------------------------------------
      LOOP:  cpu time  458.0841: real time  462.1167

 eigenvalue-minimisations  : 47720
 total energy-change (2. order) : 0.1035422E-02  (-0.1019357E-03)
 number of electron     736.0000016 magnetization     127.9999998
 augmentation part      277.8863967 magnetization      84.1584063

 Broyden mixing:
  rms(total) = 0.18752E-01    rms(broyden)= 0.18751E-01
  rms(prec ) = 0.18955E-01
  weight for this iteration     100.00

 eigenvalues of (default mixing * dielectric matrix)
  average eigenvalue GAMMA=   0.9323
  1.4899  1.4899  0.6152  0.6152  0.4510

 Free energy of the ion-electron system (eV)
  ---------------------------------------------------
  alpha Z        PSCENC =      2314.49656628
  Ewald energy   TEWEN  =    -57723.18595193
  -Hartree energ DENC   =    -30348.45012059
  -exchange      EXHF   =         0.00000000
  -V(xc)+E(xc)   XCENC  =      3229.25411285
  PAW double counting   =     92644.16961364   -95499.38193481
  entropy T*S    EENTRO =        -0.00000000
  eigenvalues    EBANDS =    -10549.59693450
  atomic energy  EATOM  =     95443.47970955
  Solvation  Ediel_sol  =         0.00000000
  ---------------------------------------------------
  free energy    TOTEN  =      -489.21493951 eV

  energy without entropy =     -489.21493951  energy(sigma->0) =     -489.21493951


--------------------------------------------------------------------------------------------------------




--------------------------------------- Iteration      1(  11)  ---------------------------------------


    POTLOK:  cpu time    1.0369: real time    1.0500
    SETDIJ:  cpu time    2.2604: real time    2.2889
     EDDAV:  cpu time  362.5409: real time  366.3706
       DOS:  cpu time    0.0027: real time    0.0027
    CHARGE:  cpu time    9.1444: real time    9.2957
    MIXING:  cpu time    0.0348: real time    0.0348
    --------------------------------------------
      LOOP:  cpu time  375.0201: real time  379.0428

 eigenvalue-minimisations  : 36912
 total energy-change (2. order) : 0.5619286E-04  (-0.5002616E-04)
 number of electron     736.0000016 magnetization     128.0000000
 augmentation part      277.8918317 magnetization      84.1585501

 Broyden mixing:
  rms(total) = 0.72008E-02    rms(broyden)= 0.71987E-02
  rms(prec ) = 0.72340E-02
  weight for this iteration     100.00

 eigenvalues of (default mixing * dielectric matrix)
  average eigenvalue GAMMA=   0.8999
  1.5094  1.5094  0.6551  0.6551  0.5352  0.5352

 Free energy of the ion-electron system (eV)
  ---------------------------------------------------
  alpha Z        PSCENC =      2314.49656628
  Ewald energy   TEWEN  =    -57723.18595193
  -Hartree energ DENC   =    -30348.68954191
  -exchange      EXHF   =         0.00000000
  -V(xc)+E(xc)   XCENC  =      3229.30185863
  PAW double counting   =     92665.48400911   -95520.93796956
  entropy T*S    EENTRO =        -0.00000000
  eigenvalues    EBANDS =    -10549.16356348
  atomic energy  EATOM  =     95443.47970955
  Solvation  Ediel_sol  =         0.00000000
  ---------------------------------------------------
  free energy    TOTEN  =      -489.21488332 eV

  energy without entropy =     -489.21488332  energy(sigma->0) =     -489.21488332


--------------------------------------------------------------------------------------------------------




--------------------------------------- Iteration      1(  12)  ---------------------------------------


    POTLOK:  cpu time    1.0487: real time    1.0497
    SETDIJ:  cpu time    2.2880: real time    2.2956
     EDDAV:  cpu time  402.3245: real time  406.6909
       DOS:  cpu time    0.0026: real time    0.0026
    CHARGE:  cpu time    9.3182: real time    9.3828
    MIXING:  cpu time    0.0409: real time    0.0409
    --------------------------------------------
      LOOP:  cpu time  415.0230: real time  419.4624

 eigenvalue-minimisations  : 41912
 total energy-change (2. order) :-0.1329998E-04  (-0.1160022E-04)
 number of electron     736.0000016 magnetization     128.0000001
 augmentation part      277.8943060 magnetization      84.1584249

 Broyden mixing:
  rms(total) = 0.57745E-02    rms(broyden)= 0.57730E-02
  rms(prec ) = 0.58346E-02
  weight for this iteration     100.00

 eigenvalues of (default mixing * dielectric matrix)
  average eigenvalue GAMMA=   0.9708
  1.4926  1.4926  1.0633  1.0633  0.5929  0.5929  0.4978

 Free energy of the ion-electron system (eV)
  ---------------------------------------------------
  alpha Z        PSCENC =      2314.49656628
  Ewald energy   TEWEN  =    -57723.18595193
  -Hartree energ DENC   =    -30348.70421613
  -exchange      EXHF   =         0.00000000
  -V(xc)+E(xc)   XCENC  =      3229.30343315
  PAW double counting   =     92669.07399578   -95524.54014530
  entropy T*S    EENTRO =        -0.00000000
  eigenvalues    EBANDS =    -10549.13828801
  atomic energy  EATOM  =     95443.47970955
  Solvation  Ediel_sol  =         0.00000000
  ---------------------------------------------------
  free energy    TOTEN  =      -489.21489662 eV

  energy without entropy =     -489.21489662  energy(sigma->0) =     -489.21489662


--------------------------------------------------------------------------------------------------------




--------------------------------------- Iteration      1(  13)  ---------------------------------------


    POTLOK:  cpu time    1.0503: real time    1.0546
    SETDIJ:  cpu time    2.2815: real time    2.2996
     EDDAV:  cpu time  274.6194: real time  277.3537
       DOS:  cpu time    0.0027: real time    0.0027
    CHARGE:  cpu time    9.3300: real time    9.3680
    MIXING:  cpu time    0.0366: real time    0.0366
    --------------------------------------------
      LOOP:  cpu time  287.3206: real time  290.1153

 eigenvalue-minimisations  : 25840
 total energy-change (2. order) :-0.2433342E-05  (-0.2863104E-06)
 number of electron     736.0000016 magnetization     128.0000004
 augmentation part      277.8944408 magnetization      84.1583361

 Broyden mixing:
  rms(total) = 0.42512E-02    rms(broyden)= 0.42497E-02
  rms(prec ) = 0.42783E-02
  weight for this iteration     100.00

 eigenvalues of (default mixing * dielectric matrix)
  average eigenvalue GAMMA=   1.1917
  2.4914  2.4914  1.0554  1.0554  0.6936  0.6936  0.5264  0.5264

 Free energy of the ion-electron system (eV)
  ---------------------------------------------------
  alpha Z        PSCENC =      2314.49656628
  Ewald energy   TEWEN  =    -57723.18595193
  -Hartree energ DENC   =    -30348.68129737
  -exchange      EXHF   =         0.00000000
  -V(xc)+E(xc)   XCENC  =      3229.29852685
  PAW double counting   =     92671.42280332   -95526.87511426
  entropy T*S    EENTRO =        -0.00000000
  eigenvalues    EBANDS =    -10549.17014149
  atomic energy  EATOM  =     95443.47970955
  Solvation  Ediel_sol  =         0.00000000
  ---------------------------------------------------
  free energy    TOTEN  =      -489.21489905 eV

  energy without entropy =     -489.21489905  energy(sigma->0) =     -489.21489905


--------------------------------------------------------------------------------------------------------




--------------------------------------- Iteration      1(  14)  ---------------------------------------


    POTLOK:  cpu time    1.0472: real time    1.0484
    SETDIJ:  cpu time    2.2744: real time    2.2769
     EDDAV:  cpu time  332.2072: real time  335.4867
       DOS:  cpu time    0.0025: real time    0.0025
    CHARGE:  cpu time    9.3152: real time    9.3751
    MIXING:  cpu time    0.0417: real time    0.0418
    --------------------------------------------
      LOOP:  cpu time  344.8881: real time  348.2314

 eigenvalue-minimisations  : 32992
 total energy-change (2. order) :-0.1031724E-04  (-0.8985876E-06)
 number of electron     736.0000016 magnetization     128.0000005
 augmentation part      277.8930896 magnetization      84.1582547

 Broyden mixing:
  rms(total) = 0.13934E-02    rms(broyden)= 0.13888E-02
  rms(prec ) = 0.14370E-02
  weight for this iteration     100.00

 eigenvalues of (default mixing * dielectric matrix)
  average eigenvalue GAMMA=   1.1237
  2.7803  1.5498  1.5498  0.9521  0.8015  0.8015  0.5474  0.5655  0.5655

 Free energy of the ion-electron system (eV)
  ---------------------------------------------------
  alpha Z        PSCENC =      2314.49656628
  Ewald energy   TEWEN  =    -57723.18595193
  -Hartree energ DENC   =    -30348.70901195
  -exchange      EXHF   =         0.00000000
  -V(xc)+E(xc)   XCENC  =      3229.29499075
  PAW double counting   =     92677.81345921   -95533.27375148
  entropy T*S    EENTRO =        -0.00000000
  eigenvalues    EBANDS =    -10549.13091978
  atomic energy  EATOM  =     95443.47970955
  Solvation  Ediel_sol  =         0.00000000
  ---------------------------------------------------
  free energy    TOTEN  =      -489.21490937 eV

  energy without entropy =     -489.21490937  energy(sigma->0) =     -489.21490937


--------------------------------------------------------------------------------------------------------




--------------------------------------- Iteration      1(  15)  ---------------------------------------


    POTLOK:  cpu time    1.0465: real time    1.0476
    SETDIJ:  cpu time    2.2770: real time    2.2786
     EDDAV:  cpu time  304.2362: real time  306.9602
       DOS:  cpu time    0.0046: real time    0.0046
    CHARGE:  cpu time    9.3827: real time    9.4000
    MIXING:  cpu time    0.0357: real time    0.0357
    --------------------------------------------
      LOOP:  cpu time  316.9826: real time  319.7267

 eigenvalue-minimisations  : 29424
 total energy-change (2. order) : 0.2326924E-05  (-0.3601193E-06)
 number of electron     736.0000016 magnetization     128.0000004
 augmentation part      277.8926446 magnetization      84.1582577

 Broyden mixing:
  rms(total) = 0.63190E-03    rms(broyden)= 0.62210E-03
  rms(prec ) = 0.64833E-03
  weight for this iteration     100.00

 eigenvalues of (default mixing * dielectric matrix)
  average eigenvalue GAMMA=   1.0928
  2.6966  1.5455  1.5455  1.1380  0.8546  0.8546  0.6143  0.6143  0.5325  0.5325

 Free energy of the ion-electron system (eV)
  ---------------------------------------------------
  alpha Z        PSCENC =      2314.49656628
  Ewald energy   TEWEN  =    -57723.18595193
  -Hartree energ DENC   =    -30348.73177045
  -exchange      EXHF   =         0.00000000
  -V(xc)+E(xc)   XCENC  =      3229.29952648
  PAW double counting   =     92679.20195257   -95534.68679170
  entropy T*S    EENTRO =        -0.00000000
  eigenvalues    EBANDS =    -10549.08814784
  atomic energy  EATOM  =     95443.47970955
  Solvation  Ediel_sol  =         0.00000000
  ---------------------------------------------------
  free energy    TOTEN  =      -489.21490704 eV

  energy without entropy =     -489.21490704  energy(sigma->0) =     -489.21490704


--------------------------------------------------------------------------------------------------------




--------------------------------------- Iteration      1(  16)  ---------------------------------------


    POTLOK:  cpu time    1.0448: real time    1.0494
    SETDIJ:  cpu time    2.2679: real time    2.2737
     EDDAV:  cpu time  223.4658: real time  225.5696
       DOS:  cpu time    0.0027: real time    0.0027
    --------------------------------------------
      LOOP:  cpu time  226.7811: real time  228.8953

 eigenvalue-minimisations  : 19048
 total energy-change (2. order) :-0.7377239E-06  (-0.1063236E-06)
 number of electron     736.0000016 magnetization     128.0000004
 augmentation part      277.8926446 magnetization      84.1582577

 Free energy of the ion-electron system (eV)
  ---------------------------------------------------
  alpha Z        PSCENC =      2314.49656628
  Ewald energy   TEWEN  =    -57723.18595193
  -Hartree energ DENC   =    -30348.72343736
  -exchange      EXHF   =         0.00000000
  -V(xc)+E(xc)   XCENC  =      3229.29927385
  PAW double counting   =     92679.37897625   -95534.86562673
  entropy T*S    EENTRO =        -0.00000000
  eigenvalues    EBANDS =    -10549.09441768
  atomic energy  EATOM  =     95443.47970955
  Solvation  Ediel_sol  =         0.00000000
  ---------------------------------------------------
  free energy    TOTEN  =      -489.21490778 eV

  energy without entropy =     -489.21490778  energy(sigma->0) =     -489.21490778


--------------------------------------------------------------------------------------------------------




 average (electrostatic) potential at core
  the test charge radii are     0.7079  0.7215  0.9698  0.9500
  (the norm of the test charge is              1.0000)
       1 -58.9474       2 -58.9488       3 -58.9500       4 -58.9490       5 -58.9476
       6 -58.9486       7 -58.9475       8 -58.9465       9 -58.9351      10 -58.9467
      11 -58.9495      12 -58.9481      13 -58.9604      14 -58.9496      15 -58.9469
      16 -58.9483      17 -69.8175      18 -69.8193      19 -69.8132      20 -69.8151
      21 -69.8158      22 -69.8164      23 -69.8163      24 -69.8163      25 -69.8170
      26 -69.8171      27 -69.8154      28 -69.8158      29 -69.8163      30 -69.8162
      31 -69.8164      32 -69.8163      33 -85.5798      34 -85.5799      35 -85.5798
      36 -85.5799      37 -85.5808      38 -85.5803      39 -85.5791      40 -85.5792
      41 -85.5792      42 -85.5807      43 -85.5796      44 -85.5799      45 -85.5848
      46 -85.5803      47 -85.5750      48 -85.5794      49 -85.6375      50 -85.6400
      51 -85.6387      52 -85.6390      53 -85.6435      54 -85.6392      55 -85.6342
      56 -85.6385      57 -78.5750      58 -78.5756      59 -78.5726      60 -78.5734
      61 -78.5752      62 -78.5742      63 -78.5736      64 -78.5741      65 -78.5758
      66 -78.5746      67 -78.5725      68 -78.5737      69 -78.5744      70 -78.5739
      71 -78.5743      72 -78.5741      73 -78.5815      74 -78.5812      75 -78.5821
      76 -78.5834      77 -78.5924      78 -78.5920      79 -78.5902      80 -78.5914
      81 -78.5789      82 -78.5916      83 -78.5928      84 -78.5923      85 -78.5942
      86 -78.5819      87 -78.5807      88 -78.5812
 
 
 
 E-fermi :   5.2015     XC(G=0): -10.4850     alpha+bet :-11.8156


 spin component 1

 k-point     1 :       0.0000    0.0000    0.0000
  band No.  band energies     occupation 
      1     -51.0582      1.00000
      2     -51.0555      1.00000
      3     -51.0550      1.00000
      4     -51.0547      1.00000
      5     -51.0543      1.00000
      6     -51.0539      1.00000
      7     -51.0538      1.00000
      8     -51.0535      1.00000
      9     -51.0531      1.00000
     10     -51.0527      1.00000
     11     -51.0524      1.00000
     12     -51.0523      1.00000
     13     -51.0520      1.00000
     14     -51.0511      1.00000
     15     -51.0508      1.00000
     16     -51.0500      1.00000
     17     -51.0497      1.00000
     18     -51.0450      1.00000
     19     -51.0448      1.00000
     20     -51.0447      1.00000
     21     -51.0445      1.00000
     22     -51.0439      1.00000
     23     -51.0438      1.00000
     24     -51.0429      1.00000
     25     -51.0406      1.00000
     26     -51.0396      1.00000
     27     -51.0395      1.00000
     28     -51.0388      1.00000
     29     -51.0387      1.00000
     30     -51.0385      1.00000
     31     -51.0383      1.00000
     32     -51.0312      1.00000
     33     -49.7063      1.00000
     34     -49.7028      1.00000
     35     -49.7024      1.00000
     36     -49.7023      1.00000
     37     -49.7020      1.00000
     38     -49.7017      1.00000
     39     -49.7014      1.00000
     40     -49.7003      1.00000
     41     -49.6953      1.00000
     42     -49.6942      1.00000
     43     -49.6940      1.00000
     44     -49.6935      1.00000
     45     -49.6933      1.00000
     46     -49.6933      1.00000
     47     -49.6927      1.00000
     48     -49.6889      1.00000
     49     -49.5991      1.00000
     50     -49.5982      1.00000
     51     -49.5981      1.00000
     52     -49.5978      1.00000
     53     -49.5974      1.00000
     54     -49.5973      1.00000
     55     -49.5971      1.00000
     56     -49.5970      1.00000
     57     -49.5965      1.00000
     58     -49.5963      1.00000
     59     -49.5963      1.00000
     60     -49.5960      1.00000
     61     -49.5960      1.00000
     62     -49.5956      1.00000
     63     -49.5952      1.00000
     64     -49.5948      1.00000
     65     -49.5678      1.00000
     66     -49.5671      1.00000
     67     -49.5668      1.00000
     68     -49.5664      1.00000
     69     -49.5661      1.00000
     70     -49.5658      1.00000
     71     -49.5655      1.00000
     72     -49.5651      1.00000
     73     -49.5651      1.00000
     74     -49.5648      1.00000
     75     -49.5646      1.00000
     76     -49.5643      1.00000
     77     -49.5639      1.00000
     78     -49.5638      1.00000
     79     -49.5632      1.00000
     80     -49.5630      1.00000
     81     -49.5555      1.00000
     82     -49.5550      1.00000
     83     -49.5549      1.00000
     84     -49.5546      1.00000
     85     -49.5542      1.00000
     86     -49.5539      1.00000
     87     -49.5527      1.00000
     88     -49.5507      1.00000
     89     -49.5425      1.00000
     90     -49.5409      1.00000
     91     -49.5396      1.00000
     92     -49.5394      1.00000
     93     -49.5389      1.00000
     94     -49.5387      1.00000
     95     -49.5386      1.00000
     96     -49.5381      1.00000
     97     -39.8766      1.00000
     98     -39.8665      1.00000
     99     -39.8663      1.00000
    100     -39.8658      1.00000
    101     -39.8656      1.00000
    102     -39.8651      1.00000
    103     -39.8651      1.00000
    104     -39.8650      1.00000
    105     -39.8644      1.00000
    106     -39.8643      1.00000
    107     -39.8643      1.00000
    108     -39.8636      1.00000
    109     -39.8635      1.00000
    110     -39.8633      1.00000
    111     -39.8630      1.00000
    112     -39.8519      1.00000
    113     -13.2248      1.00000
    114     -13.2247      1.00000
    115     -13.2104      1.00000
    116     -13.1835      1.00000
    117     -13.1013      1.00000
    118     -13.0991      1.00000
    119     -13.0986      1.00000
    120     -13.0928      1.00000
    121     -13.0863      1.00000
    122     -13.0802      1.00000
    123     -13.0799      1.00000
    124     -13.0774      1.00000
    125     -12.9881      1.00000
    126     -12.9773      1.00000
    127     -12.9418      1.00000
    128     -12.9417      1.00000
    129      -7.6454      1.00000
    130      -7.4069      1.00000
    131      -7.3264      1.00000
    132      -7.3261      1.00000
    133      -7.3108      1.00000
    134      -7.3093      1.00000
    135      -7.3082      1.00000
    136      -7.3063      1.00000
    137      -7.1696      1.00000
    138      -7.1573      1.00000
    139      -7.1238      1.00000
    140      -7.1238      1.00000
    141      -7.0366      1.00000
    142      -7.0220      1.00000
    143      -7.0021      1.00000
    144      -7.0021      1.00000
    145      -6.9409      1.00000
    146      -6.9409      1.00000
    147      -6.8873      1.00000
    148      -6.8872      1.00000
    149      -6.8656      1.00000
    150      -6.8616      1.00000
    151      -6.8345      1.00000
    152      -6.8038      1.00000
    153      -1.9357      1.00000
    154      -1.9353      1.00000
    155      -1.9105      1.00000
    156      -1.8935      1.00000
    157      -1.6666      1.00000
    158      -1.6661      1.00000
    159      -1.6585      1.00000
    160      -1.6573      1.00000
    161      -1.5995      1.00000
    162      -1.5982      1.00000
    163      -1.5866      1.00000
    164      -1.5857      1.00000
    165      -1.2982      1.00000
    166      -1.1750      1.00000
    167      -1.1744      1.00000
    168      -1.1135      1.00000
    169      -1.1128      1.00000
    170      -1.1071      1.00000
    171      -1.0493      1.00000
    172      -0.9809      1.00000
    173      -0.9646      1.00000
    174      -0.9594      1.00000
    175      -0.9579      1.00000
    176      -0.9573      1.00000
    177      -0.9472      1.00000
    178      -0.9451      1.00000
    179      -0.9228      1.00000
    180      -0.8712      1.00000
    181      -0.8711      1.00000
    182      -0.8039      1.00000
    183      -0.8026      1.00000
    184      -0.8023      1.00000
    185      -0.7753      1.00000
    186      -0.7742      1.00000
    187      -0.7740      1.00000
    188      -0.7604      1.00000
    189      -0.7166      1.00000
    190      -0.7166      1.00000
    191      -0.7065      1.00000
    192      -0.7049      1.00000
    193      -0.6991      1.00000
    194      -0.6990      1.00000
    195      -0.6090      1.00000
    196      -0.6086      1.00000
    197      -0.5617      1.00000
    198      -0.5612      1.00000
    199      -0.5495      1.00000
    200      -0.5480      1.00000
    201      -0.4083      1.00000
    202      -0.4079      1.00000
    203      -0.3572      1.00000
    204      -0.3483      1.00000
    205      -0.3296      1.00000
    206      -0.3293      1.00000
    207      -0.2992      1.00000
    208      -0.2985      1.00000
    209      -0.2814      1.00000
    210      -0.2692      1.00000
    211      -0.2628      1.00000
    212      -0.2557      1.00000
    213      -0.2550      1.00000
    214      -0.2090      1.00000
    215      -0.2081      1.00000
    216      -0.1891      1.00000
    217      -0.1867      1.00000
    218      -0.1865      1.00000
    219      -0.1757      1.00000
    220      -0.1583      1.00000
    221      -0.1258      1.00000
    222      -0.1257      1.00000
    223      -0.1093      1.00000
    224      -0.0710      1.00000
    225      -0.0705      1.00000
    226      -0.0605      1.00000
    227      -0.0432      1.00000
    228      -0.0177      1.00000
    229      -0.0174      1.00000
    230      -0.0113      1.00000
    231       0.0016      1.00000
    232       0.0017      1.00000
    233       0.0462      1.00000
    234       0.0493      1.00000
    235       0.0502      1.00000
    236       0.0909      1.00000
    237       0.0930      1.00000
    238       0.1182      1.00000
    239       0.1186      1.00000
    240       0.1576      1.00000
    241       0.1628      1.00000
    242       0.1766      1.00000
    243       0.1788      1.00000
    244       0.1813      1.00000
    245       0.1821      1.00000
    246       0.1852      1.00000
    247       0.1894      1.00000
    248       0.1933      1.00000
    249       0.1948      1.00000
    250       0.2010      1.00000
    251       0.2011      1.00000
    252       0.2388      1.00000
    253       0.2510      1.00000
    254       0.2569      1.00000
    255       0.2573      1.00000
    256       0.2769      1.00000
    257       0.3373      1.00000
    258       0.3473      1.00000
    259       0.3586      1.00000
    260       0.3591      1.00000
    261       0.3604      1.00000
    262       0.3609      1.00000
    263       0.3887      1.00000
    264       0.4014      1.00000
    265       0.4524      1.00000
    266       0.4527      1.00000
    267       0.5785      1.00000
    268       0.5792      1.00000
    269       0.5853      1.00000
    270       0.6019      1.00000
    271       0.6020      1.00000
    272       0.6059      1.00000
    273       0.6079      1.00000
    274       0.6403      1.00000
    275       0.6508      1.00000
    276       0.6521      1.00000
    277       0.6619      1.00000
    278       0.6623      1.00000
    279       0.6654      1.00000
    280       0.6732      1.00000
    281       0.6747      1.00000
    282       0.6748      1.00000
    283       0.6961      1.00000
    284       0.7228      1.00000
    285       0.7833      1.00000
    286       0.8196      1.00000
    287       0.8299      1.00000
    288       0.8319      1.00000
    289       0.8322      1.00000
    290       0.8610      1.00000
    291       0.8613      1.00000
    292       0.9093      1.00000
    293       0.9401      1.00000
    294       0.9483      1.00000
    295       0.9485      1.00000
    296       0.9831      1.00000
    297       1.0261      1.00000
    298       1.0704      1.00000
    299       1.2693      1.00000
    300       1.2979      1.00000
    301       1.2984      1.00000
    302       1.3114      1.00000
    303       1.3330      1.00000
    304       1.3333      1.00000
    305       1.3379      1.00000
    306       1.3845      1.00000
    307       1.4053      1.00000
    308       1.4284      1.00000
    309       1.4668      1.00000
    310       1.4676      1.00000
    311       1.4683      1.00000
    312       1.4816      1.00000
    313       1.5108      1.00000
    314       1.5114      1.00000
    315       1.5414      1.00000
    316       1.5606      1.00000
    317       1.5769      1.00000
    318       1.6463      1.00000
    319       1.6552      1.00000
    320       1.7559      1.00000
    321       1.7564      1.00000
    322       1.7627      1.00000
    323       1.7784      1.00000
    324       1.8030      1.00000
    325       1.8032      1.00000
    326       1.8108      1.00000
    327       1.8232      1.00000
    328       1.8361      1.00000
    329       1.8367      1.00000
    330       1.8461      1.00000
    331       1.8468      1.00000
    332       1.8784      1.00000
    333       1.8901      1.00000
    334       1.9469      1.00000
    335       1.9933      1.00000
    336       1.9939      1.00000
    337       2.0059      1.00000
    338       2.0068      1.00000
    339       2.0101      1.00000
    340       2.0186      1.00000
    341       2.0201      1.00000
    342       2.0203      1.00000
    343       2.0397      1.00000
    344       2.0467      1.00000
    345       2.0468      1.00000
    346       2.0572      1.00000
    347       2.0686      1.00000
    348       2.0690      1.00000
    349       2.0916      1.00000
    350       2.1125      1.00000
    351       2.1907      1.00000
    352       2.1908      1.00000
    353       2.2462      1.00000
    354       2.2480      1.00000
    355       2.2709      1.00000
    356       2.2727      1.00000
    357       2.2845      1.00000
    358       2.4277      1.00000
    359       2.4658      1.00000
    360       2.4667      1.00000
    361       2.4776      1.00000
    362       2.5037      1.00000
    363       2.5277      1.00000
    364       2.5546      1.00000
    365       2.5921      1.00000
    366       2.6265      1.00000
    367       2.6268      1.00000
    368       2.6562      1.00000
    369       2.7382      1.00000
    370       2.7386      1.00000
    371       2.7609      1.00000
    372       2.7613      1.00000
    373       2.8338      1.00000
    374       2.8728      1.00000
    375       2.9267      1.00000
    376       2.9342      1.00000
    377       2.9348      1.00000
    378       2.9687      1.00000
    379       3.0272      1.00000
    380       3.0278      1.00000
    381       3.0618      1.00000
    382       3.0970      1.00000
    383       3.3081      1.00000
    384       3.3101      1.00000
    385       3.3477      1.00000
    386       3.3756      1.00000
    387       3.4215      1.00000
    388       3.4221      1.00000
    389       3.4406      1.00000
    390       3.4585      1.00000
    391       3.4585      1.00000
    392       3.5317      1.00000
    393       3.7479      1.00000
    394       3.8080      1.00000
    395       3.8093      1.00000
    396       3.8151      1.00000
    397       3.8153      1.00000
    398       3.8816      1.00000
    399       3.8834      1.00000
    400       3.9320      1.00000
    401       3.9352      1.00000
    402       3.9404      1.00000
    403       3.9406      1.00000
    404       4.0392      1.00000
    405       4.0399      1.00000
    406       4.0706      1.00000
    407       4.1385      1.00000
    408       4.1491      1.00000
    409       4.1513      1.00000
    410       4.3140      1.00000
    411       4.3187      1.00000
    412       4.3379      1.00000
    413       4.3579      1.00000
    414       4.3594      1.00000
    415       4.4289      1.00000
    416       4.4444      1.00000
    417       4.4460      1.00000
    418       4.4538      1.00000
    419       4.4560      1.00000
    420       4.4568      1.00000
    421       4.6362      1.00000
    422       4.6366      1.00000
    423       4.7318      1.00000
    424       4.7323      1.00000
    425       4.7638      1.00000
    426       4.7641      1.00000
    427       4.7692      1.00000
    428       4.7694      1.00000
    429       4.8105      1.00000
    430       4.8532      1.00000
    431       4.8533      1.00000
    432       4.8573      1.00000
    433       7.3436      0.00000
    434       8.1284      0.00000
    435       8.4449      0.00000
    436       8.6416      0.00000
    437       8.6435      0.00000
    438       8.8581      0.00000
    439       9.0843      0.00000
    440       9.0848      0.00000
    441       9.2603      0.00000
    442       9.2743      0.00000
    443       9.2889      0.00000
    444       9.2895      0.00000
    445       9.7257      0.00000
    446       9.7717      0.00000
    447       9.7723      0.00000
    448       9.7905      0.00000
    449       9.8530      0.00000
    450       9.8562      0.00000
    451       9.8591      0.00000
    452       9.8788      0.00000
    453       9.8893      0.00000
    454      10.0606      0.00000
    455      10.0829      0.00000
    456      10.1363      0.00000
    457      10.1366      0.00000
    458      10.3051      0.00000
    459      10.3071      0.00000
    460      10.4166      0.00000
    461      10.5267      0.00000
    462      10.5701      0.00000
    463      10.5718      0.00000
    464      10.5720      0.00000
    465      10.5780      0.00000
    466      10.5787      0.00000
    467      10.6756      0.00000
    468      10.9760      0.00000
    469      11.0192      0.00000
    470      11.0193      0.00000
    471      11.0399      0.00000
    472      11.0414      0.00000
    473      11.0767      0.00000
    474      11.1289      0.00000
    475      11.1780      0.00000
[...]
   0.243E-01 0.211E-01 -.259E+02   -.222E-01 -.190E-01 0.257E+02   -.130E-02 -.156E-02 0.251E+00   0.650E-04 -.122E-04 0.156E-04
   0.225E-01 -.720E-01 -.259E+02   -.221E-01 0.686E-01 0.257E+02   -.295E-04 0.158E-02 0.251E+00   -.816E-05 0.350E-04 -.811E-05
   -.115E-01 -.176E-01 -.259E+02   0.113E-01 0.171E-01 0.257E+02   0.211E-03 0.185E-03 0.250E+00   -.252E-04 -.301E-05 -.474E-05
   -.485E+00 -.148E+00 -.419E+02   0.458E+00 0.138E+00 0.419E+02   0.299E-01 0.194E-01 0.475E-05   -.113E-03 -.456E-04 0.494E-04
   0.297E-01 0.322E-01 -.421E+02   -.277E-01 -.297E-01 0.420E+02   -.146E-02 -.204E-02 0.105E-01   0.620E-04 -.174E-04 -.214E-04
   0.283E-01 -.593E-01 -.421E+02   -.277E-01 0.566E-01 0.421E+02   -.341E-03 0.883E-03 0.108E-01   -.299E-05 0.260E-04 0.532E-05
   -.431E-02 -.579E-02 -.421E+02   0.429E-02 0.600E-02 0.420E+02   -.910E-04 -.480E-03 0.110E-01   -.223E-04 -.149E-04 -.996E-05
   0.158E+02 0.148E+02 -.126E+03   -.161E+02 -.152E+02 0.131E+03   0.394E+00 0.382E+00 -.463E+01   -.762E-04 -.348E-04 0.279E-04
   0.160E+02 0.149E+02 -.126E+03   -.164E+02 -.152E+02 0.131E+03   0.375E+00 0.387E+00 -.463E+01   -.183E-03 -.165E-03 -.150E-03
   0.160E+02 0.148E+02 -.126E+03   -.164E+02 -.152E+02 0.131E+03   0.376E+00 0.387E+00 -.463E+01   -.193E-03 -.166E-03 0.202E-03
   0.158E+02 0.149E+02 -.126E+03   -.162E+02 -.152E+02 0.131E+03   0.394E+00 0.383E+00 -.463E+01   -.122E-03 -.298E-04 0.294E-04
   -.187E+02 -.127E+02 -.126E+03   0.193E+02 0.130E+02 0.130E+03   -.518E+00 -.409E+00 -.462E+01   0.974E-04 0.116E-02 -.104E-04
   -.159E+02 -.148E+02 -.126E+03   0.163E+02 0.152E+02 0.131E+03   -.391E+00 -.380E+00 -.463E+01   0.127E-04 0.109E-04 0.319E-04
   -.159E+02 -.150E+02 -.126E+03   0.163E+02 0.154E+02 0.131E+03   -.390E+00 -.370E+00 -.463E+01   0.695E-04 0.385E-04 0.149E-04
   -.159E+02 -.149E+02 -.126E+03   0.163E+02 0.153E+02 0.131E+03   -.390E+00 -.378E+00 -.463E+01   0.240E-05 -.232E-04 0.395E-04
   0.159E+02 -.149E+02 0.126E+03   -.163E+02 0.153E+02 -.131E+03   0.392E+00 -.380E+00 0.463E+01   -.484E-04 -.425E-04 -.578E-04
   0.159E+02 -.149E+02 0.126E+03   -.163E+02 0.153E+02 -.131E+03   0.387E+00 -.379E+00 0.463E+01   -.626E-04 0.331E-04 -.731E-05
   0.159E+02 -.149E+02 0.126E+03   -.163E+02 0.153E+02 -.131E+03   0.387E+00 -.379E+00 0.463E+01   0.680E-05 -.285E-04 -.729E-04
   0.159E+02 -.149E+02 0.126E+03   -.163E+02 0.153E+02 -.131E+03   0.392E+00 -.380E+00 0.463E+01   -.557E-04 -.769E-06 -.514E-04
   -.159E+02 0.150E+02 0.126E+03   0.163E+02 -.154E+02 -.131E+03   -.386E+00 0.375E+00 0.463E+01   0.121E-03 -.293E-04 -.562E-04
   -.159E+02 0.149E+02 0.126E+03   0.163E+02 -.153E+02 -.131E+03   -.389E+00 0.379E+00 0.463E+01   -.762E-05 0.199E-04 -.503E-04
   -.159E+02 0.149E+02 0.126E+03   0.163E+02 -.152E+02 -.131E+03   -.385E+00 0.389E+00 0.463E+01   0.562E-04 -.141E-04 -.375E-04
   -.159E+02 0.149E+02 0.126E+03   0.163E+02 -.153E+02 -.131E+03   -.387E+00 0.381E+00 0.463E+01   0.484E-04 0.363E-04 -.357E-04
   0.280E+02 0.282E+02 0.333E+02   -.284E+02 -.286E+02 -.339E+02   0.351E+00 0.351E+00 0.519E+00   0.651E-06 -.162E-03 -.466E-04
   0.280E+02 0.282E+02 0.333E+02   -.284E+02 -.286E+02 -.339E+02   0.350E+00 0.352E+00 0.518E+00   -.410E-04 -.157E-04 -.555E-05
   0.280E+02 0.281E+02 0.333E+02   -.284E+02 -.285E+02 -.339E+02   0.351E+00 0.358E+00 0.519E+00   -.251E-04 -.170E-04 -.581E-05
   0.280E+02 0.282E+02 0.333E+02   -.284E+02 -.285E+02 -.339E+02   0.350E+00 0.354E+00 0.519E+00   -.404E-04 0.107E-04 -.547E-05
   -.279E+02 -.282E+02 0.333E+02   0.283E+02 0.286E+02 -.338E+02   -.350E+00 -.354E+00 0.518E+00   0.214E-04 -.856E-05 0.114E-04
   -.279E+02 -.282E+02 0.333E+02   0.283E+02 0.286E+02 -.338E+02   -.348E+00 -.354E+00 0.519E+00   0.306E-04 -.160E-04 0.781E-05
   -.279E+02 -.282E+02 0.333E+02   0.283E+02 0.286E+02 -.338E+02   -.348E+00 -.354E+00 0.520E+00   0.195E-04 0.464E-05 -.213E-04
   -.279E+02 -.282E+02 0.333E+02   0.283E+02 0.286E+02 -.339E+02   -.350E+00 -.354E+00 0.518E+00   0.322E-04 0.163E-04 -.103E-04
   0.279E+02 -.281E+02 -.333E+02   -.283E+02 0.284E+02 0.338E+02   0.348E+00 -.360E+00 -.521E+00   -.308E-04 0.429E-04 0.334E-04
   0.279E+02 -.281E+02 -.333E+02   -.283E+02 0.284E+02 0.338E+02   0.348E+00 -.359E+00 -.517E+00   -.344E-04 0.477E-04 0.161E-04
   0.279E+02 -.283E+02 -.333E+02   -.283E+02 0.286E+02 0.338E+02   0.349E+00 -.351E+00 -.519E+00   -.105E-04 -.233E-04 0.354E-05
   0.279E+02 -.283E+02 -.333E+02   -.283E+02 0.286E+02 0.338E+02   0.349E+00 -.351E+00 -.519E+00   -.456E-04 -.165E-04 0.265E-04
   -.280E+02 0.280E+02 -.335E+02   0.284E+02 -.284E+02 0.341E+02   -.348E+00 0.375E+00 -.503E+00   0.822E-04 -.919E-04 -.138E-03
   -.280E+02 0.282E+02 -.334E+02   0.284E+02 -.285E+02 0.339E+02   -.351E+00 0.353E+00 -.518E+00   0.176E-04 0.901E-05 0.742E-05
   -.280E+02 0.280E+02 -.331E+02   0.284E+02 -.284E+02 0.337E+02   -.349E+00 0.374E+00 -.534E+00   0.729E-04 -.655E-04 0.147E-03
   -.280E+02 0.282E+02 -.333E+02   0.284E+02 -.285E+02 0.339E+02   -.351E+00 0.353E+00 -.519E+00   0.208E-04 0.692E-05 0.340E-04
   0.990E+01 0.171E+00 -.104E-01   -.100E+02 -.168E+00 0.919E-02   0.113E+00 -.465E-02 0.286E-02   -.363E-04 0.151E-03 -.274E-04
   0.990E+01 0.168E+00 -.802E-02   -.100E+02 -.167E+00 0.919E-02   0.113E+00 -.441E-02 -.248E-02   -.629E-04 0.145E-03 0.634E-05
   0.990E+01 -.101E-01 -.843E-02   -.100E+02 0.822E-02 0.876E-02   0.115E+00 0.297E-02 -.210E-03   -.251E-05 -.158E-04 0.197E-04
   0.990E+01 -.889E-02 -.889E-02   -.100E+02 0.698E-02 0.875E-02   0.115E+00 0.293E-02 0.238E-03   -.189E-04 -.147E-04 -.329E-04
   -.990E+01 -.106E+00 0.190E+00   0.100E+02 0.985E-01 -.185E+00   -.111E+00 0.137E-01 -.119E-01   -.246E-04 -.541E-04 0.630E-04
   -.990E+01 0.444E-01 0.170E-01   0.100E+02 -.447E-01 -.170E-01   -.116E+00 0.179E-03 -.253E-03   0.946E-05 0.149E-05 -.844E-05
   -.990E+01 -.106E+00 -.171E+00   0.100E+02 0.983E-01 0.166E+00   -.112E+00 0.139E-01 0.121E-01   -.287E-04 -.366E-04 -.827E-04
   -.990E+01 0.442E-01 0.554E-03   0.100E+02 -.445E-01 -.622E-03   -.116E+00 0.181E-03 0.135E-03   0.271E-05 0.777E-05 -.157E-04
   0.188E+02 0.189E+02 0.185E+03   -.178E+02 -.178E+02 -.183E+03   -.106E+01 -.109E+01 -.241E+01   -.277E-04 -.706E-05 -.225E-03
   0.192E+02 0.189E+02 0.185E+03   -.181E+02 -.178E+02 -.183E+03   -.107E+01 -.108E+01 -.240E+01   -.592E-04 -.421E-05 -.468E-04
   0.192E+02 0.188E+02 0.185E+03   -.181E+02 -.178E+02 -.183E+03   -.107E+01 -.108E+01 -.242E+01   0.240E-05 0.585E-04 -.308E-04
   0.189E+02 0.189E+02 0.185E+03   -.178E+02 -.178E+02 -.183E+03   -.106E+01 -.108E+01 -.241E+01   -.826E-04 0.648E-05 0.120E-03
   -.189E+02 -.174E+02 0.185E+03   0.179E+02 0.163E+02 -.182E+03   0.107E+01 0.104E+01 -.240E+01   0.953E-05 0.895E-04 -.722E-04
   -.189E+02 -.188E+02 0.185E+03   0.178E+02 0.177E+02 -.183E+03   0.106E+01 0.108E+01 -.241E+01   -.902E-05 -.179E-04 -.689E-04
   -.189E+02 -.191E+02 0.185E+03   0.178E+02 0.180E+02 -.183E+03   0.106E+01 0.110E+01 -.241E+01   0.377E-04 -.196E-04 -.330E-04
   -.189E+02 -.189E+02 0.185E+03   0.178E+02 0.179E+02 -.183E+03   0.106E+01 0.109E+01 -.241E+01   -.400E-04 0.487E-04 -.543E-04
   0.189E+02 -.189E+02 -.185E+03   -.178E+02 0.178E+02 0.183E+03   -.107E+01 0.108E+01 0.242E+01   0.713E-05 0.107E-03 0.194E-03
   0.189E+02 -.189E+02 -.185E+03   -.178E+02 0.178E+02 0.183E+03   -.106E+01 0.109E+01 0.241E+01   -.161E-04 0.381E-04 0.201E-03
   0.189E+02 -.189E+02 -.185E+03   -.178E+02 0.178E+02 0.183E+03   -.106E+01 0.108E+01 0.240E+01   0.297E-04 0.200E-03 -.817E-04
   0.189E+02 -.189E+02 -.185E+03   -.178E+02 0.178E+02 0.183E+03   -.106E+01 0.108E+01 0.241E+01   -.324E-04 0.239E-04 0.977E-04
   -.190E+02 0.191E+02 -.185E+03   0.180E+02 -.180E+02 0.183E+03   0.106E+01 -.109E+01 0.241E+01   0.932E-04 -.843E-04 0.152E-03
   -.190E+02 0.190E+02 -.185E+03   0.180E+02 -.179E+02 0.183E+03   0.106E+01 -.109E+01 0.241E+01   -.682E-04 -.101E-03 0.109E-03
   -.190E+02 0.189E+02 -.185E+03   0.180E+02 -.178E+02 0.183E+03   0.106E+01 -.108E+01 0.241E+01   0.146E-04 0.436E-04 0.982E-04
   -.190E+02 0.189E+02 -.185E+03   0.180E+02 -.178E+02 0.183E+03   0.106E+01 -.108E+01 0.241E+01   0.395E-04 0.379E-04 0.896E-04
   0.484E-01 -.191E-01 0.209E+03   -.471E-01 0.174E-01 -.211E+03   -.977E-03 0.169E-02 0.206E+01   0.111E-03 0.152E-03 -.111E-03
   -.491E-01 0.323E-01 0.209E+03   0.406E-01 -.244E-01 -.211E+03   0.704E-02 -.598E-02 0.207E+01   0.443E-04 -.982E-04 -.999E-04
   0.978E-03 -.125E+00 0.209E+03   -.158E-02 0.120E+00 -.211E+03   0.435E-03 0.466E-02 0.206E+01   0.159E-04 0.153E-05 -.534E-04
   0.537E-01 -.177E+00 0.209E+03   -.462E-01 0.165E+00 -.211E+03   -.631E-02 0.103E-01 0.206E+01   -.361E-04 -.127E-03 -.221E-04
   -.397E-01 0.567E-01 0.199E+03   0.315E-01 -.482E-01 -.201E+03   0.681E-02 -.654E-02 0.206E+01   0.123E-03 -.142E-03 -.247E-03
   0.462E-01 -.570E-02 0.199E+03   -.439E-01 0.490E-02 -.201E+03   -.170E-02 0.971E-03 0.206E+01   0.318E-04 0.686E-04 -.190E-03
   0.520E-01 -.165E+00 0.199E+03   -.440E-01 0.153E+00 -.201E+03   -.687E-02 0.102E-01 0.207E+01   0.165E-04 -.109E-03 -.227E-03
   0.975E-02 -.102E+00 0.199E+03   -.938E-02 0.975E-01 -.201E+03   -.346E-03 0.396E-02 0.206E+01   0.215E-04 0.557E-04 -.213E-03
   0.219E+01 -.803E+00 -.200E+03   -.210E+01 0.753E+00 0.202E+03   -.116E+00 0.785E-01 -.202E+01   -.360E-04 0.193E-03 -.486E-04
   -.126E+00 0.339E-01 -.199E+03   0.126E+00 -.305E-01 0.201E+03   -.362E-03 -.253E-02 -.206E+01   -.166E-03 0.406E-04 0.136E-03
   -.133E+00 -.385E+00 -.199E+03   0.127E+00 0.372E+00 0.201E+03   0.441E-02 0.103E-01 -.206E+01   0.101E-03 -.833E-04 0.146E-03
   0.302E-01 -.145E+00 -.199E+03   -.235E-01 0.135E+00 0.201E+03   -.526E-02 0.825E-02 -.206E+01   -.136E-03 0.801E-04 0.971E-04
   0.217E+01 -.759E+00 -.208E+03   -.208E+01 0.712E+00 0.210E+03   -.114E+00 0.743E-01 -.210E+01   -.178E-04 0.174E-03 0.206E-03
   -.124E+00 0.181E-01 -.209E+03   0.125E+00 -.151E-01 0.211E+03   -.105E-02 -.208E-02 -.207E+01   -.127E-03 -.100E-04 0.815E-04
   -.129E+00 -.398E+00 -.209E+03   0.124E+00 0.385E+00 0.211E+03   0.394E-02 0.104E-01 -.207E+01   0.692E-04 -.105E-03 0.226E-04
   0.345E-01 -.163E+00 -.209E+03   -.269E-01 0.153E+00 0.211E+03   -.605E-02 0.867E-02 -.206E+01   -.616E-04 0.322E-04 0.102E-03
 -----------------------------------------------------------------------------------------------
   0.311E+00 -.281E+00 -.141E-01   0.580E-13 -.563E-13 -.108E-11   -.310E+00 0.278E+00 0.143E-01   -.734E-03 0.115E-02 -.179E-03
 
 
 POSITION                                       TOTAL-FORCE (eV/Angst)
 -----------------------------------------------------------------------------------
      2.77841      5.21785      1.58925         0.000411      0.000603     -0.001011
      8.33453      5.21785      1.58910         0.000319      0.000487      0.000296
      2.77841     10.77658      1.58925        -0.000841     -0.000867      0.000702
      8.33453     10.77658      1.58910         0.000157     -0.000207     -0.000086
      0.00058      2.43861      1.89560         0.000146      0.000491     -0.000321
      5.55670      2.43861      1.89545         0.000241      0.000578      0.000728
      0.00058      7.99734      1.89560        -0.000036     -0.000255      0.000033
      5.55670      7.99734      1.89545        -0.000772     -0.000792     -0.000783
      2.78043      5.21797      8.30298         0.004359      0.010357      0.000644
      8.33655      5.21797      8.30283         0.000846      0.000489      0.000070
      2.78043     10.77670      8.30298         0.000354     -0.001791     -0.000057
      8.33655     10.77670      8.30283        -0.000011     -0.000316      0.000025
      0.00259      2.43849      8.60933         0.002761      0.009263     -0.002114
      5.55871      2.43849      8.60919         0.000684      0.000426      0.000125
      0.00259      7.99722      8.60933         0.000262     -0.001746      0.000057
      5.55871      7.99722      8.60919        -0.000128     -0.000269     -0.000015
     -1.37640      1.05960      8.18451         0.002202      0.000271      0.000235
      4.17971      1.05960      8.18437        -0.004200      0.003021      0.000660
     -1.37640      6.61833      8.18451        -0.004218      0.003200     -0.000886
      4.17971      6.61833      8.18437         0.002301      0.000416     -0.000260
      1.38116      3.82753      8.18442         0.039235     -0.107636     -0.003428
      6.93728      3.81753      8.18427        -0.000589     -0.000237     -0.000161
      1.38116      9.37626      8.18442        -0.000638      0.002924     -0.000053
      6.93728      9.37626      8.18427        -0.000672      0.000698     -0.000095
      1.39985      1.03817      2.01416         0.000919      0.000067      0.000298
      6.95597      1.03817      2.01401        -0.000567     -0.000085     -0.000294
      1.39985      6.59689      2.01416        -0.000466      0.000058      0.000293
      6.95597      6.59689      2.01401         0.000800     -0.000076      0.000223
      4.15741      3.83897      2.01406        -0.000278     -0.001546      0.000238
      9.71353      3.83897      2.01392        -0.000905     -0.000493      0.000008
      4.15741      9.39769      2.01406         0.000555      0.002725      0.000132
      9.71353      9.39769      2.01392        -0.000112      0.000303      0.000045
      1.40044      3.83812      3.78391         0.000104     -0.001441      0.000283
      6.95656      3.83812      3.78377        -0.000381     -0.000531     -0.000003
      1.40044      9.39685      3.78391        -0.000054      0.002382      0.000235
      6.95656      9.39685      3.78377        -0.000133      0.000304     -0.000000
      4.15774      1.03891      3.78384        -0.000318      0.000211      0.000153
      9.71386      1.03891      3.78369         0.000554     -0.000007      0.000449
      4.15774      6.59764      3.78384         0.000634     -0.000070      0.000537
      9.71386      6.59764      3.78369        -0.000425      0.000147     -0.000285
     -1.37674      3.81828      6.41474        -0.000421     -0.002334     -0.001616
      4.17938      3.81828      6.41460        -0.000765     -0.002116      0.001246
     -1.37674      9.37700      6.41474        -0.000168      0.001436     -0.000344
      4.17938      9.37700      6.41460         0.000022      0.001365     -0.000098
      1.38057      1.05876      6.41466         0.000748      0.009287      0.009047
      6.93668      1.05876      6.41452        -0.000357     -0.000148      0.000092
      1.38057      6.61748      6.41466         0.000448      0.009130     -0.008237
      6.93668      6.61748      6.41452        -0.000266     -0.000207     -0.000335
      1.38227      3.82822      0.00001        -0.001190     -0.002427      0.001646
      6.93839      3.82822     -0.00014        -0.001031     -0.002348     -0.001302
      1.38227      9.38694      0.00001         0.000037      0.001061      0.000140
      6.93839      9.38694     -0.00014         0.000019      0.001014      0.000071
      1.39874      1.04885     10.19857         0.001074      0.006145     -0.006520
      6.95485      1.04885     10.19843        -0.000346     -0.000092     -0.000274
      1.39874      6.60758     10.19857         0.000796      0.006138      0.006483
      6.95485      6.60758     10.19843        -0.000340     -0.000108      0.000051
     -1.25763      1.18232      6.18371        -0.002054      0.000290     -0.000479
      4.29848      1.18232      6.18356         0.001243     -0.000290     -0.001521
     -1.25763      6.74104      6.18371         0.001389     -0.000502      0.001947
      4.29848      6.74104      6.18356        -0.001518      0.000078      0.000384
      1.26131      3.69462      6.18369         0.000003      0.007535      0.003655
      6.81742      3.69462      6.18354         0.000773      0.000071      0.000178
      1.26131      9.25335      6.18369         0.000185     -0.004822     -0.000023
      6.81742      9.25335      6.18354         0.000291     -0.000236      0.000196
      1.51970      0.91526      4.01489        -0.000123      0.000171     -0.003314
      7.07582      0.91526      4.01474        -0.000101     -0.000075      0.000099
      1.51970      6.47399      4.01489        -0.000358      0.000634      0.002477
      7.07582      6.47399      4.01474        -0.000209      0.000027     -0.000209
      4.03864      3.96168      4.01487         0.000118      0.000556     -0.000678
      9.59476      3.96168      4.01472         0.000322      0.000247      0.000361
      4.03864      9.52041      4.01487         0.000211     -0.000565     -0.000117
      9.59476      9.52041      4.01472         0.000325     -0.000316      0.000019
      0.00035      5.21813      1.57032         0.000437      0.000221     -0.000163
      5.55647      5.21813      1.57017        -0.001327      0.001827     -0.000784
      0.00035     10.77686      1.57032        -0.000146     -0.000528      0.000009
      5.55647     10.77686      1.57017         0.001174     -0.001618      0.001346
      2.77849      2.43869      1.57537        -0.001268      0.001828      0.000673
      8.33461      2.43869      1.57522         0.000591      0.000259      0.000082
      2.77849      7.99742      1.57537         0.001217     -0.001703     -0.001597
      8.33461      7.99742      1.57522         0.000045     -0.000485      0.000072
      0.00252      5.21805      8.62321        -0.021416      0.028724      0.007569
      5.55864      5.21805      8.62307        -0.000301      0.000958     -0.000246
      0.00252     10.77678      8.62321        -0.001069     -0.002284     -0.000240
      5.55864     10.77678      8.62307         0.001318     -0.001613      0.000467
      2.78066      2.43877      8.62826        -0.020412      0.027532     -0.007002
      8.33677      2.43877      8.62811        -0.000164      0.000959      0.000351
      2.78066      7.99750      8.62826        -0.001009     -0.002156      0.000295
      8.33677      7.99750      8.62811         0.001472     -0.001579     -0.000474
 -----------------------------------------------------------------------------------
    total drift:                                0.000000     -0.001274      0.000057


--------------------------------------------------------------------------------------------------------



  FREE ENERGIE OF THE ION-ELECTRON SYSTEM (eV)
  ---------------------------------------------------
  free  energy   TOTEN  =      -489.21490778 eV

  energy  without entropy=     -489.21490778  energy(sigma->0) =     -489.21490778
 


--------------------------------------------------------------------------------------------------------


    POTLOK:  cpu time    3.3079: real time    3.3470


--------------------------------------------------------------------------------------------------------


     LOOP+:  cpu time 6477.9921: real time 6539.1238
    4ORBIT:  cpu time    0.0000: real time    0.0000

 total amount of memory used by VASP MPI-rank0  1233264. kBytes
=======================================================================

   base      :      30000. kBytes
   nonl-proj :      75226. kBytes
   fftplans  :      85054. kBytes
   grid      :      64684. kBytes
   one-center:        466. kBytes
   wavefun   :     977834. kBytes
 
  
  
 General timing and accounting informations for this job:
 ========================================================
  
                  Total CPU time used (sec):     6576.070
                            User time (sec):     6506.572
                          System time (sec):       69.498
                         Elapsed time (sec):     6657.470
  
                   Maximum memory used (kb):     1436060.
                   Average memory used (kb):           0.
  
                          Minor page faults:       942230
                          Major page faults:            6
                 Voluntary context switches:        63230
