<?xml version="1.0" encoding="ISO-8859-1"?>
<modeling>
 <generator>
  <i name="program" type="string">vasp </i>
  <i name="version" type="string">5.4.4.18Apr17-6-g9f103f2a35  </i>
  <i name="subversion" type="string">(build Oct 25 2017 14:42:18) complex            parallel </i>
  <i name="platform" type="string">LinuxIFC </i>
  <i name="date" type="string">2021 06 02 </i>
  <i name="time" type="string">15:42:03 </i>
 </generator>
 <incar>
  <i type="string" name="PREC">accurate</i>
  <i type="string" name="ALGO"> normal</i>
  <i type="logical" name="ADDGRID"> T  </i>
  <i type="int" name="ISPIN">     2</i>
  <i type="int" name="ICHARG">     1</i>
  <i type="int" name="NELM">   200</i>
  <i type="int" name="NELMIN">     8</i>
  <i name="EDIFF">      0.00000100</i>
  <i type="int" name="ISYM">     0</i>
  <i name="ENCUT">    650.00000000</i>
  <v name="MAGMOM">      0.60000000      0.60000000      0.60000000      0.60000000      0.60000000      0.60000000      0.60000000      0.60000000      0.60000000      0.60000000      0.60000000      0.60000000      0.60000000      0.60000000      0.60000000      0.60000000      0.60000000      0.60000000      0.60000000      0.60000000
      0.60000000      0.60000000      0.60000000      0.60000000      0.60000000      0.60000000      0.60000000      0.60000000      0.60000000      0.60000000      0.60000000      0.60000000      0.60000000      0.60000000      0.60000000      0.60000000      0.60000000      0.60000000      0.60000000      0.60000000
      0.60000000      0.60000000      0.60000000      0.60000000      0.60000000      0.60000000      0.60000000      0.60000000      0.60000000      0.60000000      0.60000000      0.60000000      0.60000000      0.60000000      0.60000000      0.60000000      5.00000000      5.00000000      5.00000000      5.00000000
      5.00000000      5.00000000      5.00000000      5.00000000      5.00000000      5.00000000      5.00000000      5.00000000      5.00000000      5.00000000      5.00000000      5.00000000      5.00000000      5.00000000      5.00000000      5.00000000      5.00000000      5.00000000      5.00000000      5.00000000
      5.00000000      5.00000000      5.00000000      5.00000000      5.00000000      5.00000000      5.00000000      5.00000000</v>
  <i type="logical" name="LREAL"> F  </i>
  <i type="int" name="ISMEAR">     0</i>
  <i name="SIGMA">      0.05000000</i>
  <i type="int" name="NWRITE">     1</i>
  <i type="int" name="LMAXMIX">     4</i>
  <i type="logical" name="LWAVE"> F  </i>
  <i type="logical" name="LASPH"> T  </i>
  <v type="int" name="KPOINT_BSE">    -1     0     0     0</v>
  <i type="int" name="NELM">   200</i>
  <i type="string" name="GGA"> pe</i>
  <i type="logical" name="LDAU"> T  </i>
  <v type="int" name="LDAUTYPE">     2</v>
  <v type="int" name="LDAUL">    -1    -1    -1     2</v>
  <v name="LDAUU">      0.00000000      0.00000000      0.00000000      4.00000000</v>
  <v name="LDAUJ">      0.00000000      0.00000000      0.00000000      0.00000000</v>
  <i type="logical" name="LASPH"> T  </i>
 </incar>
 <structure name="primitive_cell" >
  <crystal>
   <varray name="basis" >
    <v>      11.11223374       0.00000000      -0.00029034 </v>
    <v>       0.00000000      11.11745194       0.00000000 </v>
    <v>      -2.77510898       0.00000000      10.19872221 </v>
   </varray>
   <i name="volume">   1259.93837498 </i>
   <varray name="rec_basis" >
    <v>       0.08999155       0.00000000       0.02448702 </v>
    <v>       0.00000000       0.08994867       0.00000000 </v>
    <v>       0.00000256       0.00000000       0.09805220 </v>
   </varray>
  </crystal>
  <varray name="positions" >
   <v>       0.28894970       0.46933910       0.15583616 </v>
   <v>       0.17529533      -0.40661825       0.19749617 </v>
   <v>       0.42345029       0.34530995       0.19749407 </v>
   <v>       0.37560721      -0.40565694      -0.00000412 </v>
   <v>       0.12439279       0.34434306       0.00000412 </v>
   <v>      -0.46151602       0.46936404       0.15397331 </v>
   <v>       0.03848398       0.46936404       0.15397331 </v>
   <v>       0.28861657       0.21935690       0.15447525 </v>
   <v>       0.28861657      -0.28064310       0.15447525 </v>
   <v>       0.21868463       0.34523395       0.37102476 </v>
   <v>       0.46681660      -0.40655103       0.37102399 </v>
   <v>       0.23507288      -0.41767349       0.39367237 </v>
   <v>       0.46175575       0.35634799       0.39367694 </v>
   <v>       0.21138343       0.46935690      -0.15447525 </v>
   <v>       0.04646972       0.21934976       0.18586770 </v>
   <v>       0.04646972      -0.28065024       0.18586770 </v>
   <v>      -0.45353028       0.21934976       0.18586770 </v>
   <v>      -0.45353028      -0.28065024       0.18586770 </v>
   <v>       0.32470467       0.34428124      -0.19749617 </v>
   <v>       0.07654971      -0.40469005      -0.19749407 </v>
   <v>       0.21105030       0.21933910      -0.15583616 </v>
   <v>       0.21105030      -0.28066090      -0.15583616 </v>
   <v>      -0.07654971       0.34530995       0.19749407 </v>
   <v>      -0.32470467      -0.40661825       0.19749617 </v>
   <v>       0.17529533       0.09338175       0.19749617 </v>
   <v>       0.42345029      -0.15469005       0.19749407 </v>
   <v>       0.45353028       0.46934976      -0.18586770 </v>
   <v>      -0.04646972       0.46934976      -0.18586770 </v>
   <v>      -0.37560721       0.34434306       0.00000412 </v>
   <v>      -0.12439279      -0.40565694      -0.00000412 </v>
   <v>       0.37560721       0.09434306      -0.00000412 </v>
   <v>       0.12439279      -0.15565694       0.00000412 </v>
   <v>      -0.03318340      -0.40655103       0.37102399 </v>
   <v>      -0.28131537       0.34523395       0.37102476 </v>
   <v>       0.21868463      -0.15476605       0.37102476 </v>
   <v>       0.46681660       0.09344897       0.37102399 </v>
   <v>       0.46151602       0.21936404      -0.15397331 </v>
   <v>       0.46151602      -0.28063596      -0.15397331 </v>
   <v>      -0.03848398       0.21936404      -0.15397331 </v>
   <v>      -0.03848398      -0.28063596      -0.15397331 </v>
   <v>       0.26492712       0.33232651      -0.39367237 </v>
   <v>      -0.46175575      -0.39365201      -0.39367694 </v>
   <v>      -0.03824425       0.35634799       0.39367694 </v>
   <v>      -0.26492712      -0.41767349       0.39367237 </v>
   <v>       0.23507288       0.08232651       0.39367237 </v>
   <v>       0.46175575      -0.14365201       0.39367694 </v>
   <v>       0.28131537      -0.40476605      -0.37102476 </v>
   <v>      -0.46681660       0.34344897      -0.37102399 </v>
   <v>      -0.21105030       0.46933910       0.15583616 </v>
   <v>       0.28894970      -0.03066090       0.15583616 </v>
   <v>       0.32470467      -0.15661825      -0.19749617 </v>
   <v>       0.07654971       0.09530995      -0.19749407 </v>
   <v>      -0.42345029      -0.40469005      -0.19749407 </v>
   <v>      -0.17529533       0.34338175      -0.19749617 </v>
   <v>       0.03318340       0.34344897      -0.37102399 </v>
   <v>      -0.07654971      -0.15469005       0.19749407 </v>
   <v>      -0.32470467       0.09338175       0.19749617 </v>
   <v>       0.03824425      -0.39365201      -0.39367694 </v>
   <v>      -0.37560721      -0.15565694       0.00000412 </v>
   <v>      -0.12439279       0.09434306      -0.00000412 </v>
   <v>      -0.21138343       0.21935690       0.15447525 </v>
   <v>      -0.21138343      -0.28064310       0.15447525 </v>
   <v>      -0.46151602      -0.03063596       0.15397331 </v>
   <v>       0.03848398      -0.03063596       0.15397331 </v>
   <v>       0.26492712      -0.16767349      -0.39367237 </v>
   <v>      -0.46175575       0.10634799      -0.39367694 </v>
   <v>      -0.03318340       0.09344897       0.37102399 </v>
   <v>      -0.28131537      -0.15476605       0.37102476 </v>
   <v>      -0.23507288       0.33232651      -0.39367237 </v>
   <v>      -0.28861657       0.46935690      -0.15447525 </v>
   <v>       0.21138343      -0.03064310      -0.15447525 </v>
   <v>      -0.21868463      -0.40476605      -0.37102476 </v>
   <v>       0.28131537       0.09523395      -0.37102476 </v>
   <v>      -0.46681660      -0.15655103      -0.37102399 </v>
   <v>      -0.03824425      -0.14365201       0.39367694 </v>
   <v>      -0.26492712       0.08232651       0.39367237 </v>
   <v>      -0.42345029       0.09530995      -0.19749407 </v>
   <v>      -0.17529533      -0.15661825      -0.19749617 </v>
   <v>       0.03318340      -0.15655103      -0.37102399 </v>
   <v>      -0.28894970       0.21933910      -0.15583616 </v>
   <v>      -0.28894970      -0.28066090      -0.15583616 </v>
   <v>       0.03824425       0.10634799      -0.39367694 </v>
   <v>       0.45353028      -0.03065024      -0.18586770 </v>
   <v>      -0.04646972      -0.03065024      -0.18586770 </v>
   <v>      -0.23507288      -0.16767349      -0.39367237 </v>
   <v>      -0.21868463       0.09523395      -0.37102476 </v>
   <v>      -0.21105030      -0.03066090       0.15583616 </v>
   <v>      -0.28861657      -0.03064310      -0.15447525 </v>
  </varray>
 </structure>
 <varray name="primitive_index" >
  <v type="int" >        1 </v>
  <v type="int" >       27 </v>
  <v type="int" >       29 </v>
  <v type="int" >       55 </v>
  <v type="int" >       49 </v>
  <v type="int" >       74 </v>
  <v type="int" >       73 </v>
  <v type="int" >       77 </v>
  <v type="int" >       79 </v>
  <v type="int" >       33 </v>
  <v type="int" >       39 </v>
  <v type="int" >       67 </v>
  <v type="int" >       69 </v>
  <v type="int" >       81 </v>
  <v type="int" >        5 </v>
  <v type="int" >        7 </v>
  <v type="int" >        6 </v>
  <v type="int" >        8 </v>
  <v type="int" >       21 </v>
  <v type="int" >       19 </v>
  <v type="int" >       13 </v>
  <v type="int" >       15 </v>
  <v type="int" >       30 </v>
  <v type="int" >       28 </v>
  <v type="int" >       25 </v>
  <v type="int" >       31 </v>
  <v type="int" >        9 </v>
  <v type="int" >       10 </v>
  <v type="int" >       50 </v>
  <v type="int" >       56 </v>
  <v type="int" >       53 </v>
  <v type="int" >       51 </v>
  <v type="int" >       40 </v>
  <v type="int" >       34 </v>
  <v type="int" >       35 </v>
  <v type="int" >       37 </v>
  <v type="int" >       85 </v>
  <v type="int" >       87 </v>
  <v type="int" >       86 </v>
  <v type="int" >       88 </v>
  <v type="int" >       61 </v>
  <v type="int" >       60 </v>
  <v type="int" >       70 </v>
  <v type="int" >       68 </v>
  <v type="int" >       65 </v>
  <v type="int" >       71 </v>
  <v type="int" >       47 </v>
  <v type="int" >       42 </v>
  <v type="int" >        2 </v>
  <v type="int" >        3 </v>
  <v type="int" >       23 </v>
  <v type="int" >       17 </v>
  <v type="int" >       20 </v>
  <v type="int" >       22 </v>
  <v type="int" >       41 </v>
  <v type="int" >       32 </v>
  <v type="int" >       26 </v>
  <v type="int" >       59 </v>
  <v type="int" >       52 </v>
  <v type="int" >       54 </v>
  <v type="int" >       78 </v>
  <v type="int" >       80 </v>
  <v type="int" >       76 </v>
  <v type="int" >       75 </v>
  <v type="int" >       63 </v>
  <v type="int" >       58 </v>
  <v type="int" >       38 </v>
  <v type="int" >       36 </v>
  <v type="int" >       62 </v>
  <v type="int" >       82 </v>
  <v type="int" >       83 </v>
  <v type="int" >       48 </v>
  <v type="int" >       45 </v>
  <v type="int" >       44 </v>
  <v type="int" >       72 </v>
  <v type="int" >       66 </v>
  <v type="int" >       18 </v>
  <v type="int" >       24 </v>
  <v type="int" >       43 </v>
  <v type="int" >       14 </v>
  <v type="int" >       16 </v>
  <v type="int" >       57 </v>
  <v type="int" >       11 </v>
  <v type="int" >       12 </v>
  <v type="int" >       64 </v>
  <v type="int" >       46 </v>
  <v type="int" >        4 </v>
  <v type="int" >       84 </v>
 </varray>
 <kpoints>
  <generation param="Gamma">
   <v type="int" name="divisions">       3        3        3 </v>
   <v name="usershift">      0.00000000       0.00000000       0.00000000 </v>
   <v name="genvec1">      0.33333333       0.00000000       0.00000000 </v>
   <v name="genvec2">      0.00000000       0.33333333       0.00000000 </v>
   <v name="genvec3">      0.00000000       0.00000000       0.33333333 </v>
   <v name="shift">      0.00000000       0.00000000       0.00000000 </v>
  </generation>
  <varray name="kpointlist" >
   <v>       0.00000000       0.00000000       0.00000000 </v>
   <v>       0.33333333       0.00000000       0.00000000 </v>
   <v>       0.00000000       0.33333333       0.00000000 </v>
   <v>       0.33333333       0.33333333       0.00000000 </v>
   <v>      -0.33333333       0.33333333      -0.00000000 </v>
   <v>       0.00000000       0.00000000       0.33333333 </v>
   <v>       0.33333333       0.00000000       0.33333333 </v>
   <v>      -0.33333333       0.00000000       0.33333333 </v>
   <v>       0.00000000       0.33333333       0.33333333 </v>
   <v>       0.33333333       0.33333333       0.33333333 </v>
   <v>      -0.33333333       0.33333333       0.33333333 </v>
   <v>       0.00000000      -0.33333333       0.33333333 </v>
   <v>       0.33333333      -0.33333333       0.33333333 </v>
   <v>      -0.33333333      -0.33333333       0.33333333 </v>
  </varray>
  <varray name="weights" >
   <v>       0.03703704 </v>
   <v>       0.07407407 </v>
   <v>       0.07407407 </v>
   <v>       0.07407407 </v>
   <v>       0.07407407 </v>
   <v>       0.07407407 </v>
   <v>       0.07407407 </v>
   <v>       0.07407407 </v>
   <v>       0.07407407 </v>
   <v>       0.07407407 </v>
   <v>       0.07407407 </v>
   <v>       0.07407407 </v>
   <v>       0.07407407 </v>
   <v>       0.07407407 </v>
  </varray>
 </kpoints>
 <parameters>
  <separator name="general" >
   <i type="string" name="SYSTEM">unknown system</i>
   <i type="logical" name="LCOMPAT"> F  </i>
  </separator>
  <separator name="electronic" >
   <i type="string" name="PREC">accura</i>
   <i name="ENMAX">    650.00000000</i>
   <i name="ENAUG">    628.94500000</i>
   <i name="EDIFF">      0.00000100</i>
   <i type="int" name="IALGO">    38</i>
   <i type="int" name="IWAVPR">    10</i>
   <i type="int" name="NBANDS">   538</i>
   <i name="NELECT">    736.00000000</i>
   <i type="int" name="TURBO">     0</i>
   <i type="int" name="IRESTART">     0</i>
   <i type="int" name="NREBOOT">     0</i>
   <i type="int" name="NMIN">     0</i>
   <i name="EREF">      0.00000000</i>
   <separator name="electronic smearing" >
    <i type="int" name="ISMEAR">     0</i>
    <i name="SIGMA">      0.05000000</i>
    <i name="KSPACING">      0.50000000</i>
    <i type="logical" name="KGAMMA"> T  </i>
   </separator>
   <separator name="electronic projectors" >
    <i type="logical" name="LREAL"> F  </i>
    <v name="ROPT">      0.00000000      0.00000000      0.00000000      0.00000000</v>
    <i type="int" name="LMAXPAW">  -100</i>
    <i type="int" name="LMAXMIX">     4</i>
    <i type="logical" name="NLSPLINE"> F  </i>
   </separator>
   <separator name="electronic startup" >
    <i type="int" name="ISTART">     0</i>
    <i type="int" name="ICHARG">     1</i>
    <i type="int" name="INIWAV">     1</i>
   </separator>
   <separator name="electronic spin" >
    <i type="int" name="ISPIN">     2</i>
    <i type="logical" name="LNONCOLLINEAR"> F  </i>
    <v name="MAGMOM">      0.60000000      0.60000000      0.60000000      0.60000000      0.60000000      0.60000000      0.60000000      0.60000000      0.60000000      0.60000000      0.60000000      0.60000000      0.60000000      0.60000000      0.60000000      0.60000000      0.60000000      0.60000000      0.60000000      0.60000000
      0.60000000      0.60000000      0.60000000      0.60000000      0.60000000      0.60000000      0.60000000      0.60000000      0.60000000      0.60000000      0.60000000      0.60000000      0.60000000      0.60000000      0.60000000      0.60000000      0.60000000      0.60000000      0.60000000      0.60000000
      0.60000000      0.60000000      0.60000000      0.60000000      0.60000000      0.60000000      0.60000000      0.60000000      0.60000000      0.60000000      0.60000000      0.60000000      0.60000000      0.60000000      0.60000000      0.60000000      5.00000000      5.00000000      5.00000000      5.00000000
      5.00000000      5.00000000      5.00000000      5.00000000      5.00000000      5.00000000      5.00000000      5.00000000      5.00000000      5.00000000      5.00000000      5.00000000      5.00000000      5.00000000      5.00000000      5.00000000      5.00000000      5.00000000      5.00000000      5.00000000
      5.00000000      5.00000000      5.00000000      5.00000000      5.00000000      5.00000000      5.00000000      5.00000000</v>
    <i name="NUPDOWN">     -1.00000000</i>
    <i type="logical" name="LSORBIT"> F  </i>
    <v name="SAXIS">      0.00000000      0.00000000      1.00000000</v>
    <i type="logical" name="LSPIRAL"> F  </i>
    <v name="QSPIRAL">      0.00000000      0.00000000      0.00000000</v>
    <i type="logical" name="LZEROZ"> F  </i>
   </separator>
   <separator name="electronic exchange-correlation" >
    <i type="logical" name="LASPH"> T  </i>
    <i type="logical" name="LMETAGGA"> F  </i>
   </separator>
   <separator name="electronic convergence" >
    <i type="int" name="NELM">   200</i>
    <i type="int" name="NELMDL">     0</i>
    <i type="int" name="NELMIN">     8</i>
    <i name="ENINI">    650.00000000</i>
    <separator name="electronic convergence detail" >
     <i type="logical" name="LDIAG"> T  </i>
     <i type="logical" name="LSUBROT"> F  </i>
     <i name="WEIMIN">      0.00000000</i>
     <i name="EBREAK">      0.00000000</i>
     <i name="DEPER">      0.30000000</i>
     <i type="int" name="NRMM">     4</i>
     <i name="TIME">      0.40000000</i>
    </separator>
   </separator>
   <separator name="electronic mixer" >
    <i name="AMIX">      0.40000000</i>
    <i name="BMIX">      1.00000000</i>
    <i name="AMIN">      0.10000000</i>
    <i name="AMIX_MAG">      1.60000000</i>
    <i name="BMIX_MAG">      1.00000000</i>
    <separator name="electronic mixer details" >
     <i type="int" name="IMIX">     4</i>
     <i type="logical" name="MIXFIRST"> F  </i>
     <i type="int" name="MAXMIX">   -45</i>
     <i name="WC">    100.00000000</i>
     <i type="int" name="INIMIX">     1</i>
     <i type="int" name="MIXPRE">     1</i>
     <i type="int" name="MREMOVE">     5</i>
    </separator>
   </separator>
   <separator name="electronic dipolcorrection" >
    <i type="logical" name="LDIPOL"> F  </i>
    <i type="logical" name="LMONO"> F  </i>
    <i type="int" name="IDIPOL">     0</i>
    <i name="EPSILON">      1.00000000</i>
    <v name="DIPOL">   -100.00000000   -100.00000000   -100.00000000</v>
    <i name="EFIELD">      0.00000000</i>
   </separator>
  </separator>
  <separator name="grids" >
   <i type="int" name="NGX">    96</i>
   <i type="int" name="NGY">    96</i>
   <i type="int" name="NGZ">    90</i>
   <i type="int" name="NGXF">   192</i>
   <i type="int" name="NGYF">   192</i>
   <i type="int" name="NGZF">   180</i>
   <i type="logical" name="ADDGRID"> T  </i>
  </separator>
  <separator name="ionic" >
   <i type="int" name="NSW">     0</i>
   <i type="int" name="IBRION">    -1</i>
   <i type="int" name="MDALGO">     0</i>
   <i type="int" name="ISIF">     2</i>
   <i name="PSTRESS">      0.00000000</i>
   <i name="EDIFFG">      0.00001000</i>
   <i type="int" name="NFREE">     0</i>
   <i name="POTIM">      0.50000000</i>
   <i name="SMASS">     -3.00000000</i>
   <i name="SCALEE">      1.00000000</i>
  </separator>
  <separator name="ionic md" >
   <i name="TEBEG">      0.00010000</i>
   <i name="TEEND">      0.00010000</i>
   <i type="int" name="NBLOCK">     1</i>
   <i type="int" name="KBLOCK">     1</i>
   <i type="int" name="NPACO">   256</i>
   <i name="APACO">     16.00000000</i>
  </separator>
  <separator name="symmetry" >
   <i type="int" name="ISYM">     0</i>
   <i name="SYMPREC">      0.00001000</i>
  </separator>
  <separator name="dos" >
   <i type="int" name="LORBIT">     0</i>
   <v name="RWIGS">     -1.00000000     -1.00000000     -1.00000000     -1.00000000</v>
   <i type="int" name="NEDOS">   301</i>
   <i name="EMIN">     10.00000000</i>
   <i name="EMAX">    -10.00000000</i>
   <i name="EFERMI">      0.00000000</i>
  </separator>
  <separator name="writing" >
   <i type="int" name="NWRITE">     1</i>
   <i type="logical" name="LWAVE"> F  </i>
   <i type="logical" name="LDOWNSAMPLE"> F  </i>
   <i type="logical" name="LCHARG"> T  </i>
   <i type="logical" name="LPARD"> F  </i>
   <i type="logical" name="LVTOT"> F  </i>
   <i type="logical" name="LVHAR"> F  </i>
   <i type="logical" name="LELF"> F  </i>
   <i type="logical" name="LOPTICS"> F  </i>
   <v name="STM">      0.00000000      0.00000000      0.00000000      0.00000000      0.00000000      0.00000000      0.00000000</v>
  </separator>
  <separator name="performance" >
   <i type="int" name="NPAR">     2</i>
   <i type="int" name="NSIM">     4</i>
   <i type="int" name="NBLK">    -1</i>
   <i type="logical" name="LPLANE"> T  </i>
   <i type="logical" name="LSCALAPACK"> T  </i>
   <i type="logical" name="LSCAAWARE"> F  </i>
   <i type="logical" name="LSCALU"> F  </i>
   <i type="logical" name="LASYNC"> F  </i>
   <i type="logical" name="LORBITALREAL"> F  </i>
  </separator>
  <separator name="miscellaneous" >
   <i type="int" name="IDIOT">     3</i>
   <i type="int" name="ISPECIAL">     0</i>
   <i type="logical" name="LMUSIC"> F  </i>
   <v name="POMASS">      7.01000000     16.00000000     32.06600000     55.84700000</v>
   <v name="DARWINR">      0.00000000      0.00000000      0.00000000      0.00000000</v>
   <v name="DARWINV">      1.00000000      1.00000000      1.00000000      1.00000000</v>
   <i type="logical" name="LCORR"> T  </i>
  </separator>
  <i type="logical" name="GGA_COMPAT"> T  </i>
  <i type="logical" name="LBERRY"> F  </i>
  <i type="int" name="ICORELEVEL">     0</i>
  <i type="logical" name="LDAU"> T  </i>
  <v type="int" name="LDAUTYPE">     2</v>
  <v type="int" name="LDAUL">    -1</v>
  <v name="LDAUU">      0.00000000</v>
  <v name="LDAUJ">      0.00000000</v>
  <i type="int" name="LDAUPRINT">     0</i>
  <i type="int" name="I_CONSTRAINED_M">     0</i>
  <separator name="electronic exchange-correlation" >
   <i type="string" name="GGA">PE</i>
   <i type="int" name="VOSKOWN">     0</i>
   <i type="logical" name="LHFCALC"> F  </i>
   <i type="string" name="PRECFOCK"></i>
   <i type="logical" name="LSYMGRAD"> F  </i>
   <i type="logical" name="LHFONE"> F  </i>
   <i type="logical" name="LRHFCALC"> F  </i>
   <i type="logical" name="LTHOMAS"> F  </i>
   <i type="logical" name="LMODELHF"> F  </i>
   <i name="ENCUT4O">     -1.00000000</i>
   <i type="int" name="EXXOEP">     0</i>
   <i type="int" name="FOURORBIT">     0</i>
   <i name="AEXX">      0.00000000</i>
   <i name="HFALPHA">      0.00000000</i>
   <i name="MCALPHA">      0.00000000</i>
   <i name="ALDAX">      1.00000000</i>
   <i name="AGGAX">      1.00000000</i>
   <i name="ALDAC">      1.00000000</i>
   <i name="AGGAC">      1.00000000</i>
   <i type="int" name="NKREDX">     1</i>
   <i type="int" name="NKREDY">     1</i>
   <i type="int" name="NKREDZ">     1</i>
   <i type="logical" name="SHIFTRED"> F  </i>
   <i type="logical" name="ODDONLY"> F  </i>
   <i type="logical" name="EVENONLY"> F  </i>
   <i type="int" name="LMAXFOCK">     0</i>
   <i type="int" name="NMAXFOCKAE">     0</i>
   <i type="logical" name="LFOCKAEDFT"> F  </i>
   <i name="HFSCREEN">      0.00000000</i>
   <i name="HFSCREENC">      0.00000000</i>
   <i type="int" name="NBANDSGWLOW">     0</i>
  </separator>
  <separator name="vdW DFT" >
   <i type="logical" name="LUSE_VDW"> F  </i>
   <i name="Zab_VDW">     -0.84910000</i>
   <i name="PARAM1">      0.12340000</i>
   <i name="PARAM2">      1.00000000</i>
   <i name="PARAM3">      0.00000000</i>
  </separator>
  <separator name="model GW" >
   <i type="int" name="MODEL_GW">     0</i>
   <i name="MODEL_EPS0">      8.59048892</i>
   <i name="MODEL_ALPHA">      1.00000000</i>
  </separator>
  <separator name="linear response parameters" >
   <i type="logical" name="LEPSILON"> F  </i>
   <i type="logical" name="LRPA"> F  </i>
   <i type="logical" name="LNABLA"> F  </i>
   <i type="logical" name="LVEL"> F  </i>
   <i type="int" name="KINTER">     0</i>
   <i name="CSHIFT">      0.10000000</i>
   <i name="OMEGAMAX">     -1.00000000</i>
   <i name="DEG_THRESHOLD">      0.00200000</i>
   <i name="RTIME">     -0.10000000</i>
   <i name="WPLASMAI">      0.00000000</i>
   <v name="DFIELD">      0.00000000      0.00000000      0.00000000</v>
   <v name="WPLASMA">      0.00000000      0.00000000      0.00000000      0.00000000      0.00000000      0.00000000      0.00000000      0.00000000      0.00000000</v>
  </separator>
  <separator name="orbital magnetization" >
   <i type="logical" name="NUCIND"> F  </i>
   <v name="MAGPOS">      0.00000000      0.00000000      0.00000000</v>
   <i type="logical" name="LNICSALL"> T  </i>
   <i type="logical" name="ORBITALMAG"> F  </i>
   <i type="logical" name="LMAGBLOCH"> F  </i>
   <i type="logical" name="LCHIMAG"> F  </i>
   <i type="logical" name="LGAUGE"> T  </i>
   <i type="int" name="MAGATOM">     0</i>
   <v name="MAGDIPOL">      0.00000000      0.00000000      0.00000000</v>
   <v name="AVECCONST">      0.00000000      0.00000000      0.00000000</v>
  </separator>
  <separator name="response functions" >
   <i type="logical" name="LADDER"> F  </i>
   <i type="logical" name="LRPAFORCE"> F  </i>
   <i type="logical" name="LFXC"> F  </i>
   <i type="logical" name="LHARTREE"> T  </i>
   <i type="int" name="IBSE">     0</i>
   <v type="int" name="KPOINT">    -1     0     0     0</v>
   <i type="logical" name="LTCTE"> F  </i>
   <i type="logical" name="LTETE"> F  </i>
   <i type="logical" name="LTRIPLET"> F  </i>
   <i type="logical" name="LFXCEPS"> F  </i>
   <i type="logical" name="LFXHEG"> F  </i>
   <i type="int" name="NATURALO">     2</i>
   <i type="logical" name="L2ORDER"> F  </i>
   <i type="logical" name="LMP2LT"> F  </i>
   <i type="logical" name="LUSEW"> F  </i>
   <i name="ENCUTGW">     -2.00000000</i>
   <i name="ENCUTGWSOFT">     -2.00000000</i>
   <i name="ENCUTLF">     -1.00000000</i>
   <i type="int" name="LMAXMP2">    -1</i>
   <i name="SCISSOR">      0.00000000</i>
   <i type="int" name="NOMEGA">     0</i>
   <i type="int" name="NOMEGAR">     0</i>
   <i type="int" name="NBANDSGW">    -1</i>
   <i type="int" name="NBANDSO">    -1</i>
   <i type="int" name="NBANDSV">    -1</i>
   <i type="int" name="NELM">   200</i>
   <i type="int" name="NELMHF">     1</i>
   <i type="int" name="DIM">     3</i>
   <i type="int" name="ANTIRES">     0</i>
   <i name="OMEGAMAX">    -30.00000000</i>
   <i name="OMEGAMIN">    -30.00000000</i>
   <i name="OMEGATL">   -200.00000000</i>
   <i type="int" name="OMEGAGRID">   140</i>
   <i name="CSHIFT">     -0.10000000</i>
   <i type="logical" name="SELFENERGY"> F  </i>
   <i type="logical" name="LSPECTRAL"> F  </i>
   <i type="logical" name="LSPECTRALGW"> F  </i>
   <i type="logical" name="LSINGLES"> F  </i>
   <i type="logical" name="LFERMIGW"> F  </i>
   <i type="logical" name="ODDONLYGW"> F  </i>
   <i type="logical" name="EVENONLYGW"> F  </i>
   <i type="int" name="NKREDLFX">     1</i>
   <i type="int" name="NKREDLFY">     1</i>
   <i type="int" name="NKREDLFZ">     1</i>
   <i type="int" name="MAXMEM">  2800</i>
   <i type="int" name="TELESCOPE">     0</i>
   <i type="int" name="TAUPAR">     1</i>
   <i type="int" name="OMEGAPAR">    -1</i>
   <i name="LAMBDA">      1.00000000</i>
  </separator>
  <separator name="External order field" >
   <i name="OFIELD_KAPPA">      0.00000000</i>
   <v name="OFIELD_K">      0.00000000      0.00000000      0.00000000</v>
   <i name="OFIELD_Q6_NEAR">      0.00000000</i>
   <i name="OFIELD_Q6_FAR">      0.00000000</i>
   <i name="OFIELD_A">      0.00000000</i>
  </separator>
 </parameters>
 <atominfo>
  <atoms>      88 </atoms>
  <types>       4 </types>
  <array name="atoms" >
   <dimension dim="1">ion</dimension>
   <field type="string">element</field>
   <field type="int">atomtype</field>
   <set>
    <rc><c>Li</c><c>   1</c></rc>
    <rc><c>Li</c><c>   1</c></rc>
    <rc><c>Li</c><c>   1</c></rc>
    <rc><c>Li</c><c>   1</c></rc>
    <rc><c>Li</c><c>   1</c></rc>
    <rc><c>Li</c><c>   1</c></rc>
    <rc><c>Li</c><c>   1</c></rc>
    <rc><c>Li</c><c>   1</c></rc>
    <rc><c>Li</c><c>   1</c></rc>
    <rc><c>Li</c><c>   1</c></rc>
    <rc><c>Li</c><c>   1</c></rc>
    <rc><c>Li</c><c>   1</c></rc>
    <rc><c>Li</c><c>   1</c></rc>
    <rc><c>Li</c><c>   1</c></rc>
    <rc><c>Li</c><c>   1</c></rc>
    <rc><c>Li</c><c>   1</c></rc>
    <rc><c>O </c><c>   2</c></rc>
    <rc><c>O </c><c>   2</c></rc>
    <rc><c>O </c><c>   2</c></rc>
    <rc><c>O </c><c>   2</c></rc>
    <rc><c>O </c><c>   2</c></rc>
    <rc><c>O </c><c>   2</c></rc>
    <rc><c>O </c><c>   2</c></rc>
    <rc><c>O </c><c>   2</c></rc>
    <rc><c>O </c><c>   2</c></rc>
    <rc><c>O </c><c>   2</c></rc>
    <rc><c>O </c><c>   2</c></rc>
    <rc><c>O </c><c>   2</c></rc>
    <rc><c>O </c><c>   2</c></rc>
    <rc><c>O </c><c>   2</c></rc>
    <rc><c>O </c><c>   2</c></rc>
    <rc><c>O </c><c>   2</c></rc>
    <rc><c>S </c><c>   3</c></rc>
    <rc><c>S </c><c>   3</c></rc>
    <rc><c>S </c><c>   3</c></rc>
    <rc><c>S </c><c>   3</c></rc>
    <rc><c>S </c><c>   3</c></rc>
    <rc><c>S </c><c>   3</c></rc>
    <rc><c>S </c><c>   3</c></rc>
    <rc><c>S </c><c>   3</c></rc>
    <rc><c>S </c><c>   3</c></rc>
    <rc><c>S </c><c>   3</c></rc>
    <rc><c>S </c><c>   3</c></rc>
    <rc><c>S </c><c>   3</c></rc>
    <rc><c>S </c><c>   3</c></rc>
    <rc><c>S </c><c>   3</c></rc>
    <rc><c>S </c><c>   3</c></rc>
    <rc><c>S </c><c>   3</c></rc>
    <rc><c>S </c><c>   3</c></rc>
    <rc><c>S </c><c>   3</c></rc>
    <rc><c>S </c><c>   3</c></rc>
    <rc><c>S </c><c>   3</c></rc>
    <rc><c>S </c><c>   3</c></rc>
    <rc><c>S </c><c>   3</c></rc>
    <rc><c>S </c><c>   3</c></rc>
    <rc><c>S </c><c>   3</c></rc>
    <rc><c>Fe</c><c>   4</c></rc>
    <rc><c>Fe</c><c>   4</c></rc>
    <rc><c>Fe</c><c>   4</c></rc>
    <rc><c>Fe</c><c>   4</c></rc>
    <rc><c>Fe</c><c>   4</c></rc>
    <rc><c>Fe</c><c>   4</c></rc>
    <rc><c>Fe</c><c>   4</c></rc>
    <rc><c>Fe</c><c>   4</c></rc>
    <rc><c>Fe</c><c>   4</c></rc>
    <rc><c>Fe</c><c>   4</c></rc>
    <rc><c>Fe</c><c>   4</c></rc>
    <rc><c>Fe</c><c>   4</c></rc>
    <rc><c>Fe</c><c>   4</c></rc>
    <rc><c>Fe</c><c>   4</c></rc>
    <rc><c>Fe</c><c>   4</c></rc>
    <rc><c>Fe</c><c>   4</c></rc>
    <rc><c>Fe</c><c>   4</c></rc>
    <rc><c>Fe</c><c>   4</c></rc>
    <rc><c>Fe</c><c>   4</c></rc>
    <rc><c>Fe</c><c>   4</c></rc>
    <rc><c>Fe</c><c>   4</c></rc>
    <rc><c>Fe</c><c>   4</c></rc>
    <rc><c>Fe</c><c>   4</c></rc>
    <rc><c>Fe</c><c>   4</c></rc>
    <rc><c>Fe</c><c>   4</c></rc>
    <rc><c>Fe</c><c>   4</c></rc>
    <rc><c>Fe</c><c>   4</c></rc>
    <rc><c>Fe</c><c>   4</c></rc>
    <rc><c>Fe</c><c>   4</c></rc>
    <rc><c>Fe</c><c>   4</c></rc>
    <rc><c>Fe</c><c>   4</c></rc>
    <rc><c>Fe</c><c>   4</c></rc>
   </set>
  </array>
  <array name="atomtypes" >
   <dimension dim="1">type</dimension>
   <field type="int">atomspertype</field>
   <field type="string">element</field>
   <field>mass</field>
   <field>valence</field>
   <field type="string">pseudopotential</field>
   <set>
    <rc><c>  16</c><c>Li</c><c>      7.01000000</c><c>      3.00000000</c><c>  PAW_PBE Li_sv 10Sep2004               </c></rc>
    <rc><c>  16</c><c>O </c><c>     16.00000000</c><c>      6.00000000</c><c>  PAW_PBE O 08Apr2002                   </c></rc>
    <rc><c>  24</c><c>S </c><c>     32.06600000</c><c>      6.00000000</c><c>  PAW_PBE S 06Sep2000                   </c></rc>
    <rc><c>  32</c><c>Fe</c><c>     55.84700000</c><c>     14.00000000</c><c>  PAW_PBE Fe_pv 02Aug2007               </c></rc>
   </set>
  </array>
 </atominfo>
 <structure name="initialpos" >
  <crystal>
   <varray name="basis" >
    <v>      11.11223374       0.00000000      -0.00029034 </v>
    <v>       0.00000000      11.11745194       0.00000000 </v>
    <v>      -2.77510898       0.00000000      10.19872221 </v>
   </varray>
   <i name="volume">   1259.93837498 </i>
   <varray name="rec_basis" >
    <v>       0.08999155       0.00000000       0.02448702 </v>
    <v>       0.00000000       0.08994867       0.00000000 </v>
    <v>       0.00000256       0.00000000       0.09805220 </v>
   </varray>
  </crystal>
  <varray name="positions" >
   <v>       0.28894969       0.46933910       0.15583616 </v>
   <v>       0.78894969       0.46933910       0.15583616 </v>
   <v>       0.28894969       0.96933910       0.15583616 </v>
   <v>       0.78894969       0.96933910       0.15583616 </v>
   <v>       0.04646972       0.21934976       0.18586770 </v>
   <v>       0.54646972       0.21934976       0.18586770 </v>
   <v>       0.04646972       0.71934976       0.18586770 </v>
   <v>       0.54646972       0.71934976       0.18586770 </v>
   <v>       0.45353028       0.46934976       0.81413230 </v>
   <v>       0.95353028       0.46934976       0.81413230 </v>
   <v>       0.45353028       0.96934976       0.81413230 </v>
   <v>       0.95353028       0.96934976       0.81413230 </v>
   <v>       0.21105031       0.21933910       0.84416384 </v>
   <v>       0.71105031       0.21933910       0.84416384 </v>
   <v>       0.21105031       0.71933910       0.84416384 </v>
   <v>       0.71105031       0.71933910       0.84416384 </v>
   <v>       0.07654971       0.09530995       0.80250593 </v>
   <v>       0.57654971       0.09530995       0.80250593 </v>
   <v>       0.07654971       0.59530995       0.80250593 </v>
   <v>       0.57654971       0.59530995       0.80250593 </v>
   <v>       0.32470466       0.34428124       0.80250383 </v>
   <v>       0.82470466       0.34338175       0.80250383 </v>
   <v>       0.32470466       0.84338175       0.80250383 </v>
   <v>       0.82470466       0.84338175       0.80250383 </v>
   <v>       0.17529534       0.09338175       0.19749617 </v>
   <v>       0.67529534       0.09338175       0.19749617 </v>
   <v>       0.17529534       0.59338175       0.19749617 </v>
   <v>       0.67529534       0.59338175       0.19749617 </v>
   <v>       0.42345029       0.34530995       0.19749407 </v>
   <v>       0.92345029       0.34530995       0.19749407 </v>
   <v>       0.42345029       0.84530995       0.19749407 </v>
   <v>       0.92345029       0.84530995       0.19749407 </v>
   <v>       0.21868463       0.34523395       0.37102476 </v>
   <v>       0.71868463       0.34523395       0.37102476 </v>
   <v>       0.21868463       0.84523395       0.37102476 </v>
   <v>       0.71868463       0.84523395       0.37102476 </v>
   <v>       0.46681660       0.09344897       0.37102399 </v>
   <v>       0.96681660       0.09344897       0.37102399 </v>
   <v>       0.46681660       0.59344897       0.37102399 </v>
   <v>       0.96681660       0.59344897       0.37102399 </v>
   <v>       0.03318340       0.34344897       0.62897601 </v>
   <v>       0.53318340       0.34344897       0.62897601 </v>
   <v>       0.03318340       0.84344897       0.62897601 </v>
   <v>       0.53318340       0.84344897       0.62897601 </v>
   <v>       0.28131537       0.09523395       0.62897524 </v>
   <v>       0.78131537       0.09523395       0.62897524 </v>
   <v>       0.28131537       0.59523395       0.62897524 </v>
   <v>       0.78131537       0.59523395       0.62897524 </v>
   <v>       0.12439279       0.34434306       0.00000412 </v>
   <v>       0.62439279       0.34434306       0.00000412 </v>
   <v>       0.12439279       0.84434306       0.00000412 </v>
   <v>       0.62439279       0.84434306       0.00000412 </v>
   <v>       0.37560721       0.09434306       0.99999588 </v>
   <v>       0.87560721       0.09434306       0.99999588 </v>
   <v>       0.37560721       0.59434306       0.99999588 </v>
   <v>       0.87560721       0.59434306       0.99999588 </v>
   <v>       0.03824426       0.10634799       0.60632306 </v>
   <v>       0.53824426       0.10634799       0.60632306 </v>
   <v>       0.03824426       0.60634799       0.60632306 </v>
   <v>       0.53824426       0.60634799       0.60632306 </v>
   <v>       0.26492712       0.33232651       0.60632763 </v>
   <v>       0.76492712       0.33232651       0.60632763 </v>
   <v>       0.26492712       0.83232651       0.60632763 </v>
   <v>       0.76492712       0.83232651       0.60632763 </v>
   <v>       0.23507288       0.08232651       0.39367237 </v>
   <v>       0.73507288       0.08232651       0.39367237 </v>
   <v>       0.23507288       0.58232651       0.39367237 </v>
   <v>       0.73507288       0.58232651       0.39367237 </v>
   <v>       0.46175574       0.35634799       0.39367694 </v>
   <v>       0.96175574       0.35634799       0.39367694 </v>
   <v>       0.46175574       0.85634799       0.39367694 </v>
   <v>       0.96175574       0.85634799       0.39367694 </v>
   <v>       0.03848398       0.46936404       0.15397331 </v>
   <v>       0.53848398       0.46936404       0.15397331 </v>
   <v>       0.03848398       0.96936404       0.15397331 </v>
   <v>       0.53848398       0.96936404       0.15397331 </v>
   <v>       0.28861657       0.21935690       0.15447525 </v>
   <v>       0.78861657       0.21935690       0.15447525 </v>
   <v>       0.28861657       0.71935690       0.15447525 </v>
   <v>       0.78861657       0.71935690       0.15447525 </v>
   <v>       0.21138343       0.46935690       0.84552475 </v>
   <v>       0.71138343       0.46935690       0.84552475 </v>
   <v>       0.21138343       0.96935690       0.84552475 </v>
   <v>       0.71138343       0.96935690       0.84552475 </v>
   <v>       0.46151602       0.21936404       0.84602669 </v>
   <v>       0.96151602       0.21936404       0.84602669 </v>
   <v>       0.46151602       0.71936404       0.84602669 </v>
   <v>       0.96151602       0.71936404       0.84602669 </v>
  </varray>
 </structure>
 <calculation>
  <scstep>
   <time name="dav">  315.61  318.81</time>
   <time name="total">  318.94  322.22</time>
   <energy>
    <i name="alphaZ">   2314.49656628 </i>
    <i name="ewald"> -57723.18595193 </i>
    <i name="hartreedc"> -30348.73754233 </i>
    <i name="XCdc">   3229.29913178 </i>
    <i name="pawpsdc">  92679.89207989 </i>
    <i name="pawaedc"> -95535.38516353 </i>
    <i name="eentropy">     -0.01852969 </i>
    <i name="bandstr">    349.80826970 </i>
    <i name="atom">  95443.47970955 </i>
    <i name="e_fr_energy">  10409.64856972 </i>
    <i name="e_wo_entrp">  10409.66709941 </i>
    <i name="e_0_energy">  10409.65783456 </i>
   </energy>
  </scstep>
  <scstep>
   <time name="dav">  308.55  311.53</time>
   <time name="total">  308.55  311.54</time>
   <energy>
    <i name="e_fr_energy">   1177.48057897 </i>
    <i name="e_wo_entrp">   1177.54632228 </i>
    <i name="e_0_energy">   1177.51345062 </i>
   </energy>
  </scstep>
  <scstep>
   <time name="dav">  326.55  329.60</time>
   <time name="total">  326.56  329.60</time>
   <energy>
    <i name="e_fr_energy">   -308.16501930 </i>
    <i name="e_wo_entrp">   -308.16501930 </i>
    <i name="e_0_energy">   -308.16501930 </i>
   </energy>
  </scstep>
  <scstep>
   <time name="dav">  347.49  350.96</time>
   <time name="total">  347.49  350.96</time>
   <energy>
    <i name="e_fr_energy">   -476.30308998 </i>
    <i name="e_wo_entrp">   -476.30308998 </i>
    <i name="e_0_energy">   -476.30308998 </i>
   </energy>
  </scstep>
  <scstep>
   <time name="dav">  461.92  466.06</time>
   <time name="total">  471.06  475.38</time>
   <energy>
    <i name="e_fr_energy">   -488.73478483 </i>
    <i name="e_wo_entrp">   -488.73478483 </i>
    <i name="e_0_energy">   -488.73478483 </i>
   </energy>
  </scstep>
  <scstep>
   <time name="dav">  402.77  406.75</time>
   <time name="total">  415.34  419.47</time>
   <energy>
    <i name="e_fr_energy">   -489.20029735 </i>
    <i name="e_wo_entrp">   -489.20029735 </i>
    <i name="e_0_energy">   -489.20029735 </i>
   </energy>
  </scstep>
  <scstep>
   <time name="dav">  434.85  439.03</time>
   <time name="total">  447.39  451.74</time>
   <energy>
    <i name="e_fr_energy">   -489.21696940 </i>
    <i name="e_wo_entrp">   -489.21696940 </i>
    <i name="e_0_energy">   -489.21696940 </i>
   </energy>
  </scstep>
  <scstep>
   <time name="dav">  408.89  412.75</time>
   <time name="total">  421.37  425.47</time>
   <energy>
    <i name="e_fr_energy">   -489.21647703 </i>
    <i name="e_wo_entrp">   -489.21647703 </i>
    <i name="e_0_energy">   -489.21647703 </i>
   </energy>
  </scstep>
  <scstep>
   <time name="dav">  450.92  454.46</time>
   <time name="total">  463.51  467.17</time>
   <energy>
    <i name="e_fr_energy">   -489.21597493 </i>
    <i name="e_wo_entrp">   -489.21597493 </i>
    <i name="e_0_energy">   -489.21597493 </i>
   </energy>
  </scstep>
  <scstep>
   <time name="dav">  445.56  449.52</time>
   <time name="total">  458.08  462.12</time>
   <energy>
    <i name="e_fr_energy">   -489.21493951 </i>
    <i name="e_wo_entrp">   -489.21493951 </i>
    <i name="e_0_energy">   -489.21493951 </i>
   </energy>
  </scstep>
  <scstep>
   <time name="dav">  362.54  366.37</time>
   <time name="total">  375.02  379.04</time>
   <energy>
    <i name="e_fr_energy">   -489.21488332 </i>
    <i name="e_wo_entrp">   -489.21488332 </i>
    <i name="e_0_energy">   -489.21488332 </i>
   </energy>
  </scstep>
  <scstep>
   <time name="dav">  402.32  406.69</time>
   <time name="total">  415.02  419.46</time>
   <energy>
    <i name="e_fr_energy">   -489.21489662 </i>
    <i name="e_wo_entrp">   -489.21489662 </i>
    <i name="e_0_energy">   -489.21489662 </i>
   </energy>
  </scstep>
  <scstep>
   <time name="dav">  274.62  277.35</time>
   <time name="total">  287.32  290.12</time>
   <energy>
    <i name="e_fr_energy">   -489.21489905 </i>
    <i name="e_wo_entrp">   -489.21489905 </i>
    <i name="e_0_energy">   -489.21489905 </i>
   </energy>
  </scstep>
  <scstep>
   <time name="dav">  332.21  335.49</time>
   <time name="total">  344.89  348.23</time>
   <energy>
    <i name="e_fr_energy">   -489.21490937 </i>
    <i name="e_wo_entrp">   -489.21490937 </i>
    <i name="e_0_energy">   -489.21490937 </i>
   </energy>
  </scstep>
  <scstep>
   <time name="dav">  304.24  306.96</time>
   <time name="total">  316.98  319.73</time>
   <energy>
    <i name="e_fr_energy">   -489.21490704 </i>
    <i name="e_wo_entrp">   -489.21490704 </i>
    <i name="e_0_energy">   -489.21490704 </i>
   </energy>
  </scstep>
  <scstep>
   <time name="dav">  223.47  225.57</time>
   <time name="total">  226.78  228.90</time>
   <energy>
    <i name="alphaZ">   2314.49656628 </i>
    <i name="ewald"> -57723.18595193 </i>
    <i name="hartreedc"> -30348.72343736 </i>
    <i name="XCdc">   3229.29927385 </i>
    <i name="pawpsdc">  92679.37897625 </i>
    <i name="pawaedc"> -95534.86562673 </i>
    <i name="eentropy">     -0.00000000 </i>
    <i name="bandstr"> -10549.09441768 </i>
    <i name="atom">  95443.47970955 </i>
    <i name="e_fr_energy">   -489.21490778 </i>
    <i name="e_wo_entrp">   -489.21490778 </i>
    <i name="e_0_energy">   -489.21490778 </i>
   </energy>
  </scstep>
  <structure>
   <crystal>
    <varray name="basis" >
     <v>      11.11223374       0.00000000      -0.00029034 </v>
     <v>       0.00000000      11.11745194       0.00000000 </v>
     <v>      -2.77510898       0.00000000      10.19872221 </v>
    </varray>
    <i name="volume">   1259.93837498 </i>
    <varray name="rec_basis" >
     <v>       0.08999155       0.00000000       0.02448702 </v>
     <v>       0.00000000       0.08994867       0.00000000 </v>
     <v>       0.00000256       0.00000000       0.09805220 </v>
    </varray>
   </crystal>
   <varray name="positions" >
    <v>       0.28894969       0.46933910       0.15583616 </v>
    <v>       0.78894969       0.46933910       0.15583616 </v>
    <v>       0.28894969       0.96933910       0.15583616 </v>
    <v>       0.78894969       0.96933910       0.15583616 </v>
    <v>       0.04646972       0.21934976       0.18586770 </v>
    <v>       0.54646972       0.21934976       0.18586770 </v>
    <v>       0.04646972       0.71934976       0.18586770 </v>
    <v>       0.54646972       0.71934976       0.18586770 </v>
    <v>       0.45353028       0.46934976       0.81413230 </v>
    <v>       0.95353028       0.46934976       0.81413230 </v>
    <v>       0.45353028       0.96934976       0.81413230 </v>
    <v>       0.95353028       0.96934976       0.81413230 </v>
    <v>       0.21105031       0.21933910       0.84416384 </v>
    <v>       0.71105031       0.21933910       0.84416384 </v>
    <v>       0.21105031       0.71933910       0.84416384 </v>
    <v>       0.71105031       0.71933910       0.84416384 </v>
    <v>       0.07654971       0.09530995       0.80250593 </v>
    <v>       0.57654971       0.09530995       0.80250593 </v>
    <v>       0.07654971       0.59530995       0.80250593 </v>
    <v>       0.57654971       0.59530995       0.80250593 </v>
    <v>       0.32470466       0.34428124       0.80250383 </v>
    <v>       0.82470466       0.34338175       0.80250383 </v>
    <v>       0.32470466       0.84338175       0.80250383 </v>
    <v>       0.82470466       0.84338175       0.80250383 </v>
    <v>       0.17529534       0.09338175       0.19749617 </v>
    <v>       0.67529534       0.09338175       0.19749617 </v>
    <v>       0.17529534       0.59338175       0.19749617 </v>
    <v>       0.67529534       0.59338175       0.19749617 </v>
    <v>       0.42345029       0.34530995       0.19749407 </v>
    <v>       0.92345029       0.34530995       0.19749407 </v>
    <v>       0.42345029       0.84530995       0.19749407 </v>
    <v>       0.92345029       0.84530995       0.19749407 </v>
    <v>       0.21868463       0.34523395       0.37102476 </v>
    <v>       0.71868463       0.34523395       0.37102476 </v>
    <v>       0.21868463       0.84523395       0.37102476 </v>
    <v>       0.71868463       0.84523395       0.37102476 </v>
    <v>       0.46681660       0.09344897       0.37102399 </v>
    <v>       0.96681660       0.09344897       0.37102399 </v>
    <v>       0.46681660       0.59344897       0.37102399 </v>
    <v>       0.96681660       0.59344897       0.37102399 </v>
    <v>       0.03318340       0.34344897       0.62897601 </v>
    <v>       0.53318340       0.34344897       0.62897601 </v>
    <v>       0.03318340       0.84344897       0.62897601 </v>
    <v>       0.53318340       0.84344897       0.62897601 </v>
    <v>       0.28131537       0.09523395       0.62897524 </v>
    <v>       0.78131537       0.09523395       0.62897524 </v>
    <v>       0.28131537       0.59523395       0.62897524 </v>
    <v>       0.78131537       0.59523395       0.62897524 </v>
    <v>       0.12439279       0.34434306       0.00000412 </v>
    <v>       0.62439279       0.34434306       0.00000412 </v>
    <v>       0.12439279       0.84434306       0.00000412 </v>
    <v>       0.62439279       0.84434306       0.00000412 </v>
    <v>       0.37560721       0.09434306       0.99999588 </v>
    <v>       0.87560721       0.09434306       0.99999588 </v>
    <v>       0.37560721       0.59434306       0.99999588 </v>
    <v>       0.87560721       0.59434306       0.99999588 </v>
    <v>       0.03824426       0.10634799       0.60632306 </v>
    <v>       0.53824426       0.10634799       0.60632306 </v>
    <v>       0.03824426       0.60634799       0.60632306 </v>
    <v>       0.53824426       0.60634799       0.60632306 </v>
    <v>       0.26492712       0.33232651       0.60632763 </v>
    <v>       0.76492712       0.33232651       0.60632763 </v>
    <v>       0.26492712       0.83232651       0.60632763 </v>
    <v>       0.76492712       0.83232651       0.60632763 </v>
    <v>       0.23507288       0.08232651       0.39367237 </v>
    <v>       0.73507288       0.08232651       0.39367237 </v>
    <v>       0.23507288       0.58232651       0.39367237 </v>
    <v>       0.73507288       0.58232651       0.39367237 </v>
    <v>       0.46175574       0.35634799       0.39367694 </v>
    <v>       0.96175574       0.35634799       0.39367694 </v>
    <v>       0.46175574       0.85634799       0.39367694 </v>
    <v>       0.96175574       0.85634799       0.39367694 </v>
    <v>       0.03848398       0.46936404       0.15397331 </v>
    <v>       0.53848398       0.46936404       0.15397331 </v>
    <v>       0.03848398       0.96936404       0.15397331 </v>
    <v>       0.53848398       0.96936404       0.15397331 </v>
    <v>       0.28861657       0.21935690       0.15447525 </v>
    <v>       0.78861657       0.21935690       0.15447525 </v>
    <v>       0.28861657       0.71935690       0.15447525 </v>
    <v>       0.78861657       0.71935690       0.15447525 </v>
    <v>       0.21138343       0.46935690       0.84552475 </v>
    <v>       0.71138343       0.46935690       0.84552475 </v>
    <v>       0.21138343       0.96935690       0.84552475 </v>
    <v>       0.71138343       0.96935690       0.84552475 </v>
    <v>       0.46151602       0.21936404       0.84602669 </v>
    <v>       0.96151602       0.21936404       0.84602669 </v>
    <v>       0.46151602       0.71936404       0.84602669 </v>
    <v>       0.96151602       0.71936404       0.84602669 </v>
   </varray>
  </structure>
  <varray name="forces" >
   <v>       0.00041123       0.00060286      -0.00101054 </v>
   <v>       0.00031879       0.00048660       0.00029601 </v>
   <v>      -0.00084090      -0.00086651       0.00070197 </v>
   <v>       0.00015744      -0.00020716      -0.00008552 </v>
   <v>       0.00014560       0.00049089      -0.00032067 </v>
   <v>       0.00024081       0.00057827       0.00072848 </v>
   <v>      -0.00003555      -0.00025469       0.00003337 </v>
   <v>      -0.00077239      -0.00079163      -0.00078290 </v>
   <v>       0.00435884       0.01035687       0.00064393 </v>
   <v>       0.00084635       0.00048898       0.00006958 </v>
   <v>       0.00035436      -0.00179092      -0.00005657 </v>
   <v>      -0.00001140      -0.00031578       0.00002460 </v>
   <v>       0.00276140       0.00926322      -0.00211366 </v>
   <v>       0.00068432       0.00042589       0.00012515 </v>
   <v>       0.00026164      -0.00174589       0.00005686 </v>
   <v>      -0.00012756      -0.00026936      -0.00001472 </v>
   <v>       0.00220224       0.00027068       0.00023503 </v>
   <v>      -0.00420048       0.00302132       0.00065991 </v>
   <v>      -0.00421777       0.00320045      -0.00088624 </v>
   <v>       0.00230148       0.00041592      -0.00025995 </v>
   <v>       0.03923510      -0.10763582      -0.00342813 </v>
   <v>      -0.00058856      -0.00023726      -0.00016136 </v>
   <v>      -0.00063767       0.00292384      -0.00005311 </v>
   <v>      -0.00067158       0.00069804      -0.00009493 </v>
   <v>       0.00091860       0.00006702       0.00029836 </v>
   <v>      -0.00056662      -0.00008508      -0.00029359 </v>
   <v>      -0.00046649       0.00005794       0.00029261 </v>
   <v>       0.00079970      -0.00007589       0.00022304 </v>
   <v>      -0.00027752      -0.00154587       0.00023803 </v>
   <v>      -0.00090516      -0.00049305       0.00000802 </v>
   <v>       0.00055531       0.00272527       0.00013220 </v>
   <v>      -0.00011174       0.00030348       0.00004535 </v>
   <v>       0.00010389      -0.00144093       0.00028258 </v>
   <v>      -0.00038088      -0.00053072      -0.00000316 </v>
   <v>      -0.00005422       0.00238215       0.00023530 </v>
   <v>      -0.00013330       0.00030380      -0.00000048 </v>
   <v>      -0.00031837       0.00021145       0.00015269 </v>
   <v>       0.00055353      -0.00000739       0.00044866 </v>
   <v>       0.00063430      -0.00007023       0.00053668 </v>
   <v>      -0.00042465       0.00014741      -0.00028512 </v>
   <v>      -0.00042100      -0.00233374      -0.00161639 </v>
   <v>      -0.00076497      -0.00211633       0.00124583 </v>
   <v>      -0.00016781       0.00143625      -0.00034389 </v>
   <v>       0.00002180       0.00136469      -0.00009788 </v>
   <v>       0.00074847       0.00928664       0.00904701 </v>
   <v>      -0.00035710      -0.00014798       0.00009199 </v>
   <v>       0.00044802       0.00913008      -0.00823704 </v>
   <v>      -0.00026606      -0.00020726      -0.00033469 </v>
   <v>      -0.00118959      -0.00242740       0.00164586 </v>
   <v>      -0.00103115      -0.00234850      -0.00130177 </v>
   <v>       0.00003724       0.00106086       0.00013980 </v>
   <v>       0.00001931       0.00101401       0.00007059 </v>
   <v>       0.00107380       0.00614478      -0.00652045 </v>
   <v>      -0.00034573      -0.00009168      -0.00027443 </v>
   <v>       0.00079611       0.00613843       0.00648274 </v>
   <v>      -0.00033991      -0.00010817       0.00005110 </v>
   <v>      -0.00205360       0.00029015      -0.00047916 </v>
   <v>       0.00124295      -0.00028986      -0.00152100 </v>
   <v>       0.00138923      -0.00050244       0.00194651 </v>
   <v>      -0.00151839       0.00007798       0.00038429 </v>
   <v>       0.00000305       0.00753535       0.00365466 </v>
   <v>       0.00077264       0.00007064       0.00017814 </v>
   <v>       0.00018492      -0.00482162      -0.00002291 </v>
   <v>       0.00029099      -0.00023561       0.00019560 </v>
   <v>      -0.00012288       0.00017075      -0.00331371 </v>
   <v>      -0.00010147      -0.00007472       0.00009949 </v>
   <v>      -0.00035842       0.00063378       0.00247722 </v>
   <v>      -0.00020853       0.00002719      -0.00020903 </v>
   <v>       0.00011769       0.00055632      -0.00067817 </v>
   <v>       0.00032207       0.00024657       0.00036099 </v>
   <v>       0.00021075      -0.00056457      -0.00011704 </v>
   <v>       0.00032505      -0.00031607       0.00001913 </v>
   <v>       0.00043716       0.00022132      -0.00016277 </v>
   <v>      -0.00132679       0.00182652      -0.00078391 </v>
   <v>      -0.00014625      -0.00052757       0.00000939 </v>
   <v>       0.00117390      -0.00161764       0.00134585 </v>
   <v>      -0.00126845       0.00182817       0.00067334 </v>
   <v>       0.00059093       0.00025903       0.00008178 </v>
   <v>       0.00121737      -0.00170336      -0.00159663 </v>
   <v>       0.00004522      -0.00048493       0.00007194 </v>
   <v>      -0.02141636       0.02872425       0.00756892 </v>
   <v>      -0.00030111       0.00095764      -0.00024643 </v>
   <v>      -0.00106900      -0.00228364      -0.00024005 </v>
   <v>       0.00131790      -0.00161328       0.00046656 </v>
   <v>      -0.02041235       0.02753228      -0.00700181 </v>
   <v>      -0.00016449       0.00095915       0.00035136 </v>
   <v>      -0.00100925      -0.00215592       0.00029525 </v>
   <v>       0.00147197      -0.00157868      -0.00047394 </v>
  </varray>
  <varray name="stress" >
   <v>       2.14496208       0.00183019      -0.11606128 </v>
   <v>       0.00183210       1.88480433       0.01875778 </v>
   <v>      -0.11640266       0.01883261       0.49968544 </v>
  </varray>
  <energy>
   <i name="e_fr_energy">   -489.21490778 </i>
   <i name="e_wo_entrp">   -489.21490778 </i>
   <i name="e_0_energy">     -0.00000000 </i>
  </energy>
  <time name="totalsc"> 6477.99 6539.12</time>
  <eigenvalues>
   <array>
    <dimension dim="1">band</dimension>
    <dimension dim="2">kpoint</dimension>
    <dimension dim="3">spin</dimension>
    <field>eigene</field>
    <field>occ</field>
    <set>
     <set comment="spin 1">
      <set comment="kpoint 1">
       <r>  -51.0582    1.0000 </r>
       <r>  -51.0555    1.0000 </r>
       <r>  -51.0550    1.0000 </r>
       <r>  -51.0547    1.0000 </r>
       <r>  -51.0543    1.0000 </r>
       <r>  -51.0539    1.0000 </r>
       <r>  -51.0538    1.0000 </r>
       <r>  -51.0535    1.0000 </r>
       <r>  -51.0531    1.0000 </r>
       <r>  -51.0527    1.0000 </r>
       <r>  -51.0524    1.0000 </r>
       <r>  -51.0523    1.0000 </r>
       <r>  -51.0520    1.0000 </r>
       <r>  -51.0511    1.0000 </r>
       <r>  -51.0508    1.0000 </r>
       <r>  -51.0500    1.0000 </r>
       <r>  -51.0497    1.0000 </r>
       <r>  -51.0450    1.0000 </r>
       <r>  -51.0448    1.0000 </r>
       <r>  -51.0447    1.0000 </r>
       <r>  -51.0445    1.0000 </r>
       <r>  -51.0439    1.0000 </r>
       <r>  -51.0438    1.0000 </r>
       <r>  -51.0429    1.0000 </r>
       <r>  -51.0406    1.0000 </r>
       <r>  -51.0396    1.0000 </r>
       <r>  -51.0395    1.0000 </r>
       <r>  -51.0388    1.0000 </r>
       <r>  -51.0387    1.0000 </r>
       <r>  -51.0385    1.0000 </r>
       <r>  -51.0383    1.0000 </r>
       <r>  -51.0312    1.0000 </r>
       <r>  -49.7063    1.0000 </r>
       <r>  -49.7028    1.0000 </r>
       <r>  -49.7024    1.0000 </r>
       <r>  -49.7023    1.0000 </r>
       <r>  -49.7020    1.0000 </r>
       <r>  -49.7017    1.0000 </r>
       <r>  -49.7014    1.0000 </r>
       <r>  -49.7003    1.0000 </r>
       <r>  -49.6953    1.0000 </r>
       <r>  -49.6942    1.0000 </r>
       <r>  -49.6940    1.0000 </r>
       <r>  -49.6935    1.0000 </r>
       <r>  -49.6933    1.0000 </r>
       <r>  -49.6933    1.0000 </r>
       <r>  -49.6927    1.0000 </r>
       <r>  -49.6889    1.0000 </r>
       <r>  -49.5991    1.0000 </r>
       <r>  -49.5982    1.0000 </r>
       <r>  -49.5981    1.0000 </r>
       <r>  -49.5978    1.0000 </r>
       <r>  -49.5974    1.0000 </r>
       <r>  -49.5973    1.0000 </r>
       <r>  -49.5971    1.0000 </r>
       <r>  -49.5970    1.0000 </r>
       <r>  -49.5965    1.0000 </r>
       <r>  -49.5963    1.0000 </r>
       <r>  -49.5963    1.0000 </r>
       <r>  -49.5960    1.0000 </r>
       <r>  -49.5960    1.0000 </r>
       <r>  -49.5956    1.0000 </r>
       <r>  -49.5952    1.0000 </r>
       <r>  -49.5948    1.0000 </r>
       <r>  -49.5678    1.0000 </r>
       <r>  -49.5671    1.0000 </r>
       <r>  -49.5668    1.0000 </r>
       <r>  -49.5664    1.0000 </r>
       <r>  -49.5661    1.0000 </r>
       <r>  -49.5658    1.0000 </r>
       <r>  -49.5655    1.0000 </r>
       <r>  -49.5651    1.0000 </r>
       <r>  -49.5651    1.0000 </r>
       <r>  -49.5648    1.0000 </r>
       <r>  -49.5646    1.0000 </r>
       <r>  -49.5643    1.0000 </r>
       <r>  -49.5639    1.0000 </r>
       <r>  -49.5638    1.0000 </r>
       <r>  -49.5632    1.0000 </r>
       <r>  -49.5630    1.0000 </r>
       <r>  -49.5555    1.0000 </r>
       <r>  -49.5550    1.0000 </r>
       <r>  -49.5549    1.0000 </r>
       <r>  -49.5546    1.0000 </r>
       <r>  -49.5542    1.0000 </r>
       <r>  -49.5539    1.0000 </r>
       <r>  -49.5527    1.0000 </r>
       <r>  -49.5507    1.0000 </r>
       <r>  -49.5425    1.0000 </r>
       <r>  -49.5409    1.0000 </r>
       <r>  -49.5396    1.0000 </r>
       <r>  -49.5394    1.0000 </r>
       <r>  -49.5389    1.0000 </r>
       <r>  -49.5387    1.0000 </r>
       <r>  -49.5386    1.0000 </r>
       <r>  -49.5381    1.0000 </r>
       <r>  -39.8766    1.0000 </r>
       <r>  -39.8665    1.0000 </r>
       <r>  -39.8663    1.0000 </r>
       <r>  -39.8658    1.0000 </r>
       <r>  -39.8656    1.0000 </r>
       <r>  -39.8651    1.0000 </r>
       <r>  -39.8651    1.0000 </r>
       <r>  -39.8650    1.0000 </r>
       <r>  -39.8644    1.0000 </r>
       <r>  -39.8643    1.0000 </r>
       <r>  -39.8643    1.0000 </r>
       <r>  -39.8636    1.0000 </r>
       <r>  -39.8635    1.0000 </r>
       <r>  -39.8633    1.0000 </r>
       <r>  -39.8630    1.0000 </r>
       <r>  -39.8519    1.0000 </r>
       <r>  -13.2248    1.0000 </r>
       <r>  -13.2247    1.0000 </r>
       <r>  -13.2104    1.0000 </r>
       <r>  -13.1835    1.0000 </r>
       <r>  -13.1013    1.0000 </r>
       <r>  -13.0991    1.0000 </r>
       <r>  -13.0986    1.0000 </r>
       <r>  -13.0928    1.0000 </r>
       <r>  -13.0863    1.0000 </r>
       <r>  -13.0802    1.0000 </r>
       <r>  -13.0799    1.0000 </r>
       <r>  -13.0774    1.0000 </r>
       <r>  -12.9881    1.0000 </r>
       <r>  -12.9773    1.0000 </r>
       <r>  -12.9418    1.0000 </r>
       <r>  -12.9417    1.0000 </r>
       <r>   -7.6454    1.0000 </r>
       <r>   -7.4069    1.0000 </r>
       <r>   -7.3264    1.0000 </r>
       <r>   -7.3261    1.0000 </r>
       <r>   -7.3108    1.0000 </r>
       <r>   -7.3093    1.0000 </r>
       <r>   -7.3082    1.0000 </r>
       <r>   -7.3063    1.0000 </r>
       <r>   -7.1696    1.0000 </r>
       <r>   -7.1573    1.0000 </r>
       <r>   -7.1238    1.0000 </r>
       <r>   -7.1238    1.0000 </r>
       <r>   -7.0366    1.0000 </r>
       <r>   -7.0220    1.0000 </r>
       <r>   -7.0021    1.0000 </r>
       <r>   -7.0021    1.0000 </r>
       <r>   -6.9409    1.0000 </r>
       <r>   -6.9409    1.0000 </r>
       <r>   -6.8873    1.0000 </r>
       <r>   -6.8872    1.0000 </r>
       <r>   -6.8656    1.0000 </r>
       <r>   -6.8616    1.0000 </r>
       <r>   -6.8345    1.0000 </r>
       <r>   -6.8038    1.0000 </r>
       <r>   -1.9357    1.0000 </r>
       <r>   -1.9353    1.0000 </r>
       <r>   -1.9105    1.0000 </r>
       <r>   -1.8935    1.0000 </r>
       <r>   -1.6666    1.0000 </r>
       <r>   -1.6661    1.0000 </r>
       <r>   -1.6585    1.0000 </r>
       <r>   -1.6573    1.0000 </r>
       <r>   -1.5995    1.0000 </r>
       <r>   -1.5982    1.0000 </r>
       <r>   -1.5866    1.0000 </r>
       <r>   -1.5857    1.0000 </r>
       <r>   -1.2982    1.0000 </r>
       <r>   -1.1750    1.0000 </r>
       <r>   -1.1744    1.0000 </r>
       <r>   -1.1135    1.0000 </r>
       <r>   -1.1128    1.0000 </r>
       <r>   -1.1071    1.0000 </r>
       <r>   -1.0493    1.0000 </r>
       <r>   -0.9809    1.0000 </r>
       <r>   -0.9646    1.0000 </r>
       <r>   -0.9594    1.0000 </r>
       <r>   -0.9579    1.0000 </r>
       <r>   -0.9573    1.0000 </r>
       <r>   -0.9472    1.0000 </r>
       <r>   -0.9451    1.0000 </r>
       <r>   -0.9228    1.0000 </r>
       <r>   -0.8712    1.0000 </r>
       <r>   -0.8711    1.0000 </r>
       <r>   -0.8039    1.0000 </r>
       <r>   -0.8026    1.0000 </r>
       <r>   -0.8023    1.0000 </r>
       <r>   -0.7753    1.0000 </r>
       <r>   -0.7742    1.0000 </r>
       <r>   -0.7740    1.0000 </r>
       <r>   -0.7604    1.0000 </r>
       <r>   -0.7166    1.0000 </r>
       <r>   -0.7166    1.0000 </r>
       <r>   -0.7065    1.0000 </r>
       <r>   -0.7049    1.0000 </r>
       <r>   -0.6991    1.0000 </r>
       <r>   -0.6990    1.0000 </r>
       <r>   -0.6090    1.0000 </r>
       <r>   -0.6086    1.0000 </r>
       <r>   -0.5617    1.0000 </r>
       <r>   -0.5612    1.0000 </r>
       <r>   -0.5495    1.0000 </r>
       <r>   -0.5480    1.0000 </r>
       <r>   -0.4083    1.0000 </r>
       <r>   -0.4079    1.0000 </r>
       <r>   -0.3572    1.0000 </r>
       <r>   -0.3483    1.0000 </r>
       <r>   -0.3296    1.0000 </r>
       <r>   -0.3293    1.0000 </r>
       <r>   -0.2992    1.0000 </r>
       <r>   -0.2985    1.0000 </r>
       <r>   -0.2814    1.0000 </r>
       <r>   -0.2692    1.0000 </r>
       <r>   -0.2628    1.0000 </r>
       <r>   -0.2557    1.0000 </r>
       <r>   -0.2550    1.0000 </r>
       <r>   -0.2090    1.0000 </r>
       <r>   -0.2081    1.0000 </r>
       <r>   -0.1891    1.0000 </r>
       <r>   -0.1867    1.0000 </r>
       <r>   -0.1865    1.0000 </r>
       <r>   -0.1757    1.0000 </r>
       <r>   -0.1583    1.0000 </r>
       <r>   -0.1258    1.0000 </r>
       <r>   -0.1257    1.0000 </r>
       <r>   -0.1093    1.0000 </r>
       <r>   -0.0710    1.0000 </r>
       <r>   -0.0705    1.0000 </r>
       <r>   -0.0605    1.0000 </r>
       <r>   -0.0432    1.0000 </r>
       <r>   -0.0177    1.0000 </r>
       <r>   -0.0174    1.0000 </r>
       <r>   -0.0113    1.0000 </r>
       <r>    0.0016    1.0000 </r>
       <r>    0.0017    1.0000 </r>
       <r>    0.0462    1.0000 </r>
       <r>    0.0493    1.0000 </r>
       <r>    0.0502    1.0000 </r>
       <r>    0.0909    1.0000 </r>
       <r>    0.0930    1.0000 </r>
       <r>    0.1182    1.0000 </r>
       <r>    0.1186    1.0000 </r>
       <r>    0.1576    1.0000 </r>
       <r>    0.1628    1.0000 </r>
       <r>    0.1766    1.0000 </r>
       <r>    0.1788    1.0000 </r>
       <r>    0.1813    1.0000 </r>
       <r>    0.1821    1.0000 </r>
       <r>    0.1852    1.0000 </r>
       <r>    0.1894    1.0000 </r>
       <r>    0.1933    1.0000 </r>
       <r>    0.1948    1.0000 </r>
       <r>    0.2010    1.0000 </r>
       <r>    0.2011    1.0000 </r>
       <r>    0.2388    1.0000 </r>
       <r>    0.2510    1.0000 </r>
       <r>    0.2569    1.0000 </r>
       <r>    0.2573    1.0000 </r>
       <r>    0.2769    1.0000 </r>
       <r>    0.3373    1.0000 </r>
       <r>    0.3473    1.0000 </r>
       <r>    0.3586    1.0000 </r>
       <r>    0.3591    1.0000 </r>
       <r>    0.3604    1.0000 </r>
       <r>    0.3609    1.0000 </r>
       <r>    0.3887    1.0000 </r>
       <r>    0.4014    1.0000 </r>
       <r>    0.4524    1.0000 </r>
       <r>    0.4527    1.0000 </r>
       <r>    0.5785    1.0000 </r>
       <r>    0.5792    1.0000 </r>
       <r>    0.5853    1.0000 </r>
       <r>    0.6019    1.0000 </r>
       <r>    0.6020    1.0000 </r>
       <r>    0.6059    1.0000 </r>
       <r>    0.6079    1.0000 </r>
       <r>    0.6403    1.0000 </r>
       <r>    0.6508    1.0000 </r>
       <r>    0.6521    1.0000 </r>
       <r>    0.6619    1.0000 </r>
       <r>    0.6623    1.0000 </r>
       <r>    0.6654    1.0000 </r>
       <r>    0.6732    1.0000 </r>
       <r>    0.6747    1.0000 </r>
       <r>    0.6748    1.0000 </r>
       <r>    0.6961    1.0000 </r>
       <r>    0.7228    1.0000 </r>
       <r>    0.7833    1.0000 </r>
       <r>    0.8196    1.0000 </r>
       <r>    0.8299    1.0000 </r>
       <r>    0.8319    1.0000 </r>
       <r>    0.8322    1.0000 </r>
       <r>    0.8610    1.0000 </r>
       <r>    0.8613    1.0000 </r>
       <r>    0.9093    1.0000 </r>
       <r>    0.9401    1.0000 </r>
       <r>    0.9483    1.0000 </r>
       <r>    0.9485    1.0000 </r>
       <r>    0.9831    1.0000 </r>
       <r>    1.0261    1.0000 </r>
       <r>    1.0704    1.0000 </r>
       <r>    1.2693    1.0000 </r>
       <r>    1.2979    1.0000 </r>
       <r>    1.2984    1.0000 </r>
       <r>    1.3114    1.0000 </r>
       <r>    1.3330    1.0000 </r>
       <r>    1.3333    1.0000 </r>
       <r>    1.3379    1.0000 </r>
       <r>    1.3845    1.0000 </r>
       <r>    1.4053    1.0000 </r>
       <r>    1.4284    1.0000 </r>
       <r>    1.4668    1.0000 </r>
       <r>    1.4676    1.0000 </r>
       <r>    1.4683    1.0000 </r>
       <r>    1.4816    1.0000 </r>
       <r>    1.5108    1.0000 </r>
       <r>    1.5114    1.0000 </r>
       <r>    1.5414    1.0000 </r>
       <r>    1.5606    1.0000 </r>
       <r>    1.5769    1.0000 </r>
       <r>    1.6463    1.0000 </r>
       <r>    1.6552    1.0000 </r>
       <r>    1.7559    1.0000 </r>
       <r>    1.7564    1.0000 </r>
       <r>    1.7627    1.0000 </r>
       <r>    1.7784    1.0000 </r>
       <r>    1.8030    1.0000 </r>
       <r>    1.8032    1.0000 </r>
       <r>    1.8108    1.0000 </r>
       <r>    1.8232    1.0000 </r>
       <r>    1.8361    1.0000 </r>
       <r>    1.8367    1.0000 </r>
       <r>    1.8461    1.0000 </r>
       <r>    1.8468    1.0000 </r>
       <r>    1.8784    1.0000 </r>
       <r>    1.8901    1.0000 </r>
       <r>    1.9469    1.0000 </r>
       <r>    1.9933    1.0000 </r>
       <r>    1.9939    1.0000 </r>
       <r>    2.0059    1.0000 </r>
       <r>    2.0068    1.0000 </r>
       <r>    2.0101    1.0000 </r>
       <r>    2.0186    1.0000 </r>
       <r>    2.0201    1.0000 </r>
       <r>    2.0203    1.0000 </r>
       <r>    2.0397    1.0000 </r>
       <r>    2.0467    1.0000 </r>
       <r>    2.0468    1.0000 </r>
       <r>    2.0572    1.0000 </r>
       <r>    2.0686    1.0000 </r>
       <r>    2.0690    1.0000 </r>
       <r>    2.0916    1.0000 </r>
       <r>    2.1125    1.0000 </r>
       <r>    2.1907    1.0000 </r>
       <r>    2.1908    1.0000 </r>
       <r>    2.2462    1.0000 </r>
       <r>    2.2480    1.0000 </r>
       <r>    2.2709    1.0000 </r>
       <r>    2.2727    1.0000 </r>
       <r>    2.2845    1.0000 </r>
       <r>    2.4277    1.0000 </r>
       <r>    2.4658    1.0000 </r>
       <r>    2.4667    1.0000 </r>
       <r>    2.4776    1.0000 </r>
       <r>    2.5037    1.0000 </r>
       <r>    2.5277    1.0000 </r>
       <r>    2.5546    1.0000 </r>
       <r>    2.5921    1.0000 </r>
       <r>    2.6265    1.0000 </r>
       <r>    2.6268    1.0000 </r>
       <r>    2.6562    1.0000 </r>
       <r>    2.7382    1.0000 </r>
       <r>    2.7386    1.0000 </r>
       <r>    2.7609    1.0000 </r>
       <r>    2.7613    1.0000 </r>
       <r>    2.8338    1.0000 </r>
       <r>    2.8728    1.0000 </r>
       <r>    2.9267    1.0000 </r>
       <r>    2.9342    1.0000 </r>
       <r>    2.9348    1.0000 </r>
       <r>    2.9687    1.0000 </r>
       <r>    3.0272    1.0000 </r>
       <r>    3.0278    1.0000 </r>
       <r>    3.0618    1.0000 </r>
       <r>    3.0970    1.0000 </r>
       <r>    3.3081    1.0000 </r>
       <r>    3.3101    1.0000 </r>
       <r>    3.3477    1.0000 </r>
       <r>    3.3756    1.0000 </r>
       <r>    3.4215    1.0000 </r>
       <r>    3.4221    1.0000 </r>
       <r>    3.4406    1.0000 </r>
       <r>    3.4585    1.0000 </r>
       <r>    3.4585    1.0000 </r>
       <r>    3.5317    1.0000 </r>
       <r>    3.7479    1.0000 </r>
       <r>    3.8080    1.0000 </r>
       <r>    3.8093    1.0000 </r>
       <r>    3.8151    1.0000 </r>
       <r>    3.8153    1.0000 </r>
       <r>    3.8816    1.0000 </r>
       <r>    3.8834    1.0000 </r>
       <r>    3.9320    1.0000 </r>
       <r>    3.9352    1.0000 </r>
       <r>    3.9404    1.0000 </r>
       <r>    3.9406    1.0000 </r>
       <r>    4.0392    1.0000 </r>
       <r>    4.0399    1.0000 </r>
       <r>    4.0706    1.0000 </r>
       <r>    4.1385    1.0000 </r>
       <r>    4.1491    1.0000 </r>
       <r>    4.1513    1.0000 </r>
       <r>    4.3140    1.0000 </r>
       <r>    4.3187    1.0000 </r>
       <r>    4.3379    1.0000 </r>
       <r>    4.3579    1.0000 </r>
       <r>    4.3594    1.0000 </r>
       <r>    4.4289    1.0000 </r>
       <r>    4.4444    1.0000 </r>
       <r>    4.4460    1.0000 </r>
       <r>    4.4538    1.0000 </r>
       <r>    4.4560    1.0000 </r>
       <r>    4.4568    1.0000 </r>
       <r>    4.6362    1.0000 </r>
       <r>    4.6366    1.0000 </r>
       <r>    4.7318    1.0000 </r>
       <r>    4.7323    1.0000 </r>
       <r>    4.7638    1.0000 </r>
       <r>    4.7641    1.0000 </r>
       <r>    4.7692    1.0000 </r>
       <r>    4.7694    1.0000 </r>
       <r>    4.8105    1.0000 </r>
       <r>    4.8532    1.0000 </r>
       <r>    4.8533    1.0000 </r>
       <r>    4.8573    1.0000 </r>
       <r>    7.3436    0.0000 </r>
       <r>    8.1284    0.0000 </r>
       <r>    8.4449    0.0000 </r>
       <r>    8.6416    0.0000 </r>
       <r>    8.6435    0.0000 </r>
       <r>    8.8581    0.0000 </r>
       <r>    9.0843    0.0000 </r>
       <r>    9.0848    0.0000 </r>
       <r>    9.2603    0.0000 </r>
       <r>    9.2743    0.0000 </r>
       <r>    9.2889    0.0000 </r>
       <r>    9.2895    0.0000 </r>
       <r>    9.7257    0.0000 </r>
       <r>    9.7717    0.0000 </r>
       <r>    9.7723    0.0000 </r>
       <r>    9.7905    0.0000 </r>
       <r>    9.8530    0.0000 </r>
       <r>    9.8562    0.0000 </r>
       <r>    9.8591    0.0000 </r>
       <r>    9.8788    0.0000 </r>
       <r>    9.8893    0.0000 </r>
       <r>   10.0606    0.0000 </r>
       <r>   10.0829    0.0000 </r>
       <r>   10.1363    0.0000 </r>
       <r>   10.1366    0.0000 </r>
       <r>   10.3051    0.0000 </r>
       <r>   10.3071    0.0000 </r>
       <r>   10.4166    0.0000 </r>
       <r>   10.5267    0.0000 </r>
       <r>   10.5701    0.0000 </r>
       <r>   10.5718    0.0000 </r>
       <r>   10.5720    0.0000 </r>
       <r>   10.5780    0.0000 </r>
       <r>   10.5787    0.0000 </r>
       <r>   10.6756    0.0000 </r>
       <r>   10.9760    0.0000 </r>
       <r>   11.0192    0.0000 </r>
       <r>   11.0193    0.0000 </r>
       <r>   11.0399    0.0000 </r>
       <r>   11.0414    0.0000 </r>
       <r>   11.0767    0.0000 </r>
       <r>   11.1289    0.0000 </r>
       <r>   11.1780    0.0000 </r>
       <r>   11.1887    0.0000 </r>
       <r>   11.2299    0.0000 </r>
       <r>   11.2491    0.0000 </r>
       <r>   11.2496    0.0000 </r>
       <r>   11.2914    0.0000 </r>
       <r>   11.3066    0.0000 </r>
       <r>   11.4176    0.0000 </r>
       <r>   11.4183    0.0000 </r>
       <r>   11.4578    0.0000 </r>
       <r>   11.5210    0.0000 </r>
       <r>   11.5216    0.0000 </r>
       <r>   11.5308    0.0000 </r>
       <r>   11.5766    0.0000 </r>
       <r>   11.6795    0.0000 </r>
       <r>   11.6803    0.0000 </r>
       <r>   11.7969    0.0000 </r>
       <r>   11.7976    0.0000 </r>
       <r>   11.8157    0.0000 </r>
       <r>   11.8157    0.0000 </r>
       <r>   11.8824    0.0000 </r>
       <r>   11.9411    0.0000 </r>
       <r>   11.9749    0.0000 </r>
       <r>   11.9766    0.0000 </r>
       <r>   11.9815    0.0000 </r>
       <r>   12.0267    0.0000 </r>
       <r>   12.0291    0.0000 </r>
       <r>   12.0579    0.0000 </r>
       <r>   12.1617    0.0000 </r>
       <r>   12.2423    0.0000 </r>
       <r>   12.2572    0.0000 </r>
       <r>   12.2575    0.0000 </r>
       <r>   12.3149    0.0000 </r>
       <r>   12.3158    0.0000 </r>
       <r>   12.3212    0.0000 </r>
       <r>   12.3483    0.0000 </r>
       <r>   12.4610    0.0000 </r>
       <r>   12.4805    0.0000 </r>
       <r>   12.5166    0.0000 </r>
       <r>   12.5170    0.0000 </r>
       <r>   12.6143    0.0000 </r>
       <r>   12.6144    0.0000 </r>
       <r>   12.6610    0.0000 </r>
       <r>   12.6631    0.0000 </r>
       <r>   12.6635    0.0000 </r>
       <r>   12.6891    0.0000 </r>
       <r>   12.7465    0.0000 </r>
       <r>   12.8314    0.0000 </r>
       <r>   12.8722    0.0000 </r>
       <r>   12.8727    0.0000 </r>
       <r>   12.8730    0.0000 </r>
       <r>   13.1201    0.0000 </r>
       <r>   13.1206    0.0000 </r>
       <r>   13.2010    0.0000 </r>
       <r>   13.3799    0.0000 </r>
       <r>   13.4095    0.0000 </r>
       <r>   13.4106    0.0000 </r>
       <r>   13.4332    0.0000 </r>
       <r>   13.4382    0.0000 </r>
       <r>   13.4522    0.0000 </r>
       <r>   13.4895    0.0000 </r>
       <r>   13.5084    0.0000 </r>
       <r>   13.5451    0.0000 </r>
       <r>   13.5487    0.0000 </r>
      </set>
      <set comment="kpoint 2">
       <r>  -51.0582    1.0000 </r>
       <r>  -51.0555    1.0000 </r>
       <r>  -51.0549    1.0000 </r>
       <r>  -51.0547    1.0000 </r>
       <r>  -51.0544    1.0000 </r>
       <r>  -51.0541    1.0000 </r>
       <r>  -51.0540    1.0000 </r>
       <r>  -51.0537    1.0000 </r>
       <r>  -51.0530    1.0000 </r>
       <r>  -51.0526    1.0000 </r>
       <r>  -51.0523    1.0000 </r>
       <r>  -51.0519    1.0000 </r>
       <r>  -51.0518    1.0000 </r>
       <r>  -51.0513    1.0000 </r>
       <r>  -51.0508    1.0000 </r>
       <r>  -51.0504    1.0000 </r>
       <r>  -51.0496    1.0000 </r>
       <r>  -51.0450    1.0000 </r>
       <r>  -51.0448    1.0000 </r>
       <r>  -51.0447    1.0000 </r>
       <r>  -51.0444    1.0000 </r>
       <r>  -51.0439    1.0000 </r>
       <r>  -51.0438    1.0000 </r>
       <r>  -51.0429    1.0000 </r>
       <r>  -51.0406    1.0000 </r>
       <r>  -51.0396    1.0000 </r>
       <r>  -51.0395    1.0000 </r>
       <r>  -51.0388    1.0000 </r>
       <r>  -51.0387    1.0000 </r>
       <r>  -51.0385    1.0000 </r>
       <r>  -51.0383    1.0000 </r>
       <r>  -51.0312    1.0000 </r>
       <r>  -49.7063    1.0000 </r>
       <r>  -49.7028    1.0000 </r>
       <r>  -49.7024    1.0000 </r>
       <r>  -49.7023    1.0000 </r>
       <r>  -49.7020    1.0000 </r>
       <r>  -49.7017    1.0000 </r>
       <r>  -49.7014    1.0000 </r>
       <r>  -49.7003    1.0000 </r>
       <r>  -49.6953    1.0000 </r>
       <r>  -49.6942    1.0000 </r>
       <r>  -49.6940    1.0000 </r>
       <r>  -49.6935    1.0000 </r>
       <r>  -49.6933    1.0000 </r>
       <r>  -49.6933    1.0000 </r>
       <r>  -49.6927    1.0000 </r>
       <r>  -49.6889    1.0000 </r>
       <r>  -49.5990    1.0000 </r>
       <r>  -49.5984    1.0000 </r>
       <r>  -49.5979    1.0000 </r>
       <r>  -49.5978    1.0000 </r>
       <r>  -49.5974    1.0000 </r>
       <r>  -49.5973    1.0000 </r>
       <r>  -49.5971    1.0000 </r>
       <r>  -49.5969    1.0000 </r>
       <r>  -49.5965    1.0000 </r>
       <r>  -49.5963    1.0000 </r>
       <r>  -49.5963    1.0000 </r>
       <r>  -49.5961    1.0000 </r>
       <r>  -49.5959    1.0000 </r>
       <r>  -49.5956    1.0000 </r>
       <r>  -49.5952    1.0000 </r>
       <r>  -49.5948    1.0000 </r>
       <r>  -49.5677    1.0000 </r>
       <r>  -49.5673    1.0000 </r>
       <r>  -49.5667    1.0000 </r>
       <r>  -49.5664    1.0000 </r>
       <r>  -49.5661    1.0000 </r>
       <r>  -49.5658    1.0000 </r>
       <r>  -49.5655    1.0000 </r>
       <r>  -49.5651    1.0000 </r>
       <r>  -49.5650    1.0000 </r>
       <r>  -49.5647    1.0000 </r>
       <r>  -49.5646    1.0000 </r>
       <r>  -49.5643    1.0000 </r>
       <r>  -49.5639    1.0000 </r>
       <r>  -49.5638    1.0000 </r>
       <r>  -49.5632    1.0000 </r>
       <r>  -49.5630    1.0000 </r>
       <r>  -49.5555    1.0000 </r>
       <r>  -49.5550    1.0000 </r>
       <r>  -49.5549    1.0000 </r>
       <r>  -49.5546    1.0000 </r>
       <r>  -49.5542    1.0000 </r>
       <r>  -49.5539    1.0000 </r>
       <r>  -49.5527    1.0000 </r>
       <r>  -49.5507    1.0000 </r>
       <r>  -49.5425    1.0000 </r>
       <r>  -49.5409    1.0000 </r>
       <r>  -49.5396    1.0000 </r>
       <r>  -49.5394    1.0000 </r>
       <r>  -49.5389    1.0000 </r>
       <r>  -49.5387    1.0000 </r>
       <r>  -49.5386    1.0000 </r>
       <r>  -49.5381    1.0000 </r>
       <r>  -39.8766    1.0000 </r>
       <r>  -39.8664    1.0000 </r>
       <r>  -39.8663    1.0000 </r>
       <r>  -39.8658    1.0000 </r>
       <r>  -39.8656    1.0000 </r>
       <r>  -39.8651    1.0000 </r>
       <r>  -39.8651    1.0000 </r>
       <r>  -39.8650    1.0000 </r>
       <r>  -39.8644    1.0000 </r>
       <r>  -39.8643    1.0000 </r>
       <r>  -39.8643    1.0000 </r>
       <r>  -39.8636    1.0000 </r>
       <r>  -39.8635    1.0000 </r>
       <r>  -39.8633    1.0000 </r>
       <r>  -39.8630    1.0000 </r>
       <r>  -39.8519    1.0000 </r>
       <r>  -13.2074    1.0000 </r>
       <r>  -13.2073    1.0000 </r>
       <r>  -13.1950    1.0000 </r>
       <r>  -13.1701    1.0000 </r>
       <r>  -13.1590    1.0000 </r>
[...]
       <r>   -49.2849     0.0000     0.0000 </r>
       <r>   -49.0440     0.0000     0.0000 </r>
       <r>   -48.8032     0.0000     0.0000 </r>
       <r>   -48.5624     0.0000     0.0000 </r>
       <r>   -48.3216     0.0000     0.0000 </r>
       <r>   -48.0807     0.0000     0.0000 </r>
       <r>   -47.8399     0.0000     0.0000 </r>
       <r>   -47.5991     0.0000     0.0000 </r>
       <r>   -47.3583     0.0000     0.0000 </r>
       <r>   -47.1174     0.0000     0.0000 </r>
       <r>   -46.8766     0.0000     0.0000 </r>
       <r>   -46.6358     0.0000     0.0000 </r>
       <r>   -46.3950     0.3314     0.0798 </r>
       <r>   -46.1541   132.4938    31.9875 </r>
       <r>   -45.9133    58.3862    46.0482 </r>
       <r>   -45.6725   207.4204    96.0000 </r>
       <r>   -45.4317     0.0000    96.0000 </r>
       <r>   -45.1909     0.0000    96.0000 </r>
       <r>   -44.9500     0.0000    96.0000 </r>
       <r>   -44.7092     0.0000    96.0000 </r>
       <r>   -44.4684     0.0000    96.0000 </r>
       <r>   -44.2276     0.0000    96.0000 </r>
       <r>   -43.9867     0.0000    96.0000 </r>
       <r>   -43.7459     0.0000    96.0000 </r>
       <r>   -43.5051     0.0000    96.0000 </r>
       <r>   -43.2643     0.0000    96.0000 </r>
       <r>   -43.0234     0.0000    96.0000 </r>
       <r>   -42.7826     0.0000    96.0000 </r>
       <r>   -42.5418     0.0000    96.0000 </r>
       <r>   -42.3010     0.0000    96.0000 </r>
       <r>   -42.0601     0.0000    96.0000 </r>
       <r>   -41.8193     0.0000    96.0000 </r>
       <r>   -41.5785     0.0000    96.0000 </r>
       <r>   -41.3377     0.0000    96.0000 </r>
       <r>   -41.0969     0.0000    96.0000 </r>
       <r>   -40.8560     0.0000    96.0000 </r>
       <r>   -40.6152     0.0000    96.0000 </r>
       <r>   -40.3744     0.0000    96.0000 </r>
       <r>   -40.1336     0.0000    96.0000 </r>
       <r>   -39.8927    13.2099    99.1812 </r>
       <r>   -39.6519    53.2288   112.0000 </r>
       <r>   -39.4111     0.0000   112.0000 </r>
       <r>   -39.1703     0.0000   112.0000 </r>
       <r>   -38.9294     0.0000   112.0000 </r>
       <r>   -38.6886     0.0000   112.0000 </r>
       <r>   -38.4478     0.0000   112.0000 </r>
       <r>   -38.2070     0.0000   112.0000 </r>
       <r>   -37.9661     0.0000   112.0000 </r>
       <r>   -37.7253     0.0000   112.0000 </r>
       <r>   -37.4845     0.0000   112.0000 </r>
       <r>   -37.2437     0.0000   112.0000 </r>
       <r>   -37.0028     0.0000   112.0000 </r>
       <r>   -36.7620     0.0000   112.0000 </r>
       <r>   -36.5212     0.0000   112.0000 </r>
       <r>   -36.2804     0.0000   112.0000 </r>
       <r>   -36.0396     0.0000   112.0000 </r>
       <r>   -35.7987     0.0000   112.0000 </r>
       <r>   -35.5579     0.0000   112.0000 </r>
       <r>   -35.3171     0.0000   112.0000 </r>
       <r>   -35.0763     0.0000   112.0000 </r>
       <r>   -34.8354     0.0000   112.0000 </r>
       <r>   -34.5946     0.0000   112.0000 </r>
       <r>   -34.3538     0.0000   112.0000 </r>
       <r>   -34.1130     0.0000   112.0000 </r>
       <r>   -33.8721     0.0000   112.0000 </r>
       <r>   -33.6313     0.0000   112.0000 </r>
       <r>   -33.3905     0.0000   112.0000 </r>
       <r>   -33.1497     0.0000   112.0000 </r>
       <r>   -32.9088     0.0000   112.0000 </r>
       <r>   -32.6680     0.0000   112.0000 </r>
       <r>   -32.4272     0.0000   112.0000 </r>
       <r>   -32.1864     0.0000   112.0000 </r>
       <r>   -31.9456     0.0000   112.0000 </r>
       <r>   -31.7047     0.0000   112.0000 </r>
       <r>   -31.4639     0.0000   112.0000 </r>
       <r>   -31.2231     0.0000   112.0000 </r>
       <r>   -30.9823     0.0000   112.0000 </r>
       <r>   -30.7414     0.0000   112.0000 </r>
       <r>   -30.5006     0.0000   112.0000 </r>
       <r>   -30.2598     0.0000   112.0000 </r>
       <r>   -30.0190     0.0000   112.0000 </r>
       <r>   -29.7781     0.0000   112.0000 </r>
       <r>   -29.5373     0.0000   112.0000 </r>
       <r>   -29.2965     0.0000   112.0000 </r>
       <r>   -29.0557     0.0000   112.0000 </r>
       <r>   -28.8148     0.0000   112.0000 </r>
       <r>   -28.5740     0.0000   112.0000 </r>
       <r>   -28.3332     0.0000   112.0000 </r>
       <r>   -28.0924     0.0000   112.0000 </r>
       <r>   -27.8515     0.0000   112.0000 </r>
       <r>   -27.6107     0.0000   112.0000 </r>
       <r>   -27.3699     0.0000   112.0000 </r>
       <r>   -27.1291     0.0000   112.0000 </r>
       <r>   -26.8883     0.0000   112.0000 </r>
       <r>   -26.6474     0.0000   112.0000 </r>
       <r>   -26.4066     0.0000   112.0000 </r>
       <r>   -26.1658     0.0000   112.0000 </r>
       <r>   -25.9250     0.0000   112.0000 </r>
       <r>   -25.6841     0.0000   112.0000 </r>
       <r>   -25.4433     0.0000   112.0000 </r>
       <r>   -25.2025     0.0000   112.0000 </r>
       <r>   -24.9617     0.0000   112.0000 </r>
       <r>   -24.7208     0.0000   112.0000 </r>
       <r>   -24.4800     0.0000   112.0000 </r>
       <r>   -24.2392     0.0000   112.0000 </r>
       <r>   -23.9984     0.0000   112.0000 </r>
       <r>   -23.7575     0.0000   112.0000 </r>
       <r>   -23.5167     0.0000   112.0000 </r>
       <r>   -23.2759     0.0000   112.0000 </r>
       <r>   -23.0351     0.0000   112.0000 </r>
       <r>   -22.7943     0.0000   112.0000 </r>
       <r>   -22.5534     0.0000   112.0000 </r>
       <r>   -22.3126     0.0000   112.0000 </r>
       <r>   -22.0718     0.0000   112.0000 </r>
       <r>   -21.8310     0.0000   112.0000 </r>
       <r>   -21.5901     0.0000   112.0000 </r>
       <r>   -21.3493     0.0000   112.0000 </r>
       <r>   -21.1085     0.0000   112.0000 </r>
       <r>   -20.8677     0.0000   112.0000 </r>
       <r>   -20.6268     0.0000   112.0000 </r>
       <r>   -20.3860     0.0000   112.0000 </r>
       <r>   -20.1452     0.0000   112.0000 </r>
       <r>   -19.9044     0.0000   112.0000 </r>
       <r>   -19.6635     0.0000   112.0000 </r>
       <r>   -19.4227     0.0000   112.0000 </r>
       <r>   -19.1819     0.0000   112.0000 </r>
       <r>   -18.9411     0.0000   112.0000 </r>
       <r>   -18.7002     0.0000   112.0000 </r>
       <r>   -18.4594     0.0000   112.0000 </r>
       <r>   -18.2186     0.0000   112.0000 </r>
       <r>   -17.9778     0.0000   112.0000 </r>
       <r>   -17.7370     0.0000   112.0000 </r>
       <r>   -17.4961     0.0000   112.0000 </r>
       <r>   -17.2553     0.0000   112.0000 </r>
       <r>   -17.0145     0.0000   112.0000 </r>
       <r>   -16.7737     0.0000   112.0000 </r>
       <r>   -16.5328     0.0000   112.0000 </r>
       <r>   -16.2920     0.0000   112.0000 </r>
       <r>   -16.0512     0.0000   112.0000 </r>
       <r>   -15.8104     0.0000   112.0000 </r>
       <r>   -15.5695     0.0000   112.0000 </r>
       <r>   -15.3287     0.0000   112.0000 </r>
       <r>   -15.0879     0.0000   112.0000 </r>
       <r>   -14.8471     0.0000   112.0000 </r>
       <r>   -14.6062     0.0000   112.0000 </r>
       <r>   -14.3654     0.0000   112.0000 </r>
       <r>   -14.1246     0.0000   112.0000 </r>
       <r>   -13.8838     0.0000   112.0000 </r>
       <r>   -13.6430     0.0000   112.0000 </r>
       <r>   -13.4021     0.0000   112.0000 </r>
       <r>   -13.1613     0.0000   112.0000 </r>
       <r>   -12.9205     0.0070   112.0017 </r>
       <r>   -12.6797    42.0605   122.1309 </r>
       <r>   -12.4388    24.3711   128.0000 </r>
       <r>   -12.1980     0.0000   128.0000 </r>
       <r>   -11.9572     0.0000   128.0000 </r>
       <r>   -11.7164     0.0000   128.0000 </r>
       <r>   -11.4755     0.0000   128.0000 </r>
       <r>   -11.2347     0.0000   128.0000 </r>
       <r>   -10.9939     0.0000   128.0000 </r>
       <r>   -10.7531     0.0000   128.0000 </r>
       <r>   -10.5122     0.0000   128.0000 </r>
       <r>   -10.2714     0.0000   128.0000 </r>
       <r>   -10.0306     0.0000   128.0000 </r>
       <r>    -9.7898     0.0000   128.0000 </r>
       <r>    -9.5489     0.0000   128.0000 </r>
       <r>    -9.3081     0.0000   128.0000 </r>
       <r>    -9.0673     0.0000   128.0000 </r>
       <r>    -8.8265     0.0000   128.0000 </r>
       <r>    -8.5857     0.0000   128.0000 </r>
       <r>    -8.3448     0.0000   128.0000 </r>
       <r>    -8.1040     0.0000   128.0000 </r>
       <r>    -7.8632     0.0000   128.0000 </r>
       <r>    -7.6224     0.0000   128.0000 </r>
       <r>    -7.3815     0.4838   128.1165 </r>
       <r>    -7.1407    13.7264   131.4221 </r>
       <r>    -6.8999    29.4868   138.5233 </r>
       <r>    -6.6591    25.9763   144.7790 </r>
       <r>    -6.4182    29.9239   151.9854 </r>
       <r>    -6.1774     0.0607   152.0000 </r>
       <r>    -5.9366     0.0000   152.0000 </r>
       <r>    -5.6958     0.0000   152.0000 </r>
       <r>    -5.4549     0.0000   152.0000 </r>
       <r>    -5.2141     0.0000   152.0000 </r>
       <r>    -4.9733     0.0000   152.0000 </r>
       <r>    -4.7325     0.0000   152.0000 </r>
       <r>    -4.4916     0.0000   152.0000 </r>
       <r>    -4.2508     0.0000   152.0000 </r>
       <r>    -4.0100     0.0000   152.0000 </r>
       <r>    -3.7692     0.0000   152.0000 </r>
       <r>    -3.5284     0.0000   152.0000 </r>
       <r>    -3.2875     0.0000   152.0000 </r>
       <r>    -3.0467     0.0000   152.0000 </r>
       <r>    -2.8059     0.0000   152.0000 </r>
       <r>    -2.5651     0.0000   152.0000 </r>
       <r>    -2.3242     0.0000   152.0000 </r>
       <r>    -2.0834     0.0000   152.0000 </r>
       <r>    -1.8426     0.0000   152.0000 </r>
       <r>    -1.6018     0.0000   152.0000 </r>
       <r>    -1.3609     0.0000   152.0000 </r>
       <r>    -1.1201     0.0000   152.0000 </r>
       <r>    -0.8793     0.0000   152.0000 </r>
       <r>    -0.6385     0.0000   152.0000 </r>
       <r>    -0.3976     4.0498   152.9753 </r>
       <r>    -0.1568    20.3501   157.8761 </r>
       <r>     0.0840    12.2393   160.8236 </r>
       <r>     0.3248    18.4648   165.2703 </r>
       <r>     0.5656    29.5197   172.3794 </r>
       <r>     0.8065    39.1541   181.8086 </r>
       <r>     1.0473    37.3219   190.7966 </r>
       <r>     1.2881    31.3235   198.3401 </r>
       <r>     1.5289    20.7102   203.3276 </r>
       <r>     1.7698    28.9912   210.3093 </r>
       <r>     2.0106    36.7820   219.1673 </r>
       <r>     2.2514    27.7820   225.8579 </r>
       <r>     2.4922    26.9940   232.3587 </r>
       <r>     2.7331    30.5514   239.7162 </r>
       <r>     2.9739    44.3116   250.3874 </r>
       <r>     3.2147    45.5222   261.3503 </r>
       <r>     3.4555    32.4151   269.1566 </r>
       <r>     3.6964    12.5354   272.1754 </r>
       <r>     3.9372    17.5118   276.3927 </r>
       <r>     4.1780    52.6330   289.0679 </r>
       <r>     4.4188    44.7169   299.8368 </r>
       <r>     4.6597    17.2815   303.9986 </r>
       <r>     4.9005     0.0058   304.0000 </r>
       <r>     5.1413     0.0000   304.0000 </r>
       <r>     5.3821     0.0000   304.0000 </r>
       <r>     5.6229     0.0000   304.0000 </r>
       <r>     5.8638     0.0000   304.0000 </r>
       <r>     6.1046     0.0000   304.0000 </r>
       <r>     6.3454     0.3876   304.0934 </r>
       <r>     6.5862     4.1931   305.1031 </r>
       <r>     6.8271     7.8218   306.9868 </r>
       <r>     7.0679    19.1144   311.5900 </r>
       <r>     7.3087    44.0619   322.2012 </r>
       <r>     7.5495    53.2411   335.0229 </r>
       <r>     7.7904    63.4041   350.2921 </r>
       <r>     8.0312    65.7668   366.1303 </r>
       <r>     8.2720    70.0338   382.9961 </r>
       <r>     8.5128    59.3737   397.2947 </r>
       <r>     8.7537    58.6196   411.4117 </r>
       <r>     8.9945    48.0678   422.9876 </r>
       <r>     9.2353    30.0807   430.2317 </r>
       <r>     9.4761     8.9773   432.3937 </r>
       <r>     9.7169     2.9786   433.1110 </r>
       <r>     9.9578     8.3325   435.1176 </r>
       <r>    10.1986    18.6178   439.6012 </r>
       <r>    10.4394    17.9770   443.9305 </r>
       <r>    10.6802    17.1470   448.0599 </r>
       <r>    10.9211    27.5839   454.7028 </r>
       <r>    11.1619    18.9841   459.2746 </r>
       <r>    11.4027    23.9504   465.0424 </r>
       <r>    11.6435    14.9133   468.6339 </r>
       <r>    11.8844    13.7760   471.9515 </r>
       <r>    12.1252    15.9738   475.7984 </r>
       <r>    12.3660    36.5976   484.6119 </r>
       <r>    12.6068    32.7429   492.4972 </r>
       <r>    12.8477    29.9688   499.7144 </r>
       <r>    13.0885    20.2740   504.5969 </r>
       <r>    13.3293    22.0955   509.9180 </r>
       <r>    13.5701    27.2276   516.4751 </r>
       <r>    13.8110    23.7324   522.1904 </r>
       <r>    14.0518    26.3093   528.5263 </r>
       <r>    14.2926    19.2428   533.1604 </r>
       <r>    14.5334    16.7089   537.1843 </r>
       <r>    14.7742     3.3871   538.0000 </r>
       <r>    15.0151     0.0000   538.0000 </r>
       <r>    15.2559     0.0000   538.0000 </r>
       <r>    15.4967     0.0000   538.0000 </r>
       <r>    15.7375     0.0000   538.0000 </r>
       <r>    15.9784     0.0000   538.0000 </r>
       <r>    16.2192     0.0000   538.0000 </r>
       <r>    16.4600     0.0000   538.0000 </r>
       <r>    16.7008     0.0000   538.0000 </r>
       <r>    16.9417     0.0000   538.0000 </r>
       <r>    17.1825     0.0000   538.0000 </r>
       <r>    17.4233     0.0000   538.0000 </r>
       <r>    17.6641     0.0000   538.0000 </r>
       <r>    17.9050     0.0000   538.0000 </r>
      </set>
     </set>
    </array>
   </total>
  </dos>
 </calculation>
 <structure name="finalpos" >
  <crystal>
   <varray name="basis" >
    <v>      11.11223374       0.00000000      -0.00029034 </v>
    <v>       0.00000000      11.11745194       0.00000000 </v>
    <v>      -2.77510898       0.00000000      10.19872221 </v>
   </varray>
   <i name="volume">   1259.93837498 </i>
   <varray name="rec_basis" >
    <v>       0.08999155       0.00000000       0.02448702 </v>
    <v>       0.00000000       0.08994867       0.00000000 </v>
    <v>       0.00000256       0.00000000       0.09805220 </v>
   </varray>
  </crystal>
  <varray name="positions" >
   <v>       0.28894969       0.46933910       0.15583616 </v>
   <v>       0.78894969       0.46933910       0.15583616 </v>
   <v>       0.28894969       0.96933910       0.15583616 </v>
   <v>       0.78894969       0.96933910       0.15583616 </v>
   <v>       0.04646972       0.21934976       0.18586770 </v>
   <v>       0.54646972       0.21934976       0.18586770 </v>
   <v>       0.04646972       0.71934976       0.18586770 </v>
   <v>       0.54646972       0.71934976       0.18586770 </v>
   <v>       0.45353028       0.46934976       0.81413230 </v>
   <v>       0.95353028       0.46934976       0.81413230 </v>
   <v>       0.45353028       0.96934976       0.81413230 </v>
   <v>       0.95353028       0.96934976       0.81413230 </v>
   <v>       0.21105031       0.21933910       0.84416384 </v>
   <v>       0.71105031       0.21933910       0.84416384 </v>
   <v>       0.21105031       0.71933910       0.84416384 </v>
   <v>       0.71105031       0.71933910       0.84416384 </v>
   <v>       0.07654971       0.09530995       0.80250593 </v>
   <v>       0.57654971       0.09530995       0.80250593 </v>
   <v>       0.07654971       0.59530995       0.80250593 </v>
   <v>       0.57654971       0.59530995       0.80250593 </v>
   <v>       0.32470466       0.34428124       0.80250383 </v>
   <v>       0.82470466       0.34338175       0.80250383 </v>
   <v>       0.32470466       0.84338175       0.80250383 </v>
   <v>       0.82470466       0.84338175       0.80250383 </v>
   <v>       0.17529534       0.09338175       0.19749617 </v>
   <v>       0.67529534       0.09338175       0.19749617 </v>
   <v>       0.17529534       0.59338175       0.19749617 </v>
   <v>       0.67529534       0.59338175       0.19749617 </v>
   <v>       0.42345029       0.34530995       0.19749407 </v>
   <v>       0.92345029       0.34530995       0.19749407 </v>
   <v>       0.42345029       0.84530995       0.19749407 </v>
   <v>       0.92345029       0.84530995       0.19749407 </v>
   <v>       0.21868463       0.34523395       0.37102476 </v>
   <v>       0.71868463       0.34523395       0.37102476 </v>
   <v>       0.21868463       0.84523395       0.37102476 </v>
   <v>       0.71868463       0.84523395       0.37102476 </v>
   <v>       0.46681660       0.09344897       0.37102399 </v>
   <v>       0.96681660       0.09344897       0.37102399 </v>
   <v>       0.46681660       0.59344897       0.37102399 </v>
   <v>       0.96681660       0.59344897       0.37102399 </v>
   <v>       0.03318340       0.34344897       0.62897601 </v>
   <v>       0.53318340       0.34344897       0.62897601 </v>
   <v>       0.03318340       0.84344897       0.62897601 </v>
   <v>       0.53318340       0.84344897       0.62897601 </v>
   <v>       0.28131537       0.09523395       0.62897524 </v>
   <v>       0.78131537       0.09523395       0.62897524 </v>
   <v>       0.28131537       0.59523395       0.62897524 </v>
   <v>       0.78131537       0.59523395       0.62897524 </v>
   <v>       0.12439279       0.34434306       0.00000412 </v>
   <v>       0.62439279       0.34434306       0.00000412 </v>
   <v>       0.12439279       0.84434306       0.00000412 </v>
   <v>       0.62439279       0.84434306       0.00000412 </v>
   <v>       0.37560721       0.09434306       0.99999588 </v>
   <v>       0.87560721       0.09434306       0.99999588 </v>
   <v>       0.37560721       0.59434306       0.99999588 </v>
   <v>       0.87560721       0.59434306       0.99999588 </v>
   <v>       0.03824426       0.10634799       0.60632306 </v>
   <v>       0.53824426       0.10634799       0.60632306 </v>
   <v>       0.03824426       0.60634799       0.60632306 </v>
   <v>       0.53824426       0.60634799       0.60632306 </v>
   <v>       0.26492712       0.33232651       0.60632763 </v>
   <v>       0.76492712       0.33232651       0.60632763 </v>
   <v>       0.26492712       0.83232651       0.60632763 </v>
   <v>       0.76492712       0.83232651       0.60632763 </v>
   <v>       0.23507288       0.08232651       0.39367237 </v>
   <v>       0.73507288       0.08232651       0.39367237 </v>
   <v>       0.23507288       0.58232651       0.39367237 </v>
   <v>       0.73507288       0.58232651       0.39367237 </v>
   <v>       0.46175574       0.35634799       0.39367694 </v>
   <v>       0.96175574       0.35634799       0.39367694 </v>
   <v>       0.46175574       0.85634799       0.39367694 </v>
   <v>       0.96175574       0.85634799       0.39367694 </v>
   <v>       0.03848398       0.46936404       0.15397331 </v>
   <v>       0.53848398       0.46936404       0.15397331 </v>
   <v>       0.03848398       0.96936404       0.15397331 </v>
   <v>       0.53848398       0.96936404       0.15397331 </v>
   <v>       0.28861657       0.21935690       0.15447525 </v>
   <v>       0.78861657       0.21935690       0.15447525 </v>
   <v>       0.28861657       0.71935690       0.15447525 </v>
   <v>       0.78861657       0.71935690       0.15447525 </v>
   <v>       0.21138343       0.46935690       0.84552475 </v>
   <v>       0.71138343       0.46935690       0.84552475 </v>
   <v>       0.21138343       0.96935690       0.84552475 </v>
   <v>       0.71138343       0.96935690       0.84552475 </v>
   <v>       0.46151602       0.21936404       0.84602669 </v>
   <v>       0.96151602       0.21936404       0.84602669 </v>
   <v>       0.46151602       0.71936404       0.84602669 </v>
   <v>       0.96151602       0.71936404       0.84602669 </v>
  </varray>
 </structure>
</modeling>
