 120 120   0   0
  0.1228332E+02  0.1173587E-08  0.1121847E-08  0.1119562E-08  0.5000000E-15
  1.000000000000000E-004
  CAR 
 unknown system                          
     16.71984946    -54.72981776  301      4.39478187      1.00000000
    -54.730  0.0000E+00  0.0000E+00  0.0000E+00  0.0000E+00
    -54.492  0.0000E+00  0.0000E+00  0.0000E+00  0.0000E+00
    -54.253  0.0000E+00  0.0000E+00  0.0000E+00  0.0000E+00
    -54.015  0.0000E+00  0.0000E+00  0.0000E+00  0.0000E+00
    -53.777  0.0000E+00  0.0000E+00  0.0000E+00  0.0000E+00
    -53.539  0.0000E+00  0.0000E+00  0.0000E+00  0.0000E+00
    -53.301  0.0000E+00  0.0000E+00  0.0000E+00  0.0000E+00
    -53.063  0.0000E+00  0.0000E+00  0.0000E+00  0.0000E+00
    -52.824  0.0000E+00  0.0000E+00  0.0000E+00  0.0000E+00
    -52.586  0.0000E+00  0.0000E+00  0.0000E+00  0.0000E+00
    -52.348  0.0000E+00  0.0000E+00  0.0000E+00  0.0000E+00
    -52.110  0.0000E+00  0.0000E+00  0.0000E+00  0.0000E+00
    -51.872  0.0000E+00  0.0000E+00  0.0000E+00  0.0000E+00
    -51.634  0.2735E-03  0.0000E+00  0.6513E-04  0.0000E+00
    -51.395  0.9797E+02  0.0000E+00  0.2333E+02  0.0000E+00
    -51.157  0.2799E+01  0.0000E+00  0.2400E+02  0.0000E+00
    -50.919  0.0000E+00  0.0000E+00  0.2400E+02  0.0000E+00
    -50.681  0.0000E+00  0.0000E+00  0.2400E+02  0.0000E+00
    -50.443  0.2668E-09  0.0000E+00  0.2400E+02  0.0000E+00
    -50.205  0.4351E+02  0.0000E+00  0.3436E+02  0.0000E+00
    -49.967  0.1318E+03  0.0000E+00  0.6576E+02  0.0000E+00
    -49.728  0.2621E+02  0.0000E+00  0.7200E+02  0.0000E+00
    -49.490  0.0000E+00  0.0000E+00  0.7200E+02  0.0000E+00
    -49.252  0.0000E+00  0.0000E+00  0.7200E+02  0.0000E+00
    -49.014  0.0000E+00  0.0000E+00  0.7200E+02  0.0000E+00
    -48.776  0.0000E+00  0.0000E+00  0.7200E+02  0.0000E+00
    -48.538  0.0000E+00  0.0000E+00  0.7200E+02  0.0000E+00
    -48.299  0.0000E+00  0.0000E+00  0.7200E+02  0.0000E+00
    -48.061  0.0000E+00  0.0000E+00  0.7200E+02  0.0000E+00
    -47.823  0.0000E+00  0.0000E+00  0.7200E+02  0.0000E+00
    -47.585  0.0000E+00  0.0000E+00  0.7200E+02  0.0000E+00
    -47.347  0.0000E+00  0.0000E+00  0.7200E+02  0.0000E+00
    -47.109  0.0000E+00  0.0000E+00  0.7200E+02  0.0000E+00
    -46.870  0.0000E+00  0.6066E-01  0.7200E+02  0.1445E-01
    -46.632  0.0000E+00  0.1006E+03  0.7200E+02  0.2397E+02
    -46.394  0.0000E+00  0.9523E+02  0.7200E+02  0.4666E+02
    -46.156  0.0000E+00  0.1064E+03  0.7200E+02  0.7200E+02
    -45.918  0.0000E+00  0.0000E+00  0.7200E+02  0.7200E+02
    -45.680  0.0000E+00  0.0000E+00  0.7200E+02  0.7200E+02
    -45.441  0.0000E+00  0.0000E+00  0.7200E+02  0.7200E+02
    -45.203  0.0000E+00  0.0000E+00  0.7200E+02  0.7200E+02
    -44.965  0.0000E+00  0.0000E+00  0.7200E+02  0.7200E+02
    -44.727  0.0000E+00  0.0000E+00  0.7200E+02  0.7200E+02
    -44.489  0.0000E+00  0.0000E+00  0.7200E+02  0.7200E+02
    -44.251  0.0000E+00  0.0000E+00  0.7200E+02  0.7200E+02
    -44.012  0.0000E+00  0.0000E+00  0.7200E+02  0.7200E+02
    -43.774  0.0000E+00  0.0000E+00  0.7200E+02  0.7200E+02
    -43.536  0.0000E+00  0.0000E+00  0.7200E+02  0.7200E+02
    -43.298  0.0000E+00  0.0000E+00  0.7200E+02  0.7200E+02
    -43.060  0.0000E+00  0.0000E+00  0.7200E+02  0.7200E+02
    -42.822  0.0000E+00  0.0000E+00  0.7200E+02  0.7200E+02
    -42.583  0.0000E+00  0.0000E+00  0.7200E+02  0.7200E+02
    -42.345  0.0000E+00  0.0000E+00  0.7200E+02  0.7200E+02
    -42.107  0.0000E+00  0.0000E+00  0.7200E+02  0.7200E+02
    -41.869  0.0000E+00  0.0000E+00  0.7200E+02  0.7200E+02
    -41.631  0.0000E+00  0.0000E+00  0.7200E+02  0.7200E+02
    -41.393  0.0000E+00  0.0000E+00  0.7200E+02  0.7200E+02
    -41.154  0.0000E+00  0.0000E+00  0.7200E+02  0.7200E+02
    -40.916  0.0000E+00  0.0000E+00  0.7200E+02  0.7200E+02
    -40.678  0.2388E-03  0.7291E-04  0.7200E+02  0.7200E+02
    -40.440  0.9881E+02  0.9733E+02  0.9553E+02  0.9518E+02
    -40.202  0.1026E+03  0.1040E+03  0.1200E+03  0.1200E+03
    -39.964  0.1644E+00  0.1685E+00  0.1200E+03  0.1200E+03
    -39.725  0.0000E+00  0.0000E+00  0.1200E+03  0.1200E+03
    -39.487  0.0000E+00  0.0000E+00  0.1200E+03  0.1200E+03
    -39.249  0.0000E+00  0.0000E+00  0.1200E+03  0.1200E+03
    -39.011  0.0000E+00  0.0000E+00  0.1200E+03  0.1200E+03
    -38.773  0.0000E+00  0.0000E+00  0.1200E+03  0.1200E+03
    -38.535  0.0000E+00  0.0000E+00  0.1200E+03  0.1200E+03
    -38.296  0.0000E+00  0.0000E+00  0.1200E+03  0.1200E+03
    -38.058  0.0000E+00  0.0000E+00  0.1200E+03  0.1200E+03
    -37.820  0.0000E+00  0.0000E+00  0.1200E+03  0.1200E+03
    -37.582  0.0000E+00  0.0000E+00  0.1200E+03  0.1200E+03
    -37.344  0.0000E+00  0.0000E+00  0.1200E+03  0.1200E+03
    -37.106  0.0000E+00  0.0000E+00  0.1200E+03  0.1200E+03
    -36.867  0.0000E+00  0.0000E+00  0.1200E+03  0.1200E+03
    -36.629  0.0000E+00  0.0000E+00  0.1200E+03  0.1200E+03
    -36.391  0.0000E+00  0.0000E+00  0.1200E+03  0.1200E+03
    -36.153  0.0000E+00  0.0000E+00  0.1200E+03  0.1200E+03
    -35.915  0.0000E+00  0.0000E+00  0.1200E+03  0.1200E+03
    -35.677  0.0000E+00  0.0000E+00  0.1200E+03  0.1200E+03
    -35.438  0.0000E+00  0.0000E+00  0.1200E+03  0.1200E+03
    -35.200  0.0000E+00  0.0000E+00  0.1200E+03  0.1200E+03
    -34.962  0.0000E+00  0.0000E+00  0.1200E+03  0.1200E+03
    -34.724  0.0000E+00  0.0000E+00  0.1200E+03  0.1200E+03
    -34.486  0.0000E+00  0.0000E+00  0.1200E+03  0.1200E+03
    -34.248  0.0000E+00  0.0000E+00  0.1200E+03  0.1200E+03
    -34.009  0.0000E+00  0.0000E+00  0.1200E+03  0.1200E+03
    -33.771  0.0000E+00  0.0000E+00  0.1200E+03  0.1200E+03
    -33.533  0.0000E+00  0.0000E+00  0.1200E+03  0.1200E+03
    -33.295  0.0000E+00  0.0000E+00  0.1200E+03  0.1200E+03
    -33.057  0.0000E+00  0.0000E+00  0.1200E+03  0.1200E+03
    -32.819  0.0000E+00  0.0000E+00  0.1200E+03  0.1200E+03
    -32.580  0.0000E+00  0.0000E+00  0.1200E+03  0.1200E+03
    -32.342  0.0000E+00  0.0000E+00  0.1200E+03  0.1200E+03
    -32.104  0.0000E+00  0.0000E+00  0.1200E+03  0.1200E+03
    -31.866  0.0000E+00  0.0000E+00  0.1200E+03  0.1200E+03
    -31.628  0.0000E+00  0.0000E+00  0.1200E+03  0.1200E+03
    -31.390  0.0000E+00  0.0000E+00  0.1200E+03  0.1200E+03
    -31.151  0.0000E+00  0.0000E+00  0.1200E+03  0.1200E+03
    -30.913  0.0000E+00  0.0000E+00  0.1200E+03  0.1200E+03
    -30.675  0.0000E+00  0.0000E+00  0.1200E+03  0.1200E+03
    -30.437  0.0000E+00  0.0000E+00  0.1200E+03  0.1200E+03
    -30.199  0.0000E+00  0.0000E+00  0.1200E+03  0.1200E+03
    -29.961  0.0000E+00  0.0000E+00  0.1200E+03  0.1200E+03
    -29.722  0.0000E+00  0.0000E+00  0.1200E+03  0.1200E+03
    -29.484  0.0000E+00  0.0000E+00  0.1200E+03  0.1200E+03
    -29.246  0.0000E+00  0.0000E+00  0.1200E+03  0.1200E+03
    -29.008  0.0000E+00  0.0000E+00  0.1200E+03  0.1200E+03
    -28.770  0.0000E+00  0.0000E+00  0.1200E+03  0.1200E+03
    -28.532  0.0000E+00  0.0000E+00  0.1200E+03  0.1200E+03
    -28.293  0.0000E+00  0.0000E+00  0.1200E+03  0.1200E+03
    -28.055  0.0000E+00  0.0000E+00  0.1200E+03  0.1200E+03
    -27.817  0.0000E+00  0.0000E+00  0.1200E+03  0.1200E+03
    -27.579  0.0000E+00  0.0000E+00  0.1200E+03  0.1200E+03
    -27.341  0.0000E+00  0.0000E+00  0.1200E+03  0.1200E+03
    -27.103  0.0000E+00  0.0000E+00  0.1200E+03  0.1200E+03
    -26.864  0.0000E+00  0.0000E+00  0.1200E+03  0.1200E+03
    -26.626  0.0000E+00  0.0000E+00  0.1200E+03  0.1200E+03
    -26.388  0.0000E+00  0.0000E+00  0.1200E+03  0.1200E+03
    -26.150  0.0000E+00  0.0000E+00  0.1200E+03  0.1200E+03
    -25.912  0.0000E+00  0.0000E+00  0.1200E+03  0.1200E+03
    -25.674  0.0000E+00  0.0000E+00  0.1200E+03  0.1200E+03
    -25.435  0.0000E+00  0.0000E+00  0.1200E+03  0.1200E+03
    -25.197  0.0000E+00  0.0000E+00  0.1200E+03  0.1200E+03
    -24.959  0.0000E+00  0.0000E+00  0.1200E+03  0.1200E+03
    -24.721  0.0000E+00  0.0000E+00  0.1200E+03  0.1200E+03
    -24.483  0.0000E+00  0.0000E+00  0.1200E+03  0.1200E+03
    -24.245  0.0000E+00  0.0000E+00  0.1200E+03  0.1200E+03
    -24.006  0.0000E+00  0.0000E+00  0.1200E+03  0.1200E+03
    -23.768  0.0000E+00  0.0000E+00  0.1200E+03  0.1200E+03
    -23.530  0.0000E+00  0.0000E+00  0.1200E+03  0.1200E+03
    -23.292  0.0000E+00  0.0000E+00  0.1200E+03  0.1200E+03
    -23.054  0.0000E+00  0.0000E+00  0.1200E+03  0.1200E+03
    -22.816  0.0000E+00  0.0000E+00  0.1200E+03  0.1200E+03
    -22.577  0.0000E+00  0.0000E+00  0.1200E+03  0.1200E+03
    -22.339  0.0000E+00  0.0000E+00  0.1200E+03  0.1200E+03
    -22.101  0.0000E+00  0.0000E+00  0.1200E+03  0.1200E+03
    -21.863  0.0000E+00  0.0000E+00  0.1200E+03  0.1200E+03
    -21.625  0.0000E+00  0.0000E+00  0.1200E+03  0.1200E+03
    -21.387  0.0000E+00  0.0000E+00  0.1200E+03  0.1200E+03
    -21.148  0.0000E+00  0.0000E+00  0.1200E+03  0.1200E+03
    -20.910  0.0000E+00  0.0000E+00  0.1200E+03  0.1200E+03
    -20.672  0.0000E+00  0.0000E+00  0.1200E+03  0.1200E+03
    -20.434  0.0000E+00  0.0000E+00  0.1200E+03  0.1200E+03
    -20.196  0.0000E+00  0.0000E+00  0.1200E+03  0.1200E+03
    -19.958  0.0000E+00  0.0000E+00  0.1200E+03  0.1200E+03
    -19.719  0.0000E+00  0.0000E+00  0.1200E+03  0.1200E+03
    -19.481  0.0000E+00  0.0000E+00  0.1200E+03  0.1200E+03
    -19.243  0.0000E+00  0.0000E+00  0.1200E+03  0.1200E+03
    -19.005  0.0000E+00  0.0000E+00  0.1200E+03  0.1200E+03
    -18.767  0.0000E+00  0.0000E+00  0.1200E+03  0.1200E+03
    -18.529  0.0000E+00  0.0000E+00  0.1200E+03  0.1200E+03
    -18.290  0.0000E+00  0.0000E+00  0.1200E+03  0.1200E+03
    -18.052  0.0000E+00  0.0000E+00  0.1200E+03  0.1200E+03
    -17.814  0.0000E+00  0.0000E+00  0.1200E+03  0.1200E+03
    -17.576  0.0000E+00  0.0000E+00  0.1200E+03  0.1200E+03
    -17.338  0.0000E+00  0.0000E+00  0.1200E+03  0.1200E+03
    -17.100  0.0000E+00  0.0000E+00  0.1200E+03  0.1200E+03
    -16.861  0.0000E+00  0.0000E+00  0.1200E+03  0.1200E+03
    -16.623  0.0000E+00  0.0000E+00  0.1200E+03  0.1200E+03
    -16.385  0.0000E+00  0.0000E+00  0.1200E+03  0.1200E+03
    -16.147  0.0000E+00  0.0000E+00  0.1200E+03  0.1200E+03
    -15.909  0.0000E+00  0.0000E+00  0.1200E+03  0.1200E+03
    -15.671  0.0000E+00  0.0000E+00  0.1200E+03  0.1200E+03
    -15.433  0.0000E+00  0.0000E+00  0.1200E+03  0.1200E+03
    -15.194  0.0000E+00  0.0000E+00  0.1200E+03  0.1200E+03
    -14.956  0.0000E+00  0.0000E+00  0.1200E+03  0.1200E+03
    -14.718  0.0000E+00  0.0000E+00  0.1200E+03  0.1200E+03
    -14.480  0.0000E+00  0.0000E+00  0.1200E+03  0.1200E+03
    -14.242  0.0000E+00  0.0000E+00  0.1200E+03  0.1200E+03
    -14.004  0.0000E+00  0.0000E+00  0.1200E+03  0.1200E+03
    -13.765  0.4521E-09  0.0000E+00  0.1200E+03  0.1200E+03
    -13.527  0.7424E+01  0.3453E-16  0.1218E+03  0.1200E+03
    -13.289  0.5981E+02  0.2141E+00  0.1360E+03  0.1201E+03
    -13.051  0.3354E+02  0.6499E+02  0.1440E+03  0.1355E+03
    -12.813  0.5330E-03  0.3557E+02  0.1440E+03  0.1440E+03
    -12.575  0.0000E+00  0.7670E-04  0.1440E+03  0.1440E+03
    -12.336  0.0000E+00  0.0000E+00  0.1440E+03  0.1440E+03
    -12.098  0.0000E+00  0.0000E+00  0.1440E+03  0.1440E+03
    -11.860  0.0000E+00  0.0000E+00  0.1440E+03  0.1440E+03
    -11.622  0.0000E+00  0.0000E+00  0.1440E+03  0.1440E+03
    -11.384  0.0000E+00  0.0000E+00  0.1440E+03  0.1440E+03
    -11.146  0.0000E+00  0.0000E+00  0.1440E+03  0.1440E+03
    -10.907  0.0000E+00  0.0000E+00  0.1440E+03  0.1440E+03
    -10.669  0.0000E+00  0.0000E+00  0.1440E+03  0.1440E+03
    -10.431  0.0000E+00  0.0000E+00  0.1440E+03  0.1440E+03
    -10.193  0.0000E+00  0.0000E+00  0.1440E+03  0.1440E+03
     -9.955  0.0000E+00  0.0000E+00  0.1440E+03  0.1440E+03
     -9.717  0.0000E+00  0.0000E+00  0.1440E+03  0.1440E+03
     -9.478  0.0000E+00  0.0000E+00  0.1440E+03  0.1440E+03
     -9.240  0.0000E+00  0.0000E+00  0.1440E+03  0.1440E+03
     -9.002  0.0000E+00  0.0000E+00  0.1440E+03  0.1440E+03
     -8.764  0.0000E+00  0.0000E+00  0.1440E+03  0.1440E+03
     -8.526  0.0000E+00  0.0000E+00  0.1440E+03  0.1440E+03
     -8.288  0.0000E+00  0.0000E+00  0.1440E+03  0.1440E+03
     -8.049  0.0000E+00  0.0000E+00  0.1440E+03  0.1440E+03
     -7.811  0.6636E-02  0.5180E-16  0.1440E+03  0.1440E+03
     -7.573  0.1743E+02  0.8307E-01  0.1482E+03  0.1440E+03
     -7.335  0.4740E+02  0.2765E+02  0.1594E+03  0.1506E+03
     -7.097  0.3483E+02  0.4937E+02  0.1677E+03  0.1624E+03
     -6.859  0.1105E+01  0.2283E+02  0.1680E+03  0.1678E+03
     -6.620  0.0000E+00  0.8353E+00  0.1680E+03  0.1680E+03
     -6.382  0.0000E+00  0.0000E+00  0.1680E+03  0.1680E+03
     -6.144  0.0000E+00  0.0000E+00  0.1680E+03  0.1680E+03
     -5.906  0.0000E+00  0.0000E+00  0.1680E+03  0.1680E+03
     -5.668  0.0000E+00  0.0000E+00  0.1680E+03  0.1680E+03
     -5.430  0.0000E+00  0.0000E+00  0.1680E+03  0.1680E+03
     -5.191  0.0000E+00  0.0000E+00  0.1680E+03  0.1680E+03
     -4.953  0.0000E+00  0.0000E+00  0.1680E+03  0.1680E+03
     -4.715  0.0000E+00  0.0000E+00  0.1680E+03  0.1680E+03
     -4.477  0.0000E+00  0.0000E+00  0.1680E+03  0.1680E+03
     -4.239  0.0000E+00  0.0000E+00  0.1680E+03  0.1680E+03
     -4.001  0.0000E+00  0.0000E+00  0.1680E+03  0.1680E+03
     -3.762  0.0000E+00  0.0000E+00  0.1680E+03  0.1680E+03
     -3.524  0.0000E+00  0.0000E+00  0.1680E+03  0.1680E+03
     -3.286  0.0000E+00  0.0000E+00  0.1680E+03  0.1680E+03
     -3.048  0.0000E+00  0.0000E+00  0.1680E+03  0.1680E+03
     -2.810  0.0000E+00  0.0000E+00  0.1680E+03  0.1680E+03
     -2.572  0.0000E+00  0.0000E+00  0.1680E+03  0.1680E+03
     -2.333  0.0000E+00  0.0000E+00  0.1680E+03  0.1680E+03
     -2.095  0.7435E-06  0.0000E+00  0.1680E+03  0.1680E+03
     -1.857  0.6760E+01  0.0000E+00  0.1696E+03  0.1680E+03
     -1.619  0.5700E+02  0.0000E+00  0.1832E+03  0.1680E+03
     -1.381  0.4327E+02  0.0000E+00  0.1935E+03  0.1680E+03
     -1.143  0.3204E+02  0.0000E+00  0.2011E+03  0.1680E+03
     -0.904  0.5290E+02  0.5688E-09  0.2137E+03  0.1680E+03
     -0.666  0.5384E+02  0.1465E+01  0.2265E+03  0.1683E+03
     -0.428  0.6619E+02  0.1650E+02  0.2423E+03  0.1723E+03
     -0.190  0.5564E+02  0.3855E+02  0.2556E+03  0.1815E+03
      0.048  0.3411E+02  0.3598E+02  0.2637E+03  0.1900E+03
      0.286  0.5465E+02  0.2173E+02  0.2767E+03  0.1952E+03
      0.525  0.4832E+02  0.4859E+02  0.2882E+03  0.2068E+03
      0.763  0.3257E+02  0.4814E+02  0.2960E+03  0.2182E+03
      1.001  0.4971E+02  0.6824E+02  0.3078E+03  0.2345E+03
      1.239  0.4798E+02  0.2797E+02  0.3192E+03  0.2412E+03
      1.477  0.5469E+02  0.2222E+02  0.3323E+03  0.2464E+03
      1.715  0.6191E+02  0.3746E+02  0.3470E+03  0.2554E+03
      1.954  0.3508E+02  0.4609E+02  0.3554E+03  0.2663E+03
      2.192  0.2519E+02  0.3005E+02  0.3614E+03  0.2735E+03
      2.430  0.1312E+02  0.3591E+02  0.3645E+03  0.2821E+03
      2.668  0.3759E+02  0.2527E+02  0.3734E+03  0.2881E+03
      2.906  0.3842E+02  0.4562E+02  0.3826E+03  0.2989E+03
      3.144  0.3003E+02  0.4186E+02  0.3897E+03  0.3089E+03
      3.383  0.4338E+02  0.1543E+02  0.4001E+03  0.3126E+03
      3.621  0.5302E+02  0.2873E+02  0.4127E+03  0.3194E+03
      3.859  0.4809E+02  0.5780E+02  0.4241E+03  0.3332E+03
      4.097  0.3033E+02  0.1179E+02  0.4314E+03  0.3360E+03
      4.335  0.2632E+01  0.3002E-04  0.4320E+03  0.3360E+03
      4.573  0.0000E+00  0.0000E+00  0.4320E+03  0.3360E+03
      4.812  0.0000E+00  0.0000E+00  0.4320E+03  0.3360E+03
      5.050  0.0000E+00  0.0000E+00  0.4320E+03  0.3360E+03
      5.288  0.0000E+00  0.0000E+00  0.4320E+03  0.3360E+03
      5.526  0.0000E+00  0.0000E+00  0.4320E+03  0.3360E+03
      5.764  0.0000E+00  0.0000E+00  0.4320E+03  0.3360E+03
      6.002  0.0000E+00  0.1792E-02  0.4320E+03  0.3360E+03
      6.241  0.0000E+00  0.1748E+01  0.4320E+03  0.3364E+03
      6.479  0.0000E+00  0.1288E+02  0.4320E+03  0.3395E+03
      6.717  0.0000E+00  0.2679E+02  0.4320E+03  0.3459E+03
      6.955  0.0000E+00  0.2483E+02  0.4320E+03  0.3518E+03
      7.193  0.2509E-05  0.5548E+02  0.4320E+03  0.3650E+03
      7.431  0.1547E+00  0.7731E+02  0.4320E+03  0.3834E+03
      7.670  0.6579E+00  0.2992E+02  0.4322E+03  0.3905E+03
      7.908  0.1402E+01  0.4076E+02  0.4325E+03  0.4002E+03
      8.146  0.4760E+01  0.7638E+02  0.4337E+03  0.4184E+03
      8.384  0.6730E+01  0.5292E+02  0.4353E+03  0.4310E+03
      8.622  0.1578E+02  0.4445E+01  0.4390E+03  0.4321E+03
      8.860  0.2359E+02  0.1039E+01  0.4446E+03  0.4323E+03
      9.099  0.1954E+02  0.4389E+01  0.4493E+03  0.4334E+03
      9.337  0.1941E+02  0.1019E+02  0.4539E+03  0.4358E+03
      9.575  0.2005E+02  0.2033E+02  0.4587E+03  0.4407E+03
      9.813  0.2431E+02  0.2864E+02  0.4645E+03  0.4475E+03
     10.051  0.2225E+02  0.2998E+02  0.4698E+03  0.4546E+03
     10.289  0.1769E+02  0.3039E+02  0.4740E+03  0.4619E+03
     10.528  0.2440E+02  0.2586E+02  0.4798E+03  0.4680E+03
     10.766  0.1566E+02  0.2605E+02  0.4835E+03  0.4742E+03
     11.004  0.2632E+02  0.2486E+02  0.4898E+03  0.4801E+03
     11.242  0.4523E+02  0.1001E+02  0.5006E+03  0.4825E+03
     11.480  0.4883E+02  0.2540E+02  0.5122E+03  0.4886E+03
     11.718  0.3594E+02  0.2930E+02  0.5208E+03  0.4955E+03
     11.957  0.2021E+02  0.5710E+02  0.5256E+03  0.5091E+03
     12.195  0.2097E+02  0.4473E+02  0.5306E+03  0.5198E+03
     12.433  0.2917E+02  0.2723E+02  0.5375E+03  0.5263E+03
     12.671  0.3325E+02  0.2349E+02  0.5454E+03  0.5319E+03
     12.909  0.1971E+02  0.2800E+02  0.5501E+03  0.5385E+03
     13.147  0.7729E+01  0.3282E+02  0.5520E+03  0.5464E+03
     13.386  0.8880E-01  0.1963E+02  0.5520E+03  0.5510E+03
     13.624  0.0000E+00  0.4024E+01  0.5520E+03  0.5520E+03
     13.862  0.0000E+00  0.5470E-05  0.5520E+03  0.5520E+03
     14.100  0.0000E+00  0.0000E+00  0.5520E+03  0.5520E+03
     14.338  0.0000E+00  0.0000E+00  0.5520E+03  0.5520E+03
     14.576  0.0000E+00  0.0000E+00  0.5520E+03  0.5520E+03
     14.815  0.0000E+00  0.0000E+00  0.5520E+03  0.5520E+03
     15.053  0.0000E+00  0.0000E+00  0.5520E+03  0.5520E+03
     15.291  0.0000E+00  0.0000E+00  0.5520E+03  0.5520E+03
     15.529  0.0000E+00  0.0000E+00  0.5520E+03  0.5520E+03
     15.767  0.0000E+00  0.0000E+00  0.5520E+03  0.5520E+03
     16.005  0.0000E+00  0.0000E+00  0.5520E+03  0.5520E+03
     16.244  0.0000E+00  0.0000E+00  0.5520E+03  0.5520E+03
     16.482  0.0000E+00  0.0000E+00  0.5520E+03  0.5520E+03
     16.720  0.0000E+00  0.0000E+00  0.5520E+03  0.5520E+03
