 vasp.5.4.4.18Apr17-6-g9f103f2a35 (build Oct 25 2017 14:42:18) complex          
  
 executed on             LinuxIFC date 2021.04.16  15:40:00
 running on   48 total cores
 distrk:  each k-point on   24 cores,    2 groups
 distr:  one band on NCORES_PER_BAND=   6 cores,    4 groups


--------------------------------------------------------------------------------------------------------


 INCAR:
 POTCAR:    PAW_PBE Li_sv 10Sep2004               
 POTCAR:    PAW_PBE O 08Apr2002                   
 POTCAR:    PAW_PBE S 06Sep2000                   
 POTCAR:    PAW_PBE Fe_pv 02Aug2007               

 ----------------------------------------------------------------------------- 
|                                                                             |
|           W    W    AA    RRRRR   N    N  II  N    N   GGGG   !!!           |
|           W    W   A  A   R    R  NN   N  II  NN   N  G    G  !!!           |
|           W    W  A    A  R    R  N N  N  II  N N  N  G       !!!           |
|           W WW W  AAAAAA  RRRRR   N  N N  II  N  N N  G  GGG   !            |
|           WW  WW  A    A  R   R   N   NN  II  N   NN  G    G                |
|           W    W  A    A  R    R  N    N  II  N    N   GGGG   !!!           |
|                                                                             |
|      You have enabled k-point parallelism (KPAR>1).                         |
|      This developmental code was originally  written by Paul Kent at ORNL,  |
|      and carefully double checked in Vienna.                                |
|      GW as well as linear response parallelism added by Martijn Marsman     |
|      and Georg Kresse.                                                      |
|      Carefully verify results versus KPAR=1.                                |
|      Report problems to Paul Kent and Vienna.                               |
|                                                                             |
 ----------------------------------------------------------------------------- 

 POTCAR:    PAW_PBE Li_sv 10Sep2004               
  local pseudopotential read in
  atomic valenz-charges read in
  non local Contribution for L=           0  read in
    real space projection operators read in
  non local Contribution for L=           0  read in
    real space projection operators read in
  non local Contribution for L=           1  read in
    real space projection operators read in
    PAW grid and wavefunctions read in
 
   number of l-projection  operators is LMAX  =           3
   number of lm-projection operators is LMMAX =           5
 
 POTCAR:    PAW_PBE O 08Apr2002                   
  local pseudopotential read in
  partial core-charges read in
  partial kinetic energy density read in
  kinetic energy density of atom read in
  atomic valenz-charges read in
  non local Contribution for L=           0  read in
    real space projection operators read in
  non local Contribution for L=           0  read in
    real space projection operators read in
  non local Contribution for L=           1  read in
    real space projection operators read in
  non local Contribution for L=           1  read in
    real space projection operators read in
    PAW grid and wavefunctions read in
 
   number of l-projection  operators is LMAX  =           4
   number of lm-projection operators is LMMAX =           8
 
 POTCAR:    PAW_PBE S 06Sep2000                   
  local pseudopotential read in
  partial core-charges read in
  partial kinetic energy density read in
  atomic valenz-charges read in
  non local Contribution for L=           0  read in
    real space projection operators read in
  non local Contribution for L=           0  read in
    real space projection operators read in
  non local Contribution for L=           1  read in
    real space projection operators read in
  non local Contribution for L=           1  read in
    real space projection operators read in
    PAW grid and wavefunctions read in
 
   number of l-projection  operators is LMAX  =           4
   number of lm-projection operators is LMMAX =           8
 
 POTCAR:    PAW_PBE Fe_pv 02Aug2007               
  local pseudopotential read in
  partial core-charges read in
  partial kinetic energy density read in
  atomic valenz-charges read in
  non local Contribution for L=           1  read in
    real space projection operators read in
  non local Contribution for L=           1  read in
    real space projection operators read in
  non local Contribution for L=           2  read in
    real space projection operators read in
  non local Contribution for L=           2  read in
    real space projection operators read in
  non local Contribution for L=           0  read in
    real space projection operators read in
  non local Contribution for L=           0  read in
    real space projection operators read in
    PAW grid and wavefunctions read in
 
   number of l-projection  operators is LMAX  =           6
   number of lm-projection operators is LMMAX =          18
 

 ----------------------------------------------------------------------------- 
|                                                                             |
|  ADVICE TO THIS USER RUNNING 'VASP/VAMP'   (HEAR YOUR MASTER'S VOICE ...):  |
|                                                                             |
|      You have a (more or less) 'large supercell' and for larger cells       |
|      it might be more efficient to use real space projection opertators     |
|      So try LREAL= Auto  in the INCAR   file.                               |
|      Mind:          For very  accurate calculation you might also keep the  |
|      reciprocal projection scheme          (i.e. LREAL=.FALSE.)             |
|                                                                             |
 ----------------------------------------------------------------------------- 

  PAW_PBE Li_sv 10Sep2004               :
 energy of atom  1       EATOM= -202.7858
 kinetic energy error for atom=    0.0072 (will be added to EATOM!!)
  PAW_PBE O 08Apr2002                   :
 energy of atom  2       EATOM= -432.3788
 kinetic energy error for atom=    0.0129 (will be added to EATOM!!)
  PAW_PBE S 06Sep2000                   :
 energy of atom  3       EATOM= -276.8230
 kinetic energy error for atom=    0.0008 (will be added to EATOM!!)
  PAW_PBE Fe_pv 02Aug2007               :
 energy of atom  4       EATOM=-2457.4239
 kinetic energy error for atom=    0.0041 (will be added to EATOM!!)
 
 
 POSCAR: # Compound: Li48O24S24Fe24. Old comment:
  positions in direct lattice
  No initial velocities read in
 exchange correlation table for  LEXCH =        8
   RHO(1)=    0.500       N(1)  =     2000
   RHO(2)=  100.500       N(2)  =     4000
 


--------------------------------------------------------------------------------------------------------


 ion  position               nearest neighbor table
   1  0.035  0.364  0.356-  51 1.97  49 1.97  73 2.65
   2  0.369  0.363  0.356-  49 1.97  50 1.97  74 2.65
   3  0.702  0.363  0.356-  50 1.97  51 1.97  75 2.65
   4  0.035  0.863  0.356-  54 1.97  52 1.97  76 2.65
   5  0.369  0.863  0.356-  52 1.97  53 1.97  77 2.65
   6  0.702  0.863  0.356-  53 1.97  54 1.97  78 2.65
   7  0.035  0.363  0.856-  57 1.97  55 1.97  79 2.65
   8  0.369  0.363  0.856-  55 1.97  56 1.97  80 2.65
   9  0.702  0.363  0.856-  56 1.97  57 1.97  81 2.65
  10  0.035  0.863  0.856-  60 1.97  58 1.97  82 2.65
  11  0.369  0.863  0.856-  58 1.97  59 1.97  83 2.65
  12  0.702  0.863  0.856-  59 1.97  60 1.97  84 2.65
  13  0.035  0.113  0.144-  63 1.97  61 1.97  85 2.65
  14  0.369  0.113  0.144-  61 1.97  62 1.97  86 2.65
  15  0.702  0.113  0.144-  62 1.97  63 1.97  87 2.65
  16  0.035  0.613  0.144-  66 1.97  64 1.97  88 2.65
  17  0.369  0.613  0.144-  64 1.97  65 1.97  89 2.65
  18  0.702  0.613  0.144-  65 1.97  66 1.97  90 2.65
  19  0.035  0.113  0.644-  69 1.97  67 1.97  91 2.65
  20  0.369  0.113  0.644-  67 1.97  68 1.97  92 2.65
  21  0.702  0.113  0.644-  68 1.97  69 1.97  93 2.65
  22  0.035  0.613  0.644-  72 1.97  70 1.97  94 2.65
  23  0.369  0.613  0.644-  70 1.97  71 1.97  95 2.65
  24  0.702  0.613  0.644-  71 1.97  72 1.97  96 2.65
  25  0.202  0.219  0.272-  61 1.99  49 2.02  85 2.55  86 2.55
  26  0.535  0.219  0.272-  62 1.99  50 2.02  86 2.55  87 2.55
  27  0.869  0.219  0.272-  63 1.99  51 2.02  87 2.55  85 2.55
  28  0.202  0.719  0.272-  64 1.99  52 2.02  88 2.55  89 2.55
  29  0.535  0.719  0.272-  65 1.99  53 2.02  89 2.55  90 2.55
  30  0.869  0.719  0.272-  66 1.99  54 2.02  90 2.55  88 2.55
  31  0.202  0.219  0.772-  67 1.99  55 2.02  91 2.55  92 2.55
  32  0.535  0.219  0.772-  68 1.99  56 2.02  92 2.55  93 2.55
  33  0.869  0.219  0.772-  69 1.99  57 2.02  93 2.55  91 2.55
  34  0.202  0.719  0.772-  70 1.99  58 2.02  94 2.55  95 2.55
  35  0.535  0.719  0.772-  71 1.99  59 2.02  95 2.55  96 2.55
  36  0.869  0.719  0.772-  72 1.99  60 2.02  96 2.55  94 2.55
  37  0.202  0.469  0.228-  49 1.99  64 2.02  73 2.55  74 2.55
  38  0.535  0.469  0.228-  50 1.99  65 2.02  74 2.55  75 2.55
  39  0.869  0.469  0.228-  51 1.99  66 2.02  75 2.55  73 2.55
  40  0.202  0.969  0.228-  52 1.99  61 2.02  76 2.55  77 2.55
  41  0.535  0.969  0.228-  53 1.99  62 2.02  77 2.55  78 2.55
  42  0.869  0.969  0.228-  54 1.99  63 2.02  78 2.55  76 2.55
  43  0.202  0.469  0.728-  55 1.99  70 2.02  79 2.55  80 2.55
  44  0.535  0.469  0.728-  56 1.99  71 2.02  80 2.55  81 2.55
  45  0.869  0.469  0.728-  57 1.99  72 2.02  81 2.55  79 2.55
  46  0.202  0.969  0.728-  58 1.99  67 2.02  82 2.55  83 2.55
  47  0.535  0.969  0.728-  59 1.99  68 2.02  83 2.55  84 2.55
  48  0.869  0.969  0.728-  60 1.99  69 2.02  84 2.55  82 2.55
  49  0.202  0.368  0.374-   1 1.97   2 1.97  37 1.99 100 2.01  25 2.02 115 2.02
  50  0.535  0.368  0.374-   3 1.97   2 1.97  38 1.99 101 2.01  26 2.02 116 2.02
  51  0.869  0.368  0.374-   1 1.97   3 1.97  39 1.99 102 2.01  27 2.02 117 2.02
  52  0.202  0.868  0.374-   5 1.97   4 1.97  40 1.99  97 2.01  28 2.02 118 2.02
  53  0.535  0.868  0.374-   6 1.97   5 1.97  41 1.99  98 2.01  29 2.02 119 2.02
  54  0.869  0.868  0.374-   4 1.97   6 1.97  42 1.99  99 2.01  30 2.02 120 2.02
  55  0.202  0.368  0.874-   8 1.97   7 1.97  43 1.99 106 2.01  31 2.02 109 2.02
  56  0.535  0.368  0.874-   9 1.97   8 1.97  44 1.99 107 2.01  32 2.02 110 2.02
  57  0.869  0.368  0.874-   7 1.97   9 1.97  45 1.99 108 2.01  33 2.02 111 2.02
  58  0.202  0.868  0.874-  11 1.97  10 1.97  46 1.99 103 2.01  34 2.02 112 2.02
  59  0.535  0.868  0.874-  12 1.97  11 1.97  47 1.99 104 2.01  35 2.02 113 2.02
  60  0.869  0.868  0.874-  10 1.97  12 1.97  48 1.99 105 2.01  36 2.02 114 2.02
  61  0.202  0.118  0.126-  14 1.97  13 1.97  25 1.99 109 2.01  40 2.02 103 2.02
  62  0.535  0.118  0.126-  15 1.97  14 1.97  26 1.99 110 2.01  41 2.02 104 2.02
  63  0.869  0.118  0.126-  13 1.97  15 1.97  27 1.99 111 2.01  42 2.02 105 2.02
  64  0.202  0.618  0.126-  17 1.97  16 1.97  28 1.99 112 2.01  37 2.02 106 2.02
  65  0.535  0.618  0.126-  18 1.97  17 1.97  29 1.99 113 2.01  38 2.02 107 2.02
  66  0.869  0.618  0.126-  16 1.97  18 1.97  30 1.99 114 2.01  39 2.02 108 2.02
  67  0.202  0.118  0.626-  20 1.97  19 1.97  31 1.99 115 2.01  46 2.02  97 2.02
  68  0.535  0.118  0.626-  21 1.97  20 1.97  32 1.99 116 2.01  47 2.02  98 2.02
  69  0.869  0.118  0.626-  19 1.97  21 1.97  33 1.99 117 2.01  48 2.02  99 2.02
  70  0.202  0.618  0.626-  23 1.97  22 1.97  34 1.99 118 2.01  43 2.02 100 2.02
  71  0.535  0.618  0.626-  24 1.97  23 1.97  35 1.99 119 2.01  44 2.02 101 2.02
  72  0.869  0.618  0.626-  22 1.97  24 1.97  36 1.99 120 2.01  45 2.02 102 2.02
  73  0.035  0.370  0.120-  37 2.55  39 2.55 111 2.56 109 2.56   1 2.65
  74  0.369  0.370  0.120-  38 2.55  37 2.55 109 2.56 110 2.56   2 2.65
  75  0.702  0.370  0.120-  39 2.55  38 2.55 110 2.56 111 2.56   3 2.65
  76  0.035  0.870  0.120-  40 2.55  42 2.55 114 2.56 112 2.56   4 2.65
  77  0.369  0.870  0.120-  41 2.55  40 2.55 112 2.56 113 2.56   5 2.65
  78  0.702  0.870  0.120-  42 2.55  41 2.55 113 2.56 114 2.56   6 2.65
  79  0.035  0.370  0.620-  43 2.55  45 2.55 117 2.56 115 2.56   7 2.65
  80  0.369  0.370  0.620-  44 2.55  43 2.55 115 2.56 116 2.56   8 2.65
  81  0.702  0.370  0.620-  45 2.55  44 2.55 116 2.56 117 2.56   9 2.65
  82  0.035  0.870  0.620-  46 2.55  48 2.55 120 2.56 118 2.56  10 2.65
  83  0.369  0.870  0.620-  47 2.55  46 2.55 118 2.56 119 2.56  11 2.65
  84  0.702  0.870  0.620-  48 2.55  47 2.55 119 2.56 120 2.56  12 2.65
  85  0.035  0.120  0.380-  25 2.55  27 2.55  99 2.56  97 2.56  13 2.65
  86  0.369  0.120  0.380-  26 2.55  25 2.55  97 2.56  98 2.56  14 2.65
  87  0.702  0.120  0.380-  27 2.55  26 2.55  98 2.56  99 2.56  15 2.65
  88  0.035  0.620  0.380-  28 2.55  30 2.55 102 2.56 100 2.56  16 2.65
  89  0.369  0.620  0.380-  29 2.55  28 2.55 100 2.56 101 2.56  17 2.65
  90  0.702  0.620  0.380-  30 2.55  29 2.55 101 2.56 102 2.56  18 2.65
  91  0.035  0.120  0.880-  31 2.55  33 2.55 105 2.56 103 2.56  19 2.65
  92  0.369  0.120  0.880-  32 2.55  31 2.55 103 2.56 104 2.56  20 2.65
  93  0.702  0.120  0.880-  33 2.55  32 2.55 104 2.56 105 2.56  21 2.65
  94  0.035  0.620  0.880-  34 2.55  36 2.55 108 2.56 106 2.56  22 2.65
  95  0.369  0.620  0.880-  35 2.55  34 2.55 106 2.56 107 2.56  23 2.65
  96  0.702  0.620  0.880-  36 2.55  35 2.55 107 2.56 108 2.56  24 2.65
  97  0.202  0.012  0.480-  52 2.01  67 2.02  86 2.56  85 2.56
  98  0.535  0.012  0.480-  53 2.01  68 2.02  87 2.56  86 2.56
  99  0.869  0.012  0.480-  54 2.01  69 2.02  85 2.56  87 2.56
 100  0.202  0.512  0.480-  49 2.01  70 2.02  89 2.56  88 2.56
 101  0.535  0.512  0.480-  50 2.01  71 2.02  90 2.56  89 2.56
 102  0.869  0.512  0.480-  51 2.01  72 2.02  88 2.56  90 2.56
 103  0.202  0.012  0.980-  58 2.01  61 2.02  92 2.56  91 2.56
 104  0.535  0.012  0.980-  59 2.01  62 2.02  93 2.56  92 2.56
 105  0.869  0.012  0.980-  60 2.01  63 2.02  91 2.56  93 2.56
 106  0.202  0.512  0.980-  55 2.01  64 2.02  95 2.56  94 2.56
 107  0.535  0.512  0.980-  56 2.01  65 2.02  96 2.56  95 2.56
 108  0.869  0.512  0.980-  57 2.01  66 2.02  94 2.56  96 2.56
 109  0.202  0.262  0.020-  61 2.01  55 2.02  74 2.56  73 2.56
 110  0.535  0.262  0.020-  62 2.01  56 2.02  75 2.56  74 2.56
 111  0.869  0.262  0.020-  63 2.01  57 2.02  73 2.56  75 2.56
 112  0.202  0.762  0.020-  64 2.01  58 2.02  77 2.56  76 2.56
 113  0.535  0.762  0.020-  65 2.01  59 2.02  78 2.56  77 2.56
 114  0.869  0.762  0.020-  66 2.01  60 2.02  76 2.56  78 2.56
 115  0.202  0.262  0.520-  67 2.01  49 2.02  80 2.56  79 2.56
 116  0.535  0.262  0.520-  68 2.01  50 2.02  81 2.56  80 2.56
 117  0.869  0.262  0.520-  69 2.01  51 2.02  79 2.56  81 2.56
 118  0.202  0.762  0.520-  70 2.01  52 2.02  83 2.56  82 2.56
 119  0.535  0.762  0.520-  71 2.01  53 2.02  84 2.56  83 2.56
 120  0.869  0.762  0.520-  72 2.01  54 2.02  82 2.56  84 2.56
 

IMPORTANT INFORMATION: All symmetrisations will be switched off!
NOSYMM: (Re-)initialisation of all symmetry stuff for point group C_1.

 
 
 KPOINTS: # No comment                            

Automatic generation of k-mesh.
Space group operators:
 irot       det(A)        alpha          n_x          n_y          n_z        tau_x        tau_y        tau_z
    1     1.000000     0.000000     1.000000     0.000000     0.000000     0.000000     0.000000     0.000000
 
 Subroutine IBZKPT returns following result:
 ===========================================
 
 Found     14 irreducible k-points:
 
 Following reciprocal coordinates:
            Coordinates               Weight
  0.000000  0.000000  0.000000      1.000000
  0.333333  0.000000  0.000000      2.000000
  0.000000  0.333333  0.000000      2.000000
  0.333333  0.333333  0.000000      2.000000
 -0.333333  0.333333  0.000000      2.000000
  0.000000  0.000000  0.333333      2.000000
  0.333333  0.000000  0.333333      2.000000
 -0.333333  0.000000  0.333333      2.000000
  0.000000  0.333333  0.333333      2.000000
  0.333333  0.333333  0.333333      2.000000
 -0.333333  0.333333  0.333333      2.000000
 -0.000000 -0.333333  0.333333      2.000000
  0.333333 -0.333333  0.333333      2.000000
 -0.333333 -0.333333  0.333333      2.000000
 
 Following cartesian coordinates:
            Coordinates               Weight
  0.000000  0.000000  0.000000      1.000000
  0.028403 -0.000139  0.000000      2.000000
  0.000145  0.029713  0.000000      2.000000
  0.028548  0.029574  0.000000      2.000000
 -0.028257  0.029851  0.000000      2.000000
  0.000000  0.000000  0.029774      2.000000
  0.028403 -0.000139  0.029774      2.000000
 -0.028403  0.000139  0.029774      2.000000
  0.000145  0.029713  0.029774      2.000000
  0.028548  0.029574  0.029774      2.000000
 -0.028257  0.029851  0.029774      2.000000
 -0.000145 -0.029713  0.029774      2.000000
  0.028257 -0.029851  0.029774      2.000000
 -0.028548 -0.029574  0.029774      2.000000
 


--------------------------------------------------------------------------------------------------------




 Dimension of arrays:
   k-points           NKPTS =     14   k-points in BZ     NKDIM =     14   number of bands    NBANDS=    552
   number of dos      NEDOS =    301   number of ions     NIONS =    120
   non local maximal  LDIM  =      6   non local SUM 2l+1 LMDIM =     18
   total plane-waves  NPLWV = 903168
   max r-space proj   IRMAX =      1   max aug-charges    IRDMAX= 154614
   dimension x,y,z NGX =    98 NGY =   96 NGZ =   96
   dimension x,y,z NGXF=   196 NGYF=  192 NGZF=  192
   support grid    NGXF=   392 NGYF=  384 NGZF=  384
   ions per type =              48  24  24  24
   NGX,Y,Z   is equivalent  to a cutoff of  13.88, 14.23, 14.26 a.u.
   NGXF,Y,Z  is equivalent  to a cutoff of  27.76, 28.45, 28.51 a.u.

 SYSTEM =  unknown system                          
 POSCAR =  # Compound: Li48O24S24Fe24. Old comment:

 Startparameter for this run:
   NWRITE =      1    write-flag & timer
   PREC   = accura    normal or accurate (medium, high low for compatibility)
   ISTART =      0    job   : 0-new  1-cont  2-samecut
   ICHARG =      1    charge: 1-file 2-atom 10-const
   ISPIN  =      2    spin polarized calculation?
   LNONCOLLINEAR =      F non collinear calculations
   LSORBIT =      F    spin-orbit coupling
   INIWAV =      1    electr: 0-lowe 1-rand  2-diag
   LASPH  =      T    aspherical Exc in radial PAW
   METAGGA=      F    non-selfconsistent MetaGGA calc.

 Electronic Relaxation 1
   ENCUT  =  650.0 eV  47.77 Ry    6.91 a.u.  24.40 23.32 23.27*2*pi/ulx,y,z
   ENINI  =  650.0     initial cutoff
   ENAUG  =  628.9 eV  augmentation charge cutoff
   NELM   =    200;   NELMIN=  8; NELMDL=  0     # of ELM steps 
   EDIFF  = 0.1E-05   stopping-criterion for ELM
   LREAL  =      F    real-space projection
   NLSPLINE    = F    spline interpolate recip. space projectors
   LCOMPAT=      F    compatible to vasp.4.4
   GGA_COMPAT  = T    GGA compatible to vasp.4.4-vasp.4.6
   LMAXPAW     = -100 max onsite density
   LMAXMIX     =    4 max onsite mixed and CHGCAR
   VOSKOWN=      0    Vosko Wilk Nusair interpolation
   ROPT   =    0.00000   0.00000   0.00000   0.00000
 Ionic relaxation
   EDIFFG = 0.1E-04   stopping-criterion for IOM
   NSW    =      0    number of steps for IOM
   NBLOCK =      1;   KBLOCK =      1    inner block; outer block 
   IBRION =     -1    ionic relax: 0-MD 1-quasi-New 2-CG
   NFREE  =      0    steps in history (QN), initial steepest desc. (CG)
   ISIF   =      3    stress and relaxation
   IWAVPR =     10    prediction:  0-non 1-charg 2-wave 3-comb
   ISYM   =      0    0-nonsym 1-usesym 2-fastsym
   LCORR  =      T    Harris-Foulkes like correction to forces

   POTIM  = 0.5000    time-step for ionic-motion
   TEIN   =    0.0    initial temperature
   TEBEG  =    0.0;   TEEND  =   0.0 temperature during run
   SMASS  =  -3.00    Nose mass-parameter (am)
   estimated Nose-frequenzy (Omega)   =  0.10E-29 period in steps =****** mass=  -0.315E-26a.u.
   SCALEE = 1.0000    scale energy and forces
   NPACO  =    256;   APACO  = 16.0  distance and # of slots for P.C.
   PSTRESS=    0.0 pullay stress

  Mass of Ions in am
   POMASS =   7.01 16.00 32.07 55.85
  Ionic Valenz
   ZVAL   =   3.00  6.00  6.00 14.00
  Atomic Wigner-Seitz radii
   RWIGS  =  -1.00 -1.00 -1.00 -1.00
  virtual crystal weights 
   VCA    =   1.00  1.00  1.00  1.00
   NELECT =     768.0000    total number of electrons
   NUPDOWN=      -1.0000    fix difference up-down

 DOS related values:
   EMIN   =  10.00;   EMAX   =-10.00  energy-range for DOS
   EFERMI =   0.00
   ISMEAR =     0;   SIGMA  =   0.05  broadening in eV -4-tet -1-fermi 0-gaus

 Electronic relaxation 2 (details)
   IALGO  =     38    algorithm
   LDIAG  =      T    sub-space diagonalisation (order eigenvalues)
   LSUBROT=      F    optimize rotation matrix (better conditioning)
   TURBO    =      0    0=normal 1=particle mesh
   IRESTART =      0    0=no restart 2=restart with 2 vectors
   NREBOOT  =      0    no. of reboots
   NMIN     =      0    reboot dimension
   EREF     =   0.00    reference energy to select bands
   IMIX   =      4    mixing-type and parameters
     AMIX     =   0.40;   BMIX     =  1.00
     AMIX_MAG =   1.60;   BMIX_MAG =  1.00
     AMIN     =   0.10
     WC   =   100.;   INIMIX=   1;  MIXPRE=   1;  MAXMIX= -45

 Intra band minimization:
   WEIMIN = 0.0000     energy-eigenvalue tresh-hold
   EBREAK =  0.45E-09  absolut break condition
   DEPER  =   0.30     relativ break condition  

   TIME   =   0.40     timestep for ELM

  volume/ion in A,a.u.               =      12.28        82.89
  Fermi-wavevector in a.u.,A,eV,Ry     =   1.317335  2.489402 23.611165  1.735372
  Thomas-Fermi vector in A             =   2.447383
 
 Write flags
   LWAVE        =      F    write WAVECAR
   LDOWNSAMPLE  =      F    k-point downsampling of WAVECAR
   LCHARG       =      T    write CHGCAR
   LVTOT        =      F    write LOCPOT, total local potential
   LVHAR        =      F    write LOCPOT, Hartree potential only
   LELF         =      F    write electronic localiz. function (ELF)
   LORBIT       =      0    0 simple, 1 ext, 2 COOP (PROOUT), +10 PAW based schemes


 Dipole corrections
   LMONO  =      F    monopole corrections only (constant potential shift)
   LDIPOL =      F    correct potential (dipole corrections)
   IDIPOL =      0    1-x, 2-y, 3-z, 4-all directions 
   EPSILON=  1.0000000 bulk dielectric constant

 LDA+U is selected, type is set to LDAUTYPE =  2
   angular momentum for each species LDAUL =    -1   -1   -1    2
   U (eV)           for each species LDAUU =   0.0  0.0  0.0  4.0
   J (eV)           for each species LDAUJ =   0.0  0.0  0.0  0.0
 Exchange correlation treatment:
   GGA     =    PE    GGA type
   LEXCH   =     8    internal setting for exchange type
   VOSKOWN=      0    Vosko Wilk Nusair interpolation
   LHFCALC =     F    Hartree Fock is set to
   LHFONE  =     F    Hartree Fock one center treatment
   AEXX    =    0.0000 exact exchange contribution

 Linear response parameters
   LEPSILON=     F    determine dielectric tensor
   LRPA    =     F    only Hartree local field effects (RPA)
   LNABLA  =     F    use nabla operator in PAW spheres
   LVEL    =     F    velocity operator in full k-point grid
   LINTERFAST=   F  fast interpolation
   KINTER  =     0    interpolate to denser k-point grid
   CSHIFT  =0.1000    complex shift for real part using Kramers Kronig
   OMEGAMAX=  -1.0    maximum frequency
   DEG_THRESHOLD= 0.2000000E-02 threshold for treating states as degnerate
   RTIME   =   -0.100 relaxation time in fs
  (WPLASMAI=    0.000 imaginary part of plasma frequency in eV, 0.658/RTIME)
   DFIELD  = 0.0000000 0.0000000 0.0000000 field for delta impulse in time
 
 Orbital magnetization related:
   ORBITALMAG=     F  switch on orbital magnetization
   LCHIMAG   =     F  perturbation theory with respect to B field
   DQ        =  0.001000  dq finite difference perturbation B field
   LLRAUG    =     F  two centre corrections for induced B field



--------------------------------------------------------------------------------------------------------


 Static calculation
 charge density and potential will be updated during run
 spin polarized calculation
 Variant of blocked Davidson
 Davidson routine will perform the subspace rotation
 perform sub-space diagonalisation
    after iterative eigenvector-optimisation
 modified Broyden-mixing scheme, WC =      100.0
 initial mixing is a Kerker type mixing with AMIX =  0.4000 and BMIX =      1.0000
 Hartree-type preconditioning will be used
 using additional bands          168
 reciprocal scheme for non local part
 use partial core corrections
 calculate Harris-corrections to forces 
   (improved forces if not selfconsistent)
 use gradient corrections 
 use of overlap-Matrix (Vanderbilt PP)
 Gauss-broadening in eV      SIGMA  =   0.05


--------------------------------------------------------------------------------------------------------


  energy-cutoff  :      650.00
  volume of cell :     1474.00
      direct lattice vectors                 reciprocal lattice vectors
    11.735727240 -0.057442860  0.000000000     0.085207850 -0.000416288  0.000000000
     0.054807880 11.218334900  0.000000000     0.000436302  0.089137657  0.000000000
     0.000000000  0.000000000 11.195620100     0.000000000  0.000000000  0.089320644

  length of vectors
    11.735867822 11.218468783 11.195620100     0.085208867  0.089138725  0.089320644


 
 k-points in units of 2pi/SCALE and weight: # No comment                            
   0.00000000  0.00000000  0.00000000       0.037
   0.02840262 -0.00013876  0.00000000       0.074
   0.00014543  0.02971255  0.00000000       0.074
   0.02854805  0.02957379  0.00000000       0.074
  -0.02825718  0.02985132  0.00000000       0.074
   0.00000000  0.00000000  0.02977355       0.074
   0.02840262 -0.00013876  0.02977355       0.074
  -0.02840262  0.00013876  0.02977355       0.074
   0.00014543  0.02971255  0.02977355       0.074
   0.02854805  0.02957379  0.02977355       0.074
  -0.02825718  0.02985132  0.02977355       0.074
  -0.00014543 -0.02971255  0.02977355       0.074
   0.02825718 -0.02985132  0.02977355       0.074
  -0.02854805 -0.02957379  0.02977355       0.074
 
 k-points in reciprocal lattice and weights: # No comment                            
   0.00000000  0.00000000  0.00000000       0.037
   0.33333333  0.00000000  0.00000000       0.074
   0.00000000  0.33333333  0.00000000       0.074
   0.33333333  0.33333333  0.00000000       0.074
  -0.33333333  0.33333333  0.00000000       0.074
   0.00000000  0.00000000  0.33333333       0.074
   0.33333333  0.00000000  0.33333333       0.074
  -0.33333333  0.00000000  0.33333333       0.074
   0.00000000  0.33333333  0.33333333       0.074
   0.33333333  0.33333333  0.33333333       0.074
  -0.33333333  0.33333333  0.33333333       0.074
  -0.00000000 -0.33333333  0.33333333       0.074
   0.33333333 -0.33333333  0.33333333       0.074
  -0.33333333 -0.33333333  0.33333333       0.074
 
 position of ions in fractional coordinates (direct lattice) 
   0.03541706  0.36366686  0.35648149
   0.36875039  0.36277547  0.35648149
   0.70208372  0.36277547  0.35648149
   0.03541706  0.86277547  0.35648149
   0.36875039  0.86277547  0.35648149
   0.70208372  0.86277547  0.35648149
   0.03541706  0.36277547  0.85648149
   0.36875039  0.36277547  0.85648149
   0.70208372  0.36277547  0.85648149
   0.03541706  0.86277547  0.85648149
   0.36875039  0.86277547  0.85648149
   0.70208372  0.86277547  0.85648149
   0.03541706  0.11277547  0.14351851
   0.36875039  0.11277547  0.14351851
   0.70208372  0.11277547  0.14351851
   0.03541706  0.61277547  0.14351851
   0.36875039  0.61277547  0.14351851
   0.70208372  0.61277547  0.14351851
   0.03541706  0.11277547  0.64351851
   0.36875039  0.11277547  0.64351851
   0.70208372  0.11277547  0.64351851
   0.03541706  0.61277547  0.64351851
   0.36875039  0.61277547  0.64351851
   0.70208372  0.61277547  0.64351851
   0.20209458  0.21898060  0.27246215
   0.53542792  0.21898060  0.27246215
   0.86876125  0.21898060  0.27246215
   0.20209458  0.71898060  0.27246215
   0.53542792  0.71898060  0.27246215
   0.86876125  0.71898060  0.27246215
   0.20209458  0.21898060  0.77246215
   0.53542792  0.21898060  0.77246215
   0.86876125  0.21898060  0.77246215
   0.20209458  0.71898060  0.77246215
   0.53542792  0.71898060  0.77246215
   0.86876125  0.71898060  0.77246215
   0.20209458  0.46898060  0.22753785
   0.53542792  0.46898060  0.22753785
   0.86876125  0.46898060  0.22753785
   0.20209458  0.96898060  0.22753785
   0.53542792  0.96898060  0.22753785
   0.86876125  0.96898060  0.22753785
   0.20209458  0.46898060  0.72753785
   0.53542792  0.46898060  0.72753785
   0.86876125  0.46898060  0.72753785
   0.20209458  0.96898060  0.72753785
   0.53542792  0.96898060  0.72753785
   0.86876125  0.96898060  0.72753785
   0.20209064  0.36769237  0.37376509
   0.53542398  0.36769237  0.37376509
   0.86875731  0.36769237  0.37376509
   0.20209064  0.86769237  0.37376509
   0.53542398  0.86769237  0.37376509
   0.86875731  0.86769237  0.37376509
   0.20209064  0.36769237  0.87376509
   0.53542398  0.36769237  0.87376509
   0.86875731  0.36769237  0.87376509
   0.20209064  0.86769237  0.87376509
   0.53542398  0.86769237  0.87376509
   0.86875731  0.86769237  0.87376509
   0.20209064  0.11769237  0.12623491
   0.53542398  0.11769237  0.12623491
   0.86875731  0.11769237  0.12623491
   0.20209064  0.61769237  0.12623491
   0.53542398  0.61769237  0.12623491
   0.86875731  0.61769237  0.12623491
   0.20209064  0.11769237  0.62623491
   0.53542398  0.11769237  0.62623491
   0.86875731  0.11769237  0.62623491
   0.20209064  0.61769237  0.62623491
   0.53542398  0.61769237  0.62623491
   0.86875731  0.61769237  0.62623491
   0.03542751  0.37011947  0.12029448
   0.36876084  0.37011947  0.12029448
   0.70209418  0.37011947  0.12029448
   0.03542751  0.87011947  0.12029448
   0.36876084  0.87011947  0.12029448
   0.70209418  0.87011947  0.12029448
   0.03542751  0.37011947  0.62029448
   0.36876084  0.37011947  0.62029448
   0.70209418  0.37011947  0.62029448
   0.03542751  0.87011947  0.62029448
   0.36876084  0.87011947  0.62029448
   0.70209418  0.87011947  0.62029448
   0.03542751  0.12011947  0.37970552
   0.36876084  0.12011947  0.37970552
   0.70209418  0.12011947  0.37970552
   0.03542751  0.62011947  0.37970552
   0.36876084  0.62011947  0.37970552
   0.70209418  0.62011947  0.37970552
   0.03542751  0.12011947  0.87970552
   0.36876084  0.12011947  0.87970552
   0.70209418  0.12011947  0.87970552
   0.03542751  0.62011947  0.87970552
   0.36876084  0.62011947  0.87970552
   0.70209418  0.62011947  0.87970552
   0.20209387  0.01225309  0.48003463
   0.53542720  0.01225309  0.48003463
   0.86876054  0.01225309  0.48003463
   0.20209387  0.51225309  0.48003463
   0.53542720  0.51225309  0.48003463
   0.86876054  0.51225309  0.48003463
   0.20209387  0.01225309  0.98003463
   0.53542720  0.01225309  0.98003463
   0.86876054  0.01225309  0.98003463
   0.20209387  0.51225309  0.98003463
   0.53542720  0.51225309  0.98003463
   0.86876054  0.51225309  0.98003463
   0.20209387  0.26225309  0.01996537
   0.53542720  0.26225309  0.01996537
   0.86876054  0.26225309  0.01996537
   0.20209387  0.76225309  0.01996537
   0.53542720  0.76225309  0.01996537
   0.86876054  0.76225309  0.01996537
   0.20209387  0.26225309  0.51996537
   0.53542720  0.26225309  0.51996537
   0.86876054  0.26225309  0.51996537
   0.20209387  0.76225309  0.51996537
   0.53542720  0.76225309  0.51996537
   0.86876054  0.76225309  0.51996537
 
 position of ions in cartesian coordinates  (Angst):
   0.43557673  4.07770214  3.99103128
   4.34743695  4.04855464  3.99103128
   8.25934603  4.02940702  3.99103128
   0.46293181  9.67686971  3.99103128
   4.37484089  9.65772209  3.99103128
   8.28674997  9.63857447  3.99103128
   0.43552787  4.06770226  9.58884133
   4.34743695  4.04855464  9.58884133
   8.25934603  4.02940702  9.58884133
   0.46293181  9.67686971  9.58884133
   4.37484089  9.65772209  9.58884133
   8.28674997  9.63857447  9.58884133
   0.42182590  1.26311853  1.60677877
   4.33373498  1.24397091  1.60677877
   8.24564406  1.22482329  1.60677877
   0.44922984  6.87228598  1.60677877
   4.36113892  6.85313836  1.60677877
   8.27304800  6.83399074  1.60677877
   0.42182590  1.26311853  7.20458882
   4.33373498  1.24397091  7.20458882
   8.24564406  1.22482329  7.20458882
   0.44922984  6.87228598  7.20458882
   4.36113892  6.85313836  7.20458882
   8.27304800  6.83399074  7.20458882
   2.38372877  2.44498882  3.05038272
   6.29563785  2.42584120  3.05038272
  10.20754693  2.40669358  3.05038272
   2.41113271  8.05415627  3.05038272
   6.32304179  8.03500865  3.05038272
  10.23495087  8.01586103  3.05038272
   2.38372877  2.44498882  8.64819277
   6.29563785  2.42584120  8.64819277
  10.20754693  2.40669358  8.64819277
   2.41113271  8.05415627  8.64819277
   6.32304179  8.03500865  8.64819277
  10.23495087  8.01586103  8.64819277
   2.39743074  5.24957254  2.54742733
   6.30933982  5.23042492  2.54742733
  10.22124890  5.21127730  2.54742733
   2.42483468 10.85873999  2.54742733
   6.33674376 10.83959237  2.54742733
  10.24865284 10.82044475  2.54742733
   2.39743074  5.24957254  8.14523738
   6.30933982  5.23042492  8.14523738
  10.22124890  5.21127730  8.14523738
   2.42483468 10.85873999  8.14523738
   6.33674376 10.83959237  8.14523738
  10.24865284 10.82044475  8.14523738
   2.39183311  4.11328754  4.18453195
   6.30374219  4.09413992  4.18453195
  10.21565127  4.07499230  4.18453195
   2.41923705  9.72245499  4.18453195
   6.33114613  9.70330737  4.18453195
  10.24305521  9.68415975  4.18453195
   2.39183311  4.11328754  9.78234200
   6.30374219  4.09413992  9.78234200
  10.21565127  4.07499230  9.78234200
   2.41923705  9.72245499  9.78234200
   6.33114613  9.70330737  9.78234200
  10.24305521  9.68415975  9.78234200
   2.37813114  1.30870381  1.41327810
   6.29004022  1.28955619  1.41327810
  10.20194930  1.27040857  1.41327810
   2.40553508  6.91787126  1.41327810
   6.31744416  6.89872364  1.41327810
  10.22935324  6.87957602  1.41327810
   2.37813114  1.30870381  7.01108815
   6.29004022  1.28955619  7.01108815
  10.20194930  1.27040857  7.01108815
   2.40553508  6.91787126  7.01108815
   6.31744416  6.89872364  7.01108815
  10.22935324  6.87957602  7.01108815
   0.43605306  4.15008905  1.34677124
   4.34796214  4.13094143  1.34677124
   8.25987122  4.11179381  1.34677124
   0.46345700  9.75925650  1.34677124
   4.37536608  9.74010888  1.34677124
   8.28727516  9.72096126  1.34677124
   0.43605306  4.15008905  6.94458129
   4.34796214  4.13094143  6.94458129
   8.25987122  4.11179381  6.94458129
   0.46345700  9.75925650  6.94458129
   4.37536608  9.74010888  6.94458129
   8.28727516  9.72096126  6.94458129
   0.42235109  1.34550533  4.25103881
   4.33426017  1.32635771  4.25103881
   8.24616925  1.30721009  4.25103881
   0.44975503  6.95467278  4.25103881
   4.36166411  6.93552516  4.25103881
   8.27357319  6.91637754  4.25103881
   0.42235109  1.34550533  9.84884886
   4.33426017  1.32635771  9.84884886
   8.24616925  1.30721009  9.84884886
   0.44975503  6.95467278  9.84884886
   4.36166411  6.93552516  9.84884886
   8.27357319  6.91637754  9.84884886
   2.37239010  0.12585042  5.37428530
   6.28429918  0.10670280  5.37428530
  10.19620826  0.08755518  5.37428530
   2.39979404  5.73501787  5.37428530
   6.31170312  5.71587025  5.37428530
  10.22361220  5.69672263  5.37428530
   2.37239010  0.12585042 10.97209535
   6.28429918  0.10670280 10.97209535
  10.19620826  0.08755518 10.97209535
   2.39979404  5.73501787 10.97209535
   6.31170312  5.71587025 10.97209535
  10.22361220  5.69672263 10.97209535
   2.38609207  2.93043414  0.22352475
   6.29800115  2.91128652  0.22352475
  10.20991023  2.89213890  0.22352475
   2.41349601  8.53960159  0.22352475
   6.32540509  8.52045397  0.22352475
  10.23731417  8.50130635  0.22352475
   2.38609207  2.93043414  5.82133480
   6.29800115  2.91128652  5.82133480
  10.20991023  2.89213890  5.82133480
   2.41349601  8.53960159  5.82133480
   6.32540509  8.52045397  5.82133480
  10.23731417  8.50130635  5.82133480
 


--------------------------------------------------------------------------------------------------------


 k-point  1 :   0.0000 0.0000 0.0000  plane waves:   55469
 k-point  2 :   0.3333 0.0000 0.0000  plane waves:   55443
 k-point  3 :   0.0000 0.3333 0.0000  plane waves:   55474
 k-point  4 :   0.3333 0.3333 0.0000  plane waves:   55456
 k-point  5 :  -0.3333 0.3333 0.0000  plane waves:   55456
 k-point  6 :   0.0000 0.0000 0.3333  plane waves:   55522
 k-point  7 :   0.3333 0.0000 0.3333  plane waves:   55468
 k-point  8 :  -0.3333 0.0000 0.3333  plane waves:   55468
 k-point  9 :   0.0000 0.3333 0.3333  plane waves:   55433
 k-point 10 :   0.3333 0.3333 0.3333  plane waves:   55444
 k-point 11 :  -0.3333 0.3333 0.3333  plane waves:   55444
 k-point 12 :  -0.0000-0.3333 0.3333  plane waves:   55433
 k-point 13 :   0.3333-0.3333 0.3333  plane waves:   55444
 k-point 14 :  -0.3333-0.3333 0.3333  plane waves:   55444

 maximum and minimum number of plane-waves per node :      9314     9185

 maximum number of plane-waves:     55522
 maximum index in each direction: 
   IXMAX=   24   IYMAX=   23   IZMAX=   23
   IXMIN=  -24   IYMIN=  -23   IZMIN=  -23


 parallel 3D FFT for wavefunctions:
    minimum data exchange during FFTs selected (reduces bandwidth)
 parallel 3D FFT for charge:
    minimum data exchange during FFTs selected (reduces bandwidth)


 total amount of memory used by VASP MPI-rank0   801761. kBytes
=======================================================================

   base      :      30000. kBytes
   nonl-proj :      92491. kBytes
   fftplans  :      50318. kBytes
   grid      :      44712. kBytes
   one-center:        622. kBytes
   wavefun   :     583618. kBytes
 
     INWAV:  cpu time    0.0000: real time    0.0002
 Broyden mixing: mesh for mixing (old mesh)
   NGX = 49   NGY = 47   NGZ = 47
  (NGX  =196   NGY  =192   NGZ  =192)
  gives a total of 108241 points

 initial charge density was supplied:
 number of electron     768.0000015 magnetization      96.0009074
 keeping initial charge density in first step


--------------------------------------------------------------------------------------------------------


 Maximum index for augmentation-charges         7847 (set IRDMAX)


--------------------------------------------------------------------------------------------------------


 First call to EWALD:  gamma=   0.156
 Maximum number of real-space cells 3x 3x 3
 Maximum number of reciprocal cells 3x 3x 3

    FEWALD:  cpu time    0.0909: real time    0.0993


--------------------------------------- Iteration      1(   1)  ---------------------------------------


    POTLOK:  cpu time    0.4885: real time    0.5051
    SETDIJ:  cpu time    1.3614: real time    1.4907
     EDDAV:  cpu time  218.8450: real time  221.1313
       DOS:  cpu time    0.0050: real time    0.0050
    --------------------------------------------
      LOOP:  cpu time  220.6999: real time  223.1321

 eigenvalue-minimisations  : 32400
 total energy-change (2. order) : 0.1004336E+05  (-0.4138228E+05)
 number of electron     768.0000015 magnetization      96.0009074
 augmentation part      768.0000015 magnetization      96.0009074

 Free energy of the ion-electron system (eV)
  ---------------------------------------------------
  alpha Z        PSCENC =      1915.67052055
  Ewald energy   TEWEN  =    -48532.20139471
  -Hartree energ DENC   =    -28983.35044516
  -exchange      EXHF   =         0.00000000
  -V(xc)+E(xc)   XCENC  =      3297.26501309
  PAW double counting   =     81710.32686745   -84426.12035439
  entropy T*S    EENTRO =        -0.01847230
  eigenvalues    EBANDS =      -670.17491637
  atomic energy  EATOM  =     85731.96378919
  Solvation  Ediel_sol  =         0.00000000
  ---------------------------------------------------
  free energy    TOTEN  =     10043.36060736 eV

  energy without entropy =    10043.37907967  energy(sigma->0) =    10043.36984351


--------------------------------------------------------------------------------------------------------




--------------------------------------- Iteration      1(   2)  ---------------------------------------


     EDDAV:  cpu time  210.0362: real time  211.8598
       DOS:  cpu time    0.0054: real time    0.0054
    --------------------------------------------
      LOOP:  cpu time  210.0416: real time  211.8652

 eigenvalue-minimisations  : 30912
 total energy-change (2. order) :-0.9006310E+04  (-0.8363414E+04)
 number of electron     768.0000015 magnetization      96.0009074
 augmentation part      768.0000015 magnetization      96.0009074

 Free energy of the ion-electron system (eV)
  ---------------------------------------------------
  alpha Z        PSCENC =      1915.67052055
  Ewald energy   TEWEN  =    -48532.20139471
  -Hartree energ DENC   =    -28983.35044516
  -exchange      EXHF   =         0.00000000
  -V(xc)+E(xc)   XCENC  =      3297.26501309
  PAW double counting   =     81710.32686745   -84426.12035439
  entropy T*S    EENTRO =        -0.05242321
  eigenvalues    EBANDS =     -9676.45117156
  atomic energy  EATOM  =     85731.96378919
  Solvation  Ediel_sol  =         0.00000000
  ---------------------------------------------------
  free energy    TOTEN  =      1037.05040126 eV

  energy without entropy =     1037.10282447  energy(sigma->0) =     1037.07661286


--------------------------------------------------------------------------------------------------------




--------------------------------------- Iteration      1(   3)  ---------------------------------------


     EDDAV:  cpu time  229.6875: real time  231.9684
       DOS:  cpu time    0.0023: real time    0.0024
    --------------------------------------------
      LOOP:  cpu time  229.6899: real time  231.9708

 eigenvalue-minimisations  : 34704
 total energy-change (2. order) :-0.1436808E+04  (-0.1296161E+04)
 number of electron     768.0000015 magnetization      96.0009074
 augmentation part      768.0000015 magnetization      96.0009074

 Free energy of the ion-electron system (eV)
  ---------------------------------------------------
  alpha Z        PSCENC =      1915.67052055
  Ewald energy   TEWEN  =    -48532.20139471
  -Hartree energ DENC   =    -28983.35044516
  -exchange      EXHF   =         0.00000000
  -V(xc)+E(xc)   XCENC  =      3297.26501309
  PAW double counting   =     81710.32686745   -84426.12035439
  entropy T*S    EENTRO =        -0.00000000
  eigenvalues    EBANDS =    -11113.31197740
  atomic energy  EATOM  =     85731.96378919
  Solvation  Ediel_sol  =         0.00000000
  ---------------------------------------------------
  free energy    TOTEN  =      -399.75798137 eV

  energy without entropy =     -399.75798137  energy(sigma->0) =     -399.75798137


--------------------------------------------------------------------------------------------------------




--------------------------------------- Iteration      1(   4)  ---------------------------------------


     EDDAV:  cpu time  265.0372: real time  267.8724
       DOS:  cpu time    0.0027: real time    0.0027
    --------------------------------------------
      LOOP:  cpu time  265.0399: real time  267.8751

 eigenvalue-minimisations  : 41048
 total energy-change (2. order) :-0.1905629E+03  (-0.1884091E+03)
 number of electron     768.0000015 magnetization      96.0009074
 augmentation part      768.0000015 magnetization      96.0009074

 Free energy of the ion-electron system (eV)
  ---------------------------------------------------
  alpha Z        PSCENC =      1915.67052055
  Ewald energy   TEWEN  =    -48532.20139471
  -Hartree energ DENC   =    -28983.35044516
  -exchange      EXHF   =         0.00000000
  -V(xc)+E(xc)   XCENC  =      3297.26501309
  PAW double counting   =     81710.32686745   -84426.12035439
  entropy T*S    EENTRO =        -0.00000000
  eigenvalues    EBANDS =    -11303.87483178
  atomic energy  EATOM  =     85731.96378919
  Solvation  Ediel_sol  =         0.00000000
  ---------------------------------------------------
  free energy    TOTEN  =      -590.32083575 eV

  energy without entropy =     -590.32083575  energy(sigma->0) =     -590.32083575


--------------------------------------------------------------------------------------------------------




--------------------------------------- Iteration      1(   5)  ---------------------------------------


     EDDAV:  cpu time  331.3558: real time  334.4761
       DOS:  cpu time    0.0022: real time    0.0022
    CHARGE:  cpu time    5.5822: real time    5.6465
    MIXING:  cpu time    0.0310: real time    0.0376
    --------------------------------------------
      LOOP:  cpu time  336.9712: real time  340.1625

 eigenvalue-minimisations  : 54352
 total energy-change (2. order) :-0.2511851E+02  (-0.2488071E+02)
 number of electron     768.0000015 magnetization      96.0005841
 augmentation part      246.8423966 magnetization      62.9160402

 Broyden mixing:
  rms(total) = 0.27886E+00    rms(broyden)= 0.27871E+00
  rms(prec ) = 0.28309E+00
  weight for this iteration     100.00

 Free energy of the ion-electron system (eV)
  ---------------------------------------------------
  alpha Z        PSCENC =      1915.67052055
  Ewald energy   TEWEN  =    -48532.20139471
  -Hartree energ DENC   =    -28983.35044516
  -exchange      EXHF   =         0.00000000
  -V(xc)+E(xc)   XCENC  =      3297.26501309
  PAW double counting   =     81710.32686745   -84426.12035439
  entropy T*S    EENTRO =        -0.00000000
  eigenvalues    EBANDS =    -11328.99334143
  atomic energy  EATOM  =     85731.96378919
  Solvation  Ediel_sol  =         0.00000000
  ---------------------------------------------------
  free energy    TOTEN  =      -615.43934539 eV

  energy without entropy =     -615.43934539  energy(sigma->0) =     -615.43934539


--------------------------------------------------------------------------------------------------------




--------------------------------------- Iteration      1(   6)  ---------------------------------------


    POTLOK:  cpu time    0.4837: real time    0.4856
    SETDIJ:  cpu time    1.5027: real time    1.5031
     EDDAV:  cpu time  269.3293: real time  271.5296
       DOS:  cpu time    0.0020: real time    0.0020
    CHARGE:  cpu time    5.5581: real time    5.6251
    MIXING:  cpu time    0.0258: real time    0.0650
    --------------------------------------------
      LOOP:  cpu time  276.9015: real time  279.2104

 eigenvalue-minimisations  : 42296
 total energy-change (2. order) :-0.9475460E+00  (-0.9758637E+00)
 number of electron     768.0000015 magnetization      96.0004369
 augmentation part      245.7267916 magnetization      63.0591861

 Broyden mixing:
  rms(total) = 0.12033E+00    rms(broyden)= 0.12018E+00
  rms(prec ) = 0.12179E+00
  weight for this iteration     100.00

 eigenvalues of (default mixing * dielectric matrix)
  average eigenvalue GAMMA=   0.6656
  0.6656

 Free energy of the ion-electron system (eV)
  ---------------------------------------------------
  alpha Z        PSCENC =      1915.67052055
  Ewald energy   TEWEN  =    -48532.20139471
  -Hartree energ DENC   =    -28977.28029434
  -exchange      EXHF   =         0.00000000
  -V(xc)+E(xc)   XCENC  =      3296.39002434
  PAW double counting   =     81549.73460216   -84261.64176090
  entropy T*S    EENTRO =        -0.00000000
  eigenvalues    EBANDS =    -11339.02237773
  atomic energy  EATOM  =     85731.96378919
  Solvation  Ediel_sol  =         0.00000000
  ---------------------------------------------------
  free energy    TOTEN  =      -616.38689143 eV

  energy without entropy =     -616.38689143  energy(sigma->0) =     -616.38689143


--------------------------------------------------------------------------------------------------------




--------------------------------------- Iteration      1(   7)  ---------------------------------------


    POTLOK:  cpu time    0.4892: real time    0.5032
    SETDIJ:  cpu time    1.4305: real time    1.4585
     EDDAV:  cpu time  306.6033: real time  309.4428
       DOS:  cpu time    0.0022: real time    0.0022
    CHARGE:  cpu time    5.5940: real time    5.5997
    MIXING:  cpu time    0.0403: real time    0.0469
    --------------------------------------------
      LOOP:  cpu time  314.1595: real time  317.0533

 eigenvalue-minimisations  : 49464
 total energy-change (2. order) :-0.4862982E-01  (-0.4827616E-01)
 number of electron     768.0000015 magnetization      96.0003796
 augmentation part      245.5266568 magnetization      63.0170763

 Broyden mixing:
  rms(total) = 0.83770E-01    rms(broyden)= 0.83715E-01
  rms(prec ) = 0.85421E-01
  weight for this iteration     100.00

 eigenvalues of (default mixing * dielectric matrix)
  average eigenvalue GAMMA=   0.5828
  0.5828  0.5828

 Free energy of the ion-electron system (eV)
  ---------------------------------------------------
  alpha Z        PSCENC =      1915.67052055
  Ewald energy   TEWEN  =    -48532.20139471
  -Hartree energ DENC   =    -28979.23313267
  -exchange      EXHF   =         0.00000000
  -V(xc)+E(xc)   XCENC  =      3296.64350166
  PAW double counting   =     81589.18425304   -84302.01867398
  entropy T*S    EENTRO =        -0.00000000
  eigenvalues    EBANDS =    -11336.44438433
  atomic energy  EATOM  =     85731.96378919
  Solvation  Ediel_sol  =         0.00000000
  ---------------------------------------------------
  free energy    TOTEN  =      -616.43552125 eV

  energy without entropy =     -616.43552125  energy(sigma->0) =     -616.43552125


--------------------------------------------------------------------------------------------------------




--------------------------------------- Iteration      1(   8)  ---------------------------------------


    POTLOK:  cpu time    0.4833: real time    0.4855
    SETDIJ:  cpu time    1.4666: real time    1.4679
     EDDAV:  cpu time  295.4568: real time  298.3318
       DOS:  cpu time    0.0025: real time    0.0025
    CHARGE:  cpu time    5.6478: real time    5.6646
    MIXING:  cpu time    0.0604: real time    0.0669
    --------------------------------------------
      LOOP:  cpu time  303.1174: real time  306.0192

 eigenvalue-minimisations  : 47296
 total energy-change (2. order) :-0.1773402E-03  (-0.1765498E-02)
 number of electron     768.0000015 magnetization      96.0003538
 augmentation part      245.4886442 magnetization      63.0146922

 Broyden mixing:
  rms(total) = 0.72673E-01    rms(broyden)= 0.72668E-01
  rms(prec ) = 0.74210E-01
  weight for this iteration     100.00

 eigenvalues of (default mixing * dielectric matrix)
  average eigenvalue GAMMA=   0.5436
  0.6179  0.6179  0.3950

 Free energy of the ion-electron system (eV)
  ---------------------------------------------------
  alpha Z        PSCENC =      1915.67052055
  Ewald energy   TEWEN  =    -48532.20139471
  -Hartree energ DENC   =    -28979.98403711
  -exchange      EXHF   =         0.00000000
  -V(xc)+E(xc)   XCENC  =      3296.74567928
  PAW double counting   =     81609.91142276   -84323.29431053
  entropy T*S    EENTRO =        -0.00000000
  eigenvalues    EBANDS =    -11335.24736803
  atomic energy  EATOM  =     85731.96378919
  Solvation  Ediel_sol  =         0.00000000
  ---------------------------------------------------
  free energy    TOTEN  =      -616.43569859 eV

  energy without entropy =     -616.43569859  energy(sigma->0) =     -616.43569859


--------------------------------------------------------------------------------------------------------




--------------------------------------- Iteration      1(   9)  ---------------------------------------


    POTLOK:  cpu time    0.4828: real time    0.4850
    SETDIJ:  cpu time    1.4933: real time    1.4938
     EDDAV:  cpu time  304.7140: real time  307.3551
       DOS:  cpu time    0.0030: real time    0.0030
    CHARGE:  cpu time    5.5608: real time    5.5920
    MIXING:  cpu time    0.0467: real time    0.0528
    --------------------------------------------
      LOOP:  cpu time  312.3006: real time  314.9817

 eigenvalue-minimisations  : 49200
 total energy-change (2. order) : 0.6300441E-03  (-0.1050293E-03)
 number of electron     768.0000015 magnetization      96.0003568
 augmentation part      245.4937462 magnetization      63.0122702

 Broyden mixing:
  rms(total) = 0.66320E-01    rms(broyden)= 0.66320E-01
  rms(prec ) = 0.67706E-01
  weight for this iteration     100.00

 eigenvalues of (default mixing * dielectric matrix)
  average eigenvalue GAMMA=   0.4573
  0.6105  0.6105  0.3041  0.3041

 Free energy of the ion-electron system (eV)
  ---------------------------------------------------
  alpha Z        PSCENC =      1915.67052055
  Ewald energy   TEWEN  =    -48532.20139471
  -Hartree energ DENC   =    -28980.17853804
  -exchange      EXHF   =         0.00000000
  -V(xc)+E(xc)   XCENC  =      3296.79091605
  PAW double counting   =     81617.23363716   -84330.83538302
  entropy T*S    EENTRO =        -0.00000000
  eigenvalues    EBANDS =    -11334.87861574
  atomic energy  EATOM  =     85731.96378919
  Solvation  Ediel_sol  =         0.00000000
  ---------------------------------------------------
  free energy    TOTEN  =      -616.43506854 eV

  energy without entropy =     -616.43506854  energy(sigma->0) =     -616.43506854


--------------------------------------------------------------------------------------------------------




--------------------------------------- Iteration      1(  10)  ---------------------------------------


    POTLOK:  cpu time    0.4790: real time    0.4858
    SETDIJ:  cpu time    1.4740: real time    1.4800
     EDDAV:  cpu time  301.5596: real time  304.3090
       DOS:  cpu time    0.0027: real time    0.0027
    CHARGE:  cpu time    5.6327: real time    5.6697
    MIXING:  cpu time    0.0209: real time    0.0358
    --------------------------------------------
      LOOP:  cpu time  309.1690: real time  311.9831

 eigenvalue-minimisations  : 48336
 total energy-change (2. order) :-0.5737826E-04  (-0.1040705E-04)
 number of electron     768.0000015 magnetization      96.0003389
 augmentation part      245.4979066 magnetization      63.0119864

 Broyden mixing:
  rms(total) = 0.66704E-01    rms(broyden)= 0.66704E-01
  rms(prec ) = 0.68078E-01
  weight for this iteration     100.00

 eigenvalues of (default mixing * dielectric matrix)
  average eigenvalue GAMMA=   0.5326
  0.7108  0.7108  0.4370  0.4370  0.3674

 Free energy of the ion-electron system (eV)
  ---------------------------------------------------
  alpha Z        PSCENC =      1915.67052055
  Ewald energy   TEWEN  =    -48532.20139471
  -Hartree energ DENC   =    -28980.14321063
  -exchange      EXHF   =         0.00000000
  -V(xc)+E(xc)   XCENC  =      3296.78544787
  PAW double counting   =     81616.40542000   -84329.98213951
  entropy T*S    EENTRO =        -0.00000000
  eigenvalues    EBANDS =    -11334.93355869
  atomic energy  EATOM  =     85731.96378919
  Solvation  Ediel_sol  =         0.00000000
  ---------------------------------------------------
  free energy    TOTEN  =      -616.43512592 eV

  energy without entropy =     -616.43512592  energy(sigma->0) =     -616.43512592


--------------------------------------------------------------------------------------------------------




--------------------------------------- Iteration      1(  11)  ---------------------------------------


    POTLOK:  cpu time    0.4799: real time    0.4911
    SETDIJ:  cpu time    1.4802: real time    1.5027
     EDDAV:  cpu time  220.4512: real time  222.2535
       DOS:  cpu time    0.0020: real time    0.0020
    CHARGE:  cpu time    5.7417: real time    5.7702
    MIXING:  cpu time    0.0396: real time    0.0456
    --------------------------------------------
      LOOP:  cpu time  228.1946: real time  230.0652

 eigenvalue-minimisations  : 32584
 total energy-change (2. order) : 0.3274496E-03  (-0.1241591E-05)
 number of electron     768.0000015 magnetization      96.0003094
 augmentation part      245.4995047 magnetization      63.0114966

 Broyden mixing:
  rms(total) = 0.63120E-01    rms(broyden)= 0.63120E-01
  rms(prec ) = 0.64440E-01
  weight for this iteration     100.00

 eigenvalues of (default mixing * dielectric matrix)
  average eigenvalue GAMMA=   0.6982
  0.9829  0.8726  0.8726  0.5084  0.5084  0.4442

 Free energy of the ion-electron system (eV)
  ---------------------------------------------------
  alpha Z        PSCENC =      1915.67052055
  Ewald energy   TEWEN  =    -48532.20139471
  -Hartree energ DENC   =    -28980.23566834
  -exchange      EXHF   =         0.00000000
  -V(xc)+E(xc)   XCENC  =      3296.80969594
  PAW double counting   =     81622.33504389   -84336.07861072
  entropy T*S    EENTRO =        -0.00000000
  eigenvalues    EBANDS =    -11334.69817427
  atomic energy  EATOM  =     85731.96378919
  Solvation  Ediel_sol  =         0.00000000
  ---------------------------------------------------
  free energy    TOTEN  =      -616.43479847 eV

  energy without entropy =     -616.43479847  energy(sigma->0) =     -616.43479847


--------------------------------------------------------------------------------------------------------




--------------------------------------- Iteration      1(  12)  ---------------------------------------


    POTLOK:  cpu time    0.5162: real time    0.5252
    SETDIJ:  cpu time    1.4340: real time    1.5090
     EDDAV:  cpu time  270.2095: real time  272.5719
       DOS:  cpu time    0.0021: real time    0.0021
    CHARGE:  cpu time    5.9481: real time    5.9728
    MIXING:  cpu time    0.0412: real time    0.0472
    --------------------------------------------
      LOOP:  cpu time  278.1511: real time  280.6283

 eigenvalue-minimisations  : 42360
 total energy-change (2. order) : 0.4033389E-03  (-0.4374414E-05)
 number of electron     768.0000015 magnetization      96.0002518
 augmentation part      245.5034965 magnetization      63.0112736

 Broyden mixing:
  rms(total) = 0.57808E-01    rms(broyden)= 0.57808E-01
  rms(prec ) = 0.59084E-01
  weight for this iteration     100.00

 eigenvalues of (default mixing * dielectric matrix)
  average eigenvalue GAMMA=   0.8775
  1.6530  1.1353  1.1353  0.6219  0.6219  0.4876  0.4876

 Free energy of the ion-electron system (eV)
  ---------------------------------------------------
  alpha Z        PSCENC =      1915.67052055
  Ewald energy   TEWEN  =    -48532.20139471
  -Hartree energ DENC   =    -28980.35598411
  -exchange      EXHF   =         0.00000000
  -V(xc)+E(xc)   XCENC  =      3296.83962974
  PAW double counting   =     81632.66330730   -84346.68080317
  entropy T*S    EENTRO =        -0.00000000
  eigenvalues    EBANDS =    -11334.33345993
  atomic energy  EATOM  =     85731.96378919
  Solvation  Ediel_sol  =         0.00000000
  ---------------------------------------------------
  free energy    TOTEN  =      -616.43439513 eV

  energy without entropy =     -616.43439513  energy(sigma->0) =     -616.43439513


--------------------------------------------------------------------------------------------------------




--------------------------------------- Iteration      1(  13)  ---------------------------------------


    POTLOK:  cpu time    0.4803: real time    0.4833
    SETDIJ:  cpu time    1.4976: real time    1.4999
     EDDAV:  cpu time  233.9485: real time  236.0866
       DOS:  cpu time    0.0021: real time    0.0021
    CHARGE:  cpu time    5.8461: real time    5.8668
    MIXING:  cpu time    0.0492: real time    0.0547
    --------------------------------------------
      LOOP:  cpu time  241.8238: real time  243.9934

 eigenvalue-minimisations  : 35032
 total energy-change (2. order) : 0.3596316E-03  (-0.4296207E-05)
 number of electron     768.0000015 magnetization      96.0002390
 augmentation part      245.5050236 magnetization      63.0107758

 Broyden mixing:
  rms(total) = 0.51108E-01    rms(broyden)= 0.51107E-01
  rms(prec ) = 0.52589E-01
  weight for this iteration     100.00

 eigenvalues of (default mixing * dielectric matrix)
  average eigenvalue GAMMA=   0.9582
  2.3836  1.2635  1.2635  0.6788  0.6788  0.4827  0.4827  0.4319

 Free energy of the ion-electron system (eV)
  ---------------------------------------------------
  alpha Z        PSCENC =      1915.67052055
  Ewald energy   TEWEN  =    -48532.20139471
  -Hartree energ DENC   =    -28980.30046110
  -exchange      EXHF   =         0.00000000
  -V(xc)+E(xc)   XCENC  =      3296.85611543
  PAW double counting   =     81654.31145351   -84368.82959645
  entropy T*S    EENTRO =        -0.00000000
  eigenvalues    EBANDS =    -11333.90446192
  atomic energy  EATOM  =     85731.96378919
  Solvation  Ediel_sol  =         0.00000000
  ---------------------------------------------------
  free energy    TOTEN  =      -616.43403550 eV

  energy without entropy =     -616.43403550  energy(sigma->0) =     -616.43403550


--------------------------------------------------------------------------------------------------------




--------------------------------------- Iteration      1(  14)  ---------------------------------------


    POTLOK:  cpu time    0.4817: real time    0.4858
    SETDIJ:  cpu time    1.4919: real time    1.4971
     EDDAV:  cpu time  232.6149: real time  234.7196
       DOS:  cpu time    0.0021: real time    0.0021
    CHARGE:  cpu time    5.9787: real time    5.9857
    MIXING:  cpu time    0.0372: real time    0.0460
    --------------------------------------------
      LOOP:  cpu time  240.6067: real time  242.7364

 eigenvalue-minimisations  : 35232
 total energy-change (2. order) :-0.5269773E-03  (-0.4212029E-05)
 number of electron     768.0000015 magnetization      96.0002051
 augmentation part      245.5044377 magnetization      63.0104767

 Broyden mixing:
  rms(total) = 0.56935E-01    rms(broyden)= 0.56935E-01
  rms(prec ) = 0.58985E-01
  weight for this iteration     100.00

 eigenvalues of (default mixing * dielectric matrix)
  average eigenvalue GAMMA=   0.9285
  1.4550  1.4550  1.2855  1.2855  0.6880  0.6880  0.5090  0.5090  0.4817

 Free energy of the ion-electron system (eV)
  ---------------------------------------------------
  alpha Z        PSCENC =      1915.67052055
  Ewald energy   TEWEN  =    -48532.20139471
  -Hartree energ DENC   =    -28979.54917527
  -exchange      EXHF   =         0.00000000
  -V(xc)+E(xc)   XCENC  =      3296.77246757
  PAW double counting   =     81664.37235611   -84379.03985424
  entropy T*S    EENTRO =        -0.00000000
  eigenvalues    EBANDS =    -11334.42327168
  atomic energy  EATOM  =     85731.96378919
  Solvation  Ediel_sol  =         0.00000000
  ---------------------------------------------------
  free energy    TOTEN  =      -616.43456248 eV

  energy without entropy =     -616.43456248  energy(sigma->0) =     -616.43456248


--------------------------------------------------------------------------------------------------------




--------------------------------------- Iteration      1(  15)  ---------------------------------------


    POTLOK:  cpu time    0.4878: real time    0.5028
    SETDIJ:  cpu time    1.4627: real time    1.4914
     EDDAV:  cpu time  305.6059: real time  308.4730
       DOS:  cpu time    0.0023: real time    0.0028
    CHARGE:  cpu time    5.7725: real time    5.8387
    MIXING:  cpu time    0.0467: real time    0.0563
    --------------------------------------------
      LOOP:  cpu time  313.3779: real time  316.3651

 eigenvalue-minimisations  : 49496
 total energy-change (2. order) : 0.1516366E-02  (-0.2736586E-04)
 number of electron     768.0000015 magnetization      96.0001521
 augmentation part      245.5106458 magnetization      63.0108413

 Broyden mixing:
  rms(total) = 0.36585E-01    rms(broyden)= 0.36585E-01
  rms(prec ) = 0.37385E-01
  weight for this iteration     100.00

 eigenvalues of (default mixing * dielectric matrix)
  average eigenvalue GAMMA=   0.9497
  1.5376  1.5376  1.4484  1.4484  0.7519  0.7519  0.5377  0.5377  0.4731  0.4731

 Free energy of the ion-electron system (eV)
  ---------------------------------------------------
  alpha Z        PSCENC =      1915.67052055
  Ewald energy   TEWEN  =    -48532.20139471
  -Hartree energ DENC   =    -28981.48449601
  -exchange      EXHF   =         0.00000000
  -V(xc)+E(xc)   XCENC  =      3297.00993660
  PAW double counting   =     81662.13872658   -84376.96059495
  entropy T*S    EENTRO =        -0.00000000
  eigenvalues    EBANDS =    -11332.56953337
  atomic energy  EATOM  =     85731.96378919
  Solvation  Ediel_sol  =         0.00000000
  ---------------------------------------------------
  free energy    TOTEN  =      -616.43304611 eV

  energy without entropy =     -616.43304611  energy(sigma->0) =     -616.43304611


--------------------------------------------------------------------------------------------------------




--------------------------------------- Iteration      1(  16)  ---------------------------------------


    POTLOK:  cpu time    0.4850: real time    0.4957
    SETDIJ:  cpu time    1.4643: real time    1.4944
     EDDAV:  cpu time  269.0245: real time  271.4074
       DOS:  cpu time    0.0022: real time    0.0022
    CHARGE:  cpu time    5.6933: real time    5.7632
    MIXING:  cpu time    0.0226: real time    0.0348
    --------------------------------------------
      LOOP:  cpu time  276.6918: real time  279.1977

 eigenvalue-minimisations  : 42168
 total energy-change (2. order) : 0.4771525E-03  (-0.8993638E-04)
 number of electron     768.0000015 magnetization      96.0001476
 augmentation part      245.5282688 magnetization      63.0110300

 Broyden mixing:
  rms(total) = 0.23902E-01    rms(broyden)= 0.23901E-01
  rms(prec ) = 0.24161E-01
  weight for this iteration     100.00

 eigenvalues of (default mixing * dielectric matrix)
  average eigenvalue GAMMA=   0.9168
  1.5544  1.5544  1.4815  1.4815  0.7721  0.7721  0.5462  0.5462  0.4644  0.4644
  0.4479

 Free energy of the ion-electron system (eV)
  ---------------------------------------------------
  alpha Z        PSCENC =      1915.67052055
  Ewald energy   TEWEN  =    -48532.20139471
  -Hartree energ DENC   =    -28982.46354395
  -exchange      EXHF   =         0.00000000
  -V(xc)+E(xc)   XCENC  =      3297.13823502
  PAW double counting   =     81672.61398614   -84387.76532506
  entropy T*S    EENTRO =        -0.00000000
  eigenvalues    EBANDS =    -11331.38883615
  atomic energy  EATOM  =     85731.96378919
  Solvation  Ediel_sol  =         0.00000000
  ---------------------------------------------------
  free energy    TOTEN  =      -616.43256896 eV

  energy without entropy =     -616.43256896  energy(sigma->0) =     -616.43256896


--------------------------------------------------------------------------------------------------------




--------------------------------------- Iteration      1(  17)  ---------------------------------------


    POTLOK:  cpu time    0.4786: real time    0.4790
    SETDIJ:  cpu time    1.4572: real time    1.4595
     EDDAV:  cpu time  258.3198: real time  260.6444
       DOS:  cpu time    0.0020: real time    0.0020
    CHARGE:  cpu time    5.7534: real time    5.7819
    MIXING:  cpu time    0.0322: real time    0.0386
    --------------------------------------------
      LOOP:  cpu time  266.0431: real time  268.4052

 eigenvalue-minimisations  : 40280
 total energy-change (2. order) : 0.3351516E-04  (-0.2119728E-04)
 number of electron     768.0000015 magnetization      96.0001375
 augmentation part      245.5328514 magnetization      63.0107499

 Broyden mixing:
  rms(total) = 0.23246E-01    rms(broyden)= 0.23245E-01
  rms(prec ) = 0.23404E-01
  weight for this iteration     100.00

 eigenvalues of (default mixing * dielectric matrix)
  average eigenvalue GAMMA=   0.8884
  1.5321  1.5321  1.5214  1.5214  0.7958  0.7958  0.4638  0.4638  0.5172  0.5172
  0.5003  0.5003

 Free energy of the ion-electron system (eV)
  ---------------------------------------------------
  alpha Z        PSCENC =      1915.67052055
  Ewald energy   TEWEN  =    -48532.20139471
  -Hartree energ DENC   =    -28982.66271104
  -exchange      EXHF   =         0.00000000
  -V(xc)+E(xc)   XCENC  =      3297.16047739
  PAW double counting   =     81671.92640593   -84387.05731140
  entropy T*S    EENTRO =        -0.00000000
  eigenvalues    EBANDS =    -11331.23231135
  atomic energy  EATOM  =     85731.96378919
  Solvation  Ediel_sol  =         0.00000000
  ---------------------------------------------------
  free energy    TOTEN  =      -616.43253544 eV

  energy without entropy =     -616.43253544  energy(sigma->0) =     -616.43253544


--------------------------------------------------------------------------------------------------------




--------------------------------------- Iteration      1(  18)  ---------------------------------------


    POTLOK:  cpu time    0.4798: real time    0.4822
    SETDIJ:  cpu time    1.4273: real time    1.4963
     EDDAV:  cpu time  245.5928: real time  247.9612
       DOS:  cpu time    0.0020: real time    0.0020
    CHARGE:  cpu time    5.9047: real time    5.9189
    MIXING:  cpu time    0.0363: real time    0.0420
    --------------------------------------------
      LOOP:  cpu time  253.4431: real time  255.9027

 eigenvalue-minimisations  : 37552
 total energy-change (2. order) : 0.4584518E-04  (-0.3202040E-05)
 number of electron     768.0000015 magnetization      96.0000969
 augmentation part      245.5342037 magnetization      63.0107565

 Broyden mixing:
  rms(total) = 0.21400E-01    rms(broyden)= 0.21400E-01
  rms(prec ) = 0.21510E-01
  weight for this iteration     100.00

 eigenvalues of (default mixing * dielectric matrix)
  average eigenvalue GAMMA=   0.9671
  1.5776  1.5776  1.8705  1.8705  0.8272  0.8272  0.7164  0.7164  0.5742  0.5742
  0.4877  0.4877  0.4642

 Free energy of the ion-electron system (eV)
  ---------------------------------------------------
  alpha Z        PSCENC =      1915.67052055
  Ewald energy   TEWEN  =    -48532.20139471
  -Hartree energ DENC   =    -28982.82582219
  -exchange      EXHF   =         0.00000000
  -V(xc)+E(xc)   XCENC  =      3297.18159556
  PAW double counting   =     81673.53716457   -84388.69698005
  entropy T*S    EENTRO =        -0.00000000
  eigenvalues    EBANDS =    -11331.06136253
  atomic energy  EATOM  =     85731.96378919
  Solvation  Ediel_sol  =         0.00000000
  ---------------------------------------------------
  free energy    TOTEN  =      -616.43248960 eV

  energy without entropy =     -616.43248960  energy(sigma->0) =     -616.43248960


--------------------------------------------------------------------------------------------------------




--------------------------------------- Iteration      1(  19)  ---------------------------------------


    POTLOK:  cpu time    0.4765: real time    0.4790
    SETDIJ:  cpu time    1.4671: real time    1.4677
     EDDAV:  cpu time  213.7664: real time  215.3628
       DOS:  cpu time    0.0021: real time    0.0021
    CHARGE:  cpu time    5.6644: real time    5.7451
    MIXING:  cpu time    0.0342: real time    0.0418
    --------------------------------------------
      LOOP:  cpu time  221.4106: real time  223.0985

 eigenvalue-minimisations  : 31424
 total energy-change (2. order) :-0.7483752E-04  (-0.1599734E-05)
 number of electron     768.0000015 magnetization      96.0000298
 augmentation part      245.5345874 magnetization      63.0106593

 Broyden mixing:
  rms(total) = 0.16327E-01    rms(broyden)= 0.16327E-01
  rms(prec ) = 0.16604E-01
  weight for this iteration     100.00

 eigenvalues of (default mixing * dielectric matrix)
  average eigenvalue GAMMA=   1.0439
  2.3782  2.3782  1.5616  1.5616  0.9822  0.9822  0.7433  0.7433  0.6376  0.6376
  0.5103  0.5103  0.4939  0.4939

 Free energy of the ion-electron system (eV)
  ---------------------------------------------------
  alpha Z        PSCENC =      1915.67052055
  Ewald energy   TEWEN  =    -48532.20139471
  -Hartree energ DENC   =    -28982.59172284
  -exchange      EXHF   =         0.00000000
  -V(xc)+E(xc)   XCENC  =      3297.15729661
  PAW double counting   =     81686.85936842   -84402.20186729
  entropy T*S    EENTRO =        -0.00000000
  eigenvalues    EBANDS =    -11331.08855438
  atomic energy  EATOM  =     85731.96378919
  Solvation  Ediel_sol  =         0.00000000
  ---------------------------------------------------
  free energy    TOTEN  =      -616.43256444 eV

  energy without entropy =     -616.43256444  energy(sigma->0) =     -616.43256444


--------------------------------------------------------------------------------------------------------




--------------------------------------- Iteration      1(  20)  ---------------------------------------


    POTLOK:  cpu time    0.4839: real time    0.4878
    SETDIJ:  cpu time    1.4579: real time    1.4963
     EDDAV:  cpu time  296.2279: real time  298.9404
       DOS:  cpu time    0.0021: real time    0.0021
    CHARGE:  cpu time    5.9726: real time    6.0325
    MIXING:  cpu time    0.0288: real time    0.0353
    --------------------------------------------
      LOOP:  cpu time  304.1732: real time  306.9943

 eigenvalue-minimisations  : 47616
 total energy-change (2. order) : 0.1436135E-03  (-0.7100636E-05)
 number of electron     768.0000015 magnetization      96.0000098
 augmentation part      245.5379050 magnetization      63.0103492

 Broyden mixing:
  rms(total) = 0.41715E-02    rms(broyden)= 0.41691E-02
  rms(prec ) = 0.41911E-02
  weight for this iteration     100.00

 eigenvalues of (default mixing * dielectric matrix)
  average eigenvalue GAMMA=   1.0365
  2.4220  2.4220  1.5651  1.5651  1.0713  1.0713  0.7342  0.7342  0.6813  0.6813
  0.5518  0.5518  0.5019  0.5019  0.4922

 Free energy of the ion-electron system (eV)
  ---------------------------------------------------
  alpha Z        PSCENC =      1915.67052055
  Ewald energy   TEWEN  =    -48532.20139471
  -Hartree energ DENC   =    -28983.33237038
  -exchange      EXHF   =         0.00000000
  -V(xc)+E(xc)   XCENC  =      3297.25604292
  PAW double counting   =     81702.12653540   -84417.80421916
  entropy T*S    EENTRO =        -0.00000000
  eigenvalues    EBANDS =    -11330.11132465
  atomic energy  EATOM  =     85731.96378919
  Solvation  Ediel_sol  =         0.00000000
  ---------------------------------------------------
  free energy    TOTEN  =      -616.43242082 eV

  energy without entropy =     -616.43242082  energy(sigma->0) =     -616.43242082


--------------------------------------------------------------------------------------------------------




--------------------------------------- Iteration      1(  21)  ---------------------------------------


    POTLOK:  cpu time    0.4839: real time    0.4850
    SETDIJ:  cpu time    1.4055: real time    1.4784
     EDDAV:  cpu time  224.7096: real time  226.5533
       DOS:  cpu time    0.0022: real time    0.0022
    CHARGE:  cpu time    5.7176: real time    5.7352
    MIXING:  cpu time    0.0366: real time    0.0431
    --------------------------------------------
      LOOP:  cpu time  232.3555: real time  234.2972

 eigenvalue-minimisations  : 33664
 total energy-change (2. order) :-0.2873609E-04  (-0.5945120E-05)
 number of electron     768.0000015 magnetization      96.0000074
 augmentation part      245.5409639 magnetization      63.0104273

 Broyden mixing:
  rms(total) = 0.22932E-02    rms(broyden)= 0.22890E-02
  rms(prec ) = 0.23836E-02
  weight for this iteration     100.00

 eigenvalues of (default mixing * dielectric matrix)
  average eigenvalue GAMMA=   1.0025
  2.3893  2.3893  1.5602  1.5602  1.1223  1.1223  0.7435  0.7435  0.7078  0.7078
  0.5693  0.5693  0.5025  0.5025  0.4692  0.3806

 Free energy of the ion-electron system (eV)
  ---------------------------------------------------
  alpha Z        PSCENC =      1915.67052055
  Ewald energy   TEWEN  =    -48532.20139471
  -Hartree energ DENC   =    -28983.23787725
  -exchange      EXHF   =         0.00000000
  -V(xc)+E(xc)   XCENC  =      3297.24760384
  PAW double counting   =     81708.64533925   -84424.42510403
  entropy T*S    EENTRO =        -0.00000000
  eigenvalues    EBANDS =    -11330.09532641
  atomic energy  EATOM  =     85731.96378919
  Solvation  Ediel_sol  =         0.00000000
  ---------------------------------------------------
  free energy    TOTEN  =      -616.43244956 eV

  energy without entropy =     -616.43244956  energy(sigma->0) =     -616.43244956


--------------------------------------------------------------------------------------------------------




--------------------------------------- Iteration      1(  22)  ---------------------------------------


    POTLOK:  cpu time    0.4788: real time    0.4796
    SETDIJ:  cpu time    1.4540: real time    1.4563
     EDDAV:  cpu time  179.0960: real time  181.0487
       DOS:  cpu time    0.0108: real time    0.0111
    CHARGE:  cpu time    5.9326: real time    5.9932
    MIXING:  cpu time    0.0837: real time    0.1011
    --------------------------------------------
      LOOP:  cpu time  187.0560: real time  189.0900

 eigenvalue-minimisations  : 24608
 total energy-change (2. order) : 0.8237490E-05  (-0.1042998E-05)
 number of electron     768.0000015 magnetization      96.0000050
 augmentation part      245.5416603 magnetization      63.0104687

 Broyden mixing:
  rms(total) = 0.11556E-02    rms(broyden)= 0.11477E-02
  rms(prec ) = 0.11805E-02
  weight for this iteration     100.00

 eigenvalues of (default mixing * dielectric matrix)
  average eigenvalue GAMMA=   0.9995
  2.4462  2.4462  1.5619  1.5619  1.1674  1.1674  0.7756  0.7756  0.6989  0.6989
  0.5896  0.5896  0.5355  0.5355  0.4978  0.4721  0.4721

 Free energy of the ion-electron system (eV)
  ---------------------------------------------------
  alpha Z        PSCENC =      1915.67052055
  Ewald energy   TEWEN  =    -48532.20139471
  -Hartree energ DENC   =    -28983.32707887
  -exchange      EXHF   =         0.00000000
  -V(xc)+E(xc)   XCENC  =      3297.25903294
  PAW double counting   =     81708.74499297   -84424.53598868
  entropy T*S    EENTRO =        -0.00000000
  eigenvalues    EBANDS =    -11330.00631472
  atomic energy  EATOM  =     85731.96378919
  Solvation  Ediel_sol  =         0.00000000
  ---------------------------------------------------
  free energy    TOTEN  =      -616.43244132 eV

  energy without entropy =     -616.43244132  energy(sigma->0) =     -616.43244132


--------------------------------------------------------------------------------------------------------




--------------------------------------- Iteration      1(  23)  ---------------------------------------


    POTLOK:  cpu time    0.4898: real time    0.4938
    SETDIJ:  cpu time    1.4202: real time    1.4797
     EDDAV:  cpu time  171.8234: real time  173.5512
       DOS:  cpu time    0.0021: real time    0.0021
    CHARGE:  cpu time    5.8221: real time    5.8564
    MIXING:  cpu time    0.0457: real time    0.0510
    --------------------------------------------
      LOOP:  cpu time  179.6034: real time  181.4342

 eigenvalue-minimisations  : 23280
 total energy-change (2. order) :-0.3948517E-05  (-0.1720259E-06)
 number of electron     768.0000015 magnetization      96.0000027
 augmentation part      245.5422537 magnetization      63.0105209

 Broyden mixing:
  rms(total) = 0.12943E-02    rms(broyden)= 0.12873E-02
  rms(prec ) = 0.13463E-02
[...]
   0.140E+00 0.305E+02 -.266E+03   -.147E+00 -.319E+02 0.274E+03   0.722E-02 0.140E+01 -.824E+01   -.646E-04 0.104E-03 -.381E-03
   0.141E+00 0.305E+02 -.266E+03   -.149E+00 -.319E+02 0.274E+03   0.751E-02 0.140E+01 -.824E+01   0.441E-04 0.112E-03 -.376E-03
   0.167E+00 0.305E+02 -.266E+03   -.176E+00 -.319E+02 0.274E+03   0.896E-02 0.140E+01 -.824E+01   0.193E-04 0.101E-03 -.376E-03
   0.192E+00 0.305E+02 -.266E+03   -.202E+00 -.319E+02 0.274E+03   0.102E-01 0.140E+01 -.824E+01   -.441E-04 0.132E-03 -.390E-03
   0.185E+00 0.305E+02 -.266E+03   -.196E+00 -.319E+02 0.274E+03   0.108E-01 0.140E+01 -.824E+01   0.466E-04 0.106E-03 -.363E-03
   0.167E+00 0.305E+02 -.266E+03   -.176E+00 -.319E+02 0.274E+03   0.895E-02 0.140E+01 -.824E+01   0.270E-04 0.839E-04 -.385E-03
   0.148E+00 0.305E+02 -.266E+03   -.155E+00 -.319E+02 0.274E+03   0.699E-02 0.140E+01 -.824E+01   -.800E-04 0.950E-04 -.376E-03
   0.148E+00 0.305E+02 -.266E+03   -.156E+00 -.319E+02 0.274E+03   0.721E-02 0.140E+01 -.824E+01   -.244E-04 0.120E-03 -.356E-03
   0.167E+00 0.305E+02 -.266E+03   -.176E+00 -.319E+02 0.274E+03   0.896E-02 0.140E+01 -.824E+01   0.205E-04 0.125E-03 -.375E-03
   0.185E+00 0.305E+02 -.266E+03   -.195E+00 -.319E+02 0.274E+03   0.106E-01 0.140E+01 -.824E+01   0.205E-04 0.113E-03 -.368E-03
   -.120E+00 -.244E+02 -.149E+03   0.123E+00 0.249E+02 0.150E+03   -.298E-02 -.538E+00 -.114E+01   -.506E-05 -.226E-04 0.492E-04
   -.121E+00 -.245E+02 -.149E+03   0.124E+00 0.250E+02 0.150E+03   -.316E-02 -.545E+00 -.114E+01   0.860E-05 -.238E-04 0.401E-04
   -.120E+00 -.245E+02 -.149E+03   0.123E+00 0.250E+02 0.150E+03   -.284E-02 -.545E+00 -.114E+01   0.349E-05 -.255E-05 0.339E-04
   -.121E+00 -.246E+02 -.149E+03   0.124E+00 0.251E+02 0.150E+03   -.304E-02 -.547E+00 -.114E+01   -.150E-04 -.578E-06 0.914E-04
   -.120E+00 -.245E+02 -.149E+03   0.123E+00 0.251E+02 0.150E+03   -.300E-02 -.546E+00 -.114E+01   0.221E-05 -.659E-05 0.828E-04
   -.121E+00 -.245E+02 -.149E+03   0.124E+00 0.251E+02 0.150E+03   -.300E-02 -.546E+00 -.114E+01   0.308E-04 -.165E-04 0.603E-04
   -.120E+00 -.244E+02 -.149E+03   0.123E+00 0.250E+02 0.150E+03   -.300E-02 -.541E+00 -.114E+01   -.251E-04 0.571E-05 0.771E-04
   -.121E+00 -.245E+02 -.149E+03   0.124E+00 0.250E+02 0.150E+03   -.300E-02 -.545E+00 -.114E+01   -.818E-05 -.196E-04 0.708E-04
   -.120E+00 -.245E+02 -.149E+03   0.123E+00 0.250E+02 0.150E+03   -.301E-02 -.545E+00 -.114E+01   0.146E-04 -.111E-04 0.621E-04
   -.121E+00 -.245E+02 -.149E+03   0.124E+00 0.251E+02 0.150E+03   -.301E-02 -.549E+00 -.114E+01   0.131E-05 -.283E-04 0.728E-04
   -.121E+00 -.245E+02 -.149E+03   0.123E+00 0.251E+02 0.150E+03   -.295E-02 -.546E+00 -.114E+01   -.626E-06 -.653E-05 0.701E-04
   -.121E+00 -.245E+02 -.149E+03   0.124E+00 0.251E+02 0.150E+03   -.310E-02 -.546E+00 -.114E+01   -.109E-04 0.811E-05 0.687E-04
   -.122E+00 -.248E+02 0.149E+03   0.125E+00 0.253E+02 -.150E+03   -.306E-02 -.555E+00 0.115E+01   -.172E-04 -.592E-04 -.863E-04
   -.934E-01 -.245E+02 0.149E+03   0.956E-01 0.251E+02 -.150E+03   -.192E-02 -.545E+00 0.114E+01   -.774E-05 -.175E-04 -.700E-04
   -.148E+00 -.245E+02 0.149E+03   0.152E+00 0.251E+02 -.150E+03   -.412E-02 -.545E+00 0.114E+01   0.165E-04 -.500E-04 -.606E-04
   -.122E+00 -.247E+02 0.149E+03   0.125E+00 0.253E+02 -.150E+03   -.307E-02 -.558E+00 0.114E+01   -.390E-05 -.220E-04 -.381E-04
   -.147E+00 -.245E+02 0.149E+03   0.150E+00 0.251E+02 -.150E+03   -.408E-02 -.546E+00 0.114E+01   0.689E-05 -.223E-04 -.796E-04
   -.948E-01 -.245E+02 0.149E+03   0.971E-01 0.251E+02 -.150E+03   -.196E-02 -.546E+00 0.114E+01   -.747E-05 -.224E-04 -.663E-04
   -.121E+00 -.245E+02 0.149E+03   0.124E+00 0.251E+02 -.150E+03   -.301E-02 -.545E+00 0.114E+01   0.309E-06 -.403E-05 -.557E-04
   -.117E+00 -.245E+02 0.149E+03   0.120E+00 0.251E+02 -.150E+03   -.293E-02 -.546E+00 0.114E+01   -.275E-05 -.246E-04 -.752E-04
   -.125E+00 -.245E+02 0.149E+03   0.128E+00 0.251E+02 -.150E+03   -.309E-02 -.546E+00 0.114E+01   0.287E-05 -.413E-04 -.649E-04
   -.121E+00 -.245E+02 0.149E+03   0.124E+00 0.251E+02 -.150E+03   -.300E-02 -.545E+00 0.114E+01   -.201E-05 -.187E-04 -.798E-04
   -.125E+00 -.245E+02 0.149E+03   0.127E+00 0.251E+02 -.150E+03   -.315E-02 -.546E+00 0.114E+01   -.397E-05 -.180E-04 -.560E-04
   -.117E+00 -.245E+02 0.149E+03   0.120E+00 0.251E+02 -.150E+03   -.288E-02 -.546E+00 0.114E+01   -.175E-05 -.100E-04 -.523E-04
   -.325E-01 -.160E+02 0.822E+02   0.267E-01 0.172E+02 -.834E+02   0.389E-02 -.115E+01 0.122E+01   0.148E-04 0.399E-04 -.228E-03
   -.781E-01 -.160E+02 0.822E+02   0.832E-01 0.171E+02 -.834E+02   -.542E-02 -.114E+01 0.122E+01   0.715E-04 0.567E-04 -.173E-03
   -.124E+00 -.160E+02 0.822E+02   0.140E+00 0.172E+02 -.834E+02   -.146E-01 -.115E+01 0.122E+01   -.956E-04 0.556E-04 -.271E-03
   -.338E+00 -.160E+02 0.820E+02   0.358E+00 0.171E+02 -.832E+02   -.156E-01 -.114E+01 0.121E+01   0.227E-04 0.106E-03 -.230E-03
   -.779E-01 -.159E+02 0.822E+02   0.830E-01 0.171E+02 -.834E+02   -.540E-02 -.114E+01 0.122E+01   0.491E-04 0.108E-03 -.214E-03
   0.182E+00 -.160E+02 0.820E+02   -.192E+00 0.171E+02 -.832E+02   0.488E-02 -.114E+01 0.121E+01   -.890E-04 0.780E-04 -.187E-03
   -.653E-01 -.160E+02 0.821E+02   0.708E-01 0.171E+02 -.834E+02   -.555E-02 -.114E+01 0.122E+01   0.126E-04 0.138E-03 -.188E-03
   -.780E-01 -.160E+02 0.822E+02   0.831E-01 0.171E+02 -.834E+02   -.544E-02 -.114E+01 0.122E+01   0.739E-04 0.109E-03 -.224E-03
   -.907E-01 -.160E+02 0.821E+02   0.956E-01 0.171E+02 -.834E+02   -.515E-02 -.114E+01 0.122E+01   -.893E-04 0.234E-04 -.216E-03
   -.982E-01 -.159E+02 0.822E+02   0.102E+00 0.171E+02 -.834E+02   -.455E-02 -.114E+01 0.122E+01   0.317E-04 0.924E-04 -.214E-03
   -.779E-01 -.159E+02 0.822E+02   0.830E-01 0.171E+02 -.834E+02   -.543E-02 -.114E+01 0.122E+01   0.569E-04 0.924E-04 -.176E-03
   -.574E-01 -.159E+02 0.822E+02   0.634E-01 0.171E+02 -.834E+02   -.613E-02 -.114E+01 0.122E+01   -.752E-04 0.108E-03 -.206E-03
   -.523E-01 -.159E+02 -.822E+02   0.592E-01 0.170E+02 0.834E+02   -.677E-02 -.114E+01 -.122E+01   0.956E-05 0.876E-04 0.202E-03
   -.779E-01 -.159E+02 -.822E+02   0.830E-01 0.171E+02 0.834E+02   -.540E-02 -.114E+01 -.122E+01   0.224E-04 0.820E-04 0.228E-03
   -.103E+00 -.159E+02 -.822E+02   0.106E+00 0.170E+02 0.834E+02   -.391E-02 -.114E+01 -.122E+01   -.866E-04 0.132E-03 0.161E-03
   -.893E-01 -.160E+02 -.821E+02   0.940E-01 0.171E+02 0.834E+02   -.490E-02 -.114E+01 -.122E+01   0.240E-04 0.125E-04 0.265E-03
   -.780E-01 -.160E+02 -.822E+02   0.831E-01 0.171E+02 0.834E+02   -.540E-02 -.114E+01 -.122E+01   0.500E-04 0.590E-04 0.213E-03
   -.669E-01 -.160E+02 -.821E+02   0.725E-01 0.171E+02 0.834E+02   -.580E-02 -.114E+01 -.122E+01   -.122E-03 0.801E-04 0.240E-03
   0.105E+00 -.158E+02 -.820E+02   -.108E+00 0.170E+02 0.832E+02   0.381E-03 -.114E+01 -.121E+01   0.385E-04 0.131E-03 0.224E-03
   -.778E-01 -.159E+02 -.822E+02   0.830E-01 0.171E+02 0.834E+02   -.540E-02 -.114E+01 -.122E+01   0.186E-04 0.950E-04 0.233E-03
   -.259E+00 -.158E+02 -.820E+02   0.273E+00 0.170E+02 0.832E+02   -.111E-01 -.114E+01 -.121E+01   -.693E-04 0.981E-04 0.237E-03
   -.102E+00 -.160E+02 -.822E+02   0.112E+00 0.172E+02 0.834E+02   -.898E-02 -.115E+01 -.122E+01   -.235E-04 0.728E-04 0.280E-03
   -.781E-01 -.160E+02 -.822E+02   0.832E-01 0.171E+02 0.834E+02   -.543E-02 -.114E+01 -.122E+01   0.710E-04 0.693E-04 0.233E-03
   -.542E-01 -.160E+02 -.822E+02   0.546E-01 0.172E+02 0.834E+02   -.177E-02 -.115E+01 -.122E+01   -.468E-04 0.850E-04 0.240E-03
 -----------------------------------------------------------------------------------------------
   -.818E-01 -.197E+01 -.325E-02   0.909E-13 0.146E-12 -.568E-13   0.812E-01 0.197E+01 0.311E-02   -.124E-03 0.448E-02 0.159E-03
 
 
 POSITION                                       TOTAL-FORCE (eV/Angst)
 -----------------------------------------------------------------------------------
      0.43558      4.07770      3.99103         0.000037     -0.015166      0.000174
      4.34744      4.04855      3.99103         0.002079     -0.000203     -0.000081
      8.25935      4.02941      3.99103        -0.000305     -0.000175     -0.000077
      0.46293      9.67687      3.99103         0.000138      0.002660     -0.000152
      4.37484      9.65772      3.99103         0.001990      0.000101     -0.000066
      8.28675      9.63857      3.99103        -0.000225      0.000127     -0.000064
      0.43553      4.06770      9.58884         0.000114      0.000126     -0.000065
      4.34744      4.04855      9.58884         0.002033     -0.000086     -0.000089
      8.25935      4.02941      9.58884        -0.000255     -0.000060     -0.000083
      0.46293      9.67687      9.58884         0.000119     -0.000131     -0.000103
      4.37484      9.65772      9.58884         0.002024     -0.000033     -0.000085
      8.28675      9.63857      9.58884        -0.000252     -0.000006     -0.000080
      0.42183      1.26312      1.60678         0.000113      0.000192      0.001464
      4.33373      1.24397      1.60678         0.001941     -0.000056      0.000153
      8.24564      1.22482      1.60678        -0.000165     -0.000026      0.000149
      0.44923      6.87229      1.60678         0.000118      0.000192     -0.001179
      4.36114      6.85314      1.60678         0.002105     -0.000057      0.000011
      8.27305      6.83399      1.60678        -0.000328     -0.000028      0.000005
      0.42183      1.26312      7.20459         0.000117     -0.000035     -0.000889
      4.33373      1.24397      7.20459         0.001884     -0.000069      0.000025
      8.24564      1.22482      7.20459        -0.000109     -0.000039      0.000019
      0.44923      6.87229      7.20459         0.000118     -0.000041      0.000999
      4.36114      6.85314      7.20459         0.002148     -0.000074      0.000114
      8.27305      6.83399      7.20459        -0.000373     -0.000043      0.000108
      2.38373      2.44499      3.05038        -0.004495      0.001431      0.001715
      6.29564      2.42584      3.05038        -0.000182     -0.000050      0.000049
     10.20755      2.40669      3.05038         0.004146      0.001386      0.001717
      2.41113      8.05416      3.05038         0.000694      0.000650     -0.000528
      6.32304      8.03501      3.05038        -0.000179      0.000251     -0.000154
     10.23495      8.01586      3.05038        -0.001050      0.000648     -0.000525
      2.38373      2.44499      8.64819        -0.000047     -0.000076     -0.000176
      6.29564      2.42584      8.64819        -0.000181      0.000046     -0.000065
     10.20755      2.40669      8.64819        -0.000317     -0.000074     -0.000157
      2.41113      8.05416      8.64819        -0.000208      0.000242      0.000028
      6.32304      8.03501      8.64819        -0.000179      0.000161     -0.000076
     10.23495      8.01586      8.64819        -0.000153      0.000238      0.000046
      2.39743      5.24957      2.54743         0.003071      0.000215     -0.002176
      6.30934      5.23042      2.54743        -0.000181     -0.000000      0.000001
     10.22125      5.21128      2.54743        -0.003433      0.000242     -0.002178
      2.42483     10.85874      2.54743        -0.000655      0.000607      0.000515
      6.33674     10.83959      2.54743        -0.000180      0.000200      0.000126
     10.24865     10.82044      2.54743         0.000295      0.000605      0.000503
      2.39743      5.24957      8.14524        -0.000188     -0.000015      0.000190
      6.30934      5.23042      8.14524        -0.000181      0.000065      0.000050
     10.22125      5.21128      8.14524        -0.000176     -0.000018      0.000175
      2.42483     10.85874      8.14524        -0.000099      0.000250     -0.000064
      6.33674     10.83959      8.14524        -0.000181      0.000131      0.000064
     10.24865     10.82044      8.14524        -0.000263      0.000249     -0.000082
      2.39183      4.11329      4.18453         0.000648      0.005823     -0.000063
      6.30374      4.09414      4.18453        -0.000013      0.000325      0.000057
     10.21565      4.07499      4.18453        -0.000813      0.005821     -0.000023
      2.41924      9.72245      4.18453         0.000042     -0.002668      0.000113
      6.33115      9.70331      4.18453        -0.000018     -0.000375      0.000085
     10.24306      9.68416      4.18453        -0.000287     -0.002681      0.000149
      2.39183      4.11329      9.78234        -0.000043     -0.000109      0.000006
      6.30374      4.09414      9.78234        -0.000015      0.000018      0.000107
     10.21565      4.07499      9.78234        -0.000178     -0.000079      0.000008
      2.41924      9.72245      9.78234         0.000015     -0.000134      0.000045
      6.33115      9.70331      9.78234        -0.000018     -0.000117      0.000120
     10.24306      9.68416      9.78234        -0.000232     -0.000108      0.000049
      2.37813      1.30870      1.41328         0.000349     -0.000017     -0.000985
      6.29004      1.28956      1.41328        -0.000011     -0.000004     -0.000225
     10.20195      1.27041      1.41328        -0.000570     -0.000023     -0.001030
      2.40554      6.91787      1.41328        -0.000308     -0.000183      0.000858
      6.31744      6.89872      1.41328        -0.000015     -0.000068      0.000038
     10.22935      6.87958      1.41328         0.000086     -0.000205      0.000806
      2.37813      1.30870      7.01109         0.000583      0.000056      0.001025
      6.29004      1.28956      7.01109        -0.000018     -0.000033      0.000047
     10.20195      1.27041      7.01109        -0.000797      0.000074      0.001019
      2.40554      6.91787      7.01109        -0.000550     -0.000210     -0.000929
      6.31744      6.89872      7.01109        -0.000015     -0.000081     -0.000227
     10.22935      6.87958      7.01109         0.000330     -0.000190     -0.000946
      0.43605      4.15009      1.34677        -0.000152      0.002435      0.000042
      4.34796      4.13094      1.34677        -0.000224      0.000125     -0.000020
      8.25987      4.11179      1.34677        -0.000106      0.000133     -0.000013
      0.46346      9.75926      1.34677        -0.000177     -0.000786     -0.000130
      4.37537      9.74011      1.34677        -0.000155     -0.000215     -0.000072
      8.28728      9.72096      1.34677        -0.000175     -0.000204     -0.000061
      0.43605      4.15009      6.94458        -0.000150      0.001679     -0.000228
      4.34796      4.13094      6.94458        -0.000163      0.000250     -0.000064
      8.25987      4.11179      6.94458        -0.000170      0.000251     -0.000062
      0.46346      9.75926      6.94458        -0.000169     -0.001396      0.000006
      4.37537      9.74011      6.94458        -0.000146     -0.000371     -0.000035
      8.28728      9.72096      6.94458        -0.000187     -0.000374     -0.000039
      0.42235      1.34551      4.25104        -0.000177     -0.002178      0.001536
      4.33426      1.32636      4.25104         0.000262      0.000056      0.000060
      8.24617      1.30721      4.25104        -0.000596      0.000064      0.000056
      0.44976      6.95467      4.25104        -0.000187     -0.003944     -0.001428
      4.36166      6.93553      4.25104        -0.000608     -0.000052      0.000042
      8.27357      6.91638      4.25104         0.000275     -0.000051      0.000039
      0.42235      1.34551      9.84885        -0.000157      0.000157      0.000128
      4.33426      1.32636      9.84885        -0.000113     -0.000020      0.000068
      8.24617      1.30721      9.84885        -0.000227     -0.000020      0.000071
      0.44976      6.95467      9.84885        -0.000162      0.000053     -0.000027
      4.36166      6.93553      9.84885        -0.000238     -0.000053      0.000045
      8.27357      6.91638      9.84885        -0.000095     -0.000063      0.000047
      2.37239      0.12585      5.37429        -0.001936      0.001288     -0.000880
      6.28430      0.10670      5.37429        -0.000231      0.000325     -0.000102
     10.19621      0.08756      5.37429         0.001558      0.001260     -0.000880
      2.39979      5.73502      5.37429         0.004970      0.000572      0.002952
      6.31170      5.71587      5.37429        -0.000234     -0.000212      0.000216
     10.22361      5.69672      5.37429        -0.005349      0.000604      0.002936
      2.37239      0.12585     10.97210        -0.000009      0.000221      0.000250
      6.28430      0.10670     10.97210        -0.000232      0.000129      0.000050
     10.19621      0.08756     10.97210        -0.000368      0.000210      0.000271
      2.39979      5.73502     10.97210        -0.000260     -0.000141     -0.000126
      6.31170      5.71587     10.97210        -0.000233     -0.000019      0.000019
     10.22361      5.69672     10.97210        -0.000117     -0.000150     -0.000100
      2.38609      2.93043      0.22352         0.000077     -0.000209      0.000219
      6.29800      2.91129      0.22352        -0.000235     -0.000070     -0.000046
     10.20991      2.89214      0.22352        -0.000457     -0.000224      0.000237
      2.41350      8.53960      0.22352        -0.000118      0.000312     -0.000219
      6.32541      8.52045      0.22352        -0.000236      0.000164     -0.000056
     10.23731      8.50131      0.22352        -0.000254      0.000288     -0.000194
      2.38609      2.93043      5.82133        -0.003512     -0.000914     -0.002402
      6.29800      2.91129      5.82133        -0.000232     -0.000205     -0.000163
     10.20991      2.89214      5.82133         0.003117     -0.000963     -0.002423
      2.41350      8.53960      5.82133         0.001039      0.001340      0.000532
      6.32541      8.52045      5.82133        -0.000230      0.000297      0.000111
     10.23731      8.50131      5.82133        -0.001412      0.001343      0.000525
 -----------------------------------------------------------------------------------
    total drift:                               -0.000680      0.001841      0.000025


--------------------------------------------------------------------------------------------------------



  FREE ENERGIE OF THE ION-ELECTRON SYSTEM (eV)
  ---------------------------------------------------
  free  energy   TOTEN  =      -616.43244270 eV

  energy  without entropy=     -616.43244270  energy(sigma->0) =     -616.43244270
 


--------------------------------------------------------------------------------------------------------


    POTLOK:  cpu time    1.9136: real time    1.9413


--------------------------------------------------------------------------------------------------------


     LOOP+:  cpu time 6668.2778: real time 6729.5257
    4ORBIT:  cpu time    0.0000: real time    0.0000

 total amount of memory used by VASP MPI-rank0   801761. kBytes
=======================================================================

   base      :      30000. kBytes
   nonl-proj :      92491. kBytes
   fftplans  :      50318. kBytes
   grid      :      44712. kBytes
   one-center:        622. kBytes
   wavefun   :     583618. kBytes
 
  
  
 General timing and accounting informations for this job:
 ========================================================
  
                  Total CPU time used (sec):     6767.842
                            User time (sec):     6693.780
                          System time (sec):       74.062
                         Elapsed time (sec):     6831.222
  
                   Maximum memory used (kb):      976684.
                   Average memory used (kb):           0.
  
                          Minor page faults:       747354
                          Major page faults:            6
                 Voluntary context switches:        71436
