# epsilon and Z* of atoms 1 5 9 13 17
   5.70306112    0.00000000    0.00000000    0.00000000    5.44994190    0.00000000    0.00000000    0.00000000    5.38236052 
   0.94333537   -0.05017944    0.00000000   -0.02852281    1.26030196    0.00000000    0.00000000    0.00000000    1.19477405 
   1.26294544   -0.00000000    0.00000000   -0.00000000    1.15405411    0.18139673    0.00000000    0.17202059    1.15123482 
   2.21062259   -0.00000000    0.00000000   -0.00000000    2.48155707   -0.27308933    0.00000000   -0.28561843    2.49613476 
  -2.42884960    0.02522576    0.00000000    0.03554654   -2.10305791    0.00000000    0.00000000    0.00000000   -2.09502394 
  -1.98805381    0.12719937   -0.04987341    0.09868451   -2.79285524    0.83573880   -0.21575423    0.82094881   -2.74711969 