160  
15   

1    
  0.0080726540901521   0.0000000000000000   0.0059018857952989
  -0.0528969700    0.0014650800   -0.0180312800
   0.0001775400   -0.0000055900   -0.0001250800
   0.0001017600    0.0000305900   -0.0000929700
   0.0001453500   -0.0000072000   -0.0001098500
   0.0001295100    0.0000289400    0.0012199100
   0.0001334900   -0.0000033600   -0.0000783800
  -0.0000901000   -0.0000120200   -0.0000969900
   0.0000441600   -0.0000055600   -0.0000884000
  -0.0003725200    0.0008608800   -0.0000004500
   0.0001158500    0.0000154500    0.0000925900
  -0.0003265000   -0.0009012600   -0.0000553700
   0.0001158400   -0.0000027100    0.0000903000
  -0.0001416500   -0.0004275400    0.0002306300
   0.0001085700    0.0000015600    0.0001133700
  -0.0002398200    0.0004726500    0.0003648100
   0.0001063600    0.0000082200    0.0001115200
  -0.0001725700    0.0000184300    0.0000894100
  -0.0000398800   -0.0000300200    0.0002724400
   0.0000032700   -0.0000111900    0.0001036800
   0.0000231200    0.0000077500    0.0001322800
   0.0013485300   -0.0000244900    0.0002512700
   0.0010626200    0.0001221800   -0.0001506900
  -0.0000676900   -0.0000025300    0.0001389800
  -0.0001216400   -0.0000447700    0.0000502800
  -0.0000022400   -0.0000488000   -0.0001612900
   0.0000897600    0.0001430700   -0.0000361000
  -0.0000996300    0.0000501100   -0.0001928100
   0.0001452200   -0.0001059100   -0.0000271500
   0.0000391600   -0.0001164000    0.0000113000
   0.0000200800    0.0000815500   -0.0001904100
   0.0001129900    0.0000992300    0.0000043000
  -0.0000675400   -0.0000628100   -0.0002395600
   0.0007968500    0.0017716500   -0.0024379700
   0.0002109800   -0.0000746000   -0.0000317200
  -0.0002097000   -0.0001346100   -0.0000732100
   0.0000520500    0.0000361300    0.0000457500
  -0.0000184200    0.0000642100    0.0004442700
   0.0000332700   -0.0000615500    0.0000003100
  -0.0001936700   -0.0000280000    0.0000886900
  -0.0000157000    0.0000370100    0.0000141800
  -0.0006932100    0.0006487800    0.0002753200
   0.0003090100    0.0000938800    0.0000785800
   0.0000149700   -0.0000726200    0.0000227600
   0.0001697500   -0.0000222900    0.0000347400
   0.0026961500   -0.0036969600    0.0035504400
   0.0002444300    0.0000110000   -0.0000421900
  -0.0001150400    0.0001788900   -0.0001118600
   0.0002705100   -0.0000482500   -0.0000796800
   0.0002283700   -0.0002288800    0.0005932700
   0.0000682100    0.0000480300   -0.0000138700
  -0.0002076000    0.0000952400    0.0000647500
  -0.0000146400   -0.0000217600   -0.0000154500
  -0.0011903600   -0.0008031700   -0.0015988000
   0.0001254400    0.0000358700    0.0000064900
  -0.0002732100    0.0000553100    0.0001463100
   0.0000938500   -0.0000350800    0.0000631100
   0.0003196800    0.0000065400   -0.0001050200
   0.0038006500    0.0031648000    0.0017200700
   0.0002637900    0.0000587700   -0.0001455400
  -0.0002177100   -0.0002404600   -0.0002308600
   0.0002671900   -0.0001211400    0.0001062100
  -0.0003525200   -0.0001895200    0.0001522000
   0.0001512000    0.0000049500    0.0000588500
   0.0000527200    0.0000071500    0.0000815700
   0.0004053000    0.0000087200   -0.0001740800
   0.0080091700   -0.0078105400    0.0046055700
   0.0003183300   -0.0000747100   -0.0002596600
  -0.0005273800    0.0003607700   -0.0005422600
   0.0003088600    0.0002457800    0.0001736400
  -0.0008243400    0.0003039800    0.0004593000
   0.0001449600   -0.0000652200    0.0001140300
  -0.0001135200    0.0000438100    0.0000771200
   0.0005555900    0.0003545600    0.0009281100
   0.0002801400   -0.0000994100    0.0000037200
  -0.0001909900   -0.0004441600    0.0003701200
   0.0001253700    0.0000460500   -0.0000612200
  -0.0014676600    0.0029923600   -0.0046489300
   0.0004172000   -0.0000771500    0.0000290300
  -0.0004934300    0.0000268800    0.0002916600
   0.0003320100    0.0000501700    0.0001607100
  -0.0015893700   -0.0010757800    0.0006104700
   0.0003411600   -0.0001942100    0.0001557800
  -0.0001731500   -0.0000395500   -0.0001013000
   0.0001671300    0.0000779300    0.0000891600
   0.0052020300    0.0075693200    0.0073394600
   0.0003422600    0.0000051400   -0.0001520100
  -0.0004186100   -0.0002127600   -0.0001567900
   0.0002597700    0.0000265500   -0.0001505400
   0.0025253700   -0.0052249100   -0.0065692600
   0.0004616200    0.0001745900   -0.0001101400
  -0.0002605200    0.0000035700   -0.0002515100
   0.0003416100   -0.0000927300    0.0001303300
   0.0001178300   -0.0000789100    0.0007772600
   0.0002721100    0.0001315600    0.0000422100
  -0.0001673400    0.0002953600    0.0004235800
   0.0001292800   -0.0000724300   -0.0000121000
   0.0024029600    0.0004149000    0.0012615200
  -0.0003720400   -0.0000030300    0.0000516900
   0.0023385500   -0.0005097700    0.0010941700
  -0.0003923600    0.0000076600    0.0000340500
   0.0002511800   -0.0001746800   -0.0004653900
  -0.0002214100    0.0000038900   -0.0000063200
   0.0001500400    0.0002112200   -0.0006382300
  -0.0002168700    0.0000083300   -0.0000234200
   0.0029817100    0.0003898000    0.0058793700
  -0.0004022100    0.0000011100   -0.0000186000
   0.0002277900    0.0000825200    0.0001568600
  -0.0002296200    0.0000069400   -0.0000085600
   0.0017234000    0.0001061300   -0.0026378900
  -0.0003536600   -0.0000168000   -0.0000167000
   0.0001910600   -0.0000857600   -0.0000763100
  -0.0002173100   -0.0000095400   -0.0000267200
   0.0000021400    0.0000590900   -0.0000835700
  -0.0000686100   -0.0001057500   -0.0001301900
   0.0000897100   -0.0000195900   -0.0001932200
  -0.0000303300    0.0000675500   -0.0001811800
  -0.0005982500    0.0008282100    0.0000235700
  -0.0003844900   -0.0006995400    0.0000886300
  -0.0006478000   -0.0008413200    0.0001740000
  -0.0005349400    0.0007895800    0.0002206900
  -0.0002197800   -0.0001078800    0.0010128600
  -0.0008820300   -0.0000716800   -0.0006571600
   0.0000400700    0.0000527200    0.0001390500
  -0.0000656300    0.0000556600   -0.0000179200
  -0.0007098700    0.0000612200   -0.0008234200
  -0.0002600400   -0.0000059200    0.0006569600
  -0.0000518200   -0.0000378000   -0.0000947600
   0.0000606400   -0.0000199600    0.0000442800
   0.0001697200    0.0002384000   -0.0012202400
  -0.0003099300    0.0000317800   -0.0000905500
   0.0000762600    0.0000558400   -0.0000721200
  -0.0001181800    0.0000374900   -0.0000333400
   0.0106929400   -0.0005504600    0.0029051200
  -0.0004555100   -0.0000078300    0.0001016100
   0.0006175300   -0.0000346700    0.0000447600
  -0.0003512000    0.0000015000    0.0000252300
  -0.0000881200   -0.0009096900    0.0000222400
  -0.0002065200    0.0000001400    0.0001103200
  -0.0001236900    0.0015132200   -0.0009149000
  -0.0002309400   -0.0000901700    0.0001439300
   0.0004100700   -0.0000776600    0.0003040500
  -0.0002417600    0.0001272300   -0.0001359300
   0.0003891700   -0.0001594400    0.0000637600
  -0.0002235700   -0.0000992800   -0.0000937800
   0.0007596300   -0.0003820900   -0.0016125300
  -0.0003077100   -0.0000170700   -0.0001345100
   0.0001500800   -0.0000329900   -0.0000491600
  -0.0001271000   -0.0000163500   -0.0000324300
   0.0155950300    0.0003908700    0.0056596900
  -0.0004356900    0.0000260000    0.0001268500
   0.0002836700    0.0000084700   -0.0000123400
  -0.0003088100    0.0000616800    0.0000518900
   0.0005006400    0.0001735200    0.0007915100
  -0.0002907600   -0.0001814800   -0.0000969800
   0.0005795900    0.0005800200    0.0005760200
  -0.0002687800    0.0001191600   -0.0000447500
   0.0000251800    0.0005669700   -0.0001993900
  -0.0001910400   -0.0000449200    0.0000221900
  -0.0002431100   -0.0011087300   -0.0009074900
  -0.0002097600    0.0000555900    0.0001096500

1    
 -0.0080726540901521   0.0000000000000000  -0.0059018857952989
   0.0522487600   -0.0015763300    0.0177324500
  -0.0001834400    0.0000068900   -0.0000342300
  -0.0001008100   -0.0000269400   -0.0000635100
  -0.0001492100    0.0000071100   -0.0000509000
  -0.0001336500   -0.0000299000   -0.0013726100
  -0.0001344000    0.0000009000   -0.0000836900
   0.0000975000    0.0000119000   -0.0000636000
  -0.0000457900    0.0000071600   -0.0000710700
   0.0003899300   -0.0008567500    0.0001596100
  -0.0001188700   -0.0000176000    0.0000737200
   0.0003462600    0.0008964700    0.0002228700
  -0.0001116000    0.0000037700    0.0000728200
   0.0001555600    0.0004265500   -0.0000677700
  -0.0001059300    0.0000014400    0.0000498600
   0.0002537900   -0.0004702700   -0.0002036000
  -0.0001050100   -0.0000059900    0.0000551700
   0.0001729200   -0.0000185500    0.0000769500
   0.0000427300    0.0000288600   -0.0001052100
  -0.0000105000    0.0000115700    0.0000598100
  -0.0000274100   -0.0000092900    0.0000344600
  -0.0012815500    0.0000249400   -0.0000768100
  -0.0010195900   -0.0001210000    0.0003013900
   0.0000613000    0.0000050400    0.0000251400
   0.0001270800    0.0000460400    0.0001151700
  -0.0000101800    0.0000481300   -0.0000035500
  -0.0000972500   -0.0001460300   -0.0001295300
   0.0000946000   -0.0000508500    0.0000310100
  -0.0001603000    0.0001067300   -0.0001411500
  -0.0000497700    0.0001193500   -0.0001781800
  -0.0000302400   -0.0000821900    0.0000308400
  -0.0001324100   -0.0000989600   -0.0001671600
   0.0000650900    0.0000685200    0.0000815700
  -0.0010221600   -0.0017327800    0.0023852600
  -0.0004360500    0.0000789100    0.0000281400
  -0.0000205400    0.0001406900    0.0000659400
  -0.0002744000   -0.0000336400   -0.0000483000
  -0.0002104700   -0.0000559100   -0.0004559300
  -0.0002553500    0.0000611100   -0.0000021200
  -0.0000375400    0.0000305900   -0.0000904500
  -0.0002097000   -0.0000356900   -0.0000166200
   0.0009149300   -0.0006554800   -0.0002636200
  -0.0000790600   -0.0000966300   -0.0000771900
   0.0002142300    0.0000756300   -0.0000205400
   0.0000555600    0.0000244700   -0.0000325100
  -0.0024407300    0.0035989700   -0.0034586600
  -0.0000197400   -0.0000125300    0.0000465200
   0.0003363400   -0.0001860200    0.0001201700
  -0.0000433500    0.0000483000    0.0000841100
  -0.0004525400    0.0002197800   -0.0006046600
  -0.0002866400   -0.0000514600    0.0000108700
  -0.0000178800   -0.0000990300   -0.0000638900
  -0.0002099200    0.0000225100    0.0000116100
   0.0009726500    0.0007623400    0.0015444100
  -0.0003526000   -0.0000379300   -0.0000132300
   0.0000499900   -0.0000620100   -0.0001577600
  -0.0003199600    0.0000320500   -0.0000698100
  -0.0000927100   -0.0000042000    0.0001089400
  -0.0036315100   -0.0031815500   -0.0017030200
  -0.0000375500   -0.0000621500    0.0001502200
   0.0004425200    0.0002484700    0.0002412900
  -0.0000425300    0.0001218200   -0.0001009800
   0.0005766300    0.0001902600   -0.0001433000
   0.0000680000   -0.0000030200   -0.0000545400
   0.0001708900   -0.0000044200   -0.0000812900
  -0.0004210500   -0.0000044200    0.0001742900
  -0.0081814900    0.0079214000   -0.0046422800
  -0.0003280600    0.0000671300    0.0002684600
   0.0005215500   -0.0003548100    0.0005498300
  -0.0003090700   -0.0002438200   -0.0001689000
   0.0008076200   -0.0003067200   -0.0004503900
  -0.0001561500    0.0000656800   -0.0001117400
   0.0001057700   -0.0000453500   -0.0000731900
  -0.0005147600   -0.0003502000   -0.0009379600
  -0.0002635600    0.0001014500   -0.0000083400
   0.0002229300    0.0004472500   -0.0003789400
  -0.0001177500   -0.0000417500    0.0000600100
   0.0015336300   -0.0029644100    0.0046072500
  -0.0004034200    0.0000737600   -0.0000347300
   0.0005051300   -0.0000275300   -0.0002974000
  -0.0003269200   -0.0000508800   -0.0001675300
   0.0015535300    0.0010757900   -0.0006094200
  -0.0003825600    0.0001971500   -0.0001555300
   0.0001598700    0.0000434300    0.0001094000
  -0.0001752800   -0.0000782000   -0.0000868700
  -0.0051288700   -0.0074670000   -0.0072459200
  -0.0003461600   -0.0000050600    0.0001566400
   0.0004095100    0.0002146600    0.0001510900
  -0.0002693700   -0.0000327900    0.0001492700
  -0.0025258900    0.0052122400    0.0065386900
  -0.0004234300   -0.0001797400    0.0001157900
   0.0002594200   -0.0000057800    0.0002492000
  -0.0003051100    0.0000994900   -0.0001308400
  -0.0001248000    0.0000761300   -0.0007682100
  -0.0002522800   -0.0001346600   -0.0000410700
   0.0001661900   -0.0002908000   -0.0004239600
  -0.0001184900    0.0000726500    0.0000042200
  -0.0023954100   -0.0004078600   -0.0012118400
   0.0003736400    0.0000037700   -0.0000118900
  -0.0023330200    0.0005014300   -0.0010525500
   0.0003902300   -0.0000074100    0.0000046500
  -0.0002407800    0.0001758600    0.0004999700
   0.0002194600   -0.0000035600    0.0000451700
  -0.0001501800   -0.0002087700    0.0006768900
   0.0002145600   -0.0000099800    0.0000643800
  -0.0029772800   -0.0003895400   -0.0061195800
   0.0003944100    0.0000018100   -0.0000255500
  -0.0002288500   -0.0000875600   -0.0002011200
   0.0002283800   -0.0000061400   -0.0000341000
  -0.0017039500   -0.0001094400    0.0025793900
   0.0003524400    0.0000128000   -0.0000200100
  -0.0001864900    0.0000827800    0.0000313100
   0.0002135000    0.0000111800   -0.0000162600
  -0.0000010700   -0.0000608800    0.0000442600
   0.0000622100    0.0001075300    0.0000920600
  -0.0000897400    0.0000226400    0.0001482100
   0.0000232700   -0.0000689200    0.0001425300
   0.0005942300   -0.0008301100   -0.0000652400
   0.0003842300    0.0006962700   -0.0001308500
   0.0006427000    0.0008398600   -0.0002128500
   0.0005372600   -0.0007906700   -0.0002623700
   0.0002207400    0.0001107700   -0.0009735100
   0.0008893200    0.0000746700    0.0007017700
  -0.0000415100   -0.0000485700   -0.0001008300
   0.0000649900   -0.0000572500    0.0000578500
   0.0007127300   -0.0000640000    0.0008662500
   0.0002580400    0.0000063300   -0.0006141900
   0.0000525700    0.0000279600    0.0001399100
  -0.0000594100    0.0000165900   -0.0000007300
  -0.0001770600   -0.0002386200    0.0012053100
   0.0003078800   -0.0000308600    0.0000841600
  -0.0000826700   -0.0000581300    0.0000813800
   0.0001152800   -0.0000372500    0.0000328400
  -0.0113333900    0.0005701700   -0.0027780600
   0.0004610300    0.0000102100   -0.0001035400
  -0.0006170400    0.0000356300   -0.0000545400
   0.0003511500    0.0000026900   -0.0000144400
   0.0000821300    0.0008984500   -0.0000166800
   0.0002117400    0.0000022500   -0.0001100500
   0.0001238400   -0.0015182600    0.0009255100
   0.0002327200    0.0000905400   -0.0001466200
  -0.0004124700    0.0000790400   -0.0003019800
   0.0002439500   -0.0001310800    0.0001396200
  -0.0003909900    0.0001540000   -0.0000614500
   0.0002262500    0.0000938000    0.0000918500
  -0.0007538300    0.0003789800    0.0016083600
   0.0003070400    0.0000183400    0.0001335200
  -0.0001479000    0.0000293600    0.0000488700
   0.0001282300    0.0000130300    0.0000325700
  -0.0143854600   -0.0003920100   -0.0054736700
   0.0004301900   -0.0000274700   -0.0001278600
  -0.0002768200   -0.0000077400    0.0000145500
   0.0003074300   -0.0000712800   -0.0000506100
  -0.0004946200   -0.0001669300   -0.0007884500
   0.0002922000    0.0001820400    0.0000944700
  -0.0005851900   -0.0005790100   -0.0005723400
   0.0002700600   -0.0001160900    0.0000443700
  -0.0000240300   -0.0005604800    0.0002010700
   0.0001918700    0.0000471900   -0.0000242900
   0.0002417100    0.0011076200    0.0009036200
   0.0002084500   -0.0000562400   -0.0001088900

1    
  0.0000000000000000   0.0100000000000000   0.0000000000000000
   0.0018801700   -0.0134138300   -0.0001382400
  -0.0000115500   -0.0000366100   -0.0001192000
   0.0000323800    0.0026514100   -0.0001176400
  -0.0000071500    0.0000398500   -0.0001141200
   0.0000435400    0.0001381600   -0.0001118700
  -0.0000092900   -0.0000111100   -0.0001127800
  -0.0000165800   -0.0000667200   -0.0001113300
  -0.0000135900    0.0000132400   -0.0001127000
   0.0000175900    0.0004308200    0.0015895100
  -0.0000034600    0.0000006000    0.0001299500
   0.0000155700    0.0004326800   -0.0013819400
  -0.0000093900   -0.0000039600    0.0001010600
  -0.0000208300    0.0000209200   -0.0006438800
  -0.0000003700   -0.0000032700    0.0001103100
  -0.0000204500    0.0000212000    0.0008726600
  -0.0000002500   -0.0000060400    0.0001233200
  -0.0000050400   -0.0000253600    0.0001520000
  -0.0000092600   -0.0000267400    0.0000734700
   0.0000050500    0.0000340400    0.0000985400
   0.0000002700    0.0000303900    0.0001383600
   0.0000533500   -0.0001888300   -0.0000078700
   0.0000743900   -0.0001919000    0.0002371800
  -0.0000289500    0.0001653900    0.0001516400
  -0.0000294500    0.0001666000    0.0000800200
  -0.0001097500    0.0000020200   -0.0001004900
   0.0001215800   -0.0000301600   -0.0000700300
   0.0001144700   -0.0000360800   -0.0001587900
  -0.0001033700    0.0000044400   -0.0001251800
  -0.0001301700   -0.0000324000   -0.0001910300
   0.0000942300    0.0000059800   -0.0001674500
   0.0000921500    0.0000063800   -0.0000660900
  -0.0001259300   -0.0000350600   -0.0000366300
   0.0030129000    0.0003464600   -0.0013158200
  -0.0001704600   -0.0000638200   -0.0000629000
  -0.0006673400    0.0005084100    0.0003401400
  -0.0000240700    0.0000818100    0.0000481900
  -0.0001297700   -0.0001243000    0.0000954800
  -0.0000713200   -0.0000463900   -0.0000224200
  -0.0000286000    0.0001146400   -0.0000944300
  -0.0000897700    0.0000420700    0.0000102800
   0.0002723700   -0.0001322900    0.0001061300
   0.0000557100   -0.0000406300   -0.0000155300
   0.0000290100    0.0001042500   -0.0000754700
   0.0000738200    0.0000336800    0.0000092700
  -0.0024866100    0.0002543600   -0.0023254100
   0.0001188000   -0.0000678400   -0.0000301900
   0.0009526900    0.0006772200    0.0006428000
   0.0000191000    0.0000688100    0.0000489600
   0.0001216000   -0.0001428200   -0.0001045100
  -0.0000984000   -0.0000430500    0.0000161800
  -0.0001271200    0.0001062900    0.0000830500
  -0.0000819300    0.0000310700   -0.0000110800
  -0.0026565700    0.0002386300    0.0023365100
  -0.0000362100   -0.0000612300    0.0000347500
   0.0007961500    0.0006825400   -0.0006372100
  -0.0001374000    0.0000707200   -0.0000438700
  -0.0000178000   -0.0000703600    0.0000566600
   0.0031459900    0.0003629700    0.0013077200
   0.0001287900    0.0000720000   -0.0000539600
  -0.0005194500    0.0005045700   -0.0003482100
   0.0000779000   -0.0000426600    0.0000235500
   0.0000310000   -0.0001220300   -0.0000968600
   0.0000626900    0.0000443000   -0.0000108700
   0.0001239000    0.0001121600    0.0000930800
   0.0000129500   -0.0001926700   -0.0001220700
  -0.0061622600    0.0004580100   -0.0026351600
  -0.0000762000    0.0001707700    0.0000996600
   0.0011169700    0.0010496600    0.0005914800
   0.0000161600   -0.0000464200    0.0000231200
   0.0000242900   -0.0002967100    0.0002323000
  -0.0000379700    0.0000493400   -0.0000091300
  -0.0000017600    0.0003110400   -0.0002564400
  -0.0002366900   -0.0002818400    0.0003085200
  -0.0000314600   -0.0000455200    0.0000225500
   0.0001065000    0.0003426500   -0.0003076800
   0.0000160000    0.0000527200   -0.0000158600
   0.0046824800   -0.0001115200   -0.0037079200
  -0.0000745600   -0.0001683800   -0.0001088100
  -0.0016297400    0.0012323800    0.0009727600
   0.0000568700    0.0001517900    0.0000784000
  -0.0002616900   -0.0002954900   -0.0003052400
  -0.0000503200   -0.0000447100   -0.0000236500
   0.0000951800    0.0003434300    0.0003173300
   0.0000060200    0.0000504300    0.0000180900
   0.0047015800   -0.0001582900    0.0037193200
  -0.0000893600   -0.0001644600    0.0001098300
  -0.0016410300    0.0012313500   -0.0009656200
   0.0000435600    0.0001514500   -0.0000790400
  -0.0061195800    0.0004946200    0.0026225700
   0.0000369600   -0.0001989800    0.0001207100
   0.0011471600    0.0010548000   -0.0006026900
  -0.0000552100    0.0001721700   -0.0001053100
   0.0000388000   -0.0002899200   -0.0002291600
   0.0000283300   -0.0000438700   -0.0000157600
   0.0000036400    0.0003120700    0.0002536100
  -0.0000318200    0.0000502200    0.0000107700
   0.0002297000   -0.0034117300    0.0008500500
   0.0000274300    0.0000002000    0.0000167600
   0.0002296700   -0.0033096400   -0.0008122600
   0.0000258800    0.0000012800    0.0000041300
  -0.0000390200    0.0001424100    0.0000981300
   0.0000179900    0.0000006600    0.0000068100
  -0.0000403100    0.0001469900   -0.0000776100
   0.0000148500   -0.0000027400    0.0000059300
   0.0002611500    0.0021295900    0.0000083300
   0.0000344400    0.0000391100   -0.0000150100
  -0.0000038100   -0.0008406500   -0.0000103800
   0.0000130000   -0.0000441400   -0.0000140700
   0.0000793600    0.0014078000   -0.0000050600
   0.0000071900    0.0000534700   -0.0000059200
  -0.0001696100   -0.0011713600   -0.0000147300
   0.0000201400   -0.0000504100   -0.0000073400
   0.0000966700   -0.0000112700   -0.0000121400
  -0.0000760300    0.0000143500    0.0000175600
  -0.0000748800    0.0000112900   -0.0000362800
   0.0000934300   -0.0000050600   -0.0000093600
   0.0005201000    0.0000418900    0.0000238800
  -0.0004708400    0.0000030500   -0.0000360100
  -0.0004749200    0.0000083600    0.0000169700
   0.0005215900    0.0000488100   -0.0000481000
   0.0000969900    0.0002629500   -0.0000270400
   0.0000940100    0.0002638300    0.0000394500
  -0.0000367300   -0.0002213400    0.0000267100
  -0.0000338500   -0.0002298900   -0.0000120400
  -0.0000686700    0.0002039800   -0.0000500500
  -0.0000722900    0.0002023300    0.0000753500
   0.0000695500   -0.0002135700    0.0000639600
   0.0000721000   -0.0002161100   -0.0000394700
  -0.0000158600   -0.0000242800    0.0000029500
   0.0000029400    0.0000547500   -0.0000654100
  -0.0000093200   -0.0000936900    0.0000731000
   0.0000176800   -0.0000511600    0.0000410200
  -0.0001304200    0.0059384600   -0.0008086600
   0.0000160000    0.0002016400   -0.0000220200
   0.0000625600   -0.0025972300    0.0005704700
   0.0000192800   -0.0002049800    0.0000457700
  -0.0003197400    0.0001392100   -0.0009617400
   0.0000676200    0.0000032300   -0.0000743900
   0.0003924300   -0.0004373200    0.0011484900
  -0.0000268300    0.0000224400    0.0000718200
  -0.0005931000   -0.0002604400    0.0009575100
   0.0000619700    0.0000023700    0.0000903600
   0.0004640500    0.0002596700   -0.0009972700
  -0.0000198800   -0.0000211900   -0.0000814900
   0.0000089400   -0.0000045600   -0.0000133400
   0.0000051800    0.0000393600    0.0000649700
  -0.0000154200   -0.0000867000   -0.0000753200
   0.0000148900   -0.0000504000   -0.0000455000
  -0.0002332000    0.0059200900    0.0008072000
   0.0000134700    0.0002072500    0.0000215600
   0.0000544400   -0.0025881700   -0.0005673400
   0.0000214300   -0.0002168400   -0.0000336100
   0.0003909400   -0.0004529400   -0.0011390000
  -0.0000396200    0.0000219300   -0.0000844700
  -0.0003272000    0.0001451400    0.0009525800
   0.0000613800   -0.0000025500    0.0000943500
   0.0004648200    0.0002484600    0.0009810200
  -0.0000316600   -0.0000079100    0.0000762400
  -0.0005938100   -0.0002676500   -0.0009522500
   0.0000484400    0.0000139000   -0.0000850400

33   
  0.0080893086772255   0.0058790377719967   0.0000000000000000
   0.0041129800    0.0026784300   -0.0027369100
   0.0002384800   -0.0001182300   -0.0001068800
  -0.0003501500   -0.0001857500    0.0000685200
   0.0001987400    0.0000917500   -0.0001448200
  -0.0002204100   -0.0001125500    0.0003712000
   0.0000771200   -0.0000252000   -0.0001162500
  -0.0000781400    0.0001040900   -0.0001697800
   0.0000841200    0.0000159200   -0.0000832700
  -0.0000774300    0.0007780900    0.0000274600
   0.0001259100    0.0000048500    0.0001163500
   0.0005204000   -0.0022786400    0.0013617000
   0.0002905200    0.0000311100    0.0000192100
  -0.0000510000    0.0000291800    0.0001322900
   0.0000670200    0.0000314000    0.0001232200
  -0.0001305000   -0.0000317300   -0.0001243300
   0.0002219300   -0.0000328400    0.0001844100
  -0.0000724800    0.0000758000   -0.0002053900
   0.0002411400   -0.0000425800    0.0001743100
  -0.0000781600    0.0000208400    0.0000548800
   0.0000667400    0.0000161400    0.0001162400
  -0.0009071000   -0.0019322400    0.0012014200
   0.0002141700   -0.0000076200    0.0000578700
  -0.0001003100    0.0011081900    0.0001648300
   0.0001559800   -0.0000089700    0.0000978600
  -0.0002725900   -0.0003030100   -0.0000375800
   0.0002224300    0.0000918200   -0.0001131600
   0.0023871400    0.0022351300   -0.0041024200
   0.0001773400   -0.0000694200   -0.0000746500
  -0.0001091300    0.0001010000   -0.0002236400
   0.0000954700    0.0000245100   -0.0001135700
  -0.0003824800   -0.0002394400    0.0010799100
   0.0001346600   -0.0000075400   -0.0001302000
  -0.0141985100   -0.0237382500    0.0080794700
   0.0002374100   -0.0001013900   -0.0000857500
  -0.0002841300    0.0002606600   -0.0000406000
   0.0000902400    0.0000466600   -0.0000033000
  -0.0002885500   -0.0001447000   -0.0000445700
   0.0000959200   -0.0000431800    0.0000006200
  -0.0004329800    0.0001199200    0.0000348700
   0.0001074900    0.0000514500    0.0000366900
  -0.0008639800    0.0003138500    0.0004501300
   0.0003171500   -0.0000015300    0.0000016000
  -0.0001175000    0.0002955800   -0.0004116900
   0.0002594100    0.0000059400   -0.0000091600
   0.0000313500    0.0004981600   -0.0005504600
   0.0002548600   -0.0000062700    0.0000032600
  -0.0010264300    0.0000803000    0.0003073300
   0.0003553500    0.0000516500    0.0000537000
   0.0003717000   -0.0006795700    0.0004231300
  -0.0000014400   -0.0001764500   -0.0001655600
  -0.0001004500    0.0002077200    0.0000046300
   0.0000091600    0.0000529800   -0.0000806500
   0.0001254200   -0.0000035000   -0.0001551500
   0.0004940300   -0.0005112600    0.0004167100
   0.0000080100    0.0000405200   -0.0001096700
  -0.0001049300    0.0001958800    0.0000212300
   0.0001477500   -0.0002250200    0.0001198000
   0.0005414400    0.0002663900   -0.0002940500
   0.0007440300    0.0005865500   -0.0004817300
   0.0002509900   -0.0001353800    0.0001119200
   0.0000724400    0.0000271900   -0.0000221500
   0.0001953800    0.0001068600    0.0001039900
   0.0001207000    0.0000972200    0.0001279700
   0.0000987500   -0.0000211000   -0.0000439700
   0.0023376000   -0.0009607000   -0.0006624800
   0.0010671500   -0.0005261800   -0.0003442300
  -0.0000542400    0.0004228800    0.0000631600
   0.0000905800    0.0002952400    0.0000209100
  -0.0000506400   -0.0005088400    0.0002442800
   0.0001080700   -0.0003823100    0.0001477600
   0.0001468600    0.0001726900    0.0000227800
   0.0001263400    0.0001475900    0.0000006400
   0.0014919900    0.0012413100    0.0010013900
   0.0004060900    0.0000172500   -0.0002485300
  -0.0000889300   -0.0002497600    0.0001824800
   0.0001590200    0.0003587800   -0.0004301000
   0.0001843200    0.0002168300   -0.0002626300
  -0.0000752100   -0.0003552500    0.0003041700
   0.0007358900   -0.0002993000   -0.0004763900
   0.0016160500    0.0010614600    0.0008925700
  -0.0023588100   -0.0028034500    0.0007650100
   0.0004077000   -0.0001123800    0.0000367600
  -0.0004568100    0.0004827800    0.0001219700
   0.0003156600    0.0000907500   -0.0000307600
  -0.0020361000   -0.0030258200   -0.0030646300
   0.0004358500   -0.0001731200    0.0000860400
  -0.0004959500    0.0005340000    0.0002012200
   0.0003289400    0.0000958400   -0.0000152600
  -0.0023310200    0.0082474500    0.0009010200
   0.0004074600    0.0000474300   -0.0000731200
  -0.0030098200    0.0070875700   -0.0001322100
   0.0004421900    0.0000464900   -0.0000863200
  -0.0004928800    0.0000592300   -0.0000130000
   0.0003174300   -0.0000089800    0.0000397600
  -0.0004771200    0.0000046500    0.0000309400
   0.0003235100    0.0000090000    0.0000467700
  -0.0000259200   -0.0006938200    0.0003025900
  -0.0002582200   -0.0000123000   -0.0000043600
  -0.0000681700    0.0020826700    0.0009591200
  -0.0009391600    0.0000058800   -0.0000199600
   0.0002837300   -0.0005123100   -0.0003753000
  -0.0002205900   -0.0000149400    0.0000353700
   0.0005241500    0.0003524000    0.0001312900
  -0.0003347500    0.0000375400    0.0000319100
  -0.0022247800   -0.0015831100   -0.0029901200
  -0.0004258500    0.0001511200    0.0001343900
   0.0005690400   -0.0003716700   -0.0000239400
  -0.0003346100   -0.0001145000    0.0000556800
  -0.0000396400    0.0000003900    0.0004404400
  -0.0002427500    0.0001139400   -0.0001107700
   0.0003002700    0.0000872600    0.0001615600
  -0.0003680300   -0.0001759700   -0.0001436800
   0.0002853300    0.0000299100    0.0001585900
  -0.0003648400   -0.0001376400   -0.0001251700
   0.0001530800    0.0000469000    0.0003286200
  -0.0002718800    0.0001141700   -0.0000402000
   0.0006845800   -0.0006031000   -0.0000391100
  -0.0003453800   -0.0000642300    0.0000550300
   0.0028456500    0.0023681000    0.0007208600
  -0.0005048400    0.0000840800    0.0000513200
   0.0020099600    0.0012225300   -0.0004903700
  -0.0008207400    0.0000603100    0.0000772100
   0.0001127800   -0.0007368700    0.0003580100
  -0.0002696700   -0.0000588300   -0.0000210500
   0.0006955900    0.0003929900    0.0001430100
  -0.0003574300    0.0000047300   -0.0000251300
   0.0002891700   -0.0005420000   -0.0004464200
  -0.0002719400   -0.0000046300    0.0000473200
  -0.0006903500    0.0004232100   -0.0011044700
  -0.0000221300    0.0000116800    0.0001132200
  -0.0000200800   -0.0000921800    0.0000616500
  -0.0001011700   -0.0000976800    0.0000711700
  -0.0006004100   -0.0001928800    0.0006074500
  -0.0004591500    0.0011530800   -0.0005747000
  -0.0003178100    0.0003184500   -0.0001350000
  -0.0004604300   -0.0012764300    0.0003702100
  -0.0004994100   -0.0011111600    0.0003462500
  -0.0002664400    0.0002173800   -0.0000783100