phonopy:
  version: 2.9.3
  frequency_unit_conversion_factor: 15.633302
  symmetry_tolerance: 1.00000e-05
  nac_unit_conversion_factor: 14.399652

physical_unit:
  atomic_mass: "AMU"

primitive_matrix:
- [  1.000000000000000,  0.000000000000000,  0.000000000000000 ]
- [  0.000000000000000,  1.000000000000000,  0.000000000000000 ]
- [  0.000000000000000,  0.000000000000000,  1.000000000000000 ]

supercell_matrix:
- [   2,   0,   0 ]
- [   0,   2,   0 ]
- [   0,   0,   2 ]

primitive_cell:
  lattice:
  - [     7.712411010000000,     0.000000000000000,     0.000000000000000 ] # a
  - [     0.000000000000000,     5.605121210000000,     0.000000000000000 ] # b
  - [     0.000000000000000,     0.000000000000000,     5.638513490000000 ] # c
  points:
  - symbol: Li # 1
    coordinates: [  0.250000000000000,  0.500000000000000,  0.935020190000006 ]
    mass: 6.941000
  - symbol: Li # 2
    coordinates: [  0.250000000000000,  0.000000000000000,  0.564979809999993 ]
    mass: 6.941000
  - symbol: Li # 3
    coordinates: [  0.750000000000000,  0.500000000000000,  0.064979810000001 ]
    mass: 6.941000
  - symbol: Li # 4
    coordinates: [  0.750000000000000,  0.000000000000000,  0.435020190000006 ]
    mass: 6.941000
  - symbol: Li # 5
    coordinates: [  0.538481360000003,  0.750000000000000,  0.750000000000000 ]
    mass: 6.941000
  - symbol: Li # 6
    coordinates: [  0.461518639999997,  0.250000000000000,  0.250000000000000 ]
    mass: 6.941000
  - symbol: Li # 7
    coordinates: [  0.038481360000000,  0.750000000000000,  0.250000000000000 ]
    mass: 6.941000
  - symbol: Li # 8
    coordinates: [  0.961518639999997,  0.250000000000000,  0.750000000000000 ]
    mass: 6.941000
  - symbol: Fe # 9
    coordinates: [  0.972132950000003,  0.750000000000000,  0.750000000000000 ]
    mass: 55.845000
  - symbol: Fe # 10
    coordinates: [  0.027867050000000,  0.250000000000000,  0.250000000000000 ]
    mass: 55.845000
  - symbol: Fe # 11
    coordinates: [  0.472132950000003,  0.750000000000000,  0.250000000000000 ]
    mass: 55.845000
  - symbol: Fe # 12
    coordinates: [  0.527867049999997,  0.250000000000000,  0.750000000000000 ]
    mass: 55.845000
  - symbol: S  # 13
    coordinates: [  0.250000000000000,  0.000000000000000,  0.002121060000000 ]
    mass: 32.065000
  - symbol: S  # 14
    coordinates: [  0.250000000000000,  0.500000000000000,  0.497878940000000 ]
    mass: 32.065000
  - symbol: S  # 15
    coordinates: [  0.750000000000000,  0.000000000000000,  0.997878940000000 ]
    mass: 32.065000
  - symbol: S  # 16
    coordinates: [  0.750000000000000,  0.500000000000000,  0.502121060000000 ]
    mass: 32.065000
  - symbol: O  # 17
    coordinates: [  0.000000000000000,  0.500000000000000,  0.000000000000000 ]
    mass: 15.999400
  - symbol: O  # 18
    coordinates: [  0.000000000000000,  0.000000000000000,  0.500000000000000 ]
    mass: 15.999400
  - symbol: O  # 19
    coordinates: [  0.500000000000000,  0.500000000000000,  0.000000000000000 ]
    mass: 15.999400
  - symbol: O  # 20
    coordinates: [  0.500000000000000,  0.000000000000000,  0.500000000000000 ]
    mass: 15.999400
  reciprocal_lattice: # without 2pi
  - [     0.129661139519586,     0.000000000000000,     0.000000000000000 ] # a*
  - [     0.000000000000000,     0.178408273886373,     0.000000000000000 ] # b*
  - [     0.000000000000000,     0.000000000000000,     0.177351708348932 ] # c*

unit_cell:
  lattice:
  - [     7.712411010000000,     0.000000000000000,     0.000000000000000 ] # a
  - [     0.000000000000000,     5.605121210000000,     0.000000000000000 ] # b
  - [     0.000000000000000,     0.000000000000000,     5.638513490000000 ] # c
  points:
  - symbol: Li # 1
    coordinates: [  0.250000000000000,  0.500000000000000,  0.935020190000006 ]
    mass: 6.941000
    reduced_to: 1
  - symbol: Li # 2
    coordinates: [  0.250000000000000,  0.000000000000000,  0.564979809999993 ]
    mass: 6.941000
    reduced_to: 2
  - symbol: Li # 3
    coordinates: [  0.750000000000000,  0.500000000000000,  0.064979810000001 ]
    mass: 6.941000
    reduced_to: 3
  - symbol: Li # 4
    coordinates: [  0.750000000000000,  0.000000000000000,  0.435020190000006 ]
    mass: 6.941000
    reduced_to: 4
  - symbol: Li # 5
    coordinates: [  0.538481360000003,  0.750000000000000,  0.750000000000000 ]
    mass: 6.941000
    reduced_to: 5
  - symbol: Li # 6
    coordinates: [  0.461518639999997,  0.250000000000000,  0.250000000000000 ]
    mass: 6.941000
    reduced_to: 6
  - symbol: Li # 7
    coordinates: [  0.038481360000000,  0.750000000000000,  0.250000000000000 ]
    mass: 6.941000
    reduced_to: 7
  - symbol: Li # 8
    coordinates: [  0.961518639999997,  0.250000000000000,  0.750000000000000 ]
    mass: 6.941000
    reduced_to: 8
  - symbol: Fe # 9
    coordinates: [  0.972132950000003,  0.750000000000000,  0.750000000000000 ]
    mass: 55.845000
    reduced_to: 9
  - symbol: Fe # 10
    coordinates: [  0.027867050000000,  0.250000000000000,  0.250000000000000 ]
    mass: 55.845000
    reduced_to: 10
  - symbol: Fe # 11
    coordinates: [  0.472132950000003,  0.750000000000000,  0.250000000000000 ]
    mass: 55.845000
    reduced_to: 11
  - symbol: Fe # 12
    coordinates: [  0.527867049999997,  0.250000000000000,  0.750000000000000 ]
    mass: 55.845000
    reduced_to: 12
  - symbol: S  # 13
    coordinates: [  0.250000000000000,  0.000000000000000,  1.002121060000000 ]
    mass: 32.065000
    reduced_to: 13
  - symbol: S  # 14
    coordinates: [  0.250000000000000,  0.500000000000000,  0.497878940000000 ]
    mass: 32.065000
    reduced_to: 14
  - symbol: S  # 15
    coordinates: [  0.750000000000000,  0.000000000000000, -0.002121060000000 ]
    mass: 32.065000
    reduced_to: 15
  - symbol: S  # 16
    coordinates: [  0.750000000000000,  0.500000000000000,  0.502121060000000 ]
    mass: 32.065000
    reduced_to: 16
  - symbol: O  # 17
    coordinates: [  0.000000000000000,  0.500000000000000,  0.000000000000000 ]
    mass: 15.999400
    reduced_to: 17
  - symbol: O  # 18
    coordinates: [  0.000000000000000,  0.000000000000000,  0.500000000000000 ]
    mass: 15.999400
    reduced_to: 18
  - symbol: O  # 19
    coordinates: [  0.500000000000000,  0.500000000000000,  0.000000000000000 ]
    mass: 15.999400
    reduced_to: 19
  - symbol: O  # 20
    coordinates: [  0.500000000000000,  0.000000000000000,  0.500000000000000 ]
    mass: 15.999400
    reduced_to: 20

supercell:
  lattice:
  - [    15.424822020000001,     0.000000000000000,     0.000000000000000 ] # a
  - [     0.000000000000000,    11.210242420000000,     0.000000000000000 ] # b
  - [     0.000000000000000,     0.000000000000000,    11.277026980000000 ] # c
  points:
  - symbol: Li # 1
    coordinates: [  0.125000000000000,  0.250000000000000,  0.467510095000003 ]
    mass: 6.941000
    reduced_to: 1
  - symbol: Li # 2
    coordinates: [  0.625000000000000,  0.250000000000000,  0.467510095000003 ]
    mass: 6.941000
    reduced_to: 1
  - symbol: Li # 3
    coordinates: [  0.125000000000000,  0.750000000000000,  0.467510095000003 ]
    mass: 6.941000
    reduced_to: 1
  - symbol: Li # 4
    coordinates: [  0.625000000000000,  0.750000000000000,  0.467510095000003 ]
    mass: 6.941000
    reduced_to: 1
  - symbol: Li # 5
    coordinates: [  0.125000000000000,  0.250000000000000,  0.967510095000003 ]
    mass: 6.941000
    reduced_to: 1
  - symbol: Li # 6
    coordinates: [  0.625000000000000,  0.250000000000000,  0.967510095000003 ]
    mass: 6.941000
    reduced_to: 1
  - symbol: Li # 7
    coordinates: [  0.125000000000000,  0.750000000000000,  0.967510095000003 ]
    mass: 6.941000
    reduced_to: 1
  - symbol: Li # 8
    coordinates: [  0.625000000000000,  0.750000000000000,  0.967510095000003 ]
    mass: 6.941000
    reduced_to: 1
  - symbol: Li # 9
    coordinates: [  0.125000000000000,  0.000000000000000,  0.282489904999997 ]
    mass: 6.941000
    reduced_to: 9
  - symbol: Li # 10
    coordinates: [  0.625000000000000,  0.000000000000000,  0.282489904999997 ]
    mass: 6.941000
    reduced_to: 9
  - symbol: Li # 11
    coordinates: [  0.125000000000000,  0.500000000000000,  0.282489904999997 ]
    mass: 6.941000
    reduced_to: 9
  - symbol: Li # 12
    coordinates: [  0.625000000000000,  0.500000000000000,  0.282489904999997 ]
    mass: 6.941000
    reduced_to: 9
  - symbol: Li # 13
    coordinates: [  0.125000000000000,  0.000000000000000,  0.782489904999997 ]
    mass: 6.941000
    reduced_to: 9
  - symbol: Li # 14
    coordinates: [  0.625000000000000,  0.000000000000000,  0.782489904999997 ]
    mass: 6.941000
    reduced_to: 9
  - symbol: Li # 15
    coordinates: [  0.125000000000000,  0.500000000000000,  0.782489904999997 ]
    mass: 6.941000
    reduced_to: 9
  - symbol: Li # 16
    coordinates: [  0.625000000000000,  0.500000000000000,  0.782489904999997 ]
    mass: 6.941000
    reduced_to: 9
  - symbol: Li # 17
    coordinates: [  0.375000000000000,  0.250000000000000,  0.032489905000000 ]
    mass: 6.941000
    reduced_to: 17
  - symbol: Li # 18
    coordinates: [  0.875000000000000,  0.250000000000000,  0.032489905000000 ]
    mass: 6.941000
    reduced_to: 17
  - symbol: Li # 19
    coordinates: [  0.375000000000000,  0.750000000000000,  0.032489905000000 ]
    mass: 6.941000
    reduced_to: 17
  - symbol: Li # 20
    coordinates: [  0.875000000000000,  0.750000000000000,  0.032489905000000 ]
    mass: 6.941000
    reduced_to: 17
  - symbol: Li # 21
    coordinates: [  0.375000000000000,  0.250000000000000,  0.532489905000000 ]
    mass: 6.941000
    reduced_to: 17
  - symbol: Li # 22
    coordinates: [  0.875000000000000,  0.250000000000000,  0.532489905000000 ]
    mass: 6.941000
    reduced_to: 17
  - symbol: Li # 23
    coordinates: [  0.375000000000000,  0.750000000000000,  0.532489905000000 ]
    mass: 6.941000
    reduced_to: 17
  - symbol: Li # 24
    coordinates: [  0.875000000000000,  0.750000000000000,  0.532489905000000 ]
    mass: 6.941000
    reduced_to: 17
  - symbol: Li # 25
    coordinates: [  0.375000000000000,  0.000000000000000,  0.217510095000003 ]
    mass: 6.941000
    reduced_to: 25
  - symbol: Li # 26
    coordinates: [  0.875000000000000,  0.000000000000000,  0.217510095000003 ]
    mass: 6.941000
    reduced_to: 25
  - symbol: Li # 27
    coordinates: [  0.375000000000000,  0.500000000000000,  0.217510095000003 ]
    mass: 6.941000
    reduced_to: 25
  - symbol: Li # 28
    coordinates: [  0.875000000000000,  0.500000000000000,  0.217510095000003 ]
    mass: 6.941000
    reduced_to: 25
  - symbol: Li # 29
    coordinates: [  0.375000000000000,  0.000000000000000,  0.717510095000003 ]
    mass: 6.941000
    reduced_to: 25
  - symbol: Li # 30
    coordinates: [  0.875000000000000,  0.000000000000000,  0.717510095000003 ]
    mass: 6.941000
    reduced_to: 25
  - symbol: Li # 31
    coordinates: [  0.375000000000000,  0.500000000000000,  0.717510095000003 ]
    mass: 6.941000
    reduced_to: 25
  - symbol: Li # 32
    coordinates: [  0.875000000000000,  0.500000000000000,  0.717510095000003 ]
    mass: 6.941000
    reduced_to: 25
  - symbol: Li # 33
    coordinates: [  0.269240680000002,  0.375000000000000,  0.375000000000000 ]
    mass: 6.941000
    reduced_to: 33
  - symbol: Li # 34
    coordinates: [  0.769240680000002,  0.375000000000000,  0.375000000000000 ]
    mass: 6.941000
    reduced_to: 33
  - symbol: Li # 35
    coordinates: [  0.269240680000002,  0.875000000000000,  0.375000000000000 ]
    mass: 6.941000
    reduced_to: 33
  - symbol: Li # 36
    coordinates: [  0.769240680000002,  0.875000000000000,  0.375000000000000 ]
    mass: 6.941000
    reduced_to: 33
  - symbol: Li # 37
    coordinates: [  0.269240680000002,  0.375000000000000,  0.875000000000000 ]
    mass: 6.941000
    reduced_to: 33
  - symbol: Li # 38
    coordinates: [  0.769240680000002,  0.375000000000000,  0.875000000000000 ]
    mass: 6.941000
    reduced_to: 33
  - symbol: Li # 39
    coordinates: [  0.269240680000002,  0.875000000000000,  0.875000000000000 ]
    mass: 6.941000
    reduced_to: 33
  - symbol: Li # 40
    coordinates: [  0.769240680000002,  0.875000000000000,  0.875000000000000 ]
    mass: 6.941000
    reduced_to: 33
  - symbol: Li # 41
    coordinates: [  0.230759319999998,  0.125000000000000,  0.125000000000000 ]
    mass: 6.941000
    reduced_to: 41
  - symbol: Li # 42
    coordinates: [  0.730759319999998,  0.125000000000000,  0.125000000000000 ]
    mass: 6.941000
    reduced_to: 41
  - symbol: Li # 43
    coordinates: [  0.230759319999998,  0.625000000000000,  0.125000000000000 ]
    mass: 6.941000
    reduced_to: 41
  - symbol: Li # 44
    coordinates: [  0.730759319999998,  0.625000000000000,  0.125000000000000 ]
    mass: 6.941000
    reduced_to: 41
  - symbol: Li # 45
    coordinates: [  0.230759319999998,  0.125000000000000,  0.625000000000000 ]
    mass: 6.941000
    reduced_to: 41
  - symbol: Li # 46
    coordinates: [  0.730759319999998,  0.125000000000000,  0.625000000000000 ]
    mass: 6.941000
    reduced_to: 41
  - symbol: Li # 47
    coordinates: [  0.230759319999998,  0.625000000000000,  0.625000000000000 ]
    mass: 6.941000
    reduced_to: 41
  - symbol: Li # 48
    coordinates: [  0.730759319999998,  0.625000000000000,  0.625000000000000 ]
    mass: 6.941000
    reduced_to: 41
  - symbol: Li # 49
    coordinates: [  0.019240680000000,  0.375000000000000,  0.125000000000000 ]
    mass: 6.941000
    reduced_to: 49
  - symbol: Li # 50
    coordinates: [  0.519240680000000,  0.375000000000000,  0.125000000000000 ]
    mass: 6.941000
    reduced_to: 49
  - symbol: Li # 51
    coordinates: [  0.019240680000000,  0.875000000000000,  0.125000000000000 ]
    mass: 6.941000
    reduced_to: 49
  - symbol: Li # 52
    coordinates: [  0.519240680000000,  0.875000000000000,  0.125000000000000 ]
    mass: 6.941000
    reduced_to: 49
  - symbol: Li # 53
    coordinates: [  0.019240680000000,  0.375000000000000,  0.625000000000000 ]
    mass: 6.941000
    reduced_to: 49
  - symbol: Li # 54
    coordinates: [  0.519240680000000,  0.375000000000000,  0.625000000000000 ]
    mass: 6.941000
    reduced_to: 49
  - symbol: Li # 55
    coordinates: [  0.019240680000000,  0.875000000000000,  0.625000000000000 ]
    mass: 6.941000
    reduced_to: 49
  - symbol: Li # 56
    coordinates: [  0.519240680000000,  0.875000000000000,  0.625000000000000 ]
    mass: 6.941000
    reduced_to: 49
  - symbol: Li # 57
    coordinates: [  0.480759319999998,  0.125000000000000,  0.375000000000000 ]
    mass: 6.941000
    reduced_to: 57
  - symbol: Li # 58
    coordinates: [  0.980759319999998,  0.125000000000000,  0.375000000000000 ]
    mass: 6.941000
    reduced_to: 57
  - symbol: Li # 59
    coordinates: [  0.480759319999998,  0.625000000000000,  0.375000000000000 ]
    mass: 6.941000
    reduced_to: 57
  - symbol: Li # 60
    coordinates: [  0.980759319999998,  0.625000000000000,  0.375000000000000 ]
    mass: 6.941000
    reduced_to: 57
  - symbol: Li # 61
    coordinates: [  0.480759319999998,  0.125000000000000,  0.875000000000000 ]
    mass: 6.941000
    reduced_to: 57
  - symbol: Li # 62
    coordinates: [  0.980759319999998,  0.125000000000000,  0.875000000000000 ]
    mass: 6.941000
    reduced_to: 57
  - symbol: Li # 63
    coordinates: [  0.480759319999998,  0.625000000000000,  0.875000000000000 ]
    mass: 6.941000
    reduced_to: 57
  - symbol: Li # 64
    coordinates: [  0.980759319999998,  0.625000000000000,  0.875000000000000 ]
    mass: 6.941000
    reduced_to: 57
  - symbol: Fe # 65
    coordinates: [  0.486066475000001,  0.375000000000000,  0.375000000000000 ]
    mass: 55.845000
    reduced_to: 65
  - symbol: Fe # 66
    coordinates: [  0.986066475000001,  0.375000000000000,  0.375000000000000 ]
    mass: 55.845000
    reduced_to: 65
  - symbol: Fe # 67
    coordinates: [  0.486066475000001,  0.875000000000000,  0.375000000000000 ]
    mass: 55.845000
    reduced_to: 65
  - symbol: Fe # 68
    coordinates: [  0.986066475000001,  0.875000000000000,  0.375000000000000 ]
    mass: 55.845000
    reduced_to: 65
  - symbol: Fe # 69
    coordinates: [  0.486066475000001,  0.375000000000000,  0.875000000000000 ]
    mass: 55.845000
    reduced_to: 65
  - symbol: Fe # 70
    coordinates: [  0.986066475000001,  0.375000000000000,  0.875000000000000 ]
    mass: 55.845000
    reduced_to: 65
  - symbol: Fe # 71
    coordinates: [  0.486066475000001,  0.875000000000000,  0.875000000000000 ]
    mass: 55.845000
    reduced_to: 65
  - symbol: Fe # 72
    coordinates: [  0.986066475000001,  0.875000000000000,  0.875000000000000 ]
    mass: 55.845000
    reduced_to: 65
  - symbol: Fe # 73
    coordinates: [  0.013933525000000,  0.125000000000000,  0.125000000000000 ]
    mass: 55.845000
    reduced_to: 73
  - symbol: Fe # 74
    coordinates: [  0.513933525000000,  0.125000000000000,  0.125000000000000 ]
    mass: 55.845000
    reduced_to: 73
  - symbol: Fe # 75
    coordinates: [  0.013933525000000,  0.625000000000000,  0.125000000000000 ]
    mass: 55.845000
    reduced_to: 73
  - symbol: Fe # 76
    coordinates: [  0.513933525000000,  0.625000000000000,  0.125000000000000 ]
    mass: 55.845000
    reduced_to: 73
  - symbol: Fe # 77
    coordinates: [  0.013933525000000,  0.125000000000000,  0.625000000000000 ]
    mass: 55.845000
    reduced_to: 73
  - symbol: Fe # 78
    coordinates: [  0.513933525000000,  0.125000000000000,  0.625000000000000 ]
    mass: 55.845000
    reduced_to: 73
  - symbol: Fe # 79
    coordinates: [  0.013933525000000,  0.625000000000000,  0.625000000000000 ]
    mass: 55.845000
    reduced_to: 73
  - symbol: Fe # 80
    coordinates: [  0.513933525000000,  0.625000000000000,  0.625000000000000 ]
    mass: 55.845000
    reduced_to: 73
  - symbol: Fe # 81
    coordinates: [  0.236066475000001,  0.375000000000000,  0.125000000000000 ]
    mass: 55.845000
    reduced_to: 81
  - symbol: Fe # 82
    coordinates: [  0.736066475000001,  0.375000000000000,  0.125000000000000 ]
    mass: 55.845000
    reduced_to: 81
  - symbol: Fe # 83
    coordinates: [  0.236066475000001,  0.875000000000000,  0.125000000000000 ]
    mass: 55.845000
    reduced_to: 81
  - symbol: Fe # 84
    coordinates: [  0.736066475000001,  0.875000000000000,  0.125000000000000 ]
    mass: 55.845000
    reduced_to: 81
  - symbol: Fe # 85
    coordinates: [  0.236066475000001,  0.375000000000000,  0.625000000000000 ]
    mass: 55.845000
    reduced_to: 81
  - symbol: Fe # 86
    coordinates: [  0.736066475000001,  0.375000000000000,  0.625000000000000 ]
    mass: 55.845000
    reduced_to: 81
  - symbol: Fe # 87
    coordinates: [  0.236066475000001,  0.875000000000000,  0.625000000000000 ]
    mass: 55.845000
    reduced_to: 81
  - symbol: Fe # 88
    coordinates: [  0.736066475000001,  0.875000000000000,  0.625000000000000 ]
    mass: 55.845000
    reduced_to: 81
  - symbol: Fe # 89
    coordinates: [  0.263933524999999,  0.125000000000000,  0.375000000000000 ]
    mass: 55.845000
    reduced_to: 89
  - symbol: Fe # 90
    coordinates: [  0.763933524999999,  0.125000000000000,  0.375000000000000 ]
    mass: 55.845000
    reduced_to: 89
  - symbol: Fe # 91
    coordinates: [  0.263933524999999,  0.625000000000000,  0.375000000000000 ]
    mass: 55.845000
    reduced_to: 89
  - symbol: Fe # 92
    coordinates: [  0.763933524999999,  0.625000000000000,  0.375000000000000 ]
    mass: 55.845000
    reduced_to: 89
  - symbol: Fe # 93
    coordinates: [  0.263933524999999,  0.125000000000000,  0.875000000000000 ]
    mass: 55.845000
    reduced_to: 89
  - symbol: Fe # 94
    coordinates: [  0.763933524999999,  0.125000000000000,  0.875000000000000 ]
    mass: 55.845000
    reduced_to: 89
  - symbol: Fe # 95
    coordinates: [  0.263933524999999,  0.625000000000000,  0.875000000000000 ]
    mass: 55.845000
    reduced_to: 89
  - symbol: Fe # 96
    coordinates: [  0.763933524999999,  0.625000000000000,  0.875000000000000 ]
    mass: 55.845000
    reduced_to: 89
  - symbol: S  # 97
    coordinates: [  0.125000000000000,  0.000000000000000,  0.501060530000000 ]
    mass: 32.065000
    reduced_to: 97
  - symbol: S  # 98
    coordinates: [  0.625000000000000,  0.000000000000000,  0.501060530000000 ]
    mass: 32.065000
    reduced_to: 97
  - symbol: S  # 99
    coordinates: [  0.125000000000000,  0.500000000000000,  0.501060530000000 ]
    mass: 32.065000
    reduced_to: 97
  - symbol: S  # 100
    coordinates: [  0.625000000000000,  0.500000000000000,  0.501060530000000 ]
    mass: 32.065000
    reduced_to: 97
  - symbol: S  # 101
    coordinates: [  0.125000000000000,  0.000000000000000,  0.001060530000000 ]
    mass: 32.065000
    reduced_to: 97
  - symbol: S  # 102
    coordinates: [  0.625000000000000,  0.000000000000000,  0.001060530000000 ]
    mass: 32.065000
    reduced_to: 97
  - symbol: S  # 103
    coordinates: [  0.125000000000000,  0.500000000000000,  0.001060530000000 ]
    mass: 32.065000
    reduced_to: 97
  - symbol: S  # 104
    coordinates: [  0.625000000000000,  0.500000000000000,  0.001060530000000 ]
    mass: 32.065000
    reduced_to: 97
  - symbol: S  # 105
    coordinates: [  0.125000000000000,  0.250000000000000,  0.248939470000000 ]
    mass: 32.065000
    reduced_to: 105
  - symbol: S  # 106
    coordinates: [  0.625000000000000,  0.250000000000000,  0.248939470000000 ]
    mass: 32.065000
    reduced_to: 105
  - symbol: S  # 107
    coordinates: [  0.125000000000000,  0.750000000000000,  0.248939470000000 ]
    mass: 32.065000
    reduced_to: 105
  - symbol: S  # 108
    coordinates: [  0.625000000000000,  0.750000000000000,  0.248939470000000 ]
    mass: 32.065000
    reduced_to: 105
  - symbol: S  # 109
    coordinates: [  0.125000000000000,  0.250000000000000,  0.748939470000000 ]
    mass: 32.065000
    reduced_to: 105
  - symbol: S  # 110
    coordinates: [  0.625000000000000,  0.250000000000000,  0.748939470000000 ]
    mass: 32.065000
    reduced_to: 105
  - symbol: S  # 111
    coordinates: [  0.125000000000000,  0.750000000000000,  0.748939470000000 ]
    mass: 32.065000
    reduced_to: 105
  - symbol: S  # 112
    coordinates: [  0.625000000000000,  0.750000000000000,  0.748939470000000 ]
    mass: 32.065000
    reduced_to: 105
  - symbol: S  # 113
    coordinates: [  0.375000000000000,  0.000000000000000,  0.998939470000000 ]
    mass: 32.065000
    reduced_to: 113
  - symbol: S  # 114
    coordinates: [  0.875000000000000,  0.000000000000000,  0.998939470000000 ]
    mass: 32.065000
    reduced_to: 113
  - symbol: S  # 115
    coordinates: [  0.375000000000000,  0.500000000000000,  0.998939470000000 ]
    mass: 32.065000
    reduced_to: 113
  - symbol: S  # 116
    coordinates: [  0.875000000000000,  0.500000000000000,  0.998939470000000 ]
    mass: 32.065000
    reduced_to: 113
  - symbol: S  # 117
    coordinates: [  0.375000000000000,  0.000000000000000,  0.498939470000000 ]
    mass: 32.065000
    reduced_to: 113
  - symbol: S  # 118
    coordinates: [  0.875000000000000,  0.000000000000000,  0.498939470000000 ]
    mass: 32.065000
    reduced_to: 113
  - symbol: S  # 119
    coordinates: [  0.375000000000000,  0.500000000000000,  0.498939470000000 ]
    mass: 32.065000
    reduced_to: 113
  - symbol: S  # 120
    coordinates: [  0.875000000000000,  0.500000000000000,  0.498939470000000 ]
    mass: 32.065000
    reduced_to: 113
  - symbol: S  # 121
    coordinates: [  0.375000000000000,  0.250000000000000,  0.251060530000000 ]
    mass: 32.065000
    reduced_to: 121
  - symbol: S  # 122
    coordinates: [  0.875000000000000,  0.250000000000000,  0.251060530000000 ]
    mass: 32.065000
    reduced_to: 121
  - symbol: S  # 123
    coordinates: [  0.375000000000000,  0.750000000000000,  0.251060530000000 ]
    mass: 32.065000
    reduced_to: 121
  - symbol: S  # 124
    coordinates: [  0.875000000000000,  0.750000000000000,  0.251060530000000 ]
    mass: 32.065000
    reduced_to: 121
  - symbol: S  # 125
    coordinates: [  0.375000000000000,  0.250000000000000,  0.751060530000000 ]
    mass: 32.065000
    reduced_to: 121
  - symbol: S  # 126
    coordinates: [  0.875000000000000,  0.250000000000000,  0.751060530000000 ]
    mass: 32.065000
    reduced_to: 121
  - symbol: S  # 127
    coordinates: [  0.375000000000000,  0.750000000000000,  0.751060530000000 ]
    mass: 32.065000
    reduced_to: 121
  - symbol: S  # 128
    coordinates: [  0.875000000000000,  0.750000000000000,  0.751060530000000 ]
    mass: 32.065000
    reduced_to: 121
  - symbol: O  # 129
    coordinates: [  0.000000000000000,  0.250000000000000,  0.000000000000000 ]
    mass: 15.999400
    reduced_to: 129
  - symbol: O  # 130
    coordinates: [  0.500000000000000,  0.250000000000000,  0.000000000000000 ]
    mass: 15.999400
    reduced_to: 129
  - symbol: O  # 131
    coordinates: [  0.000000000000000,  0.750000000000000,  0.000000000000000 ]
    mass: 15.999400
    reduced_to: 129
  - symbol: O  # 132
    coordinates: [  0.500000000000000,  0.750000000000000,  0.000000000000000 ]
    mass: 15.999400
    reduced_to: 129
  - symbol: O  # 133
    coordinates: [  0.000000000000000,  0.250000000000000,  0.500000000000000 ]
    mass: 15.999400
    reduced_to: 129
  - symbol: O  # 134
    coordinates: [  0.500000000000000,  0.250000000000000,  0.500000000000000 ]
    mass: 15.999400
    reduced_to: 129
  - symbol: O  # 135
    coordinates: [  0.000000000000000,  0.750000000000000,  0.500000000000000 ]
    mass: 15.999400
    reduced_to: 129
  - symbol: O  # 136
    coordinates: [  0.500000000000000,  0.750000000000000,  0.500000000000000 ]
    mass: 15.999400
    reduced_to: 129
  - symbol: O  # 137
    coordinates: [  0.000000000000000,  0.000000000000000,  0.250000000000000 ]
    mass: 15.999400
    reduced_to: 137
  - symbol: O  # 138
    coordinates: [  0.500000000000000,  0.000000000000000,  0.250000000000000 ]
    mass: 15.999400
    reduced_to: 137
  - symbol: O  # 139
    coordinates: [  0.000000000000000,  0.500000000000000,  0.250000000000000 ]
    mass: 15.999400
    reduced_to: 137
  - symbol: O  # 140
    coordinates: [  0.500000000000000,  0.500000000000000,  0.250000000000000 ]
    mass: 15.999400
    reduced_to: 137
  - symbol: O  # 141
    coordinates: [  0.000000000000000,  0.000000000000000,  0.750000000000000 ]
    mass: 15.999400
    reduced_to: 137
  - symbol: O  # 142
    coordinates: [  0.500000000000000,  0.000000000000000,  0.750000000000000 ]
    mass: 15.999400
    reduced_to: 137
  - symbol: O  # 143
    coordinates: [  0.000000000000000,  0.500000000000000,  0.750000000000000 ]
    mass: 15.999400
    reduced_to: 137
  - symbol: O  # 144
    coordinates: [  0.500000000000000,  0.500000000000000,  0.750000000000000 ]
    mass: 15.999400
    reduced_to: 137
  - symbol: O  # 145
    coordinates: [  0.250000000000000,  0.250000000000000,  0.000000000000000 ]
    mass: 15.999400
    reduced_to: 145
  - symbol: O  # 146
    coordinates: [  0.750000000000000,  0.250000000000000,  0.000000000000000 ]
    mass: 15.999400
    reduced_to: 145
  - symbol: O  # 147
    coordinates: [  0.250000000000000,  0.750000000000000,  0.000000000000000 ]
    mass: 15.999400
    reduced_to: 145
  - symbol: O  # 148
    coordinates: [  0.750000000000000,  0.750000000000000,  0.000000000000000 ]
    mass: 15.999400
    reduced_to: 145
  - symbol: O  # 149
    coordinates: [  0.250000000000000,  0.250000000000000,  0.500000000000000 ]
    mass: 15.999400
    reduced_to: 145
  - symbol: O  # 150
    coordinates: [  0.750000000000000,  0.250000000000000,  0.500000000000000 ]
    mass: 15.999400
    reduced_to: 145
  - symbol: O  # 151
    coordinates: [  0.250000000000000,  0.750000000000000,  0.500000000000000 ]
    mass: 15.999400
    reduced_to: 145
  - symbol: O  # 152
    coordinates: [  0.750000000000000,  0.750000000000000,  0.500000000000000 ]
    mass: 15.999400
    reduced_to: 145
  - symbol: O  # 153
    coordinates: [  0.250000000000000,  0.000000000000000,  0.250000000000000 ]
    mass: 15.999400
    reduced_to: 153
  - symbol: O  # 154
    coordinates: [  0.750000000000000,  0.000000000000000,  0.250000000000000 ]
    mass: 15.999400
    reduced_to: 153
  - symbol: O  # 155
    coordinates: [  0.250000000000000,  0.500000000000000,  0.250000000000000 ]
    mass: 15.999400
    reduced_to: 153
  - symbol: O  # 156
    coordinates: [  0.750000000000000,  0.500000000000000,  0.250000000000000 ]
    mass: 15.999400
    reduced_to: 153
  - symbol: O  # 157
    coordinates: [  0.250000000000000,  0.000000000000000,  0.750000000000000 ]
    mass: 15.999400
    reduced_to: 153
  - symbol: O  # 158
    coordinates: [  0.750000000000000,  0.000000000000000,  0.750000000000000 ]
    mass: 15.999400
    reduced_to: 153
  - symbol: O  # 159
    coordinates: [  0.250000000000000,  0.500000000000000,  0.750000000000000 ]
    mass: 15.999400
    reduced_to: 153
  - symbol: O  # 160
    coordinates: [  0.750000000000000,  0.500000000000000,  0.750000000000000 ]
    mass: 15.999400
    reduced_to: 153

born_effective_charge:
- # 1 (Li)
  - [  0.943335372000000, -0.050179445000000,  0.000000000000000 ]
  - [ -0.028522810000000,  1.260301963000000, -0.000000000000000 ]
  - [  0.000000000000000,  0.000000000000000,  1.194774047000000 ]
- # 2 (Li)
  - [  0.943335372000000,  0.050179445000000,  0.000000000000000 ]
  - [  0.028522810000000,  1.260301963000000, -0.000000000000000 ]
  - [  0.000000000000000,  0.000000000000000,  1.194774047000000 ]
- # 3 (Li)
  - [  0.943335372000000, -0.050179445000000,  0.000000000000000 ]
  - [ -0.028522810000000,  1.260301963000000, -0.000000000000000 ]
  - [  0.000000000000000,  0.000000000000000,  1.194774047000000 ]
- # 4 (Li)
  - [  0.943335372000000,  0.050179445000000,  0.000000000000000 ]
  - [  0.028522810000000,  1.260301963000000, -0.000000000000000 ]
  - [  0.000000000000000,  0.000000000000000,  1.194774047000000 ]
- # 5 (Li)
  - [  1.262945442000000, -0.000000000000000,  0.000000000000000 ]