  88  88   0   0
  0.1431748E+02  0.1111223E-08  0.1111745E-08  0.1056954E-08  0.5000000E-15
  1.000000000000000E-004
  CAR 
 unknown system                          
     17.90522013    -54.34614238  301      5.20102223      1.00000000
    -54.346  0.0000E+00  0.0000E+00  0.0000E+00  0.0000E+00
    -54.105  0.0000E+00  0.0000E+00  0.0000E+00  0.0000E+00
    -53.864  0.0000E+00  0.0000E+00  0.0000E+00  0.0000E+00
    -53.624  0.0000E+00  0.0000E+00  0.0000E+00  0.0000E+00
    -53.383  0.0000E+00  0.0000E+00  0.0000E+00  0.0000E+00
    -53.142  0.0000E+00  0.0000E+00  0.0000E+00  0.0000E+00
    -52.901  0.0000E+00  0.0000E+00  0.0000E+00  0.0000E+00
    -52.660  0.0000E+00  0.0000E+00  0.0000E+00  0.0000E+00
    -52.419  0.0000E+00  0.0000E+00  0.0000E+00  0.0000E+00
    -52.179  0.0000E+00  0.0000E+00  0.0000E+00  0.0000E+00
    -51.938  0.0000E+00  0.0000E+00  0.0000E+00  0.0000E+00
    -51.697  0.0000E+00  0.0000E+00  0.0000E+00  0.0000E+00
    -51.456  0.0000E+00  0.0000E+00  0.0000E+00  0.0000E+00
    -51.215  0.2046E-03  0.0000E+00  0.4927E-04  0.0000E+00
    -50.974  0.1300E+03  0.0000E+00  0.3131E+02  0.0000E+00
    -50.734  0.2884E+01  0.0000E+00  0.3200E+02  0.0000E+00
    -50.493  0.0000E+00  0.0000E+00  0.3200E+02  0.0000E+00
    -50.252  0.0000E+00  0.0000E+00  0.3200E+02  0.0000E+00
    -50.011  0.0000E+00  0.0000E+00  0.3200E+02  0.0000E+00
    -49.770  0.1468E+01  0.0000E+00  0.3235E+02  0.0000E+00
    -49.529  0.2309E+03  0.0000E+00  0.8797E+02  0.0000E+00
    -49.289  0.3335E+02  0.0000E+00  0.9600E+02  0.0000E+00
    -49.048  0.0000E+00  0.0000E+00  0.9600E+02  0.0000E+00
    -48.807  0.0000E+00  0.0000E+00  0.9600E+02  0.0000E+00
    -48.566  0.0000E+00  0.0000E+00  0.9600E+02  0.0000E+00
    -48.325  0.0000E+00  0.0000E+00  0.9600E+02  0.0000E+00
    -48.084  0.0000E+00  0.0000E+00  0.9600E+02  0.0000E+00
    -47.844  0.0000E+00  0.0000E+00  0.9600E+02  0.0000E+00
    -47.603  0.0000E+00  0.0000E+00  0.9600E+02  0.0000E+00
    -47.362  0.0000E+00  0.0000E+00  0.9600E+02  0.0000E+00
    -47.121  0.0000E+00  0.0000E+00  0.9600E+02  0.0000E+00
    -46.880  0.0000E+00  0.0000E+00  0.9600E+02  0.0000E+00
    -46.639  0.0000E+00  0.0000E+00  0.9600E+02  0.0000E+00
    -46.398  0.0000E+00  0.2446E+00  0.9600E+02  0.5892E-01
    -46.158  0.0000E+00  0.1325E+03  0.9600E+02  0.3198E+02
    -45.917  0.0000E+00  0.5418E+02  0.9600E+02  0.4503E+02
    -45.676  0.0000E+00  0.2116E+03  0.9600E+02  0.9600E+02
    -45.435  0.0000E+00  0.6835E-04  0.9600E+02  0.9600E+02
    -45.194  0.0000E+00  0.0000E+00  0.9600E+02  0.9600E+02
    -44.953  0.0000E+00  0.0000E+00  0.9600E+02  0.9600E+02
    -44.713  0.0000E+00  0.0000E+00  0.9600E+02  0.9600E+02
    -44.472  0.0000E+00  0.0000E+00  0.9600E+02  0.9600E+02
    -44.231  0.0000E+00  0.0000E+00  0.9600E+02  0.9600E+02
    -43.990  0.0000E+00  0.0000E+00  0.9600E+02  0.9600E+02
    -43.749  0.0000E+00  0.0000E+00  0.9600E+02  0.9600E+02
    -43.508  0.0000E+00  0.0000E+00  0.9600E+02  0.9600E+02
    -43.268  0.0000E+00  0.0000E+00  0.9600E+02  0.9600E+02
    -43.027  0.0000E+00  0.0000E+00  0.9600E+02  0.9600E+02
    -42.786  0.0000E+00  0.0000E+00  0.9600E+02  0.9600E+02
    -42.545  0.0000E+00  0.0000E+00  0.9600E+02  0.9600E+02
    -42.304  0.0000E+00  0.0000E+00  0.9600E+02  0.9600E+02
    -42.063  0.0000E+00  0.0000E+00  0.9600E+02  0.9600E+02
    -41.823  0.0000E+00  0.0000E+00  0.9600E+02  0.9600E+02
    -41.582  0.0000E+00  0.0000E+00  0.9600E+02  0.9600E+02
    -41.341  0.0000E+00  0.0000E+00  0.9600E+02  0.9600E+02
    -41.100  0.0000E+00  0.0000E+00  0.9600E+02  0.9600E+02
    -40.859  0.0000E+00  0.0000E+00  0.9600E+02  0.9600E+02
    -40.618  0.0000E+00  0.0000E+00  0.9600E+02  0.9600E+02
    -40.378  0.0000E+00  0.0000E+00  0.9600E+02  0.9600E+02
    -40.137  0.8416E-12  0.5287E-12  0.9600E+02  0.9600E+02
    -39.896  0.1268E+02  0.1165E+02  0.9905E+02  0.9881E+02
    -39.655  0.5376E+02  0.5478E+02  0.1120E+03  0.1120E+03
    -39.414  0.0000E+00  0.0000E+00  0.1120E+03  0.1120E+03
    -39.173  0.0000E+00  0.0000E+00  0.1120E+03  0.1120E+03
    -38.933  0.0000E+00  0.0000E+00  0.1120E+03  0.1120E+03
    -38.692  0.0000E+00  0.0000E+00  0.1120E+03  0.1120E+03
    -38.451  0.0000E+00  0.0000E+00  0.1120E+03  0.1120E+03
    -38.210  0.0000E+00  0.0000E+00  0.1120E+03  0.1120E+03
    -37.969  0.0000E+00  0.0000E+00  0.1120E+03  0.1120E+03
    -37.728  0.0000E+00  0.0000E+00  0.1120E+03  0.1120E+03
    -37.487  0.0000E+00  0.0000E+00  0.1120E+03  0.1120E+03
    -37.247  0.0000E+00  0.0000E+00  0.1120E+03  0.1120E+03
    -37.006  0.0000E+00  0.0000E+00  0.1120E+03  0.1120E+03
    -36.765  0.0000E+00  0.0000E+00  0.1120E+03  0.1120E+03
    -36.524  0.0000E+00  0.0000E+00  0.1120E+03  0.1120E+03
    -36.283  0.0000E+00  0.0000E+00  0.1120E+03  0.1120E+03
    -36.042  0.0000E+00  0.0000E+00  0.1120E+03  0.1120E+03
    -35.802  0.0000E+00  0.0000E+00  0.1120E+03  0.1120E+03
    -35.561  0.0000E+00  0.0000E+00  0.1120E+03  0.1120E+03
    -35.320  0.0000E+00  0.0000E+00  0.1120E+03  0.1120E+03
    -35.079  0.0000E+00  0.0000E+00  0.1120E+03  0.1120E+03
    -34.838  0.0000E+00  0.0000E+00  0.1120E+03  0.1120E+03
    -34.597  0.0000E+00  0.0000E+00  0.1120E+03  0.1120E+03
    -34.357  0.0000E+00  0.0000E+00  0.1120E+03  0.1120E+03
    -34.116  0.0000E+00  0.0000E+00  0.1120E+03  0.1120E+03
    -33.875  0.0000E+00  0.0000E+00  0.1120E+03  0.1120E+03
    -33.634  0.0000E+00  0.0000E+00  0.1120E+03  0.1120E+03
    -33.393  0.0000E+00  0.0000E+00  0.1120E+03  0.1120E+03
    -33.152  0.0000E+00  0.0000E+00  0.1120E+03  0.1120E+03
    -32.912  0.0000E+00  0.0000E+00  0.1120E+03  0.1120E+03
    -32.671  0.0000E+00  0.0000E+00  0.1120E+03  0.1120E+03
    -32.430  0.0000E+00  0.0000E+00  0.1120E+03  0.1120E+03
    -32.189  0.0000E+00  0.0000E+00  0.1120E+03  0.1120E+03
    -31.948  0.0000E+00  0.0000E+00  0.1120E+03  0.1120E+03
    -31.707  0.0000E+00  0.0000E+00  0.1120E+03  0.1120E+03
    -31.467  0.0000E+00  0.0000E+00  0.1120E+03  0.1120E+03
    -31.226  0.0000E+00  0.0000E+00  0.1120E+03  0.1120E+03
    -30.985  0.0000E+00  0.0000E+00  0.1120E+03  0.1120E+03
    -30.744  0.0000E+00  0.0000E+00  0.1120E+03  0.1120E+03
    -30.503  0.0000E+00  0.0000E+00  0.1120E+03  0.1120E+03
    -30.262  0.0000E+00  0.0000E+00  0.1120E+03  0.1120E+03
    -30.022  0.0000E+00  0.0000E+00  0.1120E+03  0.1120E+03
    -29.781  0.0000E+00  0.0000E+00  0.1120E+03  0.1120E+03
    -29.540  0.0000E+00  0.0000E+00  0.1120E+03  0.1120E+03
    -29.299  0.0000E+00  0.0000E+00  0.1120E+03  0.1120E+03
    -29.058  0.0000E+00  0.0000E+00  0.1120E+03  0.1120E+03
    -28.817  0.0000E+00  0.0000E+00  0.1120E+03  0.1120E+03
    -28.576  0.0000E+00  0.0000E+00  0.1120E+03  0.1120E+03
    -28.336  0.0000E+00  0.0000E+00  0.1120E+03  0.1120E+03
    -28.095  0.0000E+00  0.0000E+00  0.1120E+03  0.1120E+03
    -27.854  0.0000E+00  0.0000E+00  0.1120E+03  0.1120E+03
    -27.613  0.0000E+00  0.0000E+00  0.1120E+03  0.1120E+03
    -27.372  0.0000E+00  0.0000E+00  0.1120E+03  0.1120E+03
    -27.131  0.0000E+00  0.0000E+00  0.1120E+03  0.1120E+03
    -26.891  0.0000E+00  0.0000E+00  0.1120E+03  0.1120E+03
    -26.650  0.0000E+00  0.0000E+00  0.1120E+03  0.1120E+03
    -26.409  0.0000E+00  0.0000E+00  0.1120E+03  0.1120E+03
    -26.168  0.0000E+00  0.0000E+00  0.1120E+03  0.1120E+03
    -25.927  0.0000E+00  0.0000E+00  0.1120E+03  0.1120E+03
    -25.686  0.0000E+00  0.0000E+00  0.1120E+03  0.1120E+03
    -25.446  0.0000E+00  0.0000E+00  0.1120E+03  0.1120E+03
    -25.205  0.0000E+00  0.0000E+00  0.1120E+03  0.1120E+03
    -24.964  0.0000E+00  0.0000E+00  0.1120E+03  0.1120E+03
    -24.723  0.0000E+00  0.0000E+00  0.1120E+03  0.1120E+03
    -24.482  0.0000E+00  0.0000E+00  0.1120E+03  0.1120E+03
    -24.241  0.0000E+00  0.0000E+00  0.1120E+03  0.1120E+03
    -24.001  0.0000E+00  0.0000E+00  0.1120E+03  0.1120E+03
    -23.760  0.0000E+00  0.0000E+00  0.1120E+03  0.1120E+03
    -23.519  0.0000E+00  0.0000E+00  0.1120E+03  0.1120E+03
    -23.278  0.0000E+00  0.0000E+00  0.1120E+03  0.1120E+03
    -23.037  0.0000E+00  0.0000E+00  0.1120E+03  0.1120E+03
    -22.796  0.0000E+00  0.0000E+00  0.1120E+03  0.1120E+03
    -22.556  0.0000E+00  0.0000E+00  0.1120E+03  0.1120E+03
    -22.315  0.0000E+00  0.0000E+00  0.1120E+03  0.1120E+03
    -22.074  0.0000E+00  0.0000E+00  0.1120E+03  0.1120E+03
    -21.833  0.0000E+00  0.0000E+00  0.1120E+03  0.1120E+03
    -21.592  0.0000E+00  0.0000E+00  0.1120E+03  0.1120E+03
    -21.351  0.0000E+00  0.0000E+00  0.1120E+03  0.1120E+03
    -21.111  0.0000E+00  0.0000E+00  0.1120E+03  0.1120E+03
    -20.870  0.0000E+00  0.0000E+00  0.1120E+03  0.1120E+03
    -20.629  0.0000E+00  0.0000E+00  0.1120E+03  0.1120E+03
    -20.388  0.0000E+00  0.0000E+00  0.1120E+03  0.1120E+03
    -20.147  0.0000E+00  0.0000E+00  0.1120E+03  0.1120E+03
    -19.906  0.0000E+00  0.0000E+00  0.1120E+03  0.1120E+03
    -19.665  0.0000E+00  0.0000E+00  0.1120E+03  0.1120E+03
    -19.425  0.0000E+00  0.0000E+00  0.1120E+03  0.1120E+03
    -19.184  0.0000E+00  0.0000E+00  0.1120E+03  0.1120E+03
    -18.943  0.0000E+00  0.0000E+00  0.1120E+03  0.1120E+03
    -18.702  0.0000E+00  0.0000E+00  0.1120E+03  0.1120E+03
    -18.461  0.0000E+00  0.0000E+00  0.1120E+03  0.1120E+03
    -18.220  0.0000E+00  0.0000E+00  0.1120E+03  0.1120E+03
    -17.980  0.0000E+00  0.0000E+00  0.1120E+03  0.1120E+03
    -17.739  0.0000E+00  0.0000E+00  0.1120E+03  0.1120E+03
    -17.498  0.0000E+00  0.0000E+00  0.1120E+03  0.1120E+03
    -17.257  0.0000E+00  0.0000E+00  0.1120E+03  0.1120E+03
    -17.016  0.0000E+00  0.0000E+00  0.1120E+03  0.1120E+03
    -16.775  0.0000E+00  0.0000E+00  0.1120E+03  0.1120E+03
    -16.535  0.0000E+00  0.0000E+00  0.1120E+03  0.1120E+03
    -16.294  0.0000E+00  0.0000E+00  0.1120E+03  0.1120E+03
    -16.053  0.0000E+00  0.0000E+00  0.1120E+03  0.1120E+03
    -15.812  0.0000E+00  0.0000E+00  0.1120E+03  0.1120E+03
    -15.571  0.0000E+00  0.0000E+00  0.1120E+03  0.1120E+03
    -15.330  0.0000E+00  0.0000E+00  0.1120E+03  0.1120E+03
    -15.090  0.0000E+00  0.0000E+00  0.1120E+03  0.1120E+03
    -14.849  0.0000E+00  0.0000E+00  0.1120E+03  0.1120E+03
    -14.608  0.0000E+00  0.0000E+00  0.1120E+03  0.1120E+03
    -14.367  0.0000E+00  0.0000E+00  0.1120E+03  0.1120E+03
    -14.126  0.0000E+00  0.0000E+00  0.1120E+03  0.1120E+03
    -13.885  0.0000E+00  0.0000E+00  0.1120E+03  0.1120E+03
    -13.645  0.0000E+00  0.0000E+00  0.1120E+03  0.1120E+03
    -13.404  0.4250E-06  0.0000E+00  0.1120E+03  0.1120E+03
    -13.163  0.1841E+02  0.0000E+00  0.1164E+03  0.1120E+03
    -12.922  0.4645E+02  0.6050E-02  0.1276E+03  0.1120E+03
    -12.681  0.1572E+01  0.4168E+02  0.1280E+03  0.1220E+03
    -12.440  0.0000E+00  0.2475E+02  0.1280E+03  0.1280E+03
    -12.200  0.0000E+00  0.3466E-05  0.1280E+03  0.1280E+03
    -11.959  0.0000E+00  0.0000E+00  0.1280E+03  0.1280E+03
    -11.718  0.0000E+00  0.0000E+00  0.1280E+03  0.1280E+03
    -11.477  0.0000E+00  0.0000E+00  0.1280E+03  0.1280E+03
    -11.236  0.0000E+00  0.0000E+00  0.1280E+03  0.1280E+03
    -10.995  0.0000E+00  0.0000E+00  0.1280E+03  0.1280E+03
    -10.754  0.0000E+00  0.0000E+00  0.1280E+03  0.1280E+03
    -10.514  0.0000E+00  0.0000E+00  0.1280E+03  0.1280E+03
    -10.273  0.0000E+00  0.0000E+00  0.1280E+03  0.1280E+03
    -10.032  0.0000E+00  0.0000E+00  0.1280E+03  0.1280E+03
     -9.791  0.0000E+00  0.0000E+00  0.1280E+03  0.1280E+03
     -9.550  0.0000E+00  0.0000E+00  0.1280E+03  0.1280E+03
     -9.309  0.0000E+00  0.0000E+00  0.1280E+03  0.1280E+03
     -9.069  0.0000E+00  0.0000E+00  0.1280E+03  0.1280E+03
     -8.828  0.0000E+00  0.0000E+00  0.1280E+03  0.1280E+03
     -8.587  0.0000E+00  0.0000E+00  0.1280E+03  0.1280E+03
     -8.346  0.0000E+00  0.0000E+00  0.1280E+03  0.1280E+03
     -8.105  0.0000E+00  0.0000E+00  0.1280E+03  0.1280E+03
     -7.864  0.4561E-10  0.0000E+00  0.1280E+03  0.1280E+03
     -7.624  0.5286E+00  0.7992E-11  0.1281E+03  0.1280E+03
     -7.383  0.1239E+02  0.4631E+00  0.1311E+03  0.1281E+03
     -7.142  0.3025E+02  0.1361E+02  0.1384E+03  0.1314E+03
     -6.901  0.3366E+02  0.2950E+02  0.1465E+03  0.1385E+03
     -6.660  0.2283E+02  0.2584E+02  0.1520E+03  0.1447E+03
     -6.419  0.3488E-04  0.3017E+02  0.1520E+03  0.1520E+03
     -6.179  0.0000E+00  0.6567E-01  0.1520E+03  0.1520E+03
     -5.938  0.0000E+00  0.0000E+00  0.1520E+03  0.1520E+03
     -5.697  0.0000E+00  0.0000E+00  0.1520E+03  0.1520E+03
     -5.456  0.0000E+00  0.0000E+00  0.1520E+03  0.1520E+03
     -5.215  0.0000E+00  0.0000E+00  0.1520E+03  0.1520E+03
     -4.974  0.0000E+00  0.0000E+00  0.1520E+03  0.1520E+03
     -4.734  0.0000E+00  0.0000E+00  0.1520E+03  0.1520E+03
     -4.493  0.0000E+00  0.0000E+00  0.1520E+03  0.1520E+03
     -4.252  0.0000E+00  0.0000E+00  0.1520E+03  0.1520E+03
     -4.011  0.0000E+00  0.0000E+00  0.1520E+03  0.1520E+03
     -3.770  0.0000E+00  0.0000E+00  0.1520E+03  0.1520E+03
     -3.529  0.0000E+00  0.0000E+00  0.1520E+03  0.1520E+03
     -3.289  0.0000E+00  0.0000E+00  0.1520E+03  0.1520E+03
     -3.048  0.0000E+00  0.0000E+00  0.1520E+03  0.1520E+03
     -2.807  0.0000E+00  0.0000E+00  0.1520E+03  0.1520E+03
     -2.566  0.0000E+00  0.0000E+00  0.1520E+03  0.1520E+03
     -2.325  0.0000E+00  0.0000E+00  0.1520E+03  0.1520E+03
     -2.084  0.1821E-04  0.0000E+00  0.1520E+03  0.1520E+03
     -1.843  0.1570E+02  0.0000E+00  0.1558E+03  0.1520E+03
     -1.603  0.1965E+02  0.0000E+00  0.1605E+03  0.1520E+03
     -1.362  0.1489E+02  0.0000E+00  0.1641E+03  0.1520E+03
     -1.121  0.1706E+02  0.0000E+00  0.1682E+03  0.1520E+03
     -0.880  0.4553E+02  0.0000E+00  0.1792E+03  0.1520E+03
     -0.639  0.5894E+02  0.6570E-06  0.1934E+03  0.1520E+03
     -0.398  0.3870E+02  0.3995E+01  0.2027E+03  0.1530E+03
     -0.158  0.6768E+02  0.2035E+02  0.2190E+03  0.1579E+03
      0.083  0.7384E+02  0.1224E+02  0.2368E+03  0.1608E+03
      0.324  0.7755E+02  0.1843E+02  0.2554E+03  0.1653E+03
      0.565  0.6976E+02  0.2950E+02  0.2723E+03  0.1724E+03
      0.806  0.5600E+02  0.3914E+02  0.2857E+03  0.1818E+03
      1.047  0.3647E+02  0.3732E+02  0.2945E+03  0.1908E+03
      1.287  0.3052E+02  0.3137E+02  0.3019E+03  0.1983E+03
      1.528  0.4508E+02  0.2069E+02  0.3127E+03  0.2033E+03
      1.769  0.4196E+02  0.2901E+02  0.3228E+03  0.2103E+03
      2.010  0.6877E+02  0.3674E+02  0.3394E+03  0.2191E+03
      2.251  0.5844E+02  0.2784E+02  0.3535E+03  0.2258E+03
      2.492  0.2672E+02  0.2698E+02  0.3599E+03  0.2323E+03
      2.732  0.4259E+02  0.3048E+02  0.3702E+03  0.2397E+03
      2.973  0.3052E+02  0.4427E+02  0.3775E+03  0.2504E+03
      3.214  0.8640E+01  0.4555E+02  0.3796E+03  0.2613E+03
      3.455  0.2765E+02  0.3248E+02  0.3863E+03  0.2691E+03
      3.696  0.2738E+02  0.1257E+02  0.3928E+03  0.2722E+03
      3.937  0.3082E+02  0.1746E+02  0.4003E+03  0.2764E+03
      4.177  0.3592E+02  0.5265E+02  0.4089E+03  0.2891E+03
      4.418  0.3634E+02  0.4465E+02  0.4177E+03  0.2998E+03
      4.659  0.3033E+02  0.1738E+02  0.4250E+03  0.3040E+03
      4.900  0.2584E+02  0.6077E-02  0.4312E+03  0.3040E+03
      5.141  0.3305E+01  0.0000E+00  0.4320E+03  0.3040E+03
      5.382  0.0000E+00  0.0000E+00  0.4320E+03  0.3040E+03
      5.622  0.0000E+00  0.0000E+00  0.4320E+03  0.3040E+03
      5.863  0.0000E+00  0.0000E+00  0.4320E+03  0.3040E+03
      6.104  0.0000E+00  0.2474E-09  0.4320E+03  0.3040E+03
      6.345  0.0000E+00  0.3844E+00  0.4320E+03  0.3041E+03
      6.586  0.0000E+00  0.4191E+01  0.4320E+03  0.3051E+03
      6.827  0.0000E+00  0.7810E+01  0.4320E+03  0.3070E+03
      7.068  0.4439E-15  0.1907E+02  0.4320E+03  0.3116E+03
      7.308  0.2453E-01  0.4404E+02  0.4320E+03  0.3222E+03
      7.549  0.1292E+00  0.5324E+02  0.4320E+03  0.3350E+03
      7.790  0.2344E+00  0.6339E+02  0.4321E+03  0.3503E+03
      8.031  0.7382E+00  0.6576E+02  0.4323E+03  0.3661E+03
      8.272  0.2089E+01  0.6999E+02  0.4328E+03  0.3830E+03
      8.513  0.2639E+01  0.5944E+02  0.4334E+03  0.3973E+03
      8.753  0.8869E+01  0.5861E+02  0.4355E+03  0.4114E+03
      8.994  0.1242E+02  0.4810E+02  0.4385E+03  0.4230E+03
      9.235  0.1309E+02  0.3011E+02  0.4417E+03  0.4302E+03
      9.476  0.1804E+02  0.8989E+01  0.4460E+03  0.4324E+03
      9.717  0.1630E+02  0.2979E+01  0.4500E+03  0.4331E+03
      9.958  0.1570E+02  0.8323E+01  0.4537E+03  0.4351E+03
     10.198  0.2248E+02  0.1861E+02  0.4592E+03  0.4396E+03
     10.439  0.1484E+02  0.1798E+02  0.4627E+03  0.4439E+03
     10.680  0.1535E+02  0.1715E+02  0.4664E+03  0.4481E+03
     10.921  0.1315E+02  0.2759E+02  0.4696E+03  0.4547E+03
     11.162  0.2060E+02  0.1897E+02  0.4746E+03  0.4593E+03
     11.403  0.2467E+02  0.2394E+02  0.4805E+03  0.4650E+03
     11.643  0.2733E+02  0.1493E+02  0.4871E+03  0.4686E+03
     11.884  0.2454E+02  0.1378E+02  0.4930E+03  0.4720E+03
     12.125  0.3359E+02  0.1597E+02  0.5011E+03  0.4758E+03
     12.366  0.1991E+02  0.3662E+02  0.5059E+03  0.4846E+03
     12.607  0.2305E+02  0.3268E+02  0.5114E+03  0.4925E+03
     12.848  0.2140E+02  0.3000E+02  0.5166E+03  0.4997E+03
     13.088  0.2035E+02  0.2028E+02  0.5215E+03  0.5046E+03
     13.329  0.2377E+02  0.2210E+02  0.5272E+03  0.5099E+03
     13.570  0.2442E+02  0.2722E+02  0.5331E+03  0.5165E+03
     13.811  0.1346E+02  0.2373E+02  0.5363E+03  0.5222E+03
     14.052  0.6922E+01  0.2630E+02  0.5380E+03  0.5285E+03
     14.293  0.3485E-02  0.1926E+02  0.5380E+03  0.5332E+03
     14.533  0.0000E+00  0.1674E+02  0.5380E+03  0.5372E+03
     14.774  0.0000E+00  0.3350E+01  0.5380E+03  0.5380E+03
     15.015  0.0000E+00  0.2243E-05  0.5380E+03  0.5380E+03
     15.256  0.0000E+00  0.0000E+00  0.5380E+03  0.5380E+03
     15.497  0.0000E+00  0.0000E+00  0.5380E+03  0.5380E+03
     15.738  0.0000E+00  0.0000E+00  0.5380E+03  0.5380E+03
     15.979  0.0000E+00  0.0000E+00  0.5380E+03  0.5380E+03
     16.219  0.0000E+00  0.0000E+00  0.5380E+03  0.5380E+03
     16.460  0.0000E+00  0.0000E+00  0.5380E+03  0.5380E+03
     16.701  0.0000E+00  0.0000E+00  0.5380E+03  0.5380E+03
     16.942  0.0000E+00  0.0000E+00  0.5380E+03  0.5380E+03
     17.183  0.0000E+00  0.0000E+00  0.5380E+03  0.5380E+03
     17.424  0.0000E+00  0.0000E+00  0.5380E+03  0.5380E+03
     17.664  0.0000E+00  0.0000E+00  0.5380E+03  0.5380E+03
     17.905  0.0000E+00  0.0000E+00  0.5380E+03  0.5380E+03
