 running on 1280 total cores
 each image running on  256 cores
 distrk:  each k-point on   32 cores,    8 groups
 distr:  one band on    4 cores,    8 groups
 vasp.5.4.4.18Apr17-6-g9f103f2a35 (build Nov 25 2020 09:33:52) complex           
 POSCAR found type information on POSCAR  Fe Li O  S 
 01/POSCAR found :  4 types and      95 ions
 scaLAPACK will be used

 ----------------------------------------------------------------------------- 
|                                                                             |
|           W    W    AA    RRRRR   N    N  II  N    N   GGGG   !!!           |
|           W    W   A  A   R    R  NN   N  II  NN   N  G    G  !!!           |
|           W    W  A    A  R    R  N N  N  II  N N  N  G       !!!           |
|           W WW W  AAAAAA  RRRRR   N  N N  II  N  N N  G  GGG   !            |
|           WW  WW  A    A  R   R   N   NN  II  N   NN  G    G                |
|           W    W  A    A  R    R  N    N  II  N    N   GGGG   !!!           |
|                                                                             |
|      For optimal performance we recommend to set                            |
|        NCORE= 4 - approx SQRT( number of cores)                             |
|      NCORE specifies how many cores store one orbital (NPAR=cpu/NCORE).     |
|      This setting can  greatly improve the performance of VASP for DFT.     |
|      The default,   NCORE=1            might be grossly inefficient         |
|      on modern multi-core architectures or massively parallel machines.     |
|      Do your own testing !!!!                                               |
|      Unfortunately you need to use the default for GW and RPA calculations. |
|      (for HF NCORE is supported but not extensively tested yet)             |
|                                                                             |
 ----------------------------------------------------------------------------- 


 ----------------------------------------------------------------------------- 
|                                                                             |
|           W    W    AA    RRRRR   N    N  II  N    N   GGGG   !!!           |
|           W    W   A  A   R    R  NN   N  II  NN   N  G    G  !!!           |
|           W    W  A    A  R    R  N N  N  II  N N  N  G       !!!           |
|           W WW W  AAAAAA  RRRRR   N  N N  II  N  N N  G  GGG   !            |
|           WW  WW  A    A  R   R   N   NN  II  N   NN  G    G                |
|           W    W  A    A  R    R  N    N  II  N    N   GGGG   !!!           |
|                                                                             |
|      You have enabled k-point parallelism (KPAR>1).                         |
|      This developmental code was originally  written by Paul Kent at ORNL,  |
|      and carefully double checked in Vienna.                                |
|      GW as well as linear response parallelism added by Martijn Marsman     |
|      and Georg Kresse.                                                      |
|      Carefully verify results versus KPAR=1.                                |
|      Report problems to Paul Kent and Vienna.                               |
|                                                                             |
 ----------------------------------------------------------------------------- 


 ----------------------------------------------------------------------------- 
|                                                                             |
|  ADVICE TO THIS USER RUNNING 'VASP/VAMP'   (HEAR YOUR MASTER'S VOICE ...):  |
|                                                                             |
|      You have a (more or less) 'large supercell' and for larger cells       |
|      it might be more efficient to use real space projection opertators     |
|      So try LREAL= Auto  in the INCAR   file.                               |
|      Mind:          For very  accurate calculation you might also keep the  |
|      reciprocal projection scheme          (i.e. LREAL=.FALSE.)             |
|                                                                             |
 ----------------------------------------------------------------------------- 

 LDA part: xc-table for Pade appr. of Perdew
 POSCAR found type information on POSCAR  Fe Li O  S 
 00/POSCAR found :  4 types and      95 ions
 POSCAR found type information on POSCAR  Fe Li O  S 
 06/POSCAR found :  4 types and      95 ions
 Jacobian:    23.154902702064952     
 POSCAR, INCAR and KPOINTS ok, starting setup
 FFT: planning ...
 WAVECAR not read
 entering main loop
       N       E                     dE             d eps       ncg     rms          ort
DAV:   1     0.849108042045E+04    0.84911E+04   -0.33714E+05  3904   0.171E+03
DAV:   2     0.833518624467E+03   -0.76576E+04   -0.70182E+04  3904   0.462E+02
DAV:   3    -0.392910601313E+03   -0.12264E+04   -0.11630E+04  3904   0.192E+02
DAV:   4    -0.538053334561E+03   -0.14514E+03   -0.14218E+03  3904   0.496E+01
DAV:   5    -0.556382499082E+03   -0.18329E+02   -0.17923E+02  3904   0.148E+01
 gam= 0.000 g(H,U,f)=  0.172E+04 0.135E+04 0.297E+03 ort(H,U,f) = 0.000E+00 0.000E+00 0.000E+00
SDA:   6    -0.584139780207E+02    0.49797E+03   -0.17923E+02  3904   0.337E+04 0.000E+00
 gam= 0.000 trial= 0.400  step= 0.183 mean= 0.400
 gam= 0.165 g(H,U,f)=  0.219E+03 0.316E+03 0.197E+02 ort(H,U,f) = 0.117E+03-0.145E+03 0.884E+01
CGA:   7    -0.390362635844E+03   -0.33195E+03   -0.30883E+03  3904   0.555E+03-0.189E+02
 gam= 0.165 trial= 0.389  step= 0.126 mean= 0.389
 gam= 0.208 g(H,U,f)=  0.591E+02 0.512E+02 0.494E+01 ort(H,U,f) = 0.758E+02 0.733E+02 0.371E+01
CGA:   8    -0.439759984007E+03   -0.49397E+02   -0.34680E+02  3904   0.115E+03 0.153E+03
 gam= 0.208 trial= 0.376  step= 0.243 mean= 0.376
 gam= 1.272 g(H,U,f)=  0.265E+02 0.112E+03 0.775E+01 ort(H,U,f) =-0.740E+01 0.711E+01-0.894E+00
CGA:   9    -0.457317088974E+03   -0.17557E+02   -0.17871E+02  3904   0.147E+03-0.119E+01
 gam= 1.272 trial= 0.369  step= 0.113 mean= 0.369
 gam= 0.683 g(H,U,f)=  0.400E+02 0.548E+02 0.534E+01 ort(H,U,f) =-0.409E+02-0.208E+02-0.513E+01
CGA:  10    -0.462501373747E+03   -0.51843E+01   -0.81787E+01  3904   0.100E+03-0.667E+02
 gam= 0.683 trial= 0.357  step= 0.097 mean= 0.357
 gam= 0.663 g(H,U,f)=  0.433E+02 0.207E+02 0.234E+01 ort(H,U,f) =-0.273E+01-0.174E+02-0.506E+01
CGA:  11    -0.464660582775E+03   -0.21592E+01   -0.26371E+01  3904   0.664E+02-0.252E+02
 gam= 0.663 trial= 0.344  step= 0.147 mean= 0.344
 gam= 1.686 g(H,U,f)=  0.318E+02 0.727E+02 0.741E+01 ort(H,U,f) = 0.216E+02-0.241E+02-0.560E+01
CGA:  12    -0.467711464573E+03   -0.30509E+01   -0.36635E+01  3904   0.112E+03-0.809E+01
 gam= 1.686 trial= 0.334  step= 0.117 mean= 0.334
 gam= 0.551 g(H,U,f)=  0.169E+02 0.414E+02 0.332E+01 ort(H,U,f) =-0.248E+01-0.202E+02-0.388E+01
CGA:  13    -0.473229166354E+03   -0.55177E+01   -0.57293E+01  3904   0.616E+02-0.266E+02
 gam= 0.551 trial= 0.323  step= 0.077 mean= 0.323
 gam= 0.495 g(H,U,f)=  0.123E+02 0.173E+02 0.918E+00 ort(H,U,f) =-0.145E+01 0.270E+00-0.458E+00
CGA:  14    -0.475075252359E+03   -0.18461E+01   -0.17981E+01  3904   0.305E+02-0.164E+01
 gam= 0.495 trial= 0.311  step= 0.076 mean= 0.311
 gam= 1.047 g(H,U,f)=  0.101E+02 0.203E+02 0.156E+01 ort(H,U,f) = 0.448E+01-0.839E+01-0.539E+00
CGA:  15    -0.476104152791E+03   -0.10289E+01   -0.11347E+01  3904   0.319E+02-0.446E+01
 gam= 1.047 trial= 0.299  step= 0.129 mean= 0.299
 gam= 2.210 g(H,U,f)=  0.102E+02 0.568E+02 0.360E+01 ort(H,U,f) = 0.656E+00-0.292E+01-0.130E+00
CGA:  16    -0.477563953885E+03   -0.14598E+01   -0.17537E+01  3904   0.706E+02-0.240E+01
 gam= 2.210 trial= 0.290  step= 0.076 mean= 0.290
 gam= 0.469 g(H,U,f)=  0.926E+01 0.221E+02 0.171E+01 ort(H,U,f) =-0.260E+02 0.672E+01 0.155E+01
CGA:  17    -0.479409198544E+03   -0.18452E+01   -0.24672E+01  3904   0.331E+02-0.178E+02
 gam= 0.469 trial= 0.280  step= 0.082 mean= 0.280
 gam= 0.524 g(H,U,f)=  0.869E+01 0.773E+01 0.917E+00 ort(H,U,f) =-0.112E+02 0.200E+01 0.451E+00
CGA:  18    -0.479875144108E+03   -0.46595E+00   -0.10124E+01  3904   0.173E+02-0.872E+01
 gam= 0.524 trial= 0.270  step= 0.219 mean= 0.270
 gam= 1.180 g(H,U,f)=  0.817E+01 0.118E+02 0.452E+00 ort(H,U,f) =-0.191E+01 0.261E+01 0.112E+00
CGA:  19    -0.481214263086E+03   -0.13391E+01   -0.14016E+01  3904   0.205E+02 0.809E+00
 gam= 1.180 trial= 0.267  step= 0.219 mean= 0.267
 gam= 0.970 g(H,U,f)=  0.597E+01 0.124E+02 0.147E+01 ort(H,U,f) =-0.196E+01 0.197E+01-0.115E+01
CGA:  20    -0.483664150235E+03   -0.24499E+01   -0.23443E+01  3904   0.199E+02-0.114E+01
 gam= 0.970 trial= 0.265  step= 0.217 mean= 0.265
 gam= 0.909 g(H,U,f)=  0.629E+01 0.105E+02 0.123E+01 ort(H,U,f) =-0.422E+01 0.435E+01 0.416E+00
CGA:  21    -0.485654989994E+03   -0.19908E+01   -0.20345E+01  3904   0.180E+02 0.548E+00
 gam= 0.909 trial= 0.262  step= 0.225 mean= 0.262
 gam= 0.671 g(H,U,f)=  0.646E+01 0.550E+01 0.152E+00 ort(H,U,f) =-0.352E+01 0.533E+01 0.444E-01
CGA:  22    -0.487650083779E+03   -0.19951E+01   -0.20847E+01  3904   0.121E+02 0.185E+01
 gam= 0.671 trial= 0.261  step= 0.304 mean= 0.261
 gam= 0.789 g(H,U,f)=  0.506E+01 0.437E+01 0.123E+00 ort(H,U,f) =-0.963E+00 0.109E+01 0.791E-01
CGA:  23    -0.489689682879E+03   -0.20396E+01   -0.20322E+01  3904   0.956E+01 0.209E+00
 gam= 0.789 trial= 0.263  step= 0.315 mean= 0.263
 gam= 0.813 g(H,U,f)=  0.372E+01 0.399E+01 0.576E-01 ort(H,U,f) = 0.117E-01 0.321E-01 0.566E-01
CGA:  24    -0.491227147435E+03   -0.15375E+01   -0.15327E+01  3904   0.777E+01 0.100E+00
 gam= 0.813 trial= 0.265  step= 0.311 mean= 0.265
 gam= 0.603 g(H,U,f)=  0.215E+01 0.248E+01 0.573E-01 ort(H,U,f) =-0.970E+00 0.925E+00 0.532E-01
CGA:  25    -0.492448268031E+03   -0.12211E+01   -0.12201E+01  3904   0.469E+01 0.805E-02
 gam= 0.603 trial= 0.268  step= 0.399 mean= 0.268
 gam= 1.193 g(H,U,f)=  0.243E+01 0.297E+01 0.195E+00 ort(H,U,f) =-0.110E+01 0.908E+00-0.202E+00
CGA:  26    -0.493350945885E+03   -0.90268E+00   -0.93680E+00  3904   0.560E+01-0.394E+00
 gam= 1.193 trial= 0.274  step= 0.214 mean= 0.274
 gam= 0.716 g(H,U,f)=  0.226E+01 0.167E+01 0.775E-01 ort(H,U,f) =-0.901E+00 0.863E+00-0.155E+00
CGA:  27    -0.493927062063E+03   -0.57612E+00   -0.54969E+00  3904   0.401E+01-0.193E+00
 gam= 0.716 trial= 0.271  step= 0.256 mean= 0.271
 gam= 1.345 g(H,U,f)=  0.178E+01 0.298E+01 0.631E+00 ort(H,U,f) =-0.523E-01 0.444E+00-0.103E+00
CGA:  28    -0.494417483948E+03   -0.49042E+00   -0.49548E+00  3904   0.539E+01 0.290E+00
 gam= 1.345 trial= 0.270  step= 0.173 mean= 0.270
 gam= 0.498 g(H,U,f)=  0.130E+01 0.129E+01 0.960E-01 ort(H,U,f) =-0.862E+00 0.676E+00-0.578E-01
CGA:  29    -0.494879800242E+03   -0.46232E+00   -0.49872E+00  3904   0.268E+01-0.244E+00
 gam= 0.498 trial= 0.266  step= 0.326 mean= 0.266
 gam= 0.923 g(H,U,f)=  0.115E+01 0.123E+01 0.968E-01 ort(H,U,f) =-0.358E+00 0.212E+00 0.159E+00
CGA:  30    -0.495296576700E+03   -0.41678E+00   -0.41719E+00  3904   0.248E+01 0.119E-01
 gam= 0.923 trial= 0.269  step= 0.265 mean= 0.269
 gam= 0.697 g(H,U,f)=  0.814E+00 0.854E+00 0.594E-01 ort(H,U,f) =-0.158E+00 0.414E+00-0.133E+00
CGA:  31    -0.495625732944E+03   -0.32916E+00   -0.32962E+00  3904   0.173E+01 0.123E+00
 gam= 0.697 trial= 0.268  step= 0.284 mean= 0.268
 gam= 0.704 g(H,U,f)=  0.729E+00 0.442E+00 0.442E-01 ort(H,U,f) =-0.159E+00 0.165E+00-0.506E-02
CGA:  32    -0.495883233047E+03   -0.25750E+00   -0.25749E+00  3904   0.122E+01 0.961E-03
 gam= 0.704 trial= 0.269  step= 0.321 mean= 0.269
 gam= 0.739 g(H,U,f)=  0.561E+00 0.332E+00 0.529E-02 ort(H,U,f) =-0.128E-02 0.539E-01 0.287E-02
CGA:  33    -0.496080502365E+03   -0.19727E+00   -0.19499E+00  3904   0.899E+00 0.554E-01
 gam= 0.739 trial= 0.272  step= 0.997 mean= 0.272
 gam= 0.000 g(H,U,f)=  0.601E+01 0.363E+01 0.136E+00 ort(H,U,f) =-0.202E+01-0.619E+00-0.744E-01
CGA:  34    -0.495185445104E+03    0.89506E+00   -0.46836E+00  3904   0.977E+01-0.271E+01
 gam= 0.000 trial= 0.308  step= 0.209 mean= 0.308
 gam= 0.202 g(H,U,f)=  0.698E+00 0.364E+00 0.914E+00 ort(H,U,f) = 0.825E+00 0.157E+00-0.191E+01
CGA:  35    -0.496406607775E+03   -0.12212E+01   -0.10220E+01  3904   0.198E+01-0.931E+00
 gam= 0.202 trial= 0.303  step= 0.332 mean= 0.303
 gam= 0.559 g(H,U,f)=  0.394E+00 0.436E+00 0.274E+00 ort(H,U,f) = 0.285E-01 0.202E-01 0.173E-01
CGA:  36    -0.496705302505E+03   -0.29869E+00   -0.29694E+00  3904   0.110E+01 0.659E-01
 gam= 0.559 trial= 0.305  step= 0.336 mean= 0.305
 gam= 0.316 g(H,U,f)=  0.152E+00 0.184E+00 0.125E-01 ort(H,U,f) =-0.288E-01 0.134E+00 0.504E-02
CGA:  37    -0.496900190714E+03   -0.19489E+00   -0.19187E+00  3904   0.349E+00 0.110E+00
 gam= 0.316 trial= 0.306  step= 0.450 mean= 0.306
 gam= 0.440 g(H,U,f)=  0.877E-01 0.600E-01 0.591E-02 ort(H,U,f) =-0.496E-01 0.497E-01-0.938E-02
CGA:  38    -0.496986026900E+03   -0.85836E-01   -0.86315E-01  3904   0.154E+00-0.930E-02
 gam= 0.440 trial= 0.313  step= 0.575 mean= 0.313
 gam= 0.000 g(H,U,f)=  0.913E-01 0.194E+00 0.239E+00 ort(H,U,f) =-0.313E-01-0.601E-04-0.999E-01
CGA:  39    -0.497016553675E+03   -0.30527E-01   -0.42995E-01  3904   0.524E+00-0.131E+00
 gam= 0.000 trial= 0.326  step= 0.104 mean= 0.326
 gam= 0.165 g(H,U,f)=  0.260E-01 0.303E-01 0.299E-01 ort(H,U,f) = 0.945E-02-0.228E-01-0.773E-01
CGA:  40    -0.497038047088E+03   -0.21493E-01   -0.27370E-01  3904   0.862E-01-0.907E-01
 gam= 0.165 trial= 0.315  step= 0.280 mean= 0.315
 gam= 0.702 g(H,U,f)=  0.967E-02 0.231E-01 0.278E-01 ort(H,U,f) = 0.382E-02 0.835E-02-0.174E-01
CGA:  41    -0.497048300301E+03   -0.10253E-01   -0.99983E-02  3904   0.605E-01-0.520E-02
 gam= 0.702 trial= 0.314  step= 0.225 mean= 0.314
 gam= 0.741 g(H,U,f)=  0.885E-02 0.196E-01 0.164E-01 ort(H,U,f) =-0.274E-02 0.988E-02-0.734E-02
CGA:  42    -0.497054729621E+03   -0.64293E-02   -0.63890E-02  3904   0.449E-01-0.203E-03
 gam= 0.741 trial= 0.309  step= 0.291 mean= 0.309
 gam= 1.998 g(H,U,f)=  0.112E-01 0.264E-01 0.520E-01 ort(H,U,f) =-0.262E-02 0.143E-01-0.217E-01
CGA:  43    -0.497061455861E+03   -0.67262E-02   -0.65144E-02  3904   0.896E-01-0.101E-01
 gam= 1.998 trial= 0.308  step= 0.132 mean= 0.308
 gam= 1.243 g(H,U,f)=  0.125E-01 0.287E-01 0.701E-01 ort(H,U,f) =-0.451E-02 0.462E-01-0.215E-01
CGA:  44    -0.497067677675E+03   -0.62218E-02   -0.46017E-02  3904   0.111E+00 0.202E-01
 gam= 1.243 trial= 0.299  step= 0.180 mean= 0.299
 gam= 0.353 g(H,U,f)=  0.154E-01 0.905E-02 0.148E-01 ort(H,U,f) =-0.280E-01 0.204E-01 0.828E-02
CGA:  45    -0.497075739159E+03   -0.80615E-02   -0.12263E-01  3904   0.393E-01 0.706E-03
 gam= 0.353 trial= 0.293  step= 0.076 mean= 0.293
 gam= 0.539 g(H,U,f)=  0.103E-01 0.605E-02 0.488E-02 ort(H,U,f) = 0.358E-02 0.158E-01-0.131E-01
CGA:  46    -0.497077526559E+03   -0.17874E-02   -0.15009E-02  3904   0.212E-01 0.625E-02
 gam= 0.539 trial= 0.283  step= 0.582 mean= 0.283
 gam= 3.793 g(H,U,f)=  0.113E-01 0.145E-01 0.545E-01 ort(H,U,f) =-0.420E-02 0.110E-01-0.826E-02
CGA:  47    -0.497084464695E+03   -0.69381E-02   -0.71499E-02  3904   0.804E-01-0.145E-02
 gam= 3.793 trial= 0.298  step= 0.082 mean= 0.298
 gam= 0.399 g(H,U,f)=  0.185E-01 0.121E-01 0.140E-02 ort(H,U,f) =-0.275E-01 0.262E-01-0.627E-02
CGA:  48    -0.497087160770E+03   -0.26961E-02   -0.30789E-02  3904   0.320E-01-0.756E-02
 gam= 0.399 trial= 0.287  step= 0.433 mean= 0.287
 gam= 2.589 g(H,U,f)=  0.155E-01 0.211E-01 0.463E-01 ort(H,U,f) =-0.889E-02 0.132E-01-0.375E-02
CGA:  49    -0.497093498324E+03   -0.63376E-02   -0.62815E-02  3904   0.829E-01 0.594E-03
 gam= 2.589 trial= 0.294  step= 0.074 mean= 0.294
 gam= 0.326 g(H,U,f)=  0.162E-01 0.882E-02 0.206E-02 ort(H,U,f) =-0.339E-01 0.470E-01-0.741E-02
CGA:  50    -0.497096888827E+03   -0.33905E-02   -0.31362E-02  3904   0.271E-01 0.567E-02
 gam= 0.326 trial= 0.283  step= 0.604 mean= 0.283
 gam= 7.387 g(H,U,f)=  0.316E-01 0.246E-01 0.144E+00 ort(H,U,f) =-0.785E-02 0.160E-01-0.944E-02
CGA:  51    -0.497105426092E+03   -0.85373E-02   -0.87342E-02  3904   0.200E+00-0.129E-02
 gam= 7.387 trial= 0.299  step= 0.102 mean= 0.299
 gam= 0.379 g(H,U,f)=  0.530E-01 0.188E-01 0.409E-02 ort(H,U,f) =-0.113E+00 0.903E-01 0.112E-01
CGA:  52    -0.497114351707E+03   -0.89256E-02   -0.96803E-02  3904   0.759E-01-0.112E-01
 gam= 0.379 trial= 0.289  step= 0.242 mean= 0.289
 gam= 3.193 g(H,U,f)=  0.584E-01 0.547E-01 0.129E+00 ort(H,U,f) =-0.650E-02 0.464E-01-0.370E-01
CGA:  53    -0.497122790428E+03   -0.84387E-02   -0.86679E-02  3904   0.242E+00 0.291E-02
 gam= 3.193 trial= 0.287  step= 0.084 mean= 0.287
 gam= 0.268 g(H,U,f)=  0.414E-01 0.176E-01 0.601E-02 ort(H,U,f) =-0.412E-01 0.130E+00 0.901E-02
CGA:  54    -0.497138118265E+03   -0.15328E-01   -0.10594E-01  3904   0.650E-01 0.974E-01
 gam= 0.268 trial= 0.277  step= 0.103 mean= 0.277
 gam= 1.876 g(H,U,f)=  0.350E-01 0.159E-01 0.709E-01 ort(H,U,f) = 0.137E-01 0.265E-01-0.315E-01
CGA:  55    -0.497143427053E+03   -0.53088E-02   -0.46874E-02  3904   0.122E+00 0.863E-02
 gam= 1.876 trial= 0.268  step= 0.123 mean= 0.268
 gam= 2.383 g(H,U,f)=  0.360E-01 0.355E-01 0.219E+00 ort(H,U,f) =-0.470E-02 0.243E-01-0.968E-02
CGA:  56    -0.497152898944E+03   -0.94719E-02   -0.84657E-02  3904   0.290E+00 0.996E-02
 gam= 2.383 trial= 0.261  step= 0.060 mean= 0.261
 gam= 0.533 g(H,U,f)=  0.470E-01 0.277E-01 0.800E-01 ort(H,U,f) =-0.139E+00 0.584E-01 0.591E-01
CGA:  57    -0.497161123464E+03   -0.82245E-02   -0.94175E-02  3904   0.155E+00-0.215E-01
 gam= 0.533 trial= 0.251  step= 0.083 mean= 0.251
 gam= 0.680 g(H,U,f)=  0.598E-01 0.341E-01 0.112E-01 ort(H,U,f) =-0.772E-01 0.604E-01-0.337E-01
CGA:  58    -0.497163842604E+03   -0.27191E-02   -0.59138E-02  3904   0.105E+00-0.504E-01
 gam= 0.680 trial= 0.242  step= 0.321 mean= 0.242
 gam= 0.955 g(H,U,f)=  0.720E-01 0.259E-01 0.247E-02 ort(H,U,f) =-0.472E-01 0.365E-01-0.172E-02
CGA:  59    -0.497174618405E+03   -0.10776E-01   -0.11388E-01  3904   0.100E+00-0.124E-01
 gam= 0.955 trial= 0.246  step= 0.243 mean= 0.246
 gam= 1.753 g(H,U,f)=  0.622E-01 0.276E-01 0.861E-01 ort(H,U,f) =-0.950E-02 0.673E-02-0.468E-02
CGA:  60    -0.497185415381E+03   -0.10797E-01   -0.10775E-01  3904   0.176E+00-0.745E-02
 gam= 1.753 trial= 0.246  step= 0.140 mean= 0.246
 gam= 0.743 g(H,U,f)=  0.570E-01 0.263E-01 0.474E-01 ort(H,U,f) =-0.270E-01-0.290E-02 0.311E-01
CGA:  61    -0.497196382350E+03   -0.10967E-01   -0.11366E-01  3904   0.131E+00 0.126E-02
 gam= 0.743 trial= 0.241  step= 0.167 mean= 0.241
 gam= 0.713 g(H,U,f)=  0.578E-01 0.316E-01 0.376E-02 ort(H,U,f) =-0.145E-01 0.871E-02 0.108E-01
CGA:  62    -0.497206413813E+03   -0.10031E-01   -0.10995E-01  3904   0.932E-01 0.502E-02
 gam= 0.713 trial= 0.237  step= 0.258 mean= 0.237
 gam= 0.792 g(H,U,f)=  0.404E-01 0.284E-01 0.493E-02 ort(H,U,f) =-0.735E-02-0.139E-02 0.430E-02
CGA:  63    -0.497218808687E+03   -0.12395E-01   -0.12480E-01  3904   0.738E-01-0.444E-02
 gam= 0.792 trial= 0.238  step= 0.202 mean= 0.238
 gam= 0.886 g(H,U,f)=  0.324E-01 0.321E-01 0.793E-03 ort(H,U,f) =-0.848E-04 0.494E-03 0.658E-03
CGA:  64    -0.497225854718E+03   -0.70460E-02   -0.70938E-02  3904   0.653E-01 0.107E-02
 gam= 0.886 trial= 0.236  step= 0.232 mean= 0.236
 gam= 0.805 g(H,U,f)=  0.253E-01 0.273E-01 0.404E-04 ort(H,U,f) =-0.619E-02 0.686E-02-0.167E-04
CGA:  65    -0.497233552759E+03   -0.76980E-02   -0.77011E-02  3904   0.526E-01 0.651E-03
 gam= 0.805 trial= 0.236  step= 0.219 mean= 0.236
 gam= 0.695 g(H,U,f)=  0.201E-01 0.163E-01 0.918E-04 ort(H,U,f) =-0.820E-02 0.820E-02-0.811E-04
CGA:  66    -0.497239378286E+03   -0.58255E-02   -0.58287E-02  3904   0.366E-01-0.892E-04
 gam= 0.695 trial= 0.235  step= 0.259 mean= 0.235
 gam= 0.954 g(H,U,f)=  0.182E-01 0.166E-01 0.127E-03 ort(H,U,f) =-0.560E-02 0.539E-02 0.202E-04
CGA:  67    -0.497244108121E+03   -0.47298E-02   -0.47296E-02  3904   0.349E-01-0.198E-03
 gam= 0.954 trial= 0.237  step= 0.284 mean= 0.237
 gam= 0.948 g(H,U,f)=  0.180E-01 0.150E-01 0.428E-04 ort(H,U,f) =-0.964E-02 0.914E-02 0.510E-04
CGA:  68    -0.497249026306E+03   -0.49182E-02   -0.49288E-02  3904   0.331E-01-0.449E-03
 gam= 0.948 trial= 0.239  step= 0.250 mean= 0.239
 gam= 0.870 g(H,U,f)=  0.184E-01 0.103E-01 0.424E-04 ort(H,U,f) =-0.969E-02 0.945E-02-0.121E-03
CGA:  69    -0.497253107243E+03   -0.40809E-02   -0.40840E-02  3904   0.288E-01-0.362E-03
 gam= 0.870 trial= 0.239  step= 0.281 mean= 0.239
 gam= 0.000 g(H,U,f)=  0.194E-01 0.142E-01 0.171E-03 ort(H,U,f) =-0.547E-02 0.565E-02-0.203E-03
SDA:  70    -0.497257112303E+03   -0.40051E-02   -0.40077E-02  3904   0.338E-01-0.186E-04
 gam= 0.000 trial= 0.242  step= 0.482 mean= 0.242
 gam= 0.483 g(H,U,f)=  0.428E-02 0.120E-01 0.118E-04 ort(H,U,f) =-0.102E-02 0.147E-02-0.291E-04
CGA:  71    -0.497265304072E+03   -0.81918E-02   -0.81411E-02  3904   0.163E-01 0.419E-03
 gam= 0.483 trial= 0.254  step= 0.788 mean= 0.254
 gam= 1.125 g(H,U,f)=  0.833E-02 0.999E-02 0.324E-04 ort(H,U,f) =-0.489E-02 0.511E-02-0.164E-04
CGA:  72    -0.497271880885E+03   -0.65768E-02   -0.65066E-02  3904   0.184E-01 0.207E-03
 gam= 1.125 trial= 0.280  step= 1.353 mean= 0.280
 gam= 1.307 g(H,U,f)=  0.168E-01 0.704E-02 0.988E-04 ort(H,U,f) =-0.740E-02 0.808E-02-0.149E-04
CGA:  73    -0.497284798545E+03   -0.12918E-01   -0.12578E-01  3904   0.240E-01 0.672E-03
 gam= 1.307 trial= 0.334  step= 1.350 mean= 0.334
 gam= 0.000 g(H,U,f)=  0.296E-01 0.319E-01 0.286E-01 ort(H,U,f) =-0.886E-02 0.714E-02-0.235E-01
CGA:  74    -0.497297682107E+03   -0.12884E-01   -0.16782E-01  3904   0.900E-01-0.252E-01
 gam= 0.000 trial= 0.385  step= 0.224 mean= 0.385
 gam= 0.252 g(H,U,f)=  0.109E-01 0.905E-02 0.274E-02 ort(H,U,f) = 0.590E-02-0.315E-02-0.576E-02
CGA:  75    -0.497306158177E+03   -0.84761E-02   -0.10066E-01  3904   0.227E-01-0.302E-02
 gam= 0.252 trial= 0.377  step= 0.493 mean= 0.377
 gam= 0.620 g(H,U,f)=  0.566E-02 0.721E-02 0.119E-02 ort(H,U,f) =-0.286E-02 0.316E-02-0.106E-02
CGA:  76    -0.497311503293E+03   -0.53451E-02   -0.54043E-02  3904   0.141E-01-0.763E-03
 gam= 0.620 trial= 0.383  step= 0.799 mean= 0.383
 gam= 0.639 g(H,U,f)=  0.312E-02 0.431E-02 0.154E-02 ort(H,U,f) =-0.248E-02 0.332E-02-0.314E-03
CGA:  77    -0.497317041995E+03   -0.55387E-02   -0.54292E-02  3904   0.898E-02 0.532E-03
 gam= 0.639 trial= 0.403  step= 0.502 mean= 0.403
 gam= 2.029 g(H,U,f)=  0.563E-02 0.698E-02 0.560E-02 ort(H,U,f) =-0.173E-02 0.304E-02-0.388E-02
CGA:  78    -0.497319208867E+03   -0.21669E-02   -0.23386E-02  3904   0.182E-01-0.257E-02
 gam= 2.029 trial= 0.408  step= 0.380 mean= 0.408
 gam= 1.875 g(H,U,f)=  0.888E-02 0.102E-01 0.150E-01 ort(H,U,f) =-0.306E-02 0.942E-02-0.722E-02
CGA:  79    -0.497321705071E+03   -0.24962E-02   -0.24692E-02  3904   0.341E-01-0.861E-03
 gam= 1.875 trial= 0.407  step= 0.183 mean= 0.407
 gam= 0.384 g(H,U,f)=  0.846E-02 0.422E-02 0.428E-03 ort(H,U,f) =-0.990E-02 0.869E-02-0.104E-02
CGA:  80    -0.497324333064E+03   -0.26280E-02   -0.29710E-02  3904   0.131E-01-0.224E-02
 gam= 0.384 trial= 0.396  step= 0.900 mean= 0.396
 gam= 2.024 g(H,U,f)=  0.678E-02 0.925E-02 0.105E-01 ort(H,U,f) =-0.270E-02 0.183E-02 0.202E-02
CGA:  81    -0.497330131474E+03   -0.57984E-02   -0.55159E-02  3904   0.265E-01 0.115E-02
 gam= 2.024 trial= 0.421  step= 0.104 mean= 0.421
 gam= 0.348 g(H,U,f)=  0.376E-02 0.485E-02 0.609E-03 ort(H,U,f) =-0.901E-03 0.115E-01-0.237E-02
CGA:  82    -0.497332122173E+03   -0.19907E-02   -0.15046E-02  3904   0.922E-02 0.819E-02
 gam= 0.348 trial= 0.405  step= 0.382 mean= 0.405
 gam= 4.877 g(H,U,f)=  0.450E-02 0.115E-01 0.290E-01 ort(H,U,f) =-0.279E-03 0.755E-02-0.766E-02
CGA:  83    -0.497334437438E+03   -0.23153E-02   -0.23034E-02  3904   0.450E-01-0.382E-03
 gam= 4.877 trial= 0.404  step= 0.134 mean= 0.404
 gam= 1.467 g(H,U,f)=  0.147E-01 0.153E-01 0.360E-01 ort(H,U,f) =-0.228E-01 0.371E-01-0.130E-01
CGA:  84    -0.497337408917E+03   -0.29715E-02   -0.28943E-02  3904   0.660E-01 0.131E-02
 gam= 1.467 trial= 0.390  step= 0.092 mean= 0.390
 gam= 0.524 g(H,U,f)=  0.257E-01 0.858E-02 0.226E-03 ort(H,U,f) =-0.489E-01 0.329E-01 0.223E-02
CGA:  85    -0.497339727067E+03   -0.23182E-02   -0.31216E-02  3904   0.346E-01-0.138E-01
 gam= 0.524 trial= 0.376  step= 0.193 mean= 0.376
 gam= 1.908 g(H,U,f)=  0.259E-01 0.123E-01 0.277E-01 ort(H,U,f) =-0.814E-02 0.651E-02 0.164E-03
CGA:  86    -0.497342021316E+03   -0.22942E-02   -0.26333E-02  3904   0.659E-01-0.147E-02
 gam= 1.908 trial= 0.366  step= 0.155 mean= 0.366
 gam= 0.347 g(H,U,f)=  0.155E-01 0.412E-02 0.329E-02 ort(H,U,f) =-0.109E-01 0.558E-02 0.882E-02
CGA:  87    -0.497347464210E+03   -0.54429E-02   -0.48894E-02  3904   0.229E-01 0.354E-02
 gam= 0.347 trial= 0.356  step= 0.152 mean= 0.356
 gam= 1.176 g(H,U,f)=  0.128E-01 0.651E-02 0.758E-02 ort(H,U,f) = 0.665E-02 0.523E-02-0.120E-01
CGA:  88    -0.497349310366E+03   -0.18462E-02   -0.18321E-02  3904   0.269E-01-0.137E-03
 gam= 1.176 trial= 0.346  step= 0.218 mean= 0.346
 gam= 0.763 g(H,U,f)=  0.872E-02 0.555E-02 0.626E-02 ort(H,U,f) = 0.173E-02 0.428E-02-0.623E-02
CGA:  89    -0.497352239204E+03   -0.29288E-02   -0.29155E-02  3904   0.205E-01-0.220E-03
 gam= 0.763 trial= 0.339  step= 0.106 mean= 0.339
 gam= 0.524 g(H,U,f)=  0.647E-02 0.281E-02 0.148E-02 ort(H,U,f) = 0.134E-02-0.459E-03-0.135E-02
CGA:  90    -0.497353301620E+03   -0.10624E-02   -0.10789E-02  3904   0.108E-01-0.474E-03
 gam= 0.524 trial= 0.328  step= 0.274 mean= 0.328
 gam= 1.614 g(H,U,f)=  0.463E-02 0.366E-02 0.907E-02 ort(H,U,f) =-0.597E-03-0.140E-02 0.196E-02
CGA:  91    -0.497354738640E+03   -0.14370E-02   -0.14373E-02  3904   0.174E-01-0.376E-04
 gam= 1.614 trial= 0.325  step= 0.108 mean= 0.325
 gam= 0.421 g(H,U,f)=  0.442E-02 0.233E-02 0.558E-03 ort(H,U,f) =-0.252E-02 0.171E-02 0.227E-02
CGA:  92    -0.497355777828E+03   -0.10392E-02   -0.93743E-03  3904   0.731E-02 0.146E-02
 gam= 0.421 trial= 0.314  step= 0.171 mean= 0.314
 gam= 1.723 g(H,U,f)=  0.387E-02 0.350E-02 0.523E-02 ort(H,U,f) = 0.142E-02 0.320E-02-0.434E-02
CGA:  93    -0.497356494869E+03   -0.71704E-03   -0.67620E-03  3904   0.126E-01 0.272E-03
 gam= 1.723 trial= 0.307  step= 0.148 mean= 0.307
 gam= 0.847 g(H,U,f)=  0.269E-02 0.294E-02 0.504E-02 ort(H,U,f) =-0.181E-02 0.508E-02-0.312E-02
CGA:  94    -0.497357460744E+03   -0.96587E-03   -0.96834E-03  3904   0.107E-01 0.148E-03
 gam= 0.847 trial= 0.299  step= 0.076 mean= 0.299
 gam= 0.392 g(H,U,f)=  0.262E-02 0.140E-02 0.168E-03 ort(H,U,f) =-0.313E-02 0.184E-02 0.103E-02
CGA:  95    -0.497357856099E+03   -0.39535E-03   -0.41223E-03  3904   0.419E-02-0.260E-03
 gam= 0.392 trial= 0.288  step= 0.185 mean= 0.288
 gam= 2.104 g(H,U,f)=  0.273E-02 0.138E-02 0.471E-02 ort(H,U,f) =-0.136E-03-0.174E-03 0.326E-03
CGA:  96    -0.497358227041E+03   -0.37094E-03   -0.37686E-03  3904   0.881E-02 0.161E-04
 gam= 2.104 trial= 0.283  step= 0.133 mean= 0.283
 gam= 0.419 g(H,U,f)=  0.215E-02 0.553E-03 0.990E-03 ort(H,U,f) =-0.207E-02-0.184E-03 0.266E-02
CGA:  97    -0.497358850946E+03   -0.62390E-03   -0.58615E-03  3904   0.369E-02 0.406E-03
 gam= 0.419 trial= 0.275  step= 0.088 mean= 0.275
 gam= 0.831 g(H,U,f)=  0.193E-02 0.704E-03 0.435E-03 ort(H,U,f) = 0.642E-03 0.857E-03-0.128E-02
CGA:  98    -0.497359033245E+03   -0.18230E-03   -0.17020E-03  3904   0.307E-02 0.223E-03
 gam= 0.831 trial= 0.266  step= 0.210 mean= 0.266
 gam= 1.974 g(H,U,f)=  0.152E-02 0.131E-02 0.323E-02 ort(H,U,f) = 0.752E-03 0.128E-02-0.208E-02
CGA:  99    -0.497359378167E+03   -0.34492E-03   -0.34139E-03  3904   0.606E-02-0.471E-04
 gam= 1.974 trial= 0.263  step= 0.079 mean= 0.263
 gam= 0.323 g(H,U,f)=  0.107E-02 0.680E-03 0.212E-03 ort(H,U,f) =-0.228E-03 0.672E-03-0.625E-03
CGA: 100    -0.497359610018E+03   -0.23185E-03   -0.23677E-03  3904   0.196E-02-0.182E-03
 gam= 0.323 trial= 0.254  step= 0.089 mean= 0.254
 gam= 1.030 g(H,U,f)=  0.753E-03 0.547E-03 0.717E-03 ort(H,U,f) = 0.344E-03 0.734E-06-0.364E-03
CGA: 101    -0.497359694907E+03   -0.84889E-04   -0.84535E-04  3904   0.202E-02-0.197E-04
 gam= 1.030 trial= 0.246  step= 0.195 mean= 0.246
 gam= 1.636 g(H,U,f)=  0.502E-03 0.575E-03 0.222E-02 ort(H,U,f) =-0.364E-03-0.313E-03 0.677E-03
CGA: 102    -0.497359889538E+03   -0.19463E-03   -0.19488E-03  3904   0.330E-02 0.737E-06
 gam= 1.636 trial= 0.243  step= 0.070 mean= 0.243
 gam= 0.343 g(H,U,f)=  0.552E-03 0.415E-03 0.165E-03 ort(H,U,f) =-0.909E-03 0.405E-03 0.594E-03
CGA: 103    -0.497360007114E+03   -0.11758E-03   -0.11529E-03  3904   0.113E-02 0.901E-04
 gam= 0.343 trial= 0.234  step= 0.116 mean= 0.234
 gam= 1.703 g(H,U,f)=  0.641E-03 0.589E-03 0.698E-03 ort(H,U,f) = 0.179E-03 0.737E-03-0.889E-03
CGA: 104    -0.497360073731E+03   -0.66617E-04   -0.67512E-04  3904   0.193E-02 0.263E-04
 gam= 1.703 trial= 0.228  step= 0.188 mean= 0.228
 gam= 0.000 g(H,U,f)=  0.695E-03 0.758E-03 0.174E-02 ort(H,U,f) =-0.141E-03 0.161E-02-0.140E-02
SDA: 105    -0.497360258313E+03   -0.18458E-03   -0.18583E-03  3904   0.319E-02 0.668E-04
 gam= 0.000 trial= 0.226  step= 0.085 mean= 0.226
 gam= 0.304 g(H,U,f)=  0.383E-03 0.278E-03 0.310E-03 ort(H,U,f) = 0.346E-03 0.231E-03-0.607E-03
CGA: 106    -0.497360393492E+03   -0.13518E-03   -0.13574E-03  3904   0.971E-03-0.296E-04
 gam= 0.304 trial= 0.219  step= 0.549 mean= 0.219
 gam= 0.566 g(H,U,f)=  0.265E-03 0.255E-03 0.296E-04 ort(H,U,f) =-0.172E-03 0.128E-03 0.396E-04
CGA: 107    -0.497360656807E+03   -0.26331E-03   -0.26409E-03  3904   0.550E-03-0.475E-05
 gam= 0.566 trial= 0.236  step= 0.834 mean= 0.236
 gam= 3.032 g(H,U,f)=  0.243E-03 0.229E-03 0.119E-02 ort(H,U,f) =-0.146E-03 0.101E-03 0.309E-04
CGA: 108    -0.497360880392E+03   -0.22359E-03   -0.22820E-03  3904   0.167E-02-0.136E-04
 gam= 3.032 trial= 0.266  step= 0.107 mean= 0.266
 gam= 0.312 g(H,U,f)=  0.301E-03 0.185E-03 0.334E-04 ort(H,U,f) =-0.404E-03 0.585E-03-0.193E-03
CGA: 109    -0.497360966916E+03   -0.86524E-04   -0.87253E-04  3904   0.519E-03-0.117E-04
 gam= 0.312 trial= 0.258  step= 0.845 mean= 0.258
 gam= 0.946 g(H,U,f)=  0.288E-03 0.185E-03 0.187E-04 ort(H,U,f) =-0.146E-03 0.185E-03-0.476E-04
CGA: 110    -0.497361182281E+03   -0.21536E-03   -0.21798E-03  3904   0.491E-03-0.876E-05
 gam= 0.946 trial= 0.287  step= 0.644 mean= 0.287
 gam= 5.031 g(H,U,f)=  0.318E-03 0.292E-03 0.186E-02 ort(H,U,f) =-0.781E-04 0.335E-05 0.784E-04
CGA: 111    -0.497361338490E+03   -0.15621E-03   -0.15557E-03  3904   0.247E-02 0.365E-05
 gam= 5.031 trial= 0.305  step= 0.173 mean= 0.305
 gam= 0.258 g(H,U,f)=  0.376E-03 0.206E-03 0.549E-04 ort(H,U,f) =-0.586E-03 0.925E-03-0.331E-03
CGA: 112    -0.497361550471E+03   -0.21198E-03   -0.21580E-03  3904   0.637E-03 0.726E-05
 gam= 0.258 trial= 0.298  step= 1.020 mean= 0.298
 gam= 1.012 g(H,U,f)=  0.359E-03 0.235E-03 0.507E-04 ort(H,U,f) =-0.162E-03 0.215E-03-0.136E-05
CGA: 113    -0.497361894841E+03   -0.34437E-03   -0.32574E-03  3904   0.645E-03 0.516E-04
 gam= 1.012 trial= 0.335  step= 0.780 mean= 0.335
 gam= 0.713 g(H,U,f)=  0.296E-03 0.126E-03 0.376E-04 ort(H,U,f) =-0.218E-03 0.167E-03 0.746E-04
CGA: 114    -0.497362171695E+03   -0.27685E-03   -0.27160E-03  3904   0.460E-03 0.235E-04
 gam= 0.713 trial= 0.357  step= 0.767 mean= 0.357
 gam= 4.173 g(H,U,f)=  0.279E-03 0.277E-03 0.136E-02 ort(H,U,f) = 0.626E-04 0.369E-03-0.467E-03
CGA: 115    -0.497362347317E+03   -0.17562E-03   -0.18268E-03  3904   0.192E-02-0.352E-04
 gam= 4.173 trial= 0.377  step= 0.111 mean= 0.377
 gam= 0.140 g(H,U,f)=  0.183E-03 0.835E-04 0.187E-05 ort(H,U,f) =-0.246E-03 0.181E-03-0.194E-05
CGA: 116    -0.497362443372E+03   -0.96055E-04   -0.98549E-04  3904   0.269E-03-0.666E-04
 gam= 0.140 trial= 0.364  step= 0.376 mean= 0.364
 gam= 1.723 g(H,U,f)=  0.798E-04 0.862E-04 0.297E-03 ort(H,U,f) =-0.172E-05-0.381E-04 0.377E-04
CGA: 117    -0.497362492089E+03   -0.48717E-04   -0.48724E-04  3904   0.463E-03-0.215E-05
 gam= 1.723 trial= 0.365  step= 0.095 mean= 0.365
 gam= 0.177 g(H,U,f)=  0.421E-04 0.354E-04 0.417E-05 ort(H,U,f) =-0.879E-05 0.608E-04-0.434E-04
CGA: 118    -0.497362513961E+03   -0.21872E-04   -0.21730E-04  3904   0.817E-04 0.854E-05
 gam= 0.177 trial= 0.351  step= 0.516 mean= 0.351
 gam= 2.877 g(H,U,f)=  0.233E-04 0.374E-04 0.174E-03 ort(H,U,f) = 0.891E-06 0.364E-04-0.329E-04
CGA: 119    -0.497362535777E+03   -0.21816E-04   -0.21461E-04  3904   0.235E-03 0.441E-05
 gam= 2.877 trial= 0.359  step= 0.116 mean= 0.359
 gam= 0.321 g(H,U,f)=  0.350E-04 0.359E-04 0.467E-05 ort(H,U,f) =-0.590E-04 0.678E-04-0.997E-05
CGA: 120    -0.497362549815E+03   -0.14038E-04   -0.14374E-04  3904   0.756E-04-0.111E-05
 gam= 0.321 trial= 0.347  step= 0.963 mean= 0.347
 gam= 1.470 g(H,U,f)=  0.524E-04 0.330E-04 0.257E-04 ort(H,U,f) =-0.322E-04 0.392E-04 0.308E-06
CGA: 121    -0.497362588266E+03   -0.38452E-04   -0.36219E-04  3904   0.111E-03 0.735E-05
 gam= 1.470 trial= 0.378  step= 0.199 mean= 0.378
 gam= 1.989 g(H,U,f)=  0.681E-04 0.320E-04 0.121E-03 ort(H,U,f) =-0.173E-04 0.722E-04-0.520E-04
CGA: 122    -0.497362600365E+03   -0.12098E-04   -0.12136E-04  3904   0.221E-03 0.287E-05
 gam= 1.989 trial= 0.369  step= 0.631 mean= 0.369
 gam= 1.964 g(H,U,f)=  0.147E-03 0.741E-04 0.213E-03 ort(H,U,f) =-0.106E-03 0.114E-03-0.116E-04
CGA: 123    -0.497362671341E+03   -0.70977E-04   -0.71465E-04  3904   0.434E-03-0.412E-05
 gam= 1.964 trial= 0.382  step= 0.136 mean= 0.382
 gam= 0.789 g(H,U,f)=  0.151E-03 0.765E-04 0.115E-03 ort(H,U,f) =-0.149E-03 0.241E-03-0.144E-03
CGA: 124    -0.497362695799E+03   -0.24457E-04   -0.29015E-04  3904   0.342E-03-0.517E-04
 gam= 0.789 trial= 0.370  step= 0.592 mean= 0.370
 gam= 2.274 g(H,U,f)=  0.215E-03 0.147E-03 0.416E-03 ort(H,U,f) =-0.119E-03 0.137E-03-0.138E-03
CGA: 125    -0.497362770498E+03   -0.74699E-04   -0.89253E-04  3904   0.778E-03-0.120E-03
 gam= 2.274 trial= 0.381  step= 0.213 mean= 0.381
 gam= 0.673 g(H,U,f)=  0.305E-03 0.166E-03 0.519E-04 ort(H,U,f) =-0.282E-03 0.347E-03-0.660E-04
CGA: 126    -0.497362816405E+03   -0.45907E-04   -0.53620E-04  3904   0.524E-03-0.112E-05
 gam= 0.673 trial= 0.373  step= 0.652 mean= 0.373
 gam= 0.840 g(H,U,f)=  0.201E-03 0.201E-03 0.376E-04 ort(H,U,f) =-0.170E-03 0.337E-03-0.535E-04
CGA: 127    -0.497363017152E+03   -0.20075E-03   -0.17029E-03  3904   0.440E-03 0.114E-03
 gam= 0.840 trial= 0.386  step= 0.804 mean= 0.386
 gam= 0.000 g(H,U,f)=  0.115E-02 0.216E-02 0.926E-02 ort(H,U,f) =-0.909E-04 0.716E-03-0.192E-02
CGA: 128    -0.497362995901E+03    0.21251E-04   -0.21520E-03  3904   0.126E-01-0.130E-02
 gam= 0.000 trial= 0.407  step= 0.069 mean= 0.407
 gam= 0.049 g(H,U,f)=  0.292E-03 0.267E-03 0.578E-04 ort(H,U,f) = 0.132E-03 0.360E-03-0.561E-03
CGA: 129    -0.497363428527E+03   -0.43263E-03   -0.43322E-03  3904   0.617E-03-0.691E-04
 gam= 0.049 trial= 0.390  step= 0.866 mean= 0.390
 gam= 1.338 g(H,U,f)=  0.423E-03 0.357E-03 0.457E-04 ort(H,U,f) =-0.191E-03 0.180E-03 0.451E-05
CGA: 130    -0.497363692701E+03   -0.26417E-03   -0.26575E-03  3904   0.826E-03-0.676E-05
 gam= 1.338 trial= 0.414  step= 0.618 mean= 0.414
 gam= 4.079 g(H,U,f)=  0.357E-03 0.498E-03 0.251E-02 ort(H,U,f) =-0.566E-04 0.242E-03-0.157E-03
CGA: 131    -0.497363948342E+03   -0.25564E-03   -0.25211E-03  3904   0.337E-02 0.281E-04
 gam= 4.079 trial= 0.424  step= 0.125 mean= 0.424
 gam= 0.240 g(H,U,f)=  0.563E-03 0.239E-03 0.759E-05 ort(H,U,f) =-0.105E-02 0.165E-02-0.142E-03
CGA: 132    -0.497364200416E+03   -0.25207E-03   -0.21751E-03  3904   0.809E-03 0.465E-03
 gam= 0.240 trial= 0.409  step= 1.193 mean= 0.409
 gam= 7.765 g(H,U,f)=  0.121E-02 0.109E-02 0.398E-02 ort(H,U,f) =-0.133E-03 0.658E-03-0.753E-03
CGA: 133    -0.497364679542E+03   -0.47913E-03   -0.54916E-03  3904   0.628E-02-0.228E-03
 gam= 7.765 trial= 0.449  step= 0.104 mean= 0.449
 gam= 0.575 g(H,U,f)=  0.167E-02 0.981E-03 0.963E-03 ort(H,U,f) =-0.284E-02 0.426E-02-0.176E-02
CGA: 134    -0.497364877392E+03   -0.19785E-03   -0.23534E-03  3904   0.361E-02-0.346E-03
 gam= 0.575 trial= 0.431  step= 0.177 mean= 0.431
 gam= 2.091 g(H,U,f)=  0.223E-02 0.129E-02 0.404E-02 ort(H,U,f) =-0.213E-02 0.896E-03 0.295E-03
CGA: 135    -0.497365044665E+03   -0.16727E-03   -0.30123E-03  3904   0.755E-02-0.934E-03
 gam= 2.091 trial= 0.419  step= 0.070 mean= 0.419
 gam= 0.000 g(H,U,f)=  0.197E-02 0.928E-03 0.216E-02 ort(H,U,f) =-0.278E-02 0.387E-02 0.425E-02
CGA: 136    -0.497365433850E+03   -0.38919E-03   -0.19562E-03  3904   0.505E-02 0.534E-02
 gam= 0.000 trial= 0.401  step= 0.110 mean= 0.401
 gam= 0.685 g(H,U,f)=  0.112E-02 0.889E-03 0.146E-02 ort(H,U,f) = 0.114E-02 0.401E-03-0.156E-02
CGA: 137    -0.497365710790E+03   -0.27694E-03   -0.27870E-03  3904   0.346E-02-0.190E-04
 gam= 0.685 trial= 0.387  step= 0.452 mean= 0.387
 gam= 0.369 g(H,U,f)=  0.598E-03 0.626E-03 0.555E-04 ort(H,U,f) =-0.713E-03 0.594E-03 0.102E-03
CGA: 138    -0.497366490015E+03   -0.77923E-03   -0.77948E-03  3904   0.128E-02-0.170E-04
 gam= 0.369 trial= 0.390  step= 1.164 mean= 0.390
 gam= 2.080 g(H,U,f)=  0.120E-02 0.741E-03 0.725E-03 ort(H,U,f) =-0.413E-03 0.411E-03 0.357E-04
CGA: 139    -0.497367242798E+03   -0.75278E-03   -0.74138E-03  3904   0.266E-02 0.334E-04
 gam= 2.080 trial= 0.429  step= 0.231 mean= 0.429
 gam= 2.163 g(H,U,f)=  0.169E-02 0.127E-02 0.279E-02 ort(H,U,f) = 0.876E-04 0.161E-02-0.166E-02
CGA: 140    -0.497367565528E+03   -0.32273E-03   -0.31581E-03  3904   0.576E-02 0.411E-04
 gam= 2.163 trial= 0.419  step= 0.364 mean= 0.419
 gam= 0.892 g(H,U,f)=  0.175E-02 0.178E-02 0.161E-02 ort(H,U,f) =-0.134E-02 0.304E-02-0.155E-02
CGA: 141    -0.497368623271E+03   -0.10577E-02   -0.10653E-02  3904   0.514E-02 0.139E-03
 gam= 0.892 trial= 0.416  step= 0.197 mean= 0.416
 gam= 1.677 g(H,U,f)=  0.190E-02 0.162E-02 0.509E-02 ort(H,U,f) =-0.178E-02 0.196E-02-0.741E-03
CGA: 142    -0.497369030465E+03   -0.40719E-03   -0.51691E-03  3904   0.861E-02-0.562E-03
 gam= 1.677 trial= 0.405  step= 0.385 mean= 0.405
 gam= 2.292 g(H,U,f)=  0.327E-02 0.549E-02 0.110E-01 ort(H,U,f) =-0.202E-02 0.105E-01-0.125E-01
CGA: 143    -0.497370599726E+03   -0.15693E-02   -0.14752E-02  3904   0.197E-01-0.401E-02
 gam= 2.292 trial= 0.404  step= 0.027 mean= 0.404
 gam= 1.144 g(H,U,f)=  0.386E-02 0.621E-02 0.125E-01 ort(H,U,f) =-0.213E-02 0.305E-01-0.211E-01
CGA: 144    -0.497370842423E+03   -0.24270E-03   -0.14450E-03  3904   0.226E-01 0.723E-02
 gam= 1.144 trial= 0.385  step= 0.129 mean= 0.385
 gam= 0.000 g(H,U,f)=  0.520E-02 0.628E-02 0.428E-02 ort(H,U,f) =-0.797E-02 0.389E-01-0.160E-01
CGA: 145    -0.497373549957E+03   -0.27075E-02   -0.19868E-02  3904   0.158E-01 0.150E-01
 gam= 0.000 trial= 0.372  step= 0.165 mean= 0.372
 gam= 1.074 g(H,U,f)=  0.480E-02 0.312E-02 0.901E-02 ort(H,U,f) = 0.326E-02 0.252E-02-0.563E-02
CGA: 146    -0.497374876158E+03   -0.13262E-02   -0.13004E-02  3904   0.169E-01 0.143E-03
 gam= 1.074 trial= 0.362  step= 0.368 mean= 0.362
 gam= 0.551 g(H,U,f)=  0.487E-02 0.424E-02 0.215E-03 ort(H,U,f) =-0.437E-02 0.376E-02 0.452E-03
CGA: 147    -0.497378019847E+03   -0.31437E-02   -0.31445E-02  3904   0.933E-02-0.162E-03
 gam= 0.551 trial= 0.362  step= 0.883 mean= 0.362
 gam= 1.121 g(H,U,f)=  0.660E-02 0.310E-02 0.754E-03 ort(H,U,f) =-0.280E-02 0.241E-02 0.379E-03
CGA: 148    -0.497382097456E+03   -0.40776E-02   -0.40794E-02  3904   0.105E-01-0.110E-04
 gam= 1.121 trial= 0.388  step= 0.758 mean= 0.388
 gam= 6.071 g(H,U,f)=  0.114E-01 0.108E-01 0.412E-01 ort(H,U,f) = 0.623E-03 0.788E-02-0.120E-01
CGA: 149    -0.497385434822E+03   -0.33374E-02   -0.39603E-02  3904   0.635E-01-0.345E-02
 gam= 6.071 trial= 0.407  step= 0.084 mean= 0.407
 gam= 0.715 g(H,U,f)=  0.104E-01 0.113E-01 0.237E-01 ort(H,U,f) =-0.658E-02 0.453E-01-0.361E-01
CGA: 150    -0.497387254071E+03   -0.18192E-02   -0.17847E-02  3904   0.454E-01 0.258E-02
 gam= 0.715 trial= 0.391  step= 0.127 mean= 0.391
 gam= 1.166 g(H,U,f)=  0.132E-01 0.109E-01 0.288E-01 ort(H,U,f) =-0.280E-01 0.473E-02 0.864E-03
CGA: 151    -0.497388267339E+03   -0.10133E-02   -0.30106E-02  3904   0.529E-01-0.224E-01
 gam= 1.166 trial= 0.378  step= 0.134 mean= 0.378
 gam= 0.532 g(H,U,f)=  0.130E-01 0.115E-01 0.362E-02 ort(H,U,f) =-0.209E-01 0.350E-01 0.674E-02
CGA: 152    -0.497391847107E+03   -0.35798E-02   -0.17970E-02  3904   0.282E-01 0.208E-01
 gam= 0.532 trial= 0.365  step= 0.142 mean= 0.365
 gam= 2.412 g(H,U,f)=  0.118E-01 0.195E-01 0.367E-01 ort(H,U,f) = 0.452E-02 0.462E-01-0.456E-01
CGA: 153    -0.497395222600E+03   -0.33755E-02   -0.27929E-02  3904   0.679E-01 0.520E-02
 gam= 2.412 trial= 0.354  step= 0.096 mean= 0.354
 gam= 2.840 g(H,U,f)=  0.228E-01 0.391E-01 0.131E+00 ort(H,U,f) = 0.195E-01 0.167E+00-0.184E+00
CGA: 154    -0.497399566584E+03   -0.43440E-02   -0.38503E-02  3904   0.193E+00 0.259E-02
 gam= 2.840 trial= 0.341  step= 0.070 mean= 0.341
 gam= 0.000 g(H,U,f)=  0.893E-01 0.106E+00 0.318E+00 ort(H,U,f) = 0.596E-01 0.713E+00-0.905E+00
CGA: 155    -0.497400970402E+03   -0.14038E-02   -0.70307E-02  3904   0.514E+00-0.133E+00
 gam= 0.000 trial= 0.328  step= 0.064 mean= 0.328
 gam= 0.139 g(H,U,f)=  0.261E-01 0.331E-01 0.124E-01 ort(H,U,f) = 0.358E-01 0.512E-01 0.647E-01
CGA: 156    -0.497423154707E+03   -0.22184E-01   -0.16557E-01  3904   0.716E-01 0.152E+00
 gam= 0.139 trial= 0.315  step= 0.104 mean= 0.315
 gam= 1.024 g(H,U,f)=  0.203E-01 0.197E-01 0.334E-01 ort(H,U,f) = 0.161E-01 0.219E-01-0.330E-01
CGA: 157    -0.497428309261E+03   -0.51546E-02   -0.48027E-02  3904   0.733E-01 0.498E-02
 gam= 1.024 trial= 0.304  step= 0.208 mean= 0.304
 gam= 1.643 g(H,U,f)=  0.226E-01 0.216E-01 0.763E-01 ort(H,U,f) =-0.720E-02 0.105E-01-0.329E-02
CGA: 158    -0.497436445517E+03   -0.81363E-02   -0.81510E-02  3904   0.121E+00 0.440E-05
 gam= 1.643 trial= 0.299  step= 0.086 mean= 0.299
 gam= 0.547 g(H,U,f)=  0.319E-01 0.326E-01 0.148E-02 ort(H,U,f) =-0.417E-01 0.253E-01 0.797E-02
CGA: 159    -0.497441198595E+03   -0.47531E-02   -0.52124E-02  3904   0.659E-01-0.844E-02
 gam= 0.547 trial= 0.289  step= 0.200 mean= 0.289
 gam= 2.428 g(H,U,f)=  0.493E-01 0.473E-01 0.636E-01 ort(H,U,f) =-0.126E-01 0.486E-01-0.356E-01
CGA: 160    -0.497447081779E+03   -0.58832E-02   -0.61331E-02  3904   0.160E+00 0.425E-03
 gam= 2.428 trial= 0.284  step= 0.216 mean= 0.284
 gam= 1.014 g(H,U,f)=  0.766E-01 0.395E-01 0.462E-01 ort(H,U,f) =-0.619E-01 0.969E-01-0.348E-01
CGA: 161    -0.497464473893E+03   -0.17392E-01   -0.17373E-01  3904   0.162E+00 0.200E-03
 gam= 1.014 trial= 0.281  step= 0.149 mean= 0.281
 gam= 0.686 g(H,U,f)=  0.588E-01 0.347E-01 0.179E-01 ort(H,U,f) =-0.350E-01 0.274E-01-0.820E-03
CGA: 162    -0.497474908862E+03   -0.10435E-01   -0.12118E-01  3904   0.111E+00-0.843E-02
 gam= 0.686 trial= 0.274  step= 0.456 mean= 0.274
 gam= 1.281 g(H,U,f)=  0.354E-01 0.485E-01 0.587E-01 ort(H,U,f) =-0.462E-01-0.234E-01 0.320E-01
CGA: 163    -0.497495808074E+03   -0.20899E-01   -0.24064E-01  3904   0.143E+00-0.377E-01
 gam= 1.281 trial= 0.283  step= 0.084 mean= 0.283
 gam= 0.837 g(H,U,f)=  0.406E-01 0.549E-01 0.239E-01 ort(H,U,f) =-0.399E-01 0.291E-02 0.244E-01
CGA: 164    -0.497499049157E+03   -0.32411E-02   -0.39605E-02  3904   0.119E+00-0.125E-01
 gam= 0.837 trial= 0.273  step= 0.175 mean= 0.273
 gam= 1.014 g(H,U,f)=  0.455E-01 0.694E-01 0.614E-02 ort(H,U,f) =-0.170E-01 0.291E-01-0.673E-02
CGA: 165    -0.497506741347E+03   -0.76922E-02   -0.95500E-02  3904   0.121E+00 0.535E-02
 gam= 1.014 trial= 0.268  step= 0.423 mean= 0.268
 gam= 1.209 g(H,U,f)=  0.646E-01 0.772E-01 0.438E-02 ort(H,U,f) =-0.453E-01 0.459E-01-0.211E-02
CGA: 166    -0.497533332670E+03   -0.26591E-01   -0.26729E-01  3904   0.146E+00-0.154E-02
 gam= 1.209 trial= 0.276  step= 0.408 mean= 0.276
 gam= 1.169 g(H,U,f)=  0.113E+00 0.566E-01 0.124E-02 ort(H,U,f) =-0.664E-01 0.642E-01 0.612E-03
CGA: 167    -0.497562623620E+03   -0.29291E-01   -0.29438E-01  3904   0.171E+00-0.156E-02
 gam= 1.169 trial= 0.283  step= 0.429 mean= 0.283
 gam= 1.127 g(H,U,f)=  0.128E+00 0.635E-01 0.168E-02 ort(H,U,f) =-0.387E-01 0.370E-01 0.369E-03
CGA: 168    -0.497598777769E+03   -0.36154E-01   -0.36305E-01  3904   0.193E+00-0.128E-02
 gam= 1.127 trial= 0.290  step= 0.334 mean= 0.290
 gam= 0.644 g(H,U,f)=  0.732E-01 0.481E-01 0.273E-02 ort(H,U,f) =-0.282E-01 0.262E-01 0.826E-03
CGA: 169    -0.497630673335E+03   -0.31896E-01   -0.31943E-01  3904   0.124E+00-0.118E-02
 gam= 0.644 trial= 0.292  step= 0.313 mean= 0.292
 gam= 0.754 g(H,U,f)=  0.565E-01 0.343E-01 0.275E-02 ort(H,U,f) =-0.188E-01 0.175E-01 0.131E-02
CGA: 170    -0.497649957980E+03   -0.19285E-01   -0.19285E-01  3904   0.936E-01 0.220E-04
 gam= 0.754 trial= 0.293  step= 0.392 mean= 0.293
 gam= 1.023 g(H,U,f)=  0.567E-01 0.369E-01 0.205E-02 ort(H,U,f) =-0.119E-01 0.111E-01 0.160E-02
CGA: 171    -0.497668334170E+03   -0.18376E-01   -0.18323E-01  3904   0.957E-01 0.832E-03
 gam= 1.023 trial= 0.298  step= 0.363 mean= 0.298
 gam= 0.776 g(H,U,f)=  0.485E-01 0.250E-01 0.773E-03 ort(H,U,f) =-0.113E-01 0.113E-01 0.153E-02
CGA: 172    -0.497685927931E+03   -0.17594E-01   -0.17524E-01  3904   0.742E-01 0.149E-02
 gam= 0.776 trial= 0.301  step= 0.372 mean= 0.301
 gam= 0.815 g(H,U,f)=  0.399E-01 0.201E-01 0.538E-03 ort(H,U,f) =-0.363E-02 0.433E-02-0.484E-04
CGA: 173    -0.497699986047E+03   -0.14058E-01   -0.14026E-01  3904   0.605E-01 0.651E-03
 gam= 0.815 trial= 0.305  step= 0.363 mean= 0.305
 gam= 0.655 g(H,U,f)=  0.240E-01 0.149E-01 0.752E-03 ort(H,U,f) =-0.508E-02 0.582E-02-0.434E-03
CGA: 174    -0.497711082836E+03   -0.11097E-01   -0.11083E-01  3904   0.396E-01 0.312E-03
 gam= 0.655 trial= 0.308  step= 0.326 mean= 0.308
 gam= 0.591 g(H,U,f)=  0.163E-01 0.686E-02 0.222E-03 ort(H,U,f) =-0.550E-02 0.547E-02 0.115E-03
CGA: 175    -0.497717581760E+03   -0.64989E-02   -0.64972E-02  3904   0.234E-01 0.927E-04
 gam= 0.591 trial= 0.309  step= 0.374 mean= 0.309
 gam= 0.695 g(H,U,f)=  0.115E-01 0.472E-02 0.107E-03 ort(H,U,f) =-0.213E-02 0.214E-02 0.520E-04
CGA: 176    -0.497721979980E+03   -0.43982E-02   -0.43945E-02  3904   0.163E-01 0.616E-04
 gam= 0.695 trial= 0.312  step= 0.351 mean= 0.312
 gam= 0.603 g(H,U,f)=  0.669E-02 0.305E-02 0.773E-04 ort(H,U,f) =-0.204E-02 0.188E-02 0.138E-03
CGA: 177    -0.497724845770E+03   -0.28658E-02   -0.28663E-02  3904   0.982E-02-0.261E-04
 gam= 0.603 trial= 0.314  step= 0.374 mean= 0.314
 gam= 0.735 g(H,U,f)=  0.509E-02 0.209E-02 0.396E-04 ort(H,U,f) =-0.149E-02 0.134E-02 0.945E-04
CGA: 178    -0.497726676057E+03   -0.18303E-02   -0.18323E-02  3904   0.722E-02-0.497E-04
 gam= 0.735 trial= 0.317  step= 0.358 mean= 0.317
 gam= 0.620 g(H,U,f)=  0.329E-02 0.115E-02 0.287E-04 ort(H,U,f) =-0.552E-03 0.521E-03 0.137E-04
CGA: 179    -0.497727960109E+03   -0.12841E-02   -0.12845E-02  3904   0.447E-02-0.176E-04
 gam= 0.620 trial= 0.319  step= 0.331 mean= 0.319
 gam= 0.614 g(H,U,f)=  0.183E-02 0.906E-03 0.750E-05 ort(H,U,f) =-0.275E-04 0.251E-04 0.447E-05
CGA: 180    -0.497728698878E+03   -0.73877E-03   -0.73871E-03  3904   0.275E-02 0.203E-05
 gam= 0.614 trial= 0.320  step= 0.387 mean= 0.320
 gam= 0.771 g(H,U,f)=  0.134E-02 0.771E-03 0.931E-05 ort(H,U,f) =-0.231E-03 0.239E-03-0.777E-05
CGA: 181    -0.497729229842E+03   -0.53096E-03   -0.53091E-03  3904   0.212E-02 0.153E-06
 gam= 0.771 trial= 0.323  step= 0.371 mean= 0.323
 gam= 0.697 g(H,U,f)=  0.988E-03 0.474E-03 0.123E-04 ort(H,U,f) =-0.280E-03 0.306E-03-0.283E-04
CGA: 182    -0.497729622606E+03   -0.39276E-03   -0.39284E-03  3904   0.147E-02-0.187E-05
 gam= 0.697 trial= 0.325  step= 0.388 mean= 0.325
 gam= 0.826 g(H,U,f)=  0.790E-03 0.397E-03 0.300E-04 ort(H,U,f) =-0.188E-03 0.215E-03-0.241E-04
CGA: 183    -0.497729908376E+03   -0.28577E-03   -0.28573E-03  3904   0.122E-02 0.221E-05
 gam= 0.826 trial= 0.329  step= 0.393 mean= 0.329
 gam= 0.763 g(H,U,f)=  0.608E-03 0.299E-03 0.229E-04 ort(H,U,f) =-0.216E-03 0.216E-03 0.599E-05
CGA: 184    -0.497730148135E+03   -0.23976E-03   -0.23956E-03  3904   0.929E-03 0.615E-05
 gam= 0.763 trial= 0.332  step= 0.360 mean= 0.332
 gam= 0.725 g(H,U,f)=  0.438E-03 0.229E-03 0.646E-05 ort(H,U,f) =-0.198E-03 0.192E-03 0.114E-04
CGA: 185    -0.497730316496E+03   -0.16836E-03   -0.16828E-03  3904   0.673E-03 0.520E-05
 gam= 0.725 trial= 0.333  step= 0.419 mean= 0.333
 gam= 0.000 g(H,U,f)=  0.409E-03 0.210E-03 0.294E-05 ort(H,U,f) =-0.165E-03 0.164E-03 0.375E-05
SDA: 186    -0.497730458447E+03   -0.14195E-03   -0.14185E-03  3904   0.622E-03 0.215E-05
 gam= 0.000 trial= 0.337  step= 0.469 mean= 0.337
 gam= 0.419 g(H,U,f)=  0.126E-03 0.129E-03 0.471E-05 ort(H,U,f) =-0.525E-04 0.493E-04 0.297E-06
CGA: 187    -0.497730603999E+03   -0.14555E-03   -0.14574E-03  3904   0.260E-03-0.289E-05
 gam= 0.419 trial= 0.344  step= 1.242 mean= 0.344
 gam= 0.953 g(H,U,f)=  0.164E-03 0.837E-04 0.944E-06 ort(H,U,f) =-0.735E-04 0.743E-04-0.175E-06
CGA: 188    -0.497730765266E+03   -0.16127E-03   -0.16100E-03  3904   0.248E-03 0.664E-06
 gam= 0.953 trial= 0.389  step= 0.872 mean= 0.389
 gam= 0.670 g(H,U,f)=  0.962E-04 0.697E-04 0.507E-06 ort(H,U,f) =-0.572E-04 0.615E-04-0.907E-06
CGA: 189    -0.497730874550E+03   -0.10928E-03   -0.10846E-03  3904   0.166E-03 0.342E-05
 gam= 0.670 trial= 0.413  step= 1.064 mean= 0.413
 gam= 1.183 g(H,U,f)=  0.121E-03 0.742E-04 0.166E-05 ort(H,U,f) =-0.639E-04 0.598E-04-0.145E-05
CGA: 190    -0.497730962445E+03   -0.87895E-04   -0.89718E-04  3904   0.197E-03-0.560E-05
 gam= 1.183 trial= 0.446  step= 1.073 mean= 0.446
 gam= 1.334 g(H,U,f)=  0.173E-03 0.875E-04 0.213E-05 ort(H,U,f) =-0.852E-04 0.838E-04-0.740E-06
CGA: 191    -0.497731063856E+03   -0.10141E-03   -0.10207E-03  3904   0.263E-03-0.212E-05
 gam= 1.334 trial= 0.477  step= 1.325 mean= 0.477
 gam= 1.065 g(H,U,f)=  0.202E-03 0.765E-04 0.172E-05 ort(H,U,f) =-0.776E-04 0.819E-04-0.289E-06
CGA: 192    -0.497731237831E+03   -0.17397E-03   -0.17219E-03  3904   0.280E-03 0.406E-05
 gam= 1.065 trial= 0.519  step= 0.952 mean= 0.519
 gam= 0.625 g(H,U,f)=  0.135E-03 0.394E-04 0.790E-06 ort(H,U,f) =-0.492E-04 0.462E-04 0.125E-06
CGA: 193    -0.497731372577E+03   -0.13475E-03   -0.13530E-03  3904   0.175E-03-0.281E-05
 gam= 0.625 trial= 0.541  step= 0.711 mean= 0.541
 gam= 0.483 g(H,U,f)=  0.642E-04 0.199E-04 0.440E-06 ort(H,U,f) =-0.165E-04 0.164E-04-0.639E-06
CGA: 194    -0.497731434050E+03   -0.61473E-04   -0.61541E-04  3904   0.845E-04-0.769E-06
 gam= 0.483 trial= 0.549  step= 0.677 mean= 0.549
 gam= 0.365 g(H,U,f)=  0.216E-04 0.906E-05 0.850E-07 ort(H,U,f) =-0.272E-05 0.330E-05-0.121E-06
CGA: 195    -0.497731462566E+03   -0.28516E-04   -0.28479E-04  3904   0.308E-04 0.459E-06
 gam= 0.365 trial= 0.556  step= 0.755 mean= 0.556
 gam= 0.542 g(H,U,f)=  0.119E-04 0.469E-05 0.632E-07 ort(H,U,f) =-0.250E-05 0.263E-05-0.130E-07
CGA: 196    -0.497731474273E+03   -0.11708E-04   -0.11694E-04  3904   0.167E-04 0.117E-06
 gam= 0.542 trial= 0.566  step= 0.780 mean= 0.566
 gam= 0.702 g(H,U,f)=  0.816E-05 0.351E-05 0.340E-07 ort(H,U,f) =-0.262E-05 0.290E-05 0.744E-08
CGA: 197    -0.497731480836E+03   -0.65629E-05   -0.65328E-05  3904   0.117E-04 0.291E-06
 gam= 0.702 trial= 0.577  step= 0.892 mean= 0.577
 gam= 0.645 g(H,U,f)=  0.482E-05 0.272E-05 0.126E-07 ort(H,U,f) =-0.273E-05 0.303E-05-0.445E-08
CGA: 198    -0.497731486192E+03   -0.53554E-05   -0.53135E-05  3904   0.755E-05 0.287E-06
 gam= 0.645 trial= 0.592  step= 0.994 mean= 0.592
 gam= 0.875 g(H,U,f)=  0.390E-05 0.263E-05 0.786E-07 ort(H,U,f) =-0.233E-05 0.260E-05-0.219E-07
CGA: 199    -0.497731490073E+03   -0.38812E-05   -0.38452E-05  3904   0.661E-05 0.243E-06
 gam= 0.875 trial= 0.612  step= 0.849 mean= 0.612
 gam= 1.002 g(H,U,f)=  0.453E-05 0.206E-05 0.326E-07 ort(H,U,f) =-0.215E-05 0.264E-05-0.448E-07
CGA: 200    -0.497731493021E+03   -0.29482E-05   -0.28953E-05  3904   0.662E-05 0.445E-06
 gam= 1.002 trial= 0.624  step= 0.892 mean= 0.624
 final diagonalization
   1 F= -.49773149E+03 E0= -.49772534E+03  d E =-.497731E+03  mag=    94.0000
quench:  g(F)=  0.000E+00 g(S)=  0.000E+00 dE (1.order)= 0.000E+00
 bond charge predicted
       N       E                     dE             d eps       ncg     rms          ort
 gam= 0.000 g(H,U,f)=  0.371E-03 0.314E-04 0.127E-06 ort(H,U,f) = 0.000E+00 0.000E+00 0.000E+00
SDA:   1    -0.497731269579E+03    0.22049E-03    0.00000E+00  3904   0.403E-03 0.000E+00
 gam= 0.000 trial= 0.638  step= 0.519 mean= 0.638
 gam= 0.442 g(H,U,f)=  0.166E-03 0.121E-04 0.117E-06 ort(H,U,f) =-0.619E-05 0.791E-05-0.998E-07
CGA:   2    -0.497731374018E+03   -0.10444E-03   -0.10455E-03  3904   0.178E-03 0.162E-05
 gam= 0.442 trial= 0.632  step= 0.410 mean= 0.632
 gam= 0.235 g(H,U,f)=  0.357E-04 0.607E-05 0.178E-07 ort(H,U,f) =-0.114E-04 0.107E-04 0.257E-07
CGA:   3    -0.497731410772E+03   -0.36754E-04   -0.36679E-04  3904   0.418E-04-0.652E-06
 gam= 0.235 trial= 0.621  step= 0.465 mean= 0.621
 gam= 0.305 g(H,U,f)=  0.991E-05 0.282E-05 0.315E-08 ort(H,U,f) =-0.505E-05 0.510E-05-0.267E-08
CGA:   4    -0.497731420457E+03   -0.96845E-05   -0.96890E-05  3904   0.127E-04 0.502E-07
 gam= 0.305 trial= 0.613  step= 0.542 mean= 0.613
 gam= 0.427 g(H,U,f)=  0.404E-05 0.140E-05 0.106E-08 ort(H,U,f) =-0.288E-05 0.291E-05 0.174E-08
CGA:   5    -0.497731423909E+03   -0.34524E-05   -0.34541E-05  3904   0.544E-05 0.358E-07
 gam= 0.427 trial= 0.609  step= 0.644 mean= 0.609
 gam= 0.568 g(H,U,f)=  0.231E-05 0.781E-06 0.135E-08 ort(H,U,f) =-0.144E-05 0.160E-05 0.131E-08
CGA:   6    -0.497731425668E+03   -0.17592E-05   -0.17564E-05  3904   0.309E-05 0.165E-06
 gam= 0.568 trial= 0.611  step= 0.878 mean= 0.611
 gam= 0.886 g(H,U,f)=  0.208E-05 0.657E-06 0.155E-08 ort(H,U,f) =-0.113E-05 0.850E-06-0.187E-08
CGA:   7    -0.497731427030E+03   -0.13617E-05   -0.13987E-05  3904   0.274E-05-0.282E-06
 gam= 0.886 trial= 0.624  step= 0.876 mean= 0.624
 gam= 0.928 g(H,U,f)=  0.168E-05 0.864E-06 0.721E-09 ort(H,U,f) =-0.949E-06 0.851E-06-0.711E-09
CGA:   8    -0.497731428109E+03   -0.10788E-05   -0.10916E-05  3904   0.254E-05-0.989E-07
 gam= 0.928 trial= 0.637  step= 1.135 mean= 0.637
 gam= 1.336 g(H,U,f)=  0.236E-05 0.104E-05 0.875E-09 ort(H,U,f) =-0.116E-05 0.128E-05-0.591E-09
CGA:   9    -0.497731429531E+03   -0.14223E-05   -0.13917E-05  3904   0.340E-05 0.124E-06
 gam= 1.336 trial= 0.662  step= 1.494 mean= 0.662
 gam= 1.881 g(H,U,f)=  0.538E-05 0.101E-05 0.263E-08 ort(H,U,f) =-0.209E-05 0.190E-05-0.480E-09
CGA:  10    -0.497731432119E+03   -0.25880E-05   -0.26636E-05  3904   0.640E-05-0.190E-06
 gam= 1.881 trial= 0.703  step= 1.038 mean= 0.703
 gam= 0.990 g(H,U,f)=  0.526E-05 0.106E-05 0.412E-08 ort(H,U,f) =-0.211E-05 0.210E-05-0.148E-08
CGA:  11    -0.497731435251E+03   -0.31317E-05   -0.31330E-05  3904   0.633E-05-0.828E-08
 gam= 0.990 trial= 0.720  step= 0.757 mean= 0.720
 gam= 0.661 g(H,U,f)=  0.326E-05 0.919E-06 0.332E-08 ort(H,U,f) =-0.113E-05 0.114E-05-0.172E-08
CGA:  12    -0.497731437643E+03   -0.23917E-05   -0.23923E-05  3904   0.418E-05 0.628E-09
 gam= 0.661 trial= 0.722  step= 0.710 mean= 0.722
 gam= 0.565 g(H,U,f)=  0.176E-05 0.599E-06 0.264E-08 ort(H,U,f) =-0.620E-06 0.663E-06-0.206E-08
CGA:  13    -0.497731439128E+03   -0.14859E-05   -0.14858E-05  3904   0.236E-05 0.417E-07
 gam= 0.565 trial= 0.721  step= 0.696 mean= 0.721
 gam= 0.543 g(H,U,f)=  0.968E-06 0.314E-06 0.142E-08 ort(H,U,f) =-0.376E-06 0.441E-06-0.109E-08
CGA:  14    -0.497731439958E+03   -0.82994E-06   -0.83066E-06  3904   0.128E-05 0.631E-07
 gam= 0.543 trial= 0.720  step= 0.809 mean= 0.720
 final diagonalization
   2 F= -.49773144E+03 E0= -.49772529E+03  d E =0.530625E-04  mag=    94.0000
quench:  g(F)=  0.000E+00 g(S)=  0.000E+00 dE (1.order)= 0.000E+00
 bond charge predicted
       N       E                     dE             d eps       ncg     rms          ort
 gam= 0.000 g(H,U,f)=  0.113E-02 0.499E-04 0.124E-06 ort(H,U,f) = 0.000E+00 0.000E+00 0.000E+00
SDA:   1    -0.497730838544E+03    0.60058E-03    0.00000E+00  3904   0.118E-02 0.000E+00
 gam= 0.000 trial= 0.725  step= 0.572 mean= 0.725
 gam= 0.389 g(H,U,f)=  0.439E-03 0.190E-04 0.155E-06 ort(H,U,f) =-0.128E-04 0.139E-04-0.136E-06
CGA:   2    -0.497731175485E+03   -0.33694E-03   -0.33701E-03  3904   0.459E-03 0.937E-06
 gam= 0.389 trial= 0.717  step= 0.391 mean= 0.717
 gam= 0.209 g(H,U,f)=  0.867E-04 0.921E-05 0.117E-07 ort(H,U,f) =-0.174E-04 0.171E-04 0.242E-07
CGA:   3    -0.497731265364E+03   -0.89878E-04   -0.89833E-04  3904   0.960E-04-0.280E-06
 gam= 0.209 trial= 0.701  step= 0.458 mean= 0.701
 gam= 0.277 g(H,U,f)=  0.224E-04 0.425E-05 0.302E-08 ort(H,U,f) =-0.797E-05 0.772E-05-0.700E-08
CGA:   4    -0.497731287360E+03   -0.21996E-04   -0.21965E-04  3904   0.266E-04-0.261E-06
 gam= 0.277 trial= 0.689  step= 0.501 mean= 0.689
 gam= 0.311 g(H,U,f)=  0.641E-05 0.187E-05 0.317E-09 ort(H,U,f) =-0.405E-05 0.422E-05-0.785E-10
CGA:   5    -0.497731293991E+03   -0.66311E-05   -0.66471E-05  3904   0.828E-05 0.169E-06
 gam= 0.311 trial= 0.679  step= 0.585 mean= 0.679
 gam= 0.394 g(H,U,f)=  0.257E-05 0.692E-06 0.883E-09 ort(H,U,f) =-0.165E-05 0.182E-05 0.452E-09
CGA:   6    -0.497731296419E+03   -0.24280E-05   -0.24359E-05  3904   0.326E-05 0.166E-06
 gam= 0.394 trial= 0.674  step= 0.665 mean= 0.674
 gam= 0.422 g(H,U,f)=  0.122E-05 0.161E-06 0.335E-09 ort(H,U,f) =-0.738E-06 0.573E-06-0.564E-09
CGA:   7    -0.497731297526E+03   -0.11073E-05   -0.11065E-05  3904   0.138E-05-0.166E-06
 gam= 0.422 trial= 0.674  step= 0.612 mean= 0.674
 gam= 0.324 g(H,U,f)=  0.390E-06 0.563E-07 0.128E-09 ort(H,U,f) =-0.140E-06 0.130E-06-0.223E-10
CGA:   8    -0.497731297927E+03   -0.40082E-06   -0.40045E-06  3904   0.446E-06-0.103E-07
 gam= 0.324 trial= 0.671  step= 0.607 mean= 0.671
 final diagonalization
   3 F= -.49773130E+03 E0= -.49772515E+03  d E =0.142031E-03  mag=    94.0000
quench:  g(F)=  0.000E+00 g(S)=  0.000E+00 dE (1.order)= 0.000E+00
 bond charge predicted
       N       E                     dE             d eps       ncg     rms          ort
 gam= 0.000 g(H,U,f)=  0.237E-02 0.119E-03 0.205E-06 ort(H,U,f) = 0.000E+00 0.000E+00 0.000E+00
SDA:   1    -0.497730133628E+03    0.11639E-02    0.00000E+00  3904   0.249E-02 0.000E+00
 gam= 0.000 trial= 0.668  step= 0.554 mean= 0.668
 gam= 0.425 g(H,U,f)=  0.102E-02 0.426E-04 0.209E-06 ort(H,U,f) =-0.456E-04 0.470E-04-0.202E-06
CGA:   2    -0.497730823044E+03   -0.68942E-03   -0.68948E-03  3904   0.106E-02 0.112E-05
 gam= 0.425 trial= 0.662  step= 0.389 mean= 0.662
 gam= 0.208 g(H,U,f)=  0.197E-03 0.235E-04 0.321E-07 ort(H,U,f) =-0.460E-04 0.459E-04 0.437E-07
CGA:   3    -0.497731029325E+03   -0.20628E-03   -0.20627E-03  3904   0.220E-03-0.683E-07
 gam= 0.208 trial= 0.648  step= 0.460 mean= 0.648
 gam= 0.288 g(H,U,f)=  0.526E-04 0.108E-04 0.599E-08 ort(H,U,f) =-0.211E-04 0.206E-04-0.133E-07
CGA:   4    -0.497731080032E+03   -0.50707E-04   -0.50658E-04  3904   0.634E-04-0.521E-06
 gam= 0.288 trial= 0.639  step= 0.497 mean= 0.639
 gam= 0.326 g(H,U,f)=  0.162E-04 0.450E-05 0.344E-09 ort(H,U,f) =-0.105E-04 0.107E-04 0.155E-09
CGA:   5    -0.497731095710E+03   -0.15679E-04   -0.15696E-04  3904   0.207E-04 0.245E-06
 gam= 0.326 trial= 0.632  step= 0.561 mean= 0.632
 gam= 0.390 g(H,U,f)=  0.651E-05 0.155E-05 0.162E-08 ort(H,U,f) =-0.424E-05 0.450E-05 0.608E-09
CGA:   6    -0.497731101521E+03   -0.58109E-05   -0.58202E-05  3904   0.806E-05 0.256E-06
 gam= 0.390 trial= 0.628  step= 0.630 mean= 0.628
 gam= 0.378 g(H,U,f)=  0.274E-05 0.307E-06 0.380E-09 ort(H,U,f) =-0.151E-05 0.133E-05-0.555E-09
CGA:   7    -0.497731104092E+03   -0.25709E-05   -0.25704E-05  3904   0.305E-05-0.181E-06
 gam= 0.378 trial= 0.628  step= 0.599 mean= 0.628
 gam= 0.299 g(H,U,f)=  0.842E-06 0.687E-07 0.362E-10 ort(H,U,f) =-0.303E-06 0.242E-06 0.160E-10
CGA:   8    -0.497731104986E+03   -0.89397E-06   -0.89296E-06  3904   0.911E-06-0.609E-07
 gam= 0.299 trial= 0.627  step= 0.569 mean= 0.627
 final diagonalization
   4 F= -.49773110E+03 E0= -.49772495E+03  d E =0.192941E-03  mag=    94.0000
quench:  g(F)=  0.000E+00 g(S)=  0.000E+00 dE (1.order)= 0.000E+00
 bond charge predicted
       N       E                     dE             d eps       ncg     rms          ort
 gam= 0.000 g(H,U,f)=  0.382E-02 0.232E-03 0.295E-06 ort(H,U,f) = 0.000E+00 0.000E+00 0.000E+00
SDA:   1    -0.497729300423E+03    0.18037E-02    0.00000E+00  3904   0.405E-02 0.000E+00
 gam= 0.000 trial= 0.624  step= 0.536 mean= 0.624
 gam= 0.455 g(H,U,f)=  0.176E-02 0.824E-04 0.248E-06 ort(H,U,f) =-0.106E-03 0.108E-03-0.261E-06
CGA:   2    -0.497730385971E+03   -0.10855E-02   -0.10856E-02  3904   0.184E-02 0.138E-05
 gam= 0.455 trial= 0.620  step= 0.393 mean= 0.620
 gam= 0.209 g(H,U,f)=  0.338E-03 0.465E-04 0.633E-07 ort(H,U,f) =-0.963E-04 0.962E-04 0.580E-07
CGA:   3    -0.497730748088E+03   -0.36212E-03   -0.36212E-03  3904   0.384E-03-0.367E-07
 gam= 0.209 trial= 0.608  step= 0.463 mean= 0.608
 gam= 0.300 g(H,U,f)=  0.940E-04 0.214E-04 0.939E-08 ort(H,U,f) =-0.432E-04 0.426E-04-0.200E-07
CGA:   4    -0.497730837134E+03   -0.89046E-04   -0.88998E-04  3904   0.115E-03-0.672E-06
 gam= 0.300 trial= 0.601  step= 0.504 mean= 0.601
 gam= 0.337 g(H,U,f)=  0.305E-04 0.846E-05 0.353E-09 ort(H,U,f) =-0.211E-04 0.214E-04 0.389E-09
CGA:   5    -0.497730866156E+03   -0.29022E-04   -0.29033E-04  3904   0.389E-04 0.247E-06
 gam= 0.337 trial= 0.596  step= 0.563 mean= 0.596
 gam= 0.390 g(H,U,f)=  0.125E-04 0.265E-05 0.257E-08 ort(H,U,f) =-0.804E-05 0.841E-05 0.746E-09
CGA:   6    -0.497730877133E+03   -0.10977E-04   -0.10983E-04  3904   0.152E-04 0.372E-06
 gam= 0.390 trial= 0.595  step= 0.618 mean= 0.595
 gam= 0.356 g(H,U,f)=  0.494E-05 0.466E-06 0.542E-09 ort(H,U,f) =-0.247E-05 0.226E-05-0.593E-09
CGA:   7    -0.497730881871E+03   -0.47385E-05   -0.47407E-05  3904   0.540E-05-0.216E-06
 gam= 0.356 trial= 0.596  step= 0.588 mean= 0.596
 gam= 0.286 g(H,U,f)=  0.145E-05 0.943E-07 0.494E-10 ort(H,U,f) =-0.457E-06 0.354E-06 0.575E-11
CGA:   8    -0.497730883438E+03   -0.15665E-05   -0.15661E-05  3904   0.154E-05-0.103E-06
 gam= 0.286 trial= 0.595  step= 0.564 mean= 0.595
 gam= 0.241 g(H,U,f)=  0.327E-06 0.441E-07 0.273E-10 ort(H,U,f) = 0.578E-08 0.598E-07 0.839E-12
CGA:   9    -0.497730883864E+03   -0.42659E-06   -0.42721E-06  3904   0.371E-06 0.656E-07
 gam= 0.241 trial= 0.594  step= 0.639 mean= 0.594
 final diagonalization
   5 F= -.49773088E+03 E0= -.49772473E+03  d E =0.221122E-03  mag=    94.0000
quench:  g(F)=  0.000E+00 g(S)=  0.000E+00 dE (1.order)= 0.000E+00
 bond charge predicted
       N       E                     dE             d eps       ncg     rms          ort
 gam= 0.000 g(H,U,f)=  0.528E-02 0.381E-03 0.361E-06 ort(H,U,f) = 0.000E+00 0.000E+00 0.000E+00
SDA:   1    -0.497728445712E+03    0.24377E-02    0.00000E+00  3904   0.567E-02 0.000E+00
 gam= 0.000 trial= 0.596  step= 0.519 mean= 0.596
 gam= 0.479 g(H,U,f)=  0.258E-02 0.137E-03 0.241E-06 ort(H,U,f) =-0.194E-03 0.196E-03-0.280E-06
CGA:   2    -0.497729914757E+03   -0.14690E-02   -0.14691E-02  3904   0.271E-02 0.145E-05
 gam= 0.479 trial= 0.592  step= 0.401 mean= 0.592
 gam= 0.212 g(H,U,f)=  0.499E-03 0.759E-04 0.937E-07 ort(H,U,f) =-0.166E-03 0.166E-03 0.553E-07
CGA:   3    -0.497730459077E+03   -0.54432E-03   -0.54432E-03  3904   0.575E-03-0.586E-08
 gam= 0.212 trial= 0.583  step= 0.465 mean= 0.583
 gam= 0.314 g(H,U,f)=  0.146E-03 0.351E-04 0.118E-07 ort(H,U,f) =-0.730E-04 0.723E-04-0.216E-07
CGA:   4    -0.497730592762E+03   -0.13368E-03   -0.13364E-03  3904   0.181E-03-0.753E-06
 gam= 0.314 trial= 0.577  step= 0.505 mean= 0.577
 gam= 0.340 g(H,U,f)=  0.482E-04 0.133E-04 0.302E-09 ort(H,U,f) =-0.351E-04 0.353E-04 0.295E-09
CGA:   5    -0.497730638352E+03   -0.45589E-04   -0.45595E-04  3904   0.615E-04 0.174E-06
 gam= 0.340 trial= 0.573  step= 0.567 mean= 0.573
 gam= 0.389 g(H,U,f)=  0.201E-04 0.383E-05 0.345E-08 ort(H,U,f) =-0.126E-04 0.130E-04 0.566E-09
CGA:   6    -0.497730655803E+03   -0.17451E-04   -0.17453E-04  3904   0.239E-04 0.472E-06
 gam= 0.389 trial= 0.573  step= 0.612 mean= 0.573
 gam= 0.338 g(H,U,f)=  0.746E-05 0.620E-06 0.678E-09 ort(H,U,f) =-0.345E-05 0.322E-05-0.431E-09
CGA:   7    -0.497730663163E+03   -0.73606E-05   -0.73654E-05  3904   0.808E-05-0.230E-06
 gam= 0.338 trial= 0.575  step= 0.584 mean= 0.575
 gam= 0.279 g(H,U,f)=  0.213E-05 0.126E-06 0.903E-10 ort(H,U,f) =-0.608E-06 0.459E-06-0.289E-10
CGA:   8    -0.497730665499E+03   -0.23362E-05   -0.23366E-05  3904   0.225E-05-0.149E-06
 gam= 0.279 trial= 0.575  step= 0.568 mean= 0.575
 gam= 0.237 g(H,U,f)=  0.479E-06 0.554E-07 0.463E-10 ort(H,U,f) = 0.725E-08 0.736E-07-0.196E-10
CGA:   9    -0.497730666127E+03   -0.62738E-06   -0.62752E-06  3904   0.534E-06 0.808E-07
 gam= 0.237 trial= 0.575  step= 0.621 mean= 0.575
 final diagonalization
   6 F= -.49773067E+03 E0= -.49772451E+03  d E =0.217738E-03  mag=    94.0000
quench:  g(F)=  0.000E+00 g(S)=  0.000E+00 dE (1.order)= 0.000E+00
 bond charge predicted
       N       E                     dE             d eps       ncg     rms          ort
 gam= 0.000 g(H,U,f)=  0.671E-02 0.579E-03 0.411E-06 ort(H,U,f) = 0.000E+00 0.000E+00 0.000E+00
SDA:   1    -0.497727622743E+03    0.30428E-02    0.00000E+00  3904   0.729E-02 0.000E+00
 gam= 0.000 trial= 0.577  step= 0.499 mean= 0.577
 gam= 0.500 g(H,U,f)=  0.343E-02 0.214E-03 0.206E-06 ort(H,U,f) =-0.319E-03 0.320E-03-0.268E-06
CGA:   2    -0.497729439455E+03   -0.18167E-02   -0.18168E-02  3904   0.364E-02 0.140E-05
 gam= 0.500 trial= 0.573  step= 0.413 mean= 0.573
 gam= 0.218 g(H,U,f)=  0.680E-03 0.113E-03 0.126E-06 ort(H,U,f) =-0.260E-03 0.260E-03 0.371E-07
CGA:   3    -0.497730191398E+03   -0.75194E-03   -0.75194E-03  3904   0.793E-03-0.319E-07
 gam= 0.218 trial= 0.565  step= 0.466 mean= 0.565
 gam= 0.325 g(H,U,f)=  0.205E-03 0.523E-04 0.134E-07 ort(H,U,f) =-0.113E-03 0.112E-03-0.181E-07
CGA:   4    -0.497730376059E+03   -0.18466E-03   -0.18462E-03  3904   0.258E-03-0.784E-06
 gam= 0.325 trial= 0.560  step= 0.510 mean= 0.560
 gam= 0.346 g(H,U,f)=  0.703E-04 0.189E-04 0.445E-09 ort(H,U,f) =-0.527E-04 0.528E-04-0.488E-09
CGA:   5    -0.497730441641E+03   -0.65582E-04   -0.65584E-04  3904   0.892E-04 0.699E-07
 gam= 0.346 trial= 0.558  step= 0.567 mean= 0.558
 gam= 0.384 g(H,U,f)=  0.293E-04 0.499E-05 0.404E-08 ort(H,U,f) =-0.179E-04 0.184E-04 0.274E-09
CGA:   6    -0.497730466954E+03   -0.25313E-04   -0.25311E-04  3904   0.343E-04 0.539E-06
 gam= 0.384 trial= 0.558  step= 0.604 mean= 0.558
 gam= 0.325 g(H,U,f)=  0.104E-04 0.768E-06 0.850E-09 ort(H,U,f) =-0.437E-05 0.417E-05-0.823E-10
CGA:   7    -0.497730477366E+03   -0.10412E-04   -0.10417E-04  3904   0.112E-04-0.207E-06
 gam= 0.325 trial= 0.560  step= 0.578 mean= 0.560
 gam= 0.274 g(H,U,f)=  0.289E-05 0.166E-06 0.152E-09 ort(H,U,f) =-0.750E-06 0.559E-06-0.934E-10
CGA:   8    -0.497730480568E+03   -0.32026E-05   -0.32039E-05  3904   0.305E-05-0.191E-06
 gam= 0.274 trial= 0.561  step= 0.574 mean= 0.561
 gam= 0.240 g(H,U,f)=  0.659E-06 0.735E-07 0.633E-10 ort(H,U,f) =-0.636E-08 0.946E-07-0.484E-10
CGA:   9    -0.497730481430E+03   -0.86108E-06   -0.86069E-06  3904   0.733E-06 0.882E-07
 gam= 0.240 trial= 0.562  step= 0.617 mean= 0.562
 final diagonalization
   7 F= -.49773048E+03 E0= -.49772433E+03  d E =0.184697E-03  mag=    94.0000
quench:  g(F)=  0.000E+00 g(S)=  0.000E+00 dE (1.order)= 0.000E+00
 bond charge predicted
       N       E                     dE             d eps       ncg     rms          ort
 gam= 0.000 g(H,U,f)=  0.100E-01 0.102E-02 0.562E-06 ort(H,U,f) = 0.000E+00 0.000E+00 0.000E+00
SDA:   1    -0.497725999642E+03    0.44809E-02    0.00000E+00  3904   0.111E-01 0.000E+00
 gam= 0.000 trial= 0.565  step= 0.480 mean= 0.565
 gam= 0.513 g(H,U,f)=  0.529E-02 0.390E-03 0.208E-06 ort(H,U,f) =-0.591E-03 0.592E-03-0.303E-06
CGA:   2    -0.497728652980E+03   -0.26533E-02   -0.26534E-02  3904   0.568E-02 0.139E-05
 gam= 0.513 trial= 0.560  step= 0.428 mean= 0.560
 gam= 0.226 g(H,U,f)=  0.109E-02 0.193E-03 0.193E-06 ort(H,U,f) =-0.464E-03 0.463E-03 0.128E-07
CGA:   3    -0.497729866734E+03   -0.12138E-02   -0.12137E-02  3904   0.128E-02-0.148E-06
 gam= 0.226 trial= 0.554  step= 0.466 mean= 0.554
 gam= 0.333 g(H,U,f)=  0.338E-03 0.890E-04 0.181E-07 ort(H,U,f) =-0.199E-03 0.198E-03-0.129E-07
CGA:   4    -0.497730165669E+03   -0.29893E-03   -0.29890E-03  3904   0.427E-03-0.841E-06
 gam= 0.333 trial= 0.549  step= 0.514 mean= 0.549
 gam= 0.350 g(H,U,f)=  0.119E-03 0.309E-04 0.109E-08 ort(H,U,f) =-0.901E-04 0.901E-04-0.278E-08
CGA:   5    -0.497730275361E+03   -0.10969E-03   -0.10969E-03  3904   0.150E-03-0.575E-07
 gam= 0.350 trial= 0.548  step= 0.566 mean= 0.548
 gam= 0.379 g(H,U,f)=  0.492E-04 0.756E-05 0.535E-08 ort(H,U,f) =-0.292E-04 0.298E-04-0.132E-09
CGA:   6    -0.497730317705E+03   -0.42344E-04   -0.42339E-04  3904   0.568E-04 0.637E-06
 gam= 0.379 trial= 0.549  step= 0.597 mean= 0.549
 gam= 0.315 g(H,U,f)=  0.168E-04 0.113E-05 0.136E-08 ort(H,U,f) =-0.645E-05 0.627E-05 0.433E-09
CGA:   7    -0.497730334709E+03   -0.17004E-04   -0.17009E-04  3904   0.179E-04-0.176E-06
 gam= 0.315 trial= 0.551  step= 0.571 mean= 0.551
 gam= 0.269 g(H,U,f)=  0.455E-05 0.258E-06 0.270E-09 ort(H,U,f) =-0.106E-05 0.817E-06-0.230E-09
CGA:   8    -0.497730339803E+03   -0.50942E-05   -0.50974E-05  3904   0.481E-05-0.241E-06
 gam= 0.269 trial= 0.552  step= 0.581 mean= 0.552
 gam= 0.244 g(H,U,f)=  0.106E-05 0.112E-06 0.920E-10 ort(H,U,f) =-0.453E-07 0.145E-06-0.955E-10
CGA:   9    -0.497730341184E+03   -0.13809E-05   -0.13793E-05  3904   0.117E-05 0.995E-07
 gam= 0.244 trial= 0.553  step= 0.615 mean= 0.553
 gam= 0.282 g(H,U,f)=  0.262E-06 0.696E-07 0.685E-10 ort(H,U,f) =-0.627E-07 0.915E-07-0.473E-10
CGA:  10    -0.497730341553E+03   -0.36901E-06   -0.36834E-06  3904   0.331E-06 0.288E-07
 gam= 0.282 trial= 0.556  step= 0.713 mean= 0.556
 final diagonalization
   8 F= -.49773034E+03 E0= -.49772418E+03  d E =0.139876E-03  mag=    94.0000
quench:  g(F)=  0.000E+00 g(S)=  0.000E+00 dE (1.order)= 0.000E+00
 bond charge predicted
       N       E                     dE             d eps       ncg     rms          ort
 gam= 0.000 g(H,U,f)=  0.149E-01 0.162E-02 0.717E-06 ort(H,U,f) = 0.000E+00 0.000E+00 0.000E+00
SDA:   1    -0.497723796832E+03    0.65444E-02    0.00000E+00  3904   0.165E-01 0.000E+00
 gam= 0.000 trial= 0.564  step= 0.471 mean= 0.564
 gam= 0.518 g(H,U,f)=  0.791E-02 0.633E-03 0.224E-06 ort(H,U,f) =-0.965E-03 0.966E-03-0.344E-06
CGA:   2    -0.497727676021E+03   -0.38792E-02   -0.38792E-02  3904   0.854E-02 0.129E-05
 gam= 0.518 trial= 0.560  step= 0.435 mean= 0.560
 gam= 0.231 g(H,U,f)=  0.167E-02 0.302E-03 0.265E-06 ort(H,U,f) =-0.741E-03 0.741E-03-0.142E-07
CGA:   3    -0.497729534922E+03   -0.18589E-02   -0.18589E-02  3904   0.198E-02-0.381E-06
 gam= 0.231 trial= 0.553  step= 0.466 mean= 0.553
 gam= 0.336 g(H,U,f)=  0.524E-03 0.139E-03 0.236E-07 ort(H,U,f) =-0.316E-03 0.316E-03-0.396E-08
CGA:   4    -0.497729994796E+03   -0.45987E-03   -0.45984E-03  3904   0.663E-03-0.808E-06
 gam= 0.336 trial= 0.549  step= 0.517 mean= 0.549
 gam= 0.350 g(H,U,f)=  0.185E-03 0.471E-04 0.175E-08 ort(H,U,f) =-0.141E-03 0.141E-03-0.567E-08
CGA:   5    -0.497730166082E+03   -0.17129E-03   -0.17128E-03  3904   0.232E-03-0.204E-06
 gam= 0.350 trial= 0.547  step= 0.565 mean= 0.547
 gam= 0.378 g(H,U,f)=  0.765E-04 0.112E-04 0.621E-08 ort(H,U,f) =-0.447E-04 0.454E-04-0.303E-09
CGA:   6    -0.497730231574E+03   -0.65492E-04   -0.65486E-04  3904   0.877E-04 0.694E-06
 gam= 0.378 trial= 0.548  step= 0.594 mean= 0.548
 gam= 0.311 g(H,U,f)=  0.256E-04 0.166E-05 0.212E-08 ort(H,U,f) =-0.938E-05 0.925E-05 0.108E-08
CGA:   7    -0.497730257670E+03   -0.26096E-04   -0.26098E-04  3904   0.272E-04-0.129E-06
 gam= 0.311 trial= 0.551  step= 0.566 mean= 0.551
 gam= 0.266 g(H,U,f)=  0.685E-05 0.384E-06 0.381E-09 ort(H,U,f) =-0.146E-05 0.121E-05-0.425E-09
CGA:   8    -0.497730265368E+03   -0.76986E-05   -0.77007E-05  3904   0.723E-05-0.257E-06
 gam= 0.266 trial= 0.551  step= 0.586 mean= 0.551
 gam= 0.247 g(H,U,f)=  0.162E-05 0.163E-06 0.111E-09 ort(H,U,f) =-0.111E-06 0.216E-06-0.133E-09
CGA:   9    -0.497730267471E+03   -0.21022E-05   -0.21005E-05  3904   0.179E-05 0.105E-06
 gam= 0.247 trial= 0.553  step= 0.613 mean= 0.553
 gam= 0.274 g(H,U,f)=  0.392E-06 0.968E-07 0.910E-10 ort(H,U,f) =-0.906E-07 0.131E-06-0.472E-10
CGA:  10    -0.497730268027E+03   -0.55664E-06   -0.55530E-06  3904   0.489E-06 0.399E-07
 gam= 0.274 trial= 0.556  step= 0.698 mean= 0.556
 final diagonalization
   9 F= -.49773027E+03 E0= -.49772411E+03  d E =0.735262E-04  mag=    94.0000
quench:  g(F)=  0.000E+00 g(S)=  0.000E+00 dE (1.order)= 0.000E+00
 bond charge predicted
       N       E                     dE             d eps       ncg     rms          ort
 gam= 0.000 g(H,U,f)=  0.221E-01 0.249E-02 0.104E-05 ort(H,U,f) = 0.000E+00 0.000E+00 0.000E+00
SDA:   1    -0.497720605195E+03    0.96623E-02    0.00000E+00  3904   0.246E-01 0.000E+00
 gam= 0.000 trial= 0.563  step= 0.467 mean= 0.563
 gam= 0.519 g(H,U,f)=  0.118E-01 0.975E-03 0.323E-06 ort(H,U,f) =-0.149E-02 0.149E-02-0.499E-06
CGA:   2    -0.497726352879E+03   -0.57477E-02   -0.57477E-02  3904   0.128E-01 0.116E-05
 gam= 0.519 trial= 0.558  step= 0.438 mean= 0.558
 gam= 0.233 g(H,U,f)=  0.252E-02 0.460E-03 0.375E-06 ort(H,U,f) =-0.113E-02 0.113E-02-0.256E-07
CGA:   3    -0.497729152271E+03   -0.27994E-02   -0.27994E-02  3904   0.298E-02-0.670E-06
 gam= 0.233 trial= 0.552  step= 0.466 mean= 0.552
 gam= 0.337 g(H,U,f)=  0.794E-03 0.211E-03 0.321E-07 ort(H,U,f) =-0.484E-03 0.483E-03-0.944E-09
CGA:   4    -0.497729846596E+03   -0.69433E-03   -0.69429E-03  3904   0.101E-02-0.711E-06
 gam= 0.337 trial= 0.548  step= 0.517 mean= 0.548
 gam= 0.350 g(H,U,f)=  0.280E-03 0.712E-04 0.247E-08 ort(H,U,f) =-0.215E-03 0.214E-03-0.916E-08
CGA:   5    -0.497730106333E+03   -0.25974E-03   -0.25973E-03  3904   0.352E-03-0.341E-06
 gam= 0.350 trial= 0.546  step= 0.566 mean= 0.546
 gam= 0.378 g(H,U,f)=  0.116E-03 0.166E-04 0.767E-08 ort(H,U,f) =-0.676E-04 0.684E-04-0.282E-09
CGA:   6    -0.497730205751E+03   -0.99418E-04   -0.99412E-04  3904   0.133E-03 0.733E-06
 gam= 0.378 trial= 0.547  step= 0.591 mean= 0.547
 gam= 0.309 g(H,U,f)=  0.385E-04 0.248E-05 0.315E-08 ort(H,U,f) =-0.139E-04 0.138E-04 0.187E-08
CGA:   7    -0.497730245137E+03   -0.39386E-04   -0.39388E-04  3904   0.410E-04-0.774E-07
 gam= 0.309 trial= 0.550  step= 0.564 mean= 0.550
 gam= 0.264 g(H,U,f)=  0.103E-04 0.570E-06 0.516E-09 ort(H,U,f) =-0.206E-05 0.180E-05-0.713E-09
CGA:   8    -0.497730256702E+03   -0.11566E-04   -0.11567E-04  3904   0.108E-04-0.263E-06
 gam= 0.264 trial= 0.550  step= 0.589 mean= 0.550
 gam= 0.248 g(H,U,f)=  0.245E-05 0.238E-06 0.150E-09 ort(H,U,f) =-0.199E-06 0.319E-06-0.175E-09
CGA:   9    -0.497730259873E+03   -0.31704E-05   -0.31684E-05  3904   0.269E-05 0.119E-06
 gam= 0.248 trial= 0.552  step= 0.614 mean= 0.552
 gam= 0.270 g(H,U,f)=  0.589E-06 0.137E-06 0.133E-09 ort(H,U,f) =-0.141E-06 0.187E-06-0.577E-10
CGA:  10    -0.497730260708E+03   -0.83575E-06   -0.83446E-06  3904   0.727E-06 0.459E-07
 gam= 0.270 trial= 0.555  step= 0.689 mean= 0.555
 final diagonalization
  10 F= -.49773026E+03 E0= -.49772410E+03  d E =0.731887E-05  mag=    94.0000
quench:  g(F)=  0.000E+00 g(S)=  0.000E+00 dE (1.order)= 0.000E+00
 bond charge predicted
       N       E                     dE             d eps       ncg     rms          ort
 gam= 0.000 g(H,U,f)=  0.326E-01 0.362E-02 0.171E-05 ort(H,U,f) = 0.000E+00 0.000E+00 0.000E+00
SDA:   1    -0.497716061079E+03    0.14199E-01    0.00000E+00  3904   0.363E-01 0.000E+00
 gam= 0.000 trial= 0.562  step= 0.469 mean= 0.562
 gam= 0.518 g(H,U,f)=  0.174E-01 0.141E-02 0.616E-06 ort(H,U,f) =-0.215E-02 0.215E-02-0.912E-06
CGA:   2    -0.497724561775E+03   -0.85007E-02   -0.85007E-02  3904   0.188E-01 0.106E-05
 gam= 0.518 trial= 0.557  step= 0.436 mean= 0.557
 gam= 0.232 g(H,U,f)=  0.368E-02 0.672E-03 0.569E-06 ort(H,U,f) =-0.165E-02 0.165E-02 0.833E-08
CGA:   3    -0.497728657993E+03   -0.40962E-02   -0.40962E-02  3904   0.436E-02-0.923E-06
 gam= 0.232 trial= 0.551  step= 0.467 mean= 0.551
 gam= 0.337 g(H,U,f)=  0.116E-02 0.309E-03 0.460E-07 ort(H,U,f) =-0.704E-03 0.703E-03-0.210E-07
CGA:   4    -0.497729674804E+03   -0.10168E-02   -0.10168E-02  3904   0.147E-02-0.564E-06
 gam= 0.337 trial= 0.547  step= 0.516 mean= 0.547
 gam= 0.350 g(H,U,f)=  0.410E-03 0.104E-03 0.290E-08 ort(H,U,f) =-0.314E-03 0.313E-03-0.121E-07
CGA:   5    -0.497730054132E+03   -0.37933E-03   -0.37932E-03  3904   0.514E-03-0.454E-06
 gam= 0.350 trial= 0.546  step= 0.567 mean= 0.546
 gam= 0.379 g(H,U,f)=  0.171E-03 0.244E-04 0.104E-07 ort(H,U,f) =-0.994E-04 0.100E-03 0.444E-10
CGA:   6    -0.497730199811E+03   -0.14568E-03   -0.14567E-03  3904   0.195E-03 0.804E-06
 gam= 0.379 trial= 0.547  step= 0.591 mean= 0.547
 gam= 0.309 g(H,U,f)=  0.565E-04 0.366E-05 0.432E-08 ort(H,U,f) =-0.204E-04 0.203E-04 0.293E-08
CGA:   7    -0.497730257488E+03   -0.57678E-04   -0.57679E-04  3904   0.601E-04-0.397E-07
 gam= 0.309 trial= 0.549  step= 0.564 mean= 0.549
 gam= 0.263 g(H,U,f)=  0.150E-04 0.827E-06 0.695E-09 ort(H,U,f) =-0.293E-05 0.266E-05-0.118E-08
CGA:   8    -0.497730274437E+03   -0.16949E-04   -0.16951E-04  3904   0.158E-04-0.264E-06
 gam= 0.263 trial= 0.550  step= 0.590 mean= 0.550
 gam= 0.248 g(H,U,f)=  0.359E-05 0.341E-06 0.214E-09 ort(H,U,f) =-0.313E-06 0.458E-06-0.216E-09
CGA:   9    -0.497730279092E+03   -0.46550E-05   -0.46526E-05  3904   0.393E-05 0.146E-06
 gam= 0.248 trial= 0.552  step= 0.615 mean= 0.552
 gam= 0.269 g(H,U,f)=  0.865E-06 0.193E-06 0.203E-09 ort(H,U,f) =-0.210E-06 0.263E-06-0.922E-10
CGA:  10    -0.497730280313E+03   -0.12212E-05   -0.12200E-05  3904   0.106E-05 0.530E-07
 gam= 0.269 trial= 0.555  step= 0.685 mean= 0.555
 gam= 0.405 g(H,U,f)=  0.297E-06 0.131E-06 0.586E-09 ort(H,U,f) =-0.143E-06 0.191E-06-0.244E-09
CGA:  11    -0.497730280683E+03   -0.37001E-06   -0.36734E-06  3904   0.429E-06 0.479E-07
 gam= 0.405 trial= 0.561  step= 0.906 mean= 0.561
 final diagonalization
  11 F= -.49773028E+03 E0= -.49772412E+03  d E =-.199751E-04  mag=    94.0000
quench:  g(F)=  0.000E+00 g(S)=  0.000E+00 dE (1.order)= 0.000E+00
 bond charge predicted
       N       E                     dE             d eps       ncg     rms          ort
 gam= 0.000 g(H,U,f)=  0.457E-01 0.450E-02 0.232E-05 ort(H,U,f) = 0.000E+00 0.000E+00 0.000E+00
SDA:   1    -0.497710537277E+03    0.19743E-01    0.00000E+00  3904   0.502E-01 0.000E+00
 gam= 0.000 trial= 0.578  step= 0.485 mean= 0.578
 gam= 0.512 g(H,U,f)=  0.240E-01 0.172E-02 0.110E-05 ort(H,U,f) =-0.261E-02 0.261E-02-0.143E-05
CGA:   2    -0.497722705924E+03   -0.12169E-01   -0.12169E-01  3904   0.257E-01 0.100E-05
 gam= 0.512 trial= 0.574  step= 0.423 mean= 0.574
 gam= 0.223 g(H,U,f)=  0.487E-02 0.854E-03 0.625E-06 ort(H,U,f) =-0.205E-02 0.205E-02 0.124E-06
CGA:   3    -0.497728135553E+03   -0.54296E-02   -0.54296E-02  3904   0.573E-02-0.101E-05
 gam= 0.223 trial= 0.566  step= 0.469 mean= 0.566
 gam= 0.335 g(H,U,f)=  0.152E-02 0.399E-03 0.673E-07 ort(H,U,f) =-0.877E-03 0.877E-03-0.662E-07
CGA:   4    -0.497729477759E+03   -0.13422E-02   -0.13422E-02  3904   0.192E-02-0.590E-06
 gam= 0.335 trial= 0.561  step= 0.513 mean= 0.561
 gam= 0.349 g(H,U,f)=  0.532E-03 0.138E-03 0.202E-08 ort(H,U,f) =-0.404E-03 0.404E-03-0.833E-08
CGA:   5    -0.497729969271E+03   -0.49151E-03   -0.49150E-03  3904   0.670E-03-0.399E-06
 gam= 0.349 trial= 0.559  step= 0.567 mean= 0.559
 gam= 0.384 g(H,U,f)=  0.223E-03 0.341E-04 0.153E-07 ort(H,U,f) =-0.133E-03 0.134E-03 0.104E-08
CGA:   6    -0.497730159094E+03   -0.18982E-03   -0.18982E-03  3904   0.257E-03 0.953E-06
 gam= 0.384 trial= 0.559  step= 0.595 mean= 0.559
 gam= 0.315 g(H,U,f)=  0.757E-04 0.514E-05 0.466E-08 ort(H,U,f) =-0.287E-04 0.287E-04 0.291E-08
CGA:   7    -0.497730235624E+03   -0.76529E-04   -0.76530E-04  3904   0.808E-04-0.148E-07
 gam= 0.315 trial= 0.561  step= 0.565 mean= 0.561
 gam= 0.264 g(H,U,f)=  0.203E-04 0.109E-05 0.740E-09 ort(H,U,f) =-0.408E-05 0.383E-05-0.134E-08
CGA:   8    -0.497730258452E+03   -0.22828E-04   -0.22828E-04  3904   0.214E-04-0.258E-06
 gam= 0.264 trial= 0.561  step= 0.588 mean= 0.561
 gam= 0.244 g(H,U,f)=  0.478E-05 0.432E-06 0.285E-09 ort(H,U,f) =-0.400E-06 0.598E-06-0.204E-09
CGA:   9    -0.497730264719E+03   -0.62669E-05   -0.62642E-05  3904   0.522E-05 0.198E-06
 gam= 0.244 trial= 0.563  step= 0.612 mean= 0.563
 gam= 0.269 g(H,U,f)=  0.115E-05 0.248E-06 0.274E-09 ort(H,U,f) =-0.258E-06 0.330E-06-0.163E-09
CGA:  10    -0.497730266330E+03   -0.16116E-05   -0.16111E-05  3904   0.140E-05 0.721E-07
 gam= 0.269 trial= 0.565  step= 0.684 mean= 0.565
 gam= 0.401 g(H,U,f)=  0.394E-06 0.168E-06 0.724E-09 ort(H,U,f) =-0.180E-06 0.243E-06-0.307E-09
CGA:  11    -0.497730266820E+03   -0.48979E-06   -0.48584E-06  3904   0.562E-06 0.631E-07
 gam= 0.401 trial= 0.571  step= 0.888 mean= 0.571
[...]
Note: The following floating-point exceptions are signalling: IEEE_INVALID_FLAG IEEE_DIVIDE_BY_ZERO IEEE_UNDERFLOW_FLAG IEEE_DENORMAL
Note: The following floating-point exceptions are signalling: IEEE_INVALID_FLAG IEEE_DIVIDE_BY_ZERO IEEE_UNDERFLOW_FLAG IEEE_DENORMAL
Note: The following floating-point exceptions are signalling: IEEE_INVALID_FLAG IEEE_DIVIDE_BY_ZERO IEEE_UNDERFLOW_FLAG IEEE_DENORMAL
Note: The following floating-point exceptions are signalling: IEEE_INVALID_FLAG IEEE_DIVIDE_BY_ZERO IEEE_UNDERFLOW_FLAG IEEE_DENORMAL
Note: The following floating-point exceptions are signalling: IEEE_INVALID_FLAG IEEE_DIVIDE_BY_ZERO IEEE_UNDERFLOW_FLAG IEEE_DENORMAL
Note: The following floating-point exceptions are signalling: IEEE_INVALID_FLAG IEEE_DIVIDE_BY_ZERO IEEE_UNDERFLOW_FLAG IEEE_DENORMAL
Note: The following floating-point exceptions are signalling: IEEE_INVALID_FLAG IEEE_DIVIDE_BY_ZERO IEEE_UNDERFLOW_FLAG IEEE_DENORMAL
Note: The following floating-point exceptions are signalling: IEEE_INVALID_FLAG IEEE_DIVIDE_BY_ZERO IEEE_UNDERFLOW_FLAG IEEE_DENORMAL
Note: The following floating-point exceptions are signalling: IEEE_INVALID_FLAG IEEE_DIVIDE_BY_ZERO IEEE_UNDERFLOW_FLAG IEEE_DENORMAL
Note: The following floating-point exceptions are signalling: IEEE_INVALID_FLAG IEEE_DIVIDE_BY_ZERO IEEE_UNDERFLOW_FLAG IEEE_DENORMAL
Note: The following floating-point exceptions are signalling: IEEE_INVALID_FLAG IEEE_DIVIDE_BY_ZERO IEEE_UNDERFLOW_FLAG IEEE_DENORMAL
Note: The following floating-point exceptions are signalling: IEEE_INVALID_FLAG IEEE_DIVIDE_BY_ZERO IEEE_UNDERFLOW_FLAG IEEE_DENORMAL
Note: The following floating-point exceptions are signalling: IEEE_INVALID_FLAG IEEE_DIVIDE_BY_ZERO IEEE_UNDERFLOW_FLAG IEEE_DENORMAL
Note: The following floating-point exceptions are signalling: IEEE_INVALID_FLAG IEEE_DIVIDE_BY_ZERO IEEE_UNDERFLOW_FLAG IEEE_DENORMAL
Note: The following floating-point exceptions are signalling: IEEE_INVALID_FLAG IEEE_DIVIDE_BY_ZERO IEEE_UNDERFLOW_FLAG IEEE_DENORMAL
Note: The following floating-point exceptions are signalling: IEEE_INVALID_FLAG IEEE_DIVIDE_BY_ZERO IEEE_UNDERFLOW_FLAG IEEE_DENORMAL
Note: The following floating-point exceptions are signalling: IEEE_INVALID_FLAG IEEE_DIVIDE_BY_ZERO IEEE_UNDERFLOW_FLAG IEEE_DENORMAL
Note: The following floating-point exceptions are signalling: IEEE_INVALID_FLAG IEEE_DIVIDE_BY_ZERO IEEE_UNDERFLOW_FLAG IEEE_DENORMAL
Note: The following floating-point exceptions are signalling: IEEE_INVALID_FLAG IEEE_DIVIDE_BY_ZERO IEEE_UNDERFLOW_FLAG IEEE_DENORMAL
Note: The following floating-point exceptions are signalling: IEEE_INVALID_FLAG IEEE_DIVIDE_BY_ZERO IEEE_UNDERFLOW_FLAG IEEE_DENORMAL
Note: The following floating-point exceptions are signalling: IEEE_INVALID_FLAG IEEE_DIVIDE_BY_ZERO IEEE_UNDERFLOW_FLAG IEEE_DENORMAL
Note: The following floating-point exceptions are signalling: IEEE_INVALID_FLAG IEEE_DIVIDE_BY_ZERO IEEE_UNDERFLOW_FLAG IEEE_DENORMAL
Note: The following floating-point exceptions are signalling: IEEE_INVALID_FLAG IEEE_DIVIDE_BY_ZERO IEEE_UNDERFLOW_FLAG IEEE_DENORMAL
Note: The following floating-point exceptions are signalling: IEEE_INVALID_FLAG IEEE_DIVIDE_BY_ZERO IEEE_UNDERFLOW_FLAG IEEE_DENORMAL
Note: The following floating-point exceptions are signalling: IEEE_INVALID_FLAG IEEE_DIVIDE_BY_ZERO IEEE_UNDERFLOW_FLAG IEEE_DENORMAL
Note: The following floating-point exceptions are signalling: IEEE_INVALID_FLAG IEEE_DIVIDE_BY_ZERO IEEE_UNDERFLOW_FLAG IEEE_DENORMAL
Note: The following floating-point exceptions are signalling: IEEE_INVALID_FLAG IEEE_DIVIDE_BY_ZERO IEEE_UNDERFLOW_FLAG IEEE_DENORMAL
Note: The following floating-point exceptions are signalling: IEEE_INVALID_FLAG IEEE_DIVIDE_BY_ZERO IEEE_UNDERFLOW_FLAG IEEE_DENORMAL
Note: The following floating-point exceptions are signalling: IEEE_INVALID_FLAG IEEE_DIVIDE_BY_ZERO IEEE_UNDERFLOW_FLAG IEEE_DENORMAL
Note: The following floating-point exceptions are signalling: IEEE_INVALID_FLAG IEEE_DIVIDE_BY_ZERO IEEE_UNDERFLOW_FLAG IEEE_DENORMAL
Note: The following floating-point exceptions are signalling: IEEE_INVALID_FLAG IEEE_DIVIDE_BY_ZERO IEEE_UNDERFLOW_FLAG IEEE_DENORMAL
Note: The following floating-point exceptions are signalling: IEEE_INVALID_FLAG IEEE_DIVIDE_BY_ZERO IEEE_UNDERFLOW_FLAG IEEE_DENORMAL
Note: The following floating-point exceptions are signalling: IEEE_INVALID_FLAG IEEE_DIVIDE_BY_ZERO IEEE_UNDERFLOW_FLAG IEEE_DENORMAL
Note: The following floating-point exceptions are signalling: IEEE_INVALID_FLAG IEEE_DIVIDE_BY_ZERO IEEE_UNDERFLOW_FLAG IEEE_DENORMAL
Note: The following floating-point exceptions are signalling: IEEE_INVALID_FLAG IEEE_DIVIDE_BY_ZERO IEEE_UNDERFLOW_FLAG IEEE_DENORMAL
Note: The following floating-point exceptions are signalling: IEEE_INVALID_FLAG IEEE_DIVIDE_BY_ZERO IEEE_UNDERFLOW_FLAG IEEE_DENORMAL
Note: The following floating-point exceptions are signalling: IEEE_INVALID_FLAG IEEE_DIVIDE_BY_ZERO IEEE_UNDERFLOW_FLAG IEEE_DENORMAL
Note: The following floating-point exceptions are signalling: IEEE_INVALID_FLAG IEEE_DIVIDE_BY_ZERO IEEE_UNDERFLOW_FLAG IEEE_DENORMAL
Note: The following floating-point exceptions are signalling: IEEE_INVALID_FLAG IEEE_DIVIDE_BY_ZERO IEEE_UNDERFLOW_FLAG IEEE_DENORMAL
Note: The following floating-point exceptions are signalling: IEEE_INVALID_FLAG IEEE_DIVIDE_BY_ZERO IEEE_UNDERFLOW_FLAG IEEE_DENORMAL
Note: The following floating-point exceptions are signalling: IEEE_INVALID_FLAG IEEE_DIVIDE_BY_ZERO IEEE_UNDERFLOW_FLAG IEEE_DENORMAL
Note: The following floating-point exceptions are signalling: IEEE_INVALID_FLAG IEEE_DIVIDE_BY_ZERO IEEE_UNDERFLOW_FLAG IEEE_DENORMAL
Note: The following floating-point exceptions are signalling: IEEE_INVALID_FLAG IEEE_DIVIDE_BY_ZERO IEEE_UNDERFLOW_FLAG IEEE_DENORMAL
Note: The following floating-point exceptions are signalling: IEEE_INVALID_FLAG IEEE_DIVIDE_BY_ZERO IEEE_UNDERFLOW_FLAG IEEE_DENORMAL
Note: The following floating-point exceptions are signalling: IEEE_INVALID_FLAG IEEE_DIVIDE_BY_ZERO IEEE_UNDERFLOW_FLAG IEEE_DENORMAL
Note: The following floating-point exceptions are signalling: IEEE_INVALID_FLAG IEEE_DIVIDE_BY_ZERO IEEE_UNDERFLOW_FLAG IEEE_DENORMAL
Note: The following floating-point exceptions are signalling: IEEE_INVALID_FLAG IEEE_DIVIDE_BY_ZERO IEEE_UNDERFLOW_FLAG IEEE_DENORMAL
Note: The following floating-point exceptions are signalling: IEEE_INVALID_FLAG IEEE_DIVIDE_BY_ZERO IEEE_UNDERFLOW_FLAG IEEE_DENORMAL
Note: The following floating-point exceptions are signalling: IEEE_INVALID_FLAG IEEE_DIVIDE_BY_ZERO IEEE_UNDERFLOW_FLAG IEEE_DENORMAL
Note: The following floating-point exceptions are signalling: IEEE_INVALID_FLAG IEEE_DIVIDE_BY_ZERO IEEE_UNDERFLOW_FLAG IEEE_DENORMAL
Note: The following floating-point exceptions are signalling: IEEE_INVALID_FLAG IEEE_DIVIDE_BY_ZERO IEEE_UNDERFLOW_FLAG IEEE_DENORMAL
Note: The following floating-point exceptions are signalling: IEEE_INVALID_FLAG IEEE_DIVIDE_BY_ZERO IEEE_UNDERFLOW_FLAG IEEE_DENORMAL
Note: The following floating-point exceptions are signalling: IEEE_INVALID_FLAG IEEE_DIVIDE_BY_ZERO IEEE_UNDERFLOW_FLAG IEEE_DENORMAL
Note: The following floating-point exceptions are signalling: IEEE_INVALID_FLAG IEEE_DIVIDE_BY_ZERO IEEE_UNDERFLOW_FLAG IEEE_DENORMAL
Note: The following floating-point exceptions are signalling: IEEE_INVALID_FLAG IEEE_DIVIDE_BY_ZERO IEEE_UNDERFLOW_FLAG IEEE_DENORMAL
Note: The following floating-point exceptions are signalling: IEEE_INVALID_FLAG IEEE_DIVIDE_BY_ZERO IEEE_UNDERFLOW_FLAG IEEE_DENORMAL
Note: The following floating-point exceptions are signalling: IEEE_INVALID_FLAG IEEE_DIVIDE_BY_ZERO IEEE_UNDERFLOW_FLAG IEEE_DENORMAL
Note: The following floating-point exceptions are signalling: IEEE_INVALID_FLAG IEEE_DIVIDE_BY_ZERO IEEE_UNDERFLOW_FLAG IEEE_DENORMAL
Note: The following floating-point exceptions are signalling: IEEE_INVALID_FLAG IEEE_DIVIDE_BY_ZERO IEEE_UNDERFLOW_FLAG IEEE_DENORMAL
Note: The following floating-point exceptions are signalling: IEEE_INVALID_FLAG IEEE_DIVIDE_BY_ZERO IEEE_UNDERFLOW_FLAG IEEE_DENORMAL
Note: The following floating-point exceptions are signalling: IEEE_INVALID_FLAG IEEE_DIVIDE_BY_ZERO IEEE_UNDERFLOW_FLAG IEEE_DENORMAL
Note: The following floating-point exceptions are signalling: IEEE_INVALID_FLAG IEEE_DIVIDE_BY_ZERO IEEE_UNDERFLOW_FLAG IEEE_DENORMAL
Note: The following floating-point exceptions are signalling: IEEE_INVALID_FLAG IEEE_DIVIDE_BY_ZERO IEEE_UNDERFLOW_FLAG IEEE_DENORMAL
Note: The following floating-point exceptions are signalling: IEEE_INVALID_FLAG IEEE_DIVIDE_BY_ZERO IEEE_UNDERFLOW_FLAG IEEE_DENORMAL
Note: The following floating-point exceptions are signalling: IEEE_INVALID_FLAG IEEE_DIVIDE_BY_ZERO IEEE_UNDERFLOW_FLAG IEEE_DENORMAL
Note: The following floating-point exceptions are signalling: IEEE_INVALID_FLAG IEEE_DIVIDE_BY_ZERO IEEE_UNDERFLOW_FLAG IEEE_DENORMAL
Note: The following floating-point exceptions are signalling: IEEE_INVALID_FLAG IEEE_DIVIDE_BY_ZERO IEEE_UNDERFLOW_FLAG IEEE_DENORMAL
Note: The following floating-point exceptions are signalling: IEEE_INVALID_FLAG IEEE_DIVIDE_BY_ZERO IEEE_UNDERFLOW_FLAG IEEE_DENORMAL
Note: The following floating-point exceptions are signalling: IEEE_INVALID_FLAG IEEE_DIVIDE_BY_ZERO IEEE_UNDERFLOW_FLAG IEEE_DENORMAL
Note: The following floating-point exceptions are signalling: IEEE_INVALID_FLAG IEEE_DIVIDE_BY_ZERO IEEE_UNDERFLOW_FLAG IEEE_DENORMAL
Note: The following floating-point exceptions are signalling: IEEE_INVALID_FLAG IEEE_DIVIDE_BY_ZERO IEEE_UNDERFLOW_FLAG IEEE_DENORMAL
Note: The following floating-point exceptions are signalling: IEEE_INVALID_FLAG IEEE_DIVIDE_BY_ZERO IEEE_UNDERFLOW_FLAG IEEE_DENORMAL
Note: The following floating-point exceptions are signalling: IEEE_INVALID_FLAG IEEE_DIVIDE_BY_ZERO IEEE_UNDERFLOW_FLAG IEEE_DENORMAL
Note: The following floating-point exceptions are signalling: IEEE_INVALID_FLAG IEEE_DIVIDE_BY_ZERO IEEE_UNDERFLOW_FLAG IEEE_DENORMAL
Note: The following floating-point exceptions are signalling: IEEE_INVALID_FLAG IEEE_DIVIDE_BY_ZERO IEEE_UNDERFLOW_FLAG IEEE_DENORMAL
Note: The following floating-point exceptions are signalling: IEEE_INVALID_FLAG IEEE_DIVIDE_BY_ZERO IEEE_UNDERFLOW_FLAG IEEE_DENORMAL
Note: The following floating-point exceptions are signalling: IEEE_INVALID_FLAG IEEE_DIVIDE_BY_ZERO IEEE_UNDERFLOW_FLAG IEEE_DENORMAL
Note: The following floating-point exceptions are signalling: IEEE_INVALID_FLAG IEEE_DIVIDE_BY_ZERO IEEE_UNDERFLOW_FLAG IEEE_DENORMAL
Note: The following floating-point exceptions are signalling: IEEE_INVALID_FLAG IEEE_DIVIDE_BY_ZERO IEEE_UNDERFLOW_FLAG IEEE_DENORMAL
Note: The following floating-point exceptions are signalling: IEEE_INVALID_FLAG IEEE_DIVIDE_BY_ZERO IEEE_UNDERFLOW_FLAG IEEE_DENORMAL
Note: The following floating-point exceptions are signalling: IEEE_INVALID_FLAG IEEE_DIVIDE_BY_ZERO IEEE_UNDERFLOW_FLAG IEEE_DENORMAL
Note: The following floating-point exceptions are signalling: IEEE_INVALID_FLAG IEEE_DIVIDE_BY_ZERO IEEE_UNDERFLOW_FLAG IEEE_DENORMAL
Note: The following floating-point exceptions are signalling: IEEE_INVALID_FLAG IEEE_DIVIDE_BY_ZERO IEEE_UNDERFLOW_FLAG IEEE_DENORMAL
Note: The following floating-point exceptions are signalling: IEEE_INVALID_FLAG IEEE_DIVIDE_BY_ZERO IEEE_UNDERFLOW_FLAG IEEE_DENORMAL
Note: The following floating-point exceptions are signalling: IEEE_INVALID_FLAG IEEE_DIVIDE_BY_ZERO IEEE_UNDERFLOW_FLAG IEEE_DENORMAL
Note: The following floating-point exceptions are signalling: IEEE_INVALID_FLAG IEEE_DIVIDE_BY_ZERO IEEE_UNDERFLOW_FLAG IEEE_DENORMAL
Note: The following floating-point exceptions are signalling: IEEE_INVALID_FLAG IEEE_DIVIDE_BY_ZERO IEEE_UNDERFLOW_FLAG IEEE_DENORMAL
Note: The following floating-point exceptions are signalling: IEEE_INVALID_FLAG IEEE_DIVIDE_BY_ZERO IEEE_UNDERFLOW_FLAG IEEE_DENORMAL
Note: The following floating-point exceptions are signalling: IEEE_INVALID_FLAG IEEE_DIVIDE_BY_ZERO IEEE_UNDERFLOW_FLAG IEEE_DENORMAL
Note: The following floating-point exceptions are signalling: IEEE_INVALID_FLAG IEEE_DIVIDE_BY_ZERO IEEE_UNDERFLOW_FLAG IEEE_DENORMAL
Note: The following floating-point exceptions are signalling: IEEE_INVALID_FLAG IEEE_DIVIDE_BY_ZERO IEEE_UNDERFLOW_FLAG IEEE_DENORMAL
Note: The following floating-point exceptions are signalling: IEEE_INVALID_FLAG IEEE_DIVIDE_BY_ZERO IEEE_UNDERFLOW_FLAG IEEE_DENORMAL
Note: The following floating-point exceptions are signalling: IEEE_INVALID_FLAG IEEE_DIVIDE_BY_ZERO IEEE_UNDERFLOW_FLAG IEEE_DENORMAL
Note: The following floating-point exceptions are signalling: IEEE_INVALID_FLAG IEEE_DIVIDE_BY_ZERO IEEE_UNDERFLOW_FLAG IEEE_DENORMAL
Note: The following floating-point exceptions are signalling: IEEE_INVALID_FLAG IEEE_DIVIDE_BY_ZERO IEEE_UNDERFLOW_FLAG IEEE_DENORMAL
Note: The following floating-point exceptions are signalling: IEEE_INVALID_FLAG IEEE_DIVIDE_BY_ZERO IEEE_UNDERFLOW_FLAG IEEE_DENORMAL
Note: The following floating-point exceptions are signalling: IEEE_INVALID_FLAG IEEE_DIVIDE_BY_ZERO IEEE_UNDERFLOW_FLAG IEEE_DENORMAL
Note: The following floating-point exceptions are signalling: IEEE_INVALID_FLAG IEEE_DIVIDE_BY_ZERO IEEE_UNDERFLOW_FLAG IEEE_DENORMAL
Note: The following floating-point exceptions are signalling: IEEE_INVALID_FLAG IEEE_DIVIDE_BY_ZERO IEEE_UNDERFLOW_FLAG IEEE_DENORMAL
Note: The following floating-point exceptions are signalling: IEEE_INVALID_FLAG IEEE_DIVIDE_BY_ZERO IEEE_UNDERFLOW_FLAG IEEE_DENORMAL
Note: The following floating-point exceptions are signalling: IEEE_INVALID_FLAG IEEE_DIVIDE_BY_ZERO IEEE_UNDERFLOW_FLAG IEEE_DENORMAL
Note: The following floating-point exceptions are signalling: IEEE_INVALID_FLAG IEEE_DIVIDE_BY_ZERO IEEE_UNDERFLOW_FLAG IEEE_DENORMAL
Note: The following floating-point exceptions are signalling: IEEE_INVALID_FLAG IEEE_DIVIDE_BY_ZERO IEEE_UNDERFLOW_FLAG IEEE_DENORMAL
Note: The following floating-point exceptions are signalling: IEEE_INVALID_FLAG IEEE_DIVIDE_BY_ZERO IEEE_UNDERFLOW_FLAG IEEE_DENORMAL
Note: The following floating-point exceptions are signalling: IEEE_INVALID_FLAG IEEE_DIVIDE_BY_ZERO IEEE_UNDERFLOW_FLAG IEEE_DENORMAL
Note: The following floating-point exceptions are signalling: IEEE_INVALID_FLAG IEEE_DIVIDE_BY_ZERO IEEE_UNDERFLOW_FLAG IEEE_DENORMAL
Note: The following floating-point exceptions are signalling: IEEE_INVALID_FLAG IEEE_DIVIDE_BY_ZERO IEEE_UNDERFLOW_FLAG IEEE_DENORMAL
Note: The following floating-point exceptions are signalling: IEEE_INVALID_FLAG IEEE_DIVIDE_BY_ZERO IEEE_UNDERFLOW_FLAG IEEE_DENORMAL
Note: The following floating-point exceptions are signalling: IEEE_INVALID_FLAG IEEE_DIVIDE_BY_ZERO IEEE_UNDERFLOW_FLAG IEEE_DENORMAL
Note: The following floating-point exceptions are signalling: IEEE_INVALID_FLAG IEEE_DIVIDE_BY_ZERO IEEE_UNDERFLOW_FLAG IEEE_DENORMAL
Note: The following floating-point exceptions are signalling: IEEE_INVALID_FLAG IEEE_DIVIDE_BY_ZERO IEEE_UNDERFLOW_FLAG IEEE_DENORMAL
Note: The following floating-point exceptions are signalling: IEEE_INVALID_FLAG IEEE_DIVIDE_BY_ZERO IEEE_UNDERFLOW_FLAG IEEE_DENORMAL
Note: The following floating-point exceptions are signalling: IEEE_INVALID_FLAG IEEE_DIVIDE_BY_ZERO IEEE_UNDERFLOW_FLAG IEEE_DENORMAL
Note: The following floating-point exceptions are signalling: IEEE_INVALID_FLAG IEEE_DIVIDE_BY_ZERO IEEE_UNDERFLOW_FLAG IEEE_DENORMAL
Note: The following floating-point exceptions are signalling: IEEE_INVALID_FLAG IEEE_DIVIDE_BY_ZERO IEEE_UNDERFLOW_FLAG IEEE_DENORMAL
Note: The following floating-point exceptions are signalling: IEEE_INVALID_FLAG IEEE_DIVIDE_BY_ZERO IEEE_UNDERFLOW_FLAG IEEE_DENORMAL
Note: The following floating-point exceptions are signalling: IEEE_INVALID_FLAG IEEE_DIVIDE_BY_ZERO IEEE_UNDERFLOW_FLAG IEEE_DENORMAL
Note: The following floating-point exceptions are signalling: IEEE_INVALID_FLAG IEEE_DIVIDE_BY_ZERO IEEE_UNDERFLOW_FLAG IEEE_DENORMAL
Note: The following floating-point exceptions are signalling: IEEE_INVALID_FLAG IEEE_DIVIDE_BY_ZERO IEEE_UNDERFLOW_FLAG IEEE_DENORMAL
Note: The following floating-point exceptions are signalling: IEEE_INVALID_FLAG IEEE_DIVIDE_BY_ZERO IEEE_UNDERFLOW_FLAG IEEE_DENORMAL
Note: The following floating-point exceptions are signalling: IEEE_INVALID_FLAG IEEE_DIVIDE_BY_ZERO IEEE_UNDERFLOW_FLAG IEEE_DENORMAL
Note: The following floating-point exceptions are signalling: IEEE_INVALID_FLAG IEEE_DIVIDE_BY_ZERO IEEE_UNDERFLOW_FLAG IEEE_DENORMAL
Note: The following floating-point exceptions are signalling: IEEE_INVALID_FLAG IEEE_DIVIDE_BY_ZERO IEEE_UNDERFLOW_FLAG IEEE_DENORMAL
Note: The following floating-point exceptions are signalling: IEEE_INVALID_FLAG IEEE_DIVIDE_BY_ZERO IEEE_UNDERFLOW_FLAG IEEE_DENORMAL
Note: The following floating-point exceptions are signalling: IEEE_INVALID_FLAG IEEE_DIVIDE_BY_ZERO IEEE_UNDERFLOW_FLAG IEEE_DENORMAL
Note: The following floating-point exceptions are signalling: IEEE_INVALID_FLAG IEEE_DIVIDE_BY_ZERO IEEE_UNDERFLOW_FLAG IEEE_DENORMAL
Note: The following floating-point exceptions are signalling: IEEE_INVALID_FLAG IEEE_DIVIDE_BY_ZERO IEEE_UNDERFLOW_FLAG IEEE_DENORMAL
Note: The following floating-point exceptions are signalling: IEEE_INVALID_FLAG IEEE_DIVIDE_BY_ZERO IEEE_UNDERFLOW_FLAG IEEE_DENORMAL
Note: The following floating-point exceptions are signalling: IEEE_INVALID_FLAG IEEE_DIVIDE_BY_ZERO IEEE_UNDERFLOW_FLAG IEEE_DENORMAL
Note: The following floating-point exceptions are signalling: IEEE_INVALID_FLAG IEEE_DIVIDE_BY_ZERO IEEE_UNDERFLOW_FLAG IEEE_DENORMAL
Note: The following floating-point exceptions are signalling: IEEE_INVALID_FLAG IEEE_DIVIDE_BY_ZERO IEEE_UNDERFLOW_FLAG IEEE_DENORMAL
Note: The following floating-point exceptions are signalling: IEEE_INVALID_FLAG IEEE_DIVIDE_BY_ZERO IEEE_UNDERFLOW_FLAG IEEE_DENORMAL
Note: The following floating-point exceptions are signalling: IEEE_INVALID_FLAG IEEE_DIVIDE_BY_ZERO IEEE_UNDERFLOW_FLAG IEEE_DENORMAL
Note: The following floating-point exceptions are signalling: IEEE_INVALID_FLAG IEEE_DIVIDE_BY_ZERO IEEE_UNDERFLOW_FLAG IEEE_DENORMAL
Note: The following floating-point exceptions are signalling: IEEE_INVALID_FLAG IEEE_DIVIDE_BY_ZERO IEEE_UNDERFLOW_FLAG IEEE_DENORMAL
Note: The following floating-point exceptions are signalling: IEEE_INVALID_FLAG IEEE_DIVIDE_BY_ZERO IEEE_UNDERFLOW_FLAG IEEE_DENORMAL
Note: The following floating-point exceptions are signalling: IEEE_INVALID_FLAG IEEE_DIVIDE_BY_ZERO IEEE_UNDERFLOW_FLAG IEEE_DENORMAL
Note: The following floating-point exceptions are signalling: IEEE_INVALID_FLAG IEEE_DIVIDE_BY_ZERO IEEE_UNDERFLOW_FLAG IEEE_DENORMAL
Note: The following floating-point exceptions are signalling: IEEE_INVALID_FLAG IEEE_DIVIDE_BY_ZERO IEEE_UNDERFLOW_FLAG IEEE_DENORMAL
Note: The following floating-point exceptions are signalling: IEEE_INVALID_FLAG IEEE_DIVIDE_BY_ZERO IEEE_UNDERFLOW_FLAG IEEE_DENORMAL
Note: The following floating-point exceptions are signalling: IEEE_INVALID_FLAG IEEE_DIVIDE_BY_ZERO IEEE_UNDERFLOW_FLAG IEEE_DENORMAL
Note: The following floating-point exceptions are signalling: IEEE_INVALID_FLAG IEEE_DIVIDE_BY_ZERO IEEE_UNDERFLOW_FLAG IEEE_DENORMAL
Note: The following floating-point exceptions are signalling: IEEE_INVALID_FLAG IEEE_DIVIDE_BY_ZERO IEEE_UNDERFLOW_FLAG IEEE_DENORMAL
Note: The following floating-point exceptions are signalling: IEEE_INVALID_FLAG IEEE_DIVIDE_BY_ZERO IEEE_UNDERFLOW_FLAG IEEE_DENORMAL
Note: The following floating-point exceptions are signalling: IEEE_INVALID_FLAG IEEE_DIVIDE_BY_ZERO IEEE_UNDERFLOW_FLAG IEEE_DENORMAL
Note: The following floating-point exceptions are signalling: IEEE_INVALID_FLAG IEEE_DIVIDE_BY_ZERO IEEE_UNDERFLOW_FLAG IEEE_DENORMAL
Note: The following floating-point exceptions are signalling: IEEE_INVALID_FLAG IEEE_DIVIDE_BY_ZERO IEEE_UNDERFLOW_FLAG IEEE_DENORMAL
Note: The following floating-point exceptions are signalling: IEEE_INVALID_FLAG IEEE_DIVIDE_BY_ZERO IEEE_UNDERFLOW_FLAG IEEE_DENORMAL
Note: The following floating-point exceptions are signalling: IEEE_INVALID_FLAG IEEE_DIVIDE_BY_ZERO IEEE_UNDERFLOW_FLAG IEEE_DENORMAL
