  224  224    1    2
  0.1357572E+02  0.1537960E-08  0.1537962E-08  0.1395899E-08  0.5000000E-15
  1.000000000000000E-004
  CAR 
 unknown system                          
   1664      8   1208
 
  0.0000000E+00  0.0000000E+00  0.0000000E+00  0.1250000E+00
    1      -51.143226    -46.392534   1.000000   1.000000
    2      -51.142324    -46.391411   1.000000   1.000000
    3      -51.141728    -46.391084   1.000000   1.000000
    4      -51.141575    -46.390868   1.000000   1.000000
    5      -51.141408    -46.390692   1.000000   1.000000
    6      -51.141369    -46.390614   1.000000   1.000000
    7      -51.141303    -46.390489   1.000000   1.000000
    8      -51.141253    -46.390468   1.000000   1.000000
    9      -51.141146    -46.390315   1.000000   1.000000
   10      -51.141118    -46.390295   1.000000   1.000000
   11      -51.141067    -46.390240   1.000000   1.000000
   12      -51.140995    -46.390065   1.000000   1.000000
   13      -51.140930    -46.390047   1.000000   1.000000
   14      -51.140880    -46.389998   1.000000   1.000000
   15      -51.140862    -46.389944   1.000000   1.000000
   16      -51.140831    -46.389917   1.000000   1.000000
   17      -51.140809    -46.389903   1.000000   1.000000
   18      -51.140767    -46.389825   1.000000   1.000000
   19      -51.140757    -46.389770   1.000000   1.000000
   20      -51.140697    -46.389763   1.000000   1.000000
   21      -51.140669    -46.389707   1.000000   1.000000
   22      -51.140661    -46.389679   1.000000   1.000000
   23      -51.140639    -46.389655   1.000000   1.000000
   24      -51.140626    -46.389642   1.000000   1.000000
   25      -51.140560    -46.389593   1.000000   1.000000
   26      -51.140547    -46.389571   1.000000   1.000000
   27      -51.140518    -46.389549   1.000000   1.000000
   28      -51.140497    -46.389505   1.000000   1.000000
   29      -51.140490    -46.389487   1.000000   1.000000
   30      -51.140442    -46.389443   1.000000   1.000000
   31      -51.140409    -46.389376   1.000000   1.000000
   32      -51.140381    -46.389295   1.000000   1.000000
   33      -51.140305    -46.389177   1.000000   1.000000
   34      -51.140205    -46.389050   1.000000   1.000000
   35      -51.140135    -46.388894   1.000000   1.000000
   36      -51.140093    -46.388861   1.000000   1.000000
   37      -51.140067    -46.388845   1.000000   1.000000
   38      -51.140061    -46.388818   1.000000   1.000000
   39      -51.140035    -46.388782   1.000000   1.000000
   40      -51.140022    -46.388761   1.000000   1.000000
   41      -51.140012    -46.388751   1.000000   1.000000
   42      -51.139976    -46.388712   1.000000   1.000000
   43      -51.139971    -46.388701   1.000000   1.000000
   44      -51.139947    -46.388676   1.000000   1.000000
   45      -51.139907    -46.388642   1.000000   1.000000
   46      -51.139895    -46.388612   1.000000   1.000000
   47      -51.139838    -46.388589   1.000000   1.000000
   48      -51.139829    -46.388565   1.000000   1.000000
   49      -51.139802    -46.388523   1.000000   1.000000
   50      -51.139794    -46.388502   1.000000   1.000000
   51      -51.139770    -46.388465   1.000000   1.000000
   52      -51.139664    -46.388386   1.000000   1.000000
   53      -51.139630    -46.388328   1.000000   1.000000
   54      -51.139603    -46.388313   1.000000   1.000000
   55      -51.139565    -46.388223   1.000000   1.000000
   56      -51.139497    -46.388124   1.000000   1.000000
   57      -51.139398    -46.388038   1.000000   1.000000
   58      -51.139368    -46.387962   1.000000   1.000000
   59      -51.139318    -46.387883   1.000000   1.000000
   60      -51.139222    -46.387852   1.000000   1.000000
   61      -51.139148    -46.387671   1.000000   1.000000
   62      -51.138934    -46.387528   1.000000   1.000000
   63      -51.138737    -46.387336   1.000000   1.000000
   64      -51.137960    -46.386448   1.000000   1.000000
   65      -49.649422    -45.930968   1.000000   1.000000
   66      -49.648784    -45.930385   1.000000   1.000000
   67      -49.648347    -45.929621   1.000000   1.000000
   68      -49.648053    -45.929480   1.000000   1.000000
   69      -49.647773    -45.929258   1.000000   1.000000
   70      -49.647641    -45.929174   1.000000   1.000000
   71      -49.647621    -45.929055   1.000000   1.000000
   72      -49.647551    -45.928989   1.000000   1.000000
   73      -49.647499    -45.928886   1.000000   1.000000
   74      -49.647461    -45.928863   1.000000   1.000000
   75      -49.647409    -45.928840   1.000000   1.000000
   76      -49.647368    -45.928827   1.000000   1.000000
   77      -49.647325    -45.928763   1.000000   1.000000
   78      -49.647316    -45.928696   1.000000   1.000000
   79      -49.647300    -45.928671   1.000000   1.000000
   80      -49.647236    -45.928629   1.000000   1.000000
   81      -49.647218    -45.928567   1.000000   1.000000
   82      -49.647172    -45.928551   1.000000   1.000000
   83      -49.647116    -45.928519   1.000000   1.000000
   84      -49.647081    -45.928409   1.000000   1.000000
   85      -49.647078    -45.928381   1.000000   1.000000
   86      -49.647040    -45.928359   1.000000   1.000000
   87      -49.647039    -45.928342   1.000000   1.000000
   88      -49.647017    -45.928337   1.000000   1.000000
   89      -49.646967    -45.928321   1.000000   1.000000
   90      -49.646946    -45.928292   1.000000   1.000000
   91      -49.646903    -45.928279   1.000000   1.000000
   92      -49.646849    -45.928245   1.000000   1.000000
   93      -49.646810    -45.928227   1.000000   1.000000
   94      -49.646791    -45.928201   1.000000   1.000000
   95      -49.646767    -45.928183   1.000000   1.000000
   96      -49.646708    -45.928165   1.000000   1.000000
   97      -49.646689    -45.928091   1.000000   1.000000
   98      -49.646620    -45.928061   1.000000   1.000000
   99      -49.646612    -45.928054   1.000000   1.000000
  100      -49.646581    -45.927963   1.000000   1.000000
  101      -49.646512    -45.927942   1.000000   1.000000
  102      -49.646510    -45.927875   1.000000   1.000000
  103      -49.646474    -45.927867   1.000000   1.000000
  104      -49.646392    -45.927844   1.000000   1.000000
  105      -49.646366    -45.927833   1.000000   1.000000
  106      -49.646280    -45.927803   1.000000   1.000000
  107      -49.646273    -45.927752   1.000000   1.000000
  108      -49.646227    -45.927705   1.000000   1.000000
  109      -49.646184    -45.927673   1.000000   1.000000
  110      -49.646179    -45.927653   1.000000   1.000000
  111      -49.646141    -45.927648   1.000000   1.000000
  112      -49.646094    -45.927626   1.000000   1.000000
  113      -49.646085    -45.927604   1.000000   1.000000
  114      -49.646066    -45.927596   1.000000   1.000000
  115      -49.646043    -45.927530   1.000000   1.000000
  116      -49.645968    -45.927506   1.000000   1.000000
  117      -49.645911    -45.927422   1.000000   1.000000
  118      -49.645906    -45.927415   1.000000   1.000000
  119      -49.645832    -45.927375   1.000000   1.000000
  120      -49.645774    -45.927356   1.000000   1.000000
  121      -49.645739    -45.927340   1.000000   1.000000
  122      -49.645730    -45.927268   1.000000   1.000000
  123      -49.645682    -45.927236   1.000000   1.000000
  124      -49.645661    -45.927203   1.000000   1.000000
  125      -49.645636    -45.927189   1.000000   1.000000
  126      -49.645613    -45.927172   1.000000   1.000000
  127      -49.645586    -45.927123   1.000000   1.000000
  128      -49.645516    -45.927101   1.000000   1.000000
  129      -49.645487    -45.927084   1.000000   1.000000
  130      -49.645458    -45.927059   1.000000   1.000000
  131      -49.645437    -45.927048   1.000000   1.000000
  132      -49.645408    -45.927038   1.000000   1.000000
  133      -49.645380    -45.926974   1.000000   1.000000
  134      -49.645362    -45.926968   1.000000   1.000000
  135      -49.645358    -45.926963   1.000000   1.000000
  136      -49.645343    -45.926952   1.000000   1.000000
  137      -49.645332    -45.926921   1.000000   1.000000
  138      -49.645322    -45.926914   1.000000   1.000000
  139      -49.645279    -45.926855   1.000000   1.000000
  140      -49.645194    -45.926843   1.000000   1.000000
  141      -49.645190    -45.926788   1.000000   1.000000
  142      -49.645181    -45.926778   1.000000   1.000000
  143      -49.645160    -45.926770   1.000000   1.000000
  144      -49.645126    -45.926723   1.000000   1.000000
  145      -49.645082    -45.926716   1.000000   1.000000
  146      -49.645060    -45.926705   1.000000   1.000000
  147      -49.645018    -45.926689   1.000000   1.000000
  148      -49.645013    -45.926675   1.000000   1.000000
  149      -49.644993    -45.926646   1.000000   1.000000
  150      -49.644970    -45.926601   1.000000   1.000000
  151      -49.644966    -45.926588   1.000000   1.000000
  152      -49.644944    -45.926551   1.000000   1.000000
  153      -49.644873    -45.926544   1.000000   1.000000
  154      -49.644839    -45.926508   1.000000   1.000000
  155      -49.644815    -45.926469   1.000000   1.000000
  156      -49.644775    -45.926445   1.000000   1.000000
  157      -49.644711    -45.926436   1.000000   1.000000
  158      -49.644692    -45.926385   1.000000   1.000000
  159      -49.644685    -45.926370   1.000000   1.000000
  160      -49.644629    -45.926349   1.000000   1.000000
  161      -49.644592    -45.926337   1.000000   1.000000
  162      -49.644554    -45.926320   1.000000   1.000000
  163      -49.644484    -45.926300   1.000000   1.000000
  164      -49.644476    -45.926290   1.000000   1.000000
  165      -49.644452    -45.926272   1.000000   1.000000
  166      -49.644391    -45.926221   1.000000   1.000000
  167      -49.644387    -45.926159   1.000000   1.000000
  168      -49.644362    -45.926155   1.000000   1.000000
  169      -49.644340    -45.926133   1.000000   1.000000
  170      -49.644330    -45.926098   1.000000   1.000000
  171      -49.644230    -45.926062   1.000000   1.000000
  172      -49.644199    -45.926051   1.000000   1.000000
  173      -49.644188    -45.926013   1.000000   1.000000
  174      -49.644132    -45.926003   1.000000   1.000000
  175      -49.644105    -45.925923   1.000000   1.000000
  176      -49.644079    -45.925907   1.000000   1.000000
  177      -49.644049    -45.925864   1.000000   1.000000
  178      -49.643930    -45.925838   1.000000   1.000000
  179      -49.643919    -45.925815   1.000000   1.000000
  180      -49.643910    -45.925750   1.000000   1.000000
  181      -49.643850    -45.925714   1.000000   1.000000
  182      -49.643817    -45.925640   1.000000   1.000000
  183      -49.643789    -45.925633   1.000000   1.000000
  184      -49.643755    -45.925599   1.000000   1.000000
  185      -49.643629    -45.925511   1.000000   1.000000
  186      -49.643607    -45.925385   1.000000   1.000000
  187      -49.643535    -45.925357   1.000000   1.000000
  188      -49.643497    -45.925271   1.000000   1.000000
  189      -49.643378    -45.925219   1.000000   1.000000
  190      -49.643052    -45.924865   1.000000   1.000000
  191      -49.642991    -45.924329   1.000000   1.000000
  192      -49.642115    -45.924190   1.000000   1.000000
  193      -39.641057    -39.640140   1.000000   1.000000
  194      -39.641038    -39.640120   1.000000   1.000000
  195      -39.633656    -39.632782   1.000000   1.000000
  196      -39.633468    -39.632594   1.000000   1.000000
  197      -39.633440    -39.632568   1.000000   1.000000
  198      -39.633425    -39.632553   1.000000   1.000000
  199      -39.633378    -39.632505   1.000000   1.000000
  200      -39.633360    -39.632488   1.000000   1.000000
  201      -39.633327    -39.632454   1.000000   1.000000
  202      -39.633113    -39.632240   1.000000   1.000000
  203      -39.627915    -39.627076   1.000000   1.000000
  204      -39.627809    -39.626971   1.000000   1.000000
  205      -39.627806    -39.626968   1.000000   1.000000
  206      -39.627773    -39.626935   1.000000   1.000000
  207      -39.627768    -39.626930   1.000000   1.000000
  208      -39.627716    -39.626878   1.000000   1.000000
  209      -39.627699    -39.626861   1.000000   1.000000
  210      -39.627535    -39.626697   1.000000   1.000000
  211      -39.616171    -39.615395   1.000000   1.000000
  212      -39.616072    -39.615294   1.000000   1.000000
  213      -39.615989    -39.615211   1.000000   1.000000
  214      -39.615973    -39.615197   1.000000   1.000000
  215      -39.615690    -39.614912   1.000000   1.000000
  216      -39.615616    -39.614835   1.000000   1.000000
  217      -39.615562    -39.614782   1.000000   1.000000
  218      -39.615541    -39.614761   1.000000   1.000000
  219      -39.615389    -39.614618   1.000000   1.000000
  220      -39.615260    -39.614493   1.000000   1.000000
  221      -39.615223    -39.614455   1.000000   1.000000
  222      -39.615205    -39.614437   1.000000   1.000000
  223      -39.615185    -39.614416   1.000000   1.000000
  224      -39.615153    -39.614386   1.000000   1.000000
  225      -39.615148    -39.614381   1.000000   1.000000
  226      -39.615144    -39.614377   1.000000   1.000000
  227      -39.615015    -39.614247   1.000000   1.000000
  228      -39.614992    -39.614223   1.000000   1.000000
  229      -39.614988    -39.614219   1.000000   1.000000
  230      -39.614922    -39.614153   1.000000   1.000000
  231      -39.614912    -39.614143   1.000000   1.000000
  232      -39.614900    -39.614130   1.000000   1.000000
  233      -39.614834    -39.614066   1.000000   1.000000
  234      -39.614757    -39.613991   1.000000   1.000000
  235      -39.614383    -39.613626   1.000000   1.000000
  236      -39.614298    -39.613541   1.000000   1.000000
  237      -39.614245    -39.613487   1.000000   1.000000
  238      -39.614137    -39.613377   1.000000   1.000000
  239      -39.603950    -39.603230   1.000000   1.000000
  240      -39.603882    -39.603163   1.000000   1.000000
  241      -39.603863    -39.603144   1.000000   1.000000
  242      -39.603813    -39.603094   1.000000   1.000000
  243      -39.603806    -39.603087   1.000000   1.000000
  244      -39.603774    -39.603055   1.000000   1.000000
  245      -39.603761    -39.603042   1.000000   1.000000
  246      -39.603622    -39.602902   1.000000   1.000000
  247      -39.599756    -39.599050   1.000000   1.000000
  248      -39.599628    -39.598922   1.000000   1.000000
  249      -39.599602    -39.598896   1.000000   1.000000
  250      -39.599588    -39.598882   1.000000   1.000000
  251      -39.599539    -39.598833   1.000000   1.000000
  252      -39.599523    -39.598817   1.000000   1.000000
  253      -39.599487    -39.598781   1.000000   1.000000
  254      -39.599270    -39.598564   1.000000   1.000000
  255      -39.593315    -39.592633   1.000000   1.000000
  256      -39.593244    -39.592561   1.000000   1.000000
  257      -12.747191    -12.467721   1.000000   1.000000
  258      -12.747155    -12.467684   1.000000   1.000000
  259      -12.719898    -12.440174   1.000000   1.000000
  260      -12.719411    -12.439660   1.000000   1.000000
  261      -12.719382    -12.439620   1.000000   1.000000
  262      -12.719347    -12.439595   1.000000   1.000000
  263      -12.719291    -12.439542   1.000000   1.000000
  264      -12.719272    -12.439526   1.000000   1.000000
  265      -12.719270    -12.439518   1.000000   1.000000
  266      -12.718595    -12.438814   1.000000   1.000000
  267      -12.697349    -12.417198   1.000000   1.000000
  268      -12.697054    -12.416885   1.000000   1.000000
  269      -12.695065    -12.415466   1.000000   1.000000
  270      -12.694787    -12.415178   1.000000   1.000000
  271      -12.694715    -12.415109   1.000000   1.000000
  272      -12.694406    -12.414790   1.000000   1.000000
  273      -12.692517    -12.413441   1.000000   1.000000
  274      -12.692236    -12.413118   1.000000   1.000000
  275      -12.691458    -12.411464   1.000000   1.000000
  276      -12.691282    -12.411247   1.000000   1.000000
  277      -12.691213    -12.411181   1.000000   1.000000
  278      -12.690684    -12.410670   1.000000   1.000000
  279      -12.672926    -12.392931   1.000000   1.000000
  280      -12.672702    -12.392688   1.000000   1.000000
  281      -12.672653    -12.392637   1.000000   1.000000
  282      -12.672319    -12.392293   1.000000   1.000000
  283      -12.667831    -12.388950   1.000000   1.000000
  284      -12.667632    -12.388743   1.000000   1.000000
  285      -12.667584    -12.388693   1.000000   1.000000
  286      -12.667182    -12.388252   1.000000   1.000000
  287      -12.654504    -12.374548   1.000000   1.000000
  288      -12.643727    -12.366000   1.000000   1.000000
  289       -7.800039     -7.599041   1.000000   1.000000
  290       -7.748236     -7.551515   1.000000   1.000000
  291       -7.505687     -7.319361   1.000000   1.000000
  292       -7.505410     -7.319144   1.000000   1.000000
  293       -7.505341     -7.319065   1.000000   1.000000
  294       -7.505286     -7.318996   1.000000   1.000000
  295       -7.501046     -7.308965   1.000000   1.000000
  296       -7.500954     -7.308822   1.000000   1.000000
  297       -7.500849     -7.308724   1.000000   1.000000
  298       -7.500676     -7.308593   1.000000   1.000000
  299       -7.315205     -7.117756   1.000000   1.000000
  300       -7.315128     -7.117671   1.000000   1.000000
  301       -7.297383     -7.094106   1.000000   1.000000
  302       -7.297202     -7.093924   1.000000   1.000000
  303       -7.296393     -7.093104   1.000000   1.000000
  304       -7.296309     -7.093022   1.000000   1.000000
  305       -7.269272     -7.061980   1.000000   1.000000
  306       -7.269202     -7.061901   1.000000   1.000000
  307       -7.088644     -6.893971   1.000000   1.000000
  308       -7.084772     -6.893867   1.000000   1.000000
  309       -7.084677     -6.893823   1.000000   1.000000
  310       -7.084622     -6.893746   1.000000   1.000000
  311       -7.084554     -6.796757   1.000000   1.000000
  312       -7.046575     -6.783795   1.000000   1.000000
  313       -7.000097     -6.768372   1.000000   1.000000
  314       -6.999833     -6.767936   1.000000   1.000000
  315       -6.999823     -6.767913   1.000000   1.000000
  316       -6.999817     -6.767889   1.000000   1.000000
  317       -6.999725     -6.766151   1.000000   1.000000
  318       -6.999710     -6.766147   1.000000   1.000000
  319       -6.999705     -6.766120   1.000000   1.000000
  320       -6.999563     -6.766070   1.000000   1.000000
  321       -6.994380     -6.766041   1.000000   1.000000
  322       -6.994212     -6.766025   1.000000   1.000000
  323       -6.994115     -6.766021   1.000000   1.000000
  324       -6.994004     -6.765732   1.000000   1.000000
  325       -6.955876     -6.745101   1.000000   1.000000
  326       -6.955786     -6.744915   1.000000   1.000000
  327       -6.955729     -6.744815   1.000000   1.000000
  328       -6.955661     -6.744704   1.000000   1.000000
  329       -6.948371     -6.697542   1.000000   1.000000
  330       -6.948293     -6.697434   1.000000   1.000000
  331       -6.928792     -6.689251   1.000000   1.000000
  332       -6.928642     -6.689099   1.000000   1.000000
  333       -6.928551     -6.688996   1.000000   1.000000
  334       -6.928459     -6.688901   1.000000   1.000000
  335       -6.911346     -6.639688   1.000000   1.000000
  336       -6.911315     -6.639107   1.000000   1.000000
  337       -6.886247     -6.639082   1.000000   1.000000
  338       -6.886013     -6.639076   1.000000   1.000000
  339       -6.885200     -6.639020   1.000000   1.000000
  340       -6.885159     -6.638979   1.000000   1.000000
  341       -6.877028     -6.638962   1.000000   1.000000
  342       -6.876877     -6.638947   1.000000   1.000000
  343       -6.876867     -6.638696   1.000000   1.000000
  344       -6.876858     -6.638624   1.000000   1.000000
  345       -6.876767     -6.637882   1.000000   1.000000
  346       -6.876754     -6.637792   1.000000   1.000000
  347       -6.876749     -6.628078   1.000000   1.000000
  348       -6.876556     -6.628012   1.000000   1.000000
  349       -6.832643     -6.586686   1.000000   1.000000
  350       -6.832566     -6.586598   1.000000   1.000000
  351       -6.794280     -6.499102   1.000000   1.000000
  352       -6.794264     -6.499083   1.000000   1.000000
  353       -1.525502     -0.414674   1.000000   1.000000
  354       -1.467760     -0.414586   1.000000   1.000000
  355       -1.467670     -0.414446   1.000000   1.000000
  356       -1.467632     -0.414323   1.000000   1.000000
  357       -1.467550      0.026173   1.000000   1.000000
  358       -1.460419      0.026329   1.000000   1.000000
  359       -1.460334      0.026434   1.000000   1.000000
  360       -1.460176      0.026575   1.000000   1.000000
  361       -1.460044      0.037735   1.000000   1.000000
  362       -1.421444      0.037899   1.000000   1.000000
  363       -1.421260      0.037943   1.000000   1.000000
  364       -1.382946      0.038008   1.000000   1.000000
  365       -1.382804      0.038084   1.000000   1.000000
  366       -1.382747      0.038149   1.000000   1.000000
  367       -1.382550      0.038214   1.000000   1.000000
  368       -1.332807      0.038469   1.000000   1.000000
  369       -1.332677      0.102799   1.000000   1.000000
  370       -1.332543      0.103024   1.000000   1.000000
  371       -1.332532      0.207362   1.000000   1.000000
  372       -1.332426      0.207520   1.000000   1.000000
  373       -1.332420      0.207565   1.000000   1.000000
  374       -1.332363      0.207795   1.000000   1.000000
  375       -1.332134      0.304182   1.000000   1.000000
  376       -1.292572      0.392376   1.000000   1.000000
  377       -1.292470      0.392564   1.000000   1.000000
  378       -1.292455      0.392668   1.000000   1.000000
  379       -1.292357      0.392836   1.000000   1.000000
  380       -1.256798      0.490776   1.000000   1.000000
  381       -1.256765      0.491031   1.000000   1.000000
  382       -1.232251      0.497559   1.000000   1.000000
  383       -1.232065      0.497662   1.000000   1.000000
  384       -1.220376      0.497785   1.000000   1.000000
  385       -0.822780      0.497812   1.000000   1.000000
  386       -0.822735      0.510651   1.000000   1.000000
  387       -0.822646      0.510708   1.000000   1.000000
  388       -0.822608      0.531152   1.000000   1.000000
  389       -0.722728      0.531199   1.000000   1.000000
  390       -0.722551      0.531294   1.000000   1.000000
  391       -0.699164      0.531339   1.000000   1.000000
  392       -0.699087      0.574241   1.000000   1.000000
  393       -0.699004      0.574286   1.000000   1.000000
  394       -0.698896      0.574316   1.000000   1.000000
  395       -0.688466      0.574364   1.000000   1.000000
  396       -0.688434      0.574387   1.000000   1.000000
  397       -0.688189      0.574421   1.000000   1.000000
  398       -0.688142      0.574518   1.000000   1.000000
  399       -0.666707      0.574524   1.000000   1.000000
  400       -0.666671      0.638632   1.000000   1.000000
  401       -0.666402      0.666248   1.000000   1.000000
  402       -0.666377      0.666394   1.000000   1.000000
  403       -0.651937      0.733089   1.000000   1.000000
  404       -0.651899      0.733134   1.000000   1.000000
  405       -0.651797      0.931373   1.000000   1.000000
  406       -0.651753      0.932530   1.000000   1.000000
  407       -0.589472      0.935568   1.000000   1.000000
  408       -0.589333      0.935685   1.000000   1.000000
  409       -0.576732      0.948848   1.000000   1.000000
  410       -0.576665      0.948906   1.000000   1.000000
  411       -0.576413      0.949003   1.000000   1.000000
  412       -0.576321      0.949016   1.000000   1.000000
  413       -0.553385      0.985988   1.000000   1.000000
  414       -0.553357      0.986067   1.000000   1.000000
  415       -0.553063      0.986329   1.000000   1.000000
  416       -0.552982      0.986483   1.000000   1.000000
  417       -0.497623      0.992781   1.000000   1.000000
  418       -0.496875      0.992968   1.000000   1.000000
  419       -0.472898      1.008873   1.000000   1.000000
  420       -0.472671      1.008896   1.000000   1.000000
  421       -0.461570      1.009027   1.000000   1.000000
  422       -0.461541      1.009036   1.000000   1.000000
  423       -0.461226      1.018450   1.000000   1.000000
  424       -0.461130      1.049080   1.000000   1.000000
  425       -0.459779      1.049190   1.000000   1.000000
  426       -0.459749      1.051597   1.000000   1.000000
  427       -0.459428      1.051741   1.000000   1.000000
  428       -0.459328      1.051753   1.000000   1.000000
  429       -0.410065      1.051854   1.000000   1.000000
  430       -0.409933      1.078741   1.000000   1.000000
  431       -0.407717      1.078828   1.000000   1.000000
  432       -0.407523      1.078857   1.000000   1.000000
  433       -0.407464      1.078939   1.000000   1.000000
  434       -0.407419      1.079625   1.000000   1.000000
  435       -0.407399      1.079712   1.000000   1.000000
  436       -0.407201      1.080027   1.000000   1.000000
  437       -0.383285      1.080111   1.000000   1.000000
  438       -0.383266      1.192814   1.000000   1.000000
  439       -0.378170      1.192952   1.000000   1.000000
  440       -0.368925      1.376500   1.000000   1.000000
  441       -0.368833      1.390415   1.000000   1.000000
  442       -0.368754      1.391204   1.000000   1.000000
  443       -0.368708      1.391222   1.000000   1.000000
  444       -0.368641      1.391272   1.000000   1.000000
  445       -0.368627      1.391359   1.000000   1.000000
  446       -0.368575      1.437358   1.000000   1.000000
  447       -0.368490      1.450255   1.000000   1.000000
  448       -0.353552      1.526199   1.000000   1.000000
  449       -0.353532      1.526411   1.000000   1.000000
  450       -0.349036      1.526467   1.000000   1.000000
  451       -0.341757      1.526543   1.000000   1.000000
  452       -0.335808      1.528816   1.000000   1.000000
  453       -0.335781      1.528948   1.000000   1.000000
  454       -0.335382      1.528968   1.000000   1.000000
  455       -0.335332      1.529123   1.000000   1.000000
  456       -0.334215      1.558190   1.000000   1.000000
  457       -0.334197      1.558216   1.000000   1.000000
  458       -0.334025      1.558436   1.000000   1.000000
  459       -0.333996      1.558489   1.000000   1.000000
  460       -0.324284      1.566623   1.000000   1.000000
  461       -0.324214      1.566779   1.000000   1.000000
  462       -0.323841      1.566920   1.000000   1.000000
  463       -0.323826      1.567107   1.000000   1.000000
  464       -0.321675      1.568148   1.000000   1.000000
  465       -0.321622      1.568283   1.000000   1.000000
  466       -0.321166      1.568491   1.000000   1.000000
  467       -0.321162      1.568709   1.000000   1.000000
  468       -0.303820      1.586572   1.000000   1.000000
  469       -0.295891      1.586657   1.000000   1.000000
  470       -0.287938      1.695703   1.000000   1.000000
  471       -0.287878      1.695718   1.000000   1.000000
  472       -0.287813      1.741007   1.000000   1.000000
  473       -0.287749      1.741090   1.000000   1.000000
  474       -0.280389      1.741174   1.000000   1.000000
  475       -0.280376      1.741201   1.000000   1.000000
  476       -0.275077      1.746820   1.000000   1.000000
  477       -0.275067      1.746860   1.000000   1.000000
  478       -0.274803      1.746899   1.000000   1.000000
  479       -0.274797      1.747090   1.000000   1.000000
  480       -0.241611      1.779019   1.000000   1.000000
  481       -0.241605      1.780606   1.000000   1.000000
  482       -0.241575      1.780647   1.000000   1.000000
  483       -0.241561      1.836822   1.000000   1.000000
  484       -0.241415      1.836940   1.000000   1.000000
  485       -0.241392      1.837282   1.000000   1.000000
  486       -0.241305      1.837467   1.000000   1.000000
  487       -0.241276      1.837730   1.000000   1.000000
  488       -0.207392      1.837816   1.000000   1.000000
  489       -0.207387      1.838424   1.000000   1.000000
  490       -0.199700      1.838525   1.000000   1.000000
  491       -0.199654      1.866205   1.000000   1.000000
  492       -0.199466      1.866406   1.000000   1.000000
  493       -0.199403      1.913350   1.000000   1.000000
  494       -0.194070      1.913461   1.000000   1.000000
  495       -0.193937      1.913495   1.000000   1.000000
  496       -0.163976      1.913565   1.000000   1.000000
  497       -0.163911      1.913593   1.000000   1.000000
  498       -0.163779      1.913634   1.000000   1.000000
  499       -0.163732      1.913677   1.000000   1.000000
  500       -0.156683      1.913974   1.000000   1.000000
  501       -0.156615      1.926830   1.000000   1.000000
  502       -0.156193      1.926926   1.000000   1.000000
  503       -0.156149      1.927048   1.000000   1.000000
  504       -0.139047      1.927288   1.000000   1.000000
  505       -0.139036      2.133240   1.000000   1.000000
  506       -0.138825      2.133281   1.000000   1.000000
  507       -0.138789      2.191249   1.000000   1.000000
  508       -0.091006      2.193193   1.000000   1.000000
  509       -0.090895      2.300658   1.000000   1.000000
  510       -0.082565      2.300799   1.000000   1.000000
  511       -0.082532      2.301066   1.000000   1.000000
  512       -0.082416      2.301225   1.000000   1.000000