 120 120   0   0
  0.1228332E+02  0.1173587E-08  0.1121847E-08  0.1119562E-08  0.5000000E-15
  1.000000000000000E-004
  CAR 
 unknown system                          
     16.74083926    -54.73173583  301      4.41182006      1.00000000
    -54.732  0.0000E+00  0.0000E+00  0.0000E+00  0.0000E+00
    -54.493  0.0000E+00  0.0000E+00  0.0000E+00  0.0000E+00
    -54.255  0.0000E+00  0.0000E+00  0.0000E+00  0.0000E+00
    -54.017  0.0000E+00  0.0000E+00  0.0000E+00  0.0000E+00
    -53.779  0.0000E+00  0.0000E+00  0.0000E+00  0.0000E+00
    -53.541  0.0000E+00  0.0000E+00  0.0000E+00  0.0000E+00
    -53.302  0.0000E+00  0.0000E+00  0.0000E+00  0.0000E+00
    -53.064  0.0000E+00  0.0000E+00  0.0000E+00  0.0000E+00
    -52.826  0.0000E+00  0.0000E+00  0.0000E+00  0.0000E+00
    -52.588  0.0000E+00  0.0000E+00  0.0000E+00  0.0000E+00
    -52.349  0.0000E+00  0.0000E+00  0.0000E+00  0.0000E+00
    -52.111  0.0000E+00  0.0000E+00  0.0000E+00  0.0000E+00
    -51.873  0.0000E+00  0.0000E+00  0.0000E+00  0.0000E+00
    -51.635  0.2279E-03  0.0000E+00  0.5430E-04  0.0000E+00
    -51.396  0.9758E+02  0.0000E+00  0.2325E+02  0.0000E+00
    -51.158  0.3158E+01  0.0000E+00  0.2400E+02  0.0000E+00
    -50.920  0.0000E+00  0.0000E+00  0.2400E+02  0.0000E+00
    -50.682  0.0000E+00  0.0000E+00  0.2400E+02  0.0000E+00
    -50.443  0.2267E-09  0.0000E+00  0.2400E+02  0.0000E+00
    -50.205  0.4218E+02  0.0000E+00  0.3405E+02  0.0000E+00
    -49.967  0.1321E+03  0.0000E+00  0.6551E+02  0.0000E+00
    -49.729  0.2724E+02  0.0000E+00  0.7200E+02  0.0000E+00
    -49.490  0.0000E+00  0.0000E+00  0.7200E+02  0.0000E+00
    -49.252  0.0000E+00  0.0000E+00  0.7200E+02  0.0000E+00
    -49.014  0.0000E+00  0.0000E+00  0.7200E+02  0.0000E+00
    -48.776  0.0000E+00  0.0000E+00  0.7200E+02  0.0000E+00
    -48.537  0.0000E+00  0.0000E+00  0.7200E+02  0.0000E+00
    -48.299  0.0000E+00  0.0000E+00  0.7200E+02  0.0000E+00
    -48.061  0.0000E+00  0.0000E+00  0.7200E+02  0.0000E+00
    -47.823  0.0000E+00  0.0000E+00  0.7200E+02  0.0000E+00
    -47.584  0.0000E+00  0.0000E+00  0.7200E+02  0.0000E+00
    -47.346  0.0000E+00  0.0000E+00  0.7200E+02  0.0000E+00
    -47.108  0.0000E+00  0.0000E+00  0.7200E+02  0.0000E+00
    -46.870  0.0000E+00  0.6124E-01  0.7200E+02  0.1459E-01
    -46.632  0.0000E+00  0.1006E+03  0.7200E+02  0.2397E+02
    -46.393  0.0000E+00  0.9530E+02  0.7200E+02  0.4668E+02
    -46.155  0.0000E+00  0.1063E+03  0.7200E+02  0.7200E+02
    -45.917  0.0000E+00  0.0000E+00  0.7200E+02  0.7200E+02
    -45.679  0.0000E+00  0.0000E+00  0.7200E+02  0.7200E+02
    -45.440  0.0000E+00  0.0000E+00  0.7200E+02  0.7200E+02
    -45.202  0.0000E+00  0.0000E+00  0.7200E+02  0.7200E+02
    -44.964  0.0000E+00  0.0000E+00  0.7200E+02  0.7200E+02
    -44.726  0.0000E+00  0.0000E+00  0.7200E+02  0.7200E+02
    -44.487  0.0000E+00  0.0000E+00  0.7200E+02  0.7200E+02
    -44.249  0.0000E+00  0.0000E+00  0.7200E+02  0.7200E+02
    -44.011  0.0000E+00  0.0000E+00  0.7200E+02  0.7200E+02
    -43.773  0.0000E+00  0.0000E+00  0.7200E+02  0.7200E+02
    -43.534  0.0000E+00  0.0000E+00  0.7200E+02  0.7200E+02
    -43.296  0.0000E+00  0.0000E+00  0.7200E+02  0.7200E+02
    -43.058  0.0000E+00  0.0000E+00  0.7200E+02  0.7200E+02
    -42.820  0.0000E+00  0.0000E+00  0.7200E+02  0.7200E+02
    -42.581  0.0000E+00  0.0000E+00  0.7200E+02  0.7200E+02
    -42.343  0.0000E+00  0.0000E+00  0.7200E+02  0.7200E+02
    -42.105  0.0000E+00  0.0000E+00  0.7200E+02  0.7200E+02
    -41.867  0.0000E+00  0.0000E+00  0.7200E+02  0.7200E+02
    -41.628  0.0000E+00  0.0000E+00  0.7200E+02  0.7200E+02
    -41.390  0.0000E+00  0.0000E+00  0.7200E+02  0.7200E+02
    -41.152  0.0000E+00  0.0000E+00  0.7200E+02  0.7200E+02
    -40.914  0.0000E+00  0.0000E+00  0.7200E+02  0.7200E+02
    -40.675  0.4581E-03  0.1463E-03  0.7200E+02  0.7200E+02
    -40.437  0.9906E+02  0.9775E+02  0.9560E+02  0.9529E+02
    -40.199  0.1023E+03  0.1036E+03  0.1200E+03  0.1200E+03
    -39.961  0.1390E+00  0.1422E+00  0.1200E+03  0.1200E+03
    -39.722  0.0000E+00  0.0000E+00  0.1200E+03  0.1200E+03
    -39.484  0.0000E+00  0.0000E+00  0.1200E+03  0.1200E+03
    -39.246  0.0000E+00  0.0000E+00  0.1200E+03  0.1200E+03
    -39.008  0.0000E+00  0.0000E+00  0.1200E+03  0.1200E+03
    -38.770  0.0000E+00  0.0000E+00  0.1200E+03  0.1200E+03
    -38.531  0.0000E+00  0.0000E+00  0.1200E+03  0.1200E+03
    -38.293  0.0000E+00  0.0000E+00  0.1200E+03  0.1200E+03
    -38.055  0.0000E+00  0.0000E+00  0.1200E+03  0.1200E+03
    -37.817  0.0000E+00  0.0000E+00  0.1200E+03  0.1200E+03
    -37.578  0.0000E+00  0.0000E+00  0.1200E+03  0.1200E+03
    -37.340  0.0000E+00  0.0000E+00  0.1200E+03  0.1200E+03
    -37.102  0.0000E+00  0.0000E+00  0.1200E+03  0.1200E+03
    -36.864  0.0000E+00  0.0000E+00  0.1200E+03  0.1200E+03
    -36.625  0.0000E+00  0.0000E+00  0.1200E+03  0.1200E+03
    -36.387  0.0000E+00  0.0000E+00  0.1200E+03  0.1200E+03
    -36.149  0.0000E+00  0.0000E+00  0.1200E+03  0.1200E+03
    -35.911  0.0000E+00  0.0000E+00  0.1200E+03  0.1200E+03
    -35.672  0.0000E+00  0.0000E+00  0.1200E+03  0.1200E+03
    -35.434  0.0000E+00  0.0000E+00  0.1200E+03  0.1200E+03
    -35.196  0.0000E+00  0.0000E+00  0.1200E+03  0.1200E+03
    -34.958  0.0000E+00  0.0000E+00  0.1200E+03  0.1200E+03
    -34.719  0.0000E+00  0.0000E+00  0.1200E+03  0.1200E+03
    -34.481  0.0000E+00  0.0000E+00  0.1200E+03  0.1200E+03
    -34.243  0.0000E+00  0.0000E+00  0.1200E+03  0.1200E+03
    -34.005  0.0000E+00  0.0000E+00  0.1200E+03  0.1200E+03
    -33.766  0.0000E+00  0.0000E+00  0.1200E+03  0.1200E+03
    -33.528  0.0000E+00  0.0000E+00  0.1200E+03  0.1200E+03
    -33.290  0.0000E+00  0.0000E+00  0.1200E+03  0.1200E+03
    -33.052  0.0000E+00  0.0000E+00  0.1200E+03  0.1200E+03
    -32.813  0.0000E+00  0.0000E+00  0.1200E+03  0.1200E+03
    -32.575  0.0000E+00  0.0000E+00  0.1200E+03  0.1200E+03
    -32.337  0.0000E+00  0.0000E+00  0.1200E+03  0.1200E+03
    -32.099  0.0000E+00  0.0000E+00  0.1200E+03  0.1200E+03
    -31.861  0.0000E+00  0.0000E+00  0.1200E+03  0.1200E+03
    -31.622  0.0000E+00  0.0000E+00  0.1200E+03  0.1200E+03
    -31.384  0.0000E+00  0.0000E+00  0.1200E+03  0.1200E+03
    -31.146  0.0000E+00  0.0000E+00  0.1200E+03  0.1200E+03
    -30.908  0.0000E+00  0.0000E+00  0.1200E+03  0.1200E+03
    -30.669  0.0000E+00  0.0000E+00  0.1200E+03  0.1200E+03
    -30.431  0.0000E+00  0.0000E+00  0.1200E+03  0.1200E+03
    -30.193  0.0000E+00  0.0000E+00  0.1200E+03  0.1200E+03
    -29.955  0.0000E+00  0.0000E+00  0.1200E+03  0.1200E+03
    -29.716  0.0000E+00  0.0000E+00  0.1200E+03  0.1200E+03
    -29.478  0.0000E+00  0.0000E+00  0.1200E+03  0.1200E+03
    -29.240  0.0000E+00  0.0000E+00  0.1200E+03  0.1200E+03
    -29.002  0.0000E+00  0.0000E+00  0.1200E+03  0.1200E+03
    -28.763  0.0000E+00  0.0000E+00  0.1200E+03  0.1200E+03
    -28.525  0.0000E+00  0.0000E+00  0.1200E+03  0.1200E+03
    -28.287  0.0000E+00  0.0000E+00  0.1200E+03  0.1200E+03
    -28.049  0.0000E+00  0.0000E+00  0.1200E+03  0.1200E+03
    -27.810  0.0000E+00  0.0000E+00  0.1200E+03  0.1200E+03
    -27.572  0.0000E+00  0.0000E+00  0.1200E+03  0.1200E+03
    -27.334  0.0000E+00  0.0000E+00  0.1200E+03  0.1200E+03
    -27.096  0.0000E+00  0.0000E+00  0.1200E+03  0.1200E+03
    -26.857  0.0000E+00  0.0000E+00  0.1200E+03  0.1200E+03
    -26.619  0.0000E+00  0.0000E+00  0.1200E+03  0.1200E+03
    -26.381  0.0000E+00  0.0000E+00  0.1200E+03  0.1200E+03
    -26.143  0.0000E+00  0.0000E+00  0.1200E+03  0.1200E+03
    -25.904  0.0000E+00  0.0000E+00  0.1200E+03  0.1200E+03
    -25.666  0.0000E+00  0.0000E+00  0.1200E+03  0.1200E+03
    -25.428  0.0000E+00  0.0000E+00  0.1200E+03  0.1200E+03
    -25.190  0.0000E+00  0.0000E+00  0.1200E+03  0.1200E+03
    -24.951  0.0000E+00  0.0000E+00  0.1200E+03  0.1200E+03
    -24.713  0.0000E+00  0.0000E+00  0.1200E+03  0.1200E+03
    -24.475  0.0000E+00  0.0000E+00  0.1200E+03  0.1200E+03
    -24.237  0.0000E+00  0.0000E+00  0.1200E+03  0.1200E+03
    -23.999  0.0000E+00  0.0000E+00  0.1200E+03  0.1200E+03
    -23.760  0.0000E+00  0.0000E+00  0.1200E+03  0.1200E+03
    -23.522  0.0000E+00  0.0000E+00  0.1200E+03  0.1200E+03
    -23.284  0.0000E+00  0.0000E+00  0.1200E+03  0.1200E+03
    -23.046  0.0000E+00  0.0000E+00  0.1200E+03  0.1200E+03
    -22.807  0.0000E+00  0.0000E+00  0.1200E+03  0.1200E+03
    -22.569  0.0000E+00  0.0000E+00  0.1200E+03  0.1200E+03
    -22.331  0.0000E+00  0.0000E+00  0.1200E+03  0.1200E+03
    -22.093  0.0000E+00  0.0000E+00  0.1200E+03  0.1200E+03
    -21.854  0.0000E+00  0.0000E+00  0.1200E+03  0.1200E+03
    -21.616  0.0000E+00  0.0000E+00  0.1200E+03  0.1200E+03
    -21.378  0.0000E+00  0.0000E+00  0.1200E+03  0.1200E+03
    -21.140  0.0000E+00  0.0000E+00  0.1200E+03  0.1200E+03
    -20.901  0.0000E+00  0.0000E+00  0.1200E+03  0.1200E+03
    -20.663  0.0000E+00  0.0000E+00  0.1200E+03  0.1200E+03
    -20.425  0.0000E+00  0.0000E+00  0.1200E+03  0.1200E+03
    -20.187  0.0000E+00  0.0000E+00  0.1200E+03  0.1200E+03
    -19.948  0.0000E+00  0.0000E+00  0.1200E+03  0.1200E+03
    -19.710  0.0000E+00  0.0000E+00  0.1200E+03  0.1200E+03
    -19.472  0.0000E+00  0.0000E+00  0.1200E+03  0.1200E+03
    -19.234  0.0000E+00  0.0000E+00  0.1200E+03  0.1200E+03
    -18.995  0.0000E+00  0.0000E+00  0.1200E+03  0.1200E+03
    -18.757  0.0000E+00  0.0000E+00  0.1200E+03  0.1200E+03
    -18.519  0.0000E+00  0.0000E+00  0.1200E+03  0.1200E+03
    -18.281  0.0000E+00  0.0000E+00  0.1200E+03  0.1200E+03
    -18.042  0.0000E+00  0.0000E+00  0.1200E+03  0.1200E+03
    -17.804  0.0000E+00  0.0000E+00  0.1200E+03  0.1200E+03
    -17.566  0.0000E+00  0.0000E+00  0.1200E+03  0.1200E+03
    -17.328  0.0000E+00  0.0000E+00  0.1200E+03  0.1200E+03
    -17.090  0.0000E+00  0.0000E+00  0.1200E+03  0.1200E+03
    -16.851  0.0000E+00  0.0000E+00  0.1200E+03  0.1200E+03
    -16.613  0.0000E+00  0.0000E+00  0.1200E+03  0.1200E+03
    -16.375  0.0000E+00  0.0000E+00  0.1200E+03  0.1200E+03
    -16.137  0.0000E+00  0.0000E+00  0.1200E+03  0.1200E+03
    -15.898  0.0000E+00  0.0000E+00  0.1200E+03  0.1200E+03
    -15.660  0.0000E+00  0.0000E+00  0.1200E+03  0.1200E+03
    -15.422  0.0000E+00  0.0000E+00  0.1200E+03  0.1200E+03
    -15.184  0.0000E+00  0.0000E+00  0.1200E+03  0.1200E+03
    -14.945  0.0000E+00  0.0000E+00  0.1200E+03  0.1200E+03
    -14.707  0.0000E+00  0.0000E+00  0.1200E+03  0.1200E+03
    -14.469  0.0000E+00  0.0000E+00  0.1200E+03  0.1200E+03
    -14.231  0.0000E+00  0.0000E+00  0.1200E+03  0.1200E+03
    -13.992  0.0000E+00  0.0000E+00  0.1200E+03  0.1200E+03
    -13.754  0.3992E-08  0.0000E+00  0.1200E+03  0.1200E+03
    -13.516  0.1050E+02  0.1001E-14  0.1225E+03  0.1200E+03
    -13.278  0.5994E+02  0.4843E+00  0.1368E+03  0.1201E+03
    -13.039  0.3030E+02  0.6914E+02  0.1440E+03  0.1366E+03
    -12.801  0.1358E-03  0.3111E+02  0.1440E+03  0.1440E+03
    -12.563  0.0000E+00  0.1369E-04  0.1440E+03  0.1440E+03
    -12.325  0.0000E+00  0.0000E+00  0.1440E+03  0.1440E+03
    -12.086  0.0000E+00  0.0000E+00  0.1440E+03  0.1440E+03
    -11.848  0.0000E+00  0.0000E+00  0.1440E+03  0.1440E+03
    -11.610  0.0000E+00  0.0000E+00  0.1440E+03  0.1440E+03
    -11.372  0.0000E+00  0.0000E+00  0.1440E+03  0.1440E+03
    -11.133  0.0000E+00  0.0000E+00  0.1440E+03  0.1440E+03
    -10.895  0.0000E+00  0.0000E+00  0.1440E+03  0.1440E+03
    -10.657  0.0000E+00  0.0000E+00  0.1440E+03  0.1440E+03
    -10.419  0.0000E+00  0.0000E+00  0.1440E+03  0.1440E+03
    -10.180  0.0000E+00  0.0000E+00  0.1440E+03  0.1440E+03
     -9.942  0.0000E+00  0.0000E+00  0.1440E+03  0.1440E+03
     -9.704  0.0000E+00  0.0000E+00  0.1440E+03  0.1440E+03
     -9.466  0.0000E+00  0.0000E+00  0.1440E+03  0.1440E+03
     -9.228  0.0000E+00  0.0000E+00  0.1440E+03  0.1440E+03
     -8.989  0.0000E+00  0.0000E+00  0.1440E+03  0.1440E+03
     -8.751  0.0000E+00  0.0000E+00  0.1440E+03  0.1440E+03
     -8.513  0.0000E+00  0.0000E+00  0.1440E+03  0.1440E+03
     -8.275  0.0000E+00  0.0000E+00  0.1440E+03  0.1440E+03
     -8.036  0.0000E+00  0.0000E+00  0.1440E+03  0.1440E+03
     -7.798  0.1848E-01  0.9579E-15  0.1440E+03  0.1440E+03
     -7.560  0.1924E+02  0.1885E+00  0.1486E+03  0.1440E+03
     -7.322  0.4868E+02  0.2999E+02  0.1602E+03  0.1512E+03
     -7.083  0.3210E+02  0.4932E+02  0.1678E+03  0.1629E+03
     -6.845  0.6950E+00  0.2070E+02  0.1680E+03  0.1679E+03
     -6.607  0.0000E+00  0.5366E+00  0.1680E+03  0.1680E+03
     -6.369  0.0000E+00  0.0000E+00  0.1680E+03  0.1680E+03
     -6.130  0.0000E+00  0.0000E+00  0.1680E+03  0.1680E+03
     -5.892  0.0000E+00  0.0000E+00  0.1680E+03  0.1680E+03
     -5.654  0.0000E+00  0.0000E+00  0.1680E+03  0.1680E+03
     -5.416  0.0000E+00  0.0000E+00  0.1680E+03  0.1680E+03
     -5.177  0.0000E+00  0.0000E+00  0.1680E+03  0.1680E+03
     -4.939  0.0000E+00  0.0000E+00  0.1680E+03  0.1680E+03
     -4.701  0.0000E+00  0.0000E+00  0.1680E+03  0.1680E+03
     -4.463  0.0000E+00  0.0000E+00  0.1680E+03  0.1680E+03
     -4.224  0.0000E+00  0.0000E+00  0.1680E+03  0.1680E+03
     -3.986  0.0000E+00  0.0000E+00  0.1680E+03  0.1680E+03
     -3.748  0.0000E+00  0.0000E+00  0.1680E+03  0.1680E+03
     -3.510  0.0000E+00  0.0000E+00  0.1680E+03  0.1680E+03
     -3.271  0.0000E+00  0.0000E+00  0.1680E+03  0.1680E+03
     -3.033  0.0000E+00  0.0000E+00  0.1680E+03  0.1680E+03
     -2.795  0.0000E+00  0.0000E+00  0.1680E+03  0.1680E+03
     -2.557  0.0000E+00  0.0000E+00  0.1680E+03  0.1680E+03
     -2.319  0.0000E+00  0.0000E+00  0.1680E+03  0.1680E+03
     -2.080  0.6348E-05  0.0000E+00  0.1680E+03  0.1680E+03
     -1.842  0.9299E+01  0.0000E+00  0.1702E+03  0.1680E+03
     -1.604  0.5924E+02  0.0000E+00  0.1843E+03  0.1680E+03
     -1.366  0.3991E+02  0.0000E+00  0.1938E+03  0.1680E+03
     -1.127  0.3288E+02  0.0000E+00  0.2017E+03  0.1680E+03
     -0.889  0.5470E+02  0.7952E-08  0.2147E+03  0.1680E+03
     -0.651  0.5299E+02  0.2094E+01  0.2273E+03  0.1685E+03
     -0.413  0.6744E+02  0.1790E+02  0.2434E+03  0.1728E+03
     -0.174  0.5346E+02  0.3892E+02  0.2561E+03  0.1820E+03
      0.064  0.3464E+02  0.3440E+02  0.2644E+03  0.1902E+03
      0.302  0.5543E+02  0.2381E+02  0.2776E+03  0.1959E+03
      0.540  0.4727E+02  0.4872E+02  0.2889E+03  0.2075E+03
      0.779  0.3240E+02  0.4887E+02  0.2966E+03  0.2192E+03
      1.017  0.5007E+02  0.6854E+02  0.3085E+03  0.2355E+03
      1.255  0.4967E+02  0.2462E+02  0.3203E+03  0.2413E+03
      1.493  0.5403E+02  0.2357E+02  0.3332E+03  0.2470E+03
      1.732  0.6177E+02  0.3858E+02  0.3479E+03  0.2562E+03
      1.970  0.3346E+02  0.4586E+02  0.3559E+03  0.2671E+03
      2.208  0.2369E+02  0.2909E+02  0.3615E+03  0.2740E+03
      2.446  0.1412E+02  0.3567E+02  0.3649E+03  0.2825E+03
      2.685  0.3759E+02  0.2550E+02  0.3739E+03  0.2886E+03
      2.923  0.3874E+02  0.4568E+02  0.3831E+03  0.2995E+03
      3.161  0.3065E+02  0.4172E+02  0.3904E+03  0.3094E+03
      3.399  0.4401E+02  0.1388E+02  0.4009E+03  0.3127E+03
      3.638  0.5374E+02  0.3178E+02  0.4137E+03  0.3203E+03
      3.876  0.4674E+02  0.5650E+02  0.4248E+03  0.3337E+03
      4.114  0.2847E+02  0.9471E+01  0.4316E+03  0.3360E+03
      4.352  0.1711E+01  0.2227E-05  0.4320E+03  0.3360E+03
      4.591  0.0000E+00  0.0000E+00  0.4320E+03  0.3360E+03
      4.829  0.0000E+00  0.0000E+00  0.4320E+03  0.3360E+03
      5.067  0.0000E+00  0.0000E+00  0.4320E+03  0.3360E+03
      5.305  0.0000E+00  0.0000E+00  0.4320E+03  0.3360E+03
      5.543  0.0000E+00  0.0000E+00  0.4320E+03  0.3360E+03
      5.782  0.0000E+00  0.0000E+00  0.4320E+03  0.3360E+03
      6.020  0.0000E+00  0.6307E-02  0.4320E+03  0.3360E+03
      6.258  0.0000E+00  0.2012E+01  0.4320E+03  0.3365E+03
      6.496  0.0000E+00  0.1390E+02  0.4320E+03  0.3398E+03
      6.735  0.0000E+00  0.2700E+02  0.4320E+03  0.3462E+03
      6.973  0.0000E+00  0.2550E+02  0.4320E+03  0.3523E+03
      7.211  0.1879E-04  0.5875E+02  0.4320E+03  0.3663E+03
      7.449  0.1553E+00  0.7461E+02  0.4320E+03  0.3841E+03
      7.688  0.7758E+00  0.2925E+02  0.4322E+03  0.3910E+03
      7.926  0.1569E+01  0.4147E+02  0.4326E+03  0.4009E+03
      8.164  0.4830E+01  0.7884E+02  0.4337E+03  0.4197E+03
      8.402  0.7310E+01  0.4857E+02  0.4355E+03  0.4313E+03
      8.641  0.1572E+02  0.3476E+01  0.4392E+03  0.4321E+03
      8.879  0.2406E+02  0.1216E+01  0.4450E+03  0.4324E+03
      9.117  0.1992E+02  0.4526E+01  0.4497E+03  0.4335E+03
      9.355  0.1936E+02  0.1100E+02  0.4543E+03  0.4361E+03
      9.594  0.1978E+02  0.2135E+02  0.4590E+03  0.4412E+03
      9.832  0.2451E+02  0.2892E+02  0.4649E+03  0.4481E+03
     10.070  0.2192E+02  0.3017E+02  0.4701E+03  0.4553E+03
     10.308  0.1800E+02  0.2997E+02  0.4744E+03  0.4624E+03
     10.547  0.2482E+02  0.2575E+02  0.4803E+03  0.4685E+03
     10.785  0.1470E+02  0.2581E+02  0.4838E+03  0.4747E+03
     11.023  0.2805E+02  0.2399E+02  0.4905E+03  0.4804E+03
     11.261  0.4562E+02  0.1050E+02  0.5014E+03  0.4829E+03
     11.500  0.4852E+02  0.2604E+02  0.5129E+03  0.4891E+03
     11.738  0.3482E+02  0.3114E+02  0.5212E+03  0.4965E+03
     11.976  0.2042E+02  0.5615E+02  0.5261E+03  0.5099E+03
     12.214  0.2073E+02  0.4427E+02  0.5310E+03  0.5204E+03
     12.452  0.3060E+02  0.2664E+02  0.5383E+03  0.5268E+03
     12.691  0.3184E+02  0.2387E+02  0.5459E+03  0.5325E+03
     12.929  0.1814E+02  0.2733E+02  0.5502E+03  0.5390E+03
     13.167  0.7434E+01  0.3290E+02  0.5520E+03  0.5468E+03
     13.405  0.8738E-01  0.1775E+02  0.5520E+03  0.5511E+03
     13.644  0.0000E+00  0.3984E+01  0.5520E+03  0.5520E+03
     13.882  0.0000E+00  0.4885E-05  0.5520E+03  0.5520E+03
     14.120  0.0000E+00  0.0000E+00  0.5520E+03  0.5520E+03
     14.358  0.0000E+00  0.0000E+00  0.5520E+03  0.5520E+03
     14.597  0.0000E+00  0.0000E+00  0.5520E+03  0.5520E+03
     14.835  0.0000E+00  0.0000E+00  0.5520E+03  0.5520E+03
     15.073  0.0000E+00  0.0000E+00  0.5520E+03  0.5520E+03
     15.311  0.0000E+00  0.0000E+00  0.5520E+03  0.5520E+03
     15.550  0.0000E+00  0.0000E+00  0.5520E+03  0.5520E+03
     15.788  0.0000E+00  0.0000E+00  0.5520E+03  0.5520E+03
     16.026  0.0000E+00  0.0000E+00  0.5520E+03  0.5520E+03
     16.264  0.0000E+00  0.0000E+00  0.5520E+03  0.5520E+03
     16.503  0.0000E+00  0.0000E+00  0.5520E+03  0.5520E+03
     16.741  0.0000E+00  0.0000E+00  0.5520E+03  0.5520E+03
