  224  224    1    2
  0.1357572E+02  0.1537960E-08  0.1537962E-08  0.1395899E-08  0.5000000E-15
  1.000000000000000E-004
  CAR 
 unknown system                          
   1664      8   1208
 
  0.0000000E+00  0.0000000E+00  0.0000000E+00  0.1250000E+00
    1      -51.142974    -46.392208   1.000000   1.000000
    2      -51.142875    -46.391960   1.000000   1.000000
    3      -51.142537    -46.391590   1.000000   1.000000
    4      -51.141997    -46.391040   1.000000   1.000000
    5      -51.141945    -46.390947   1.000000   1.000000
    6      -51.141631    -46.390935   1.000000   1.000000
    7      -51.141401    -46.390626   1.000000   1.000000
    8      -51.141357    -46.390552   1.000000   1.000000
    9      -51.141261    -46.390501   1.000000   1.000000
   10      -51.141225    -46.390426   1.000000   1.000000
   11      -51.141162    -46.390322   1.000000   1.000000
   12      -51.141138    -46.390262   1.000000   1.000000
   13      -51.141064    -46.390184   1.000000   1.000000
   14      -51.141021    -46.390162   1.000000   1.000000
   15      -51.140947    -46.390049   1.000000   1.000000
   16      -51.140927    -46.390032   1.000000   1.000000
   17      -51.140889    -46.389987   1.000000   1.000000
   18      -51.140867    -46.389938   1.000000   1.000000
   19      -51.140825    -46.389894   1.000000   1.000000
   20      -51.140764    -46.389771   1.000000   1.000000
   21      -51.140717    -46.389695   1.000000   1.000000
   22      -51.140641    -46.389620   1.000000   1.000000
   23      -51.140584    -46.389597   1.000000   1.000000
   24      -51.140548    -46.389558   1.000000   1.000000
   25      -51.140523    -46.389544   1.000000   1.000000
   26      -51.140517    -46.389535   1.000000   1.000000
   27      -51.140508    -46.389503   1.000000   1.000000
   28      -51.140486    -46.389479   1.000000   1.000000
   29      -51.140432    -46.389427   1.000000   1.000000
   30      -51.140422    -46.389365   1.000000   1.000000
   31      -51.140401    -46.389300   1.000000   1.000000
   32      -51.140378    -46.389219   1.000000   1.000000
   33      -51.140325    -46.389152   1.000000   1.000000
   34      -51.140263    -46.389147   1.000000   1.000000
   35      -51.140237    -46.389074   1.000000   1.000000
   36      -51.140234    -46.389043   1.000000   1.000000
   37      -51.140165    -46.388992   1.000000   1.000000
   38      -51.140157    -46.388920   1.000000   1.000000
   39      -51.140123    -46.388888   1.000000   1.000000
   40      -51.140100    -46.388857   1.000000   1.000000
   41      -51.140079    -46.388848   1.000000   1.000000
   42      -51.140030    -46.388823   1.000000   1.000000
   43      -51.140014    -46.388772   1.000000   1.000000
   44      -51.139987    -46.388759   1.000000   1.000000
   45      -51.139916    -46.388728   1.000000   1.000000
   46      -51.139887    -46.388660   1.000000   1.000000
   47      -51.139884    -46.388637   1.000000   1.000000
   48      -51.139859    -46.388586   1.000000   1.000000
   49      -51.139811    -46.388551   1.000000   1.000000
   50      -51.139778    -46.388451   1.000000   1.000000
   51      -51.139741    -46.388403   1.000000   1.000000
   52      -51.139677    -46.388335   1.000000   1.000000
   53      -51.139624    -46.388258   1.000000   1.000000
   54      -51.139574    -46.388220   1.000000   1.000000
   55      -51.139552    -46.388140   1.000000   1.000000
   56      -51.139498    -46.388116   1.000000   1.000000
   57      -51.139405    -46.387998   1.000000   1.000000
   58      -51.139346    -46.387956   1.000000   1.000000
   59      -51.139160    -46.387709   1.000000   1.000000
   60      -51.138565    -46.387405   1.000000   1.000000
   61      -51.138411    -46.387264   1.000000   1.000000
   62      -51.138098    -46.386865   1.000000   1.000000
   63      -51.137926    -46.386640   1.000000   1.000000
   64      -51.137686    -46.386276   1.000000   1.000000
   65      -49.649617    -45.930598   1.000000   1.000000
   66      -49.648987    -45.930479   1.000000   1.000000
   67      -49.648823    -45.930293   1.000000   1.000000
   68      -49.648426    -45.929828   1.000000   1.000000
   69      -49.647985    -45.929719   1.000000   1.000000
   70      -49.647812    -45.929427   1.000000   1.000000
   71      -49.647770    -45.929236   1.000000   1.000000
   72      -49.647609    -45.929208   1.000000   1.000000
   73      -49.647551    -45.929157   1.000000   1.000000
   74      -49.647461    -45.929030   1.000000   1.000000
   75      -49.647443    -45.928917   1.000000   1.000000
   76      -49.647398    -45.928808   1.000000   1.000000
   77      -49.647368    -45.928793   1.000000   1.000000
   78      -49.647354    -45.928766   1.000000   1.000000
   79      -49.647325    -45.928723   1.000000   1.000000
   80      -49.647297    -45.928711   1.000000   1.000000
   81      -49.647280    -45.928663   1.000000   1.000000
   82      -49.647271    -45.928637   1.000000   1.000000
   83      -49.647269    -45.928618   1.000000   1.000000
   84      -49.647169    -45.928552   1.000000   1.000000
   85      -49.647160    -45.928528   1.000000   1.000000
   86      -49.647149    -45.928459   1.000000   1.000000
   87      -49.647085    -45.928456   1.000000   1.000000
   88      -49.647062    -45.928411   1.000000   1.000000
   89      -49.647043    -45.928391   1.000000   1.000000
   90      -49.647015    -45.928343   1.000000   1.000000
   91      -49.647006    -45.928326   1.000000   1.000000
   92      -49.646956    -45.928311   1.000000   1.000000
   93      -49.646920    -45.928270   1.000000   1.000000
   94      -49.646891    -45.928260   1.000000   1.000000
   95      -49.646842    -45.928254   1.000000   1.000000
   96      -49.646824    -45.928208   1.000000   1.000000
   97      -49.646803    -45.928192   1.000000   1.000000
   98      -49.646748    -45.928127   1.000000   1.000000
   99      -49.646737    -45.928097   1.000000   1.000000
  100      -49.646710    -45.928052   1.000000   1.000000
  101      -49.646650    -45.928042   1.000000   1.000000
  102      -49.646620    -45.927997   1.000000   1.000000
  103      -49.646607    -45.927980   1.000000   1.000000
  104      -49.646487    -45.927918   1.000000   1.000000
  105      -49.646466    -45.927897   1.000000   1.000000
  106      -49.646434    -45.927861   1.000000   1.000000
  107      -49.646416    -45.927858   1.000000   1.000000
  108      -49.646379    -45.927809   1.000000   1.000000
  109      -49.646256    -45.927803   1.000000   1.000000
  110      -49.646255    -45.927784   1.000000   1.000000
  111      -49.646231    -45.927710   1.000000   1.000000
  112      -49.646225    -45.927540   1.000000   1.000000
  113      -49.646160    -45.927503   1.000000   1.000000
  114      -49.646141    -45.927476   1.000000   1.000000
  115      -49.646072    -45.927465   1.000000   1.000000
  116      -49.646062    -45.927427   1.000000   1.000000
  117      -49.645946    -45.927424   1.000000   1.000000
  118      -49.645858    -45.927398   1.000000   1.000000
  119      -49.645849    -45.927376   1.000000   1.000000
  120      -49.645845    -45.927356   1.000000   1.000000
  121      -49.645820    -45.927337   1.000000   1.000000
  122      -49.645795    -45.927324   1.000000   1.000000
  123      -49.645757    -45.927278   1.000000   1.000000
  124      -49.645713    -45.927269   1.000000   1.000000
  125      -49.645665    -45.927244   1.000000   1.000000
  126      -49.645648    -45.927231   1.000000   1.000000
  127      -49.645612    -45.927211   1.000000   1.000000
  128      -49.645570    -45.927157   1.000000   1.000000
  129      -49.645554    -45.927116   1.000000   1.000000
  130      -49.645497    -45.927106   1.000000   1.000000
  131      -49.645487    -45.927094   1.000000   1.000000
  132      -49.645459    -45.927075   1.000000   1.000000
  133      -49.645409    -45.927041   1.000000   1.000000
  134      -49.645402    -45.927024   1.000000   1.000000
  135      -49.645372    -45.927005   1.000000   1.000000
  136      -49.645349    -45.926994   1.000000   1.000000
  137      -49.645321    -45.926963   1.000000   1.000000
  138      -49.645307    -45.926956   1.000000   1.000000
  139      -49.645289    -45.926925   1.000000   1.000000
  140      -49.645233    -45.926906   1.000000   1.000000
  141      -49.645203    -45.926831   1.000000   1.000000
  142      -49.645157    -45.926803   1.000000   1.000000
  143      -49.645142    -45.926734   1.000000   1.000000
  144      -49.645130    -45.926729   1.000000   1.000000
  145      -49.645119    -45.926708   1.000000   1.000000
  146      -49.645095    -45.926706   1.000000   1.000000
  147      -49.645048    -45.926682   1.000000   1.000000
  148      -49.645024    -45.926658   1.000000   1.000000
  149      -49.644986    -45.926629   1.000000   1.000000
  150      -49.644936    -45.926611   1.000000   1.000000
  151      -49.644877    -45.926576   1.000000   1.000000
  152      -49.644867    -45.926545   1.000000   1.000000
  153      -49.644813    -45.926542   1.000000   1.000000
  154      -49.644800    -45.926518   1.000000   1.000000
  155      -49.644765    -45.926499   1.000000   1.000000
  156      -49.644670    -45.926487   1.000000   1.000000
  157      -49.644657    -45.926480   1.000000   1.000000
  158      -49.644637    -45.926451   1.000000   1.000000
  159      -49.644573    -45.926415   1.000000   1.000000
  160      -49.644558    -45.926401   1.000000   1.000000
  161      -49.644556    -45.926379   1.000000   1.000000
  162      -49.644512    -45.926326   1.000000   1.000000
  163      -49.644511    -45.926319   1.000000   1.000000
  164      -49.644410    -45.926279   1.000000   1.000000
  165      -49.644394    -45.926264   1.000000   1.000000
  166      -49.644378    -45.926211   1.000000   1.000000
  167      -49.644321    -45.926175   1.000000   1.000000
  168      -49.644294    -45.926162   1.000000   1.000000
  169      -49.644264    -45.926127   1.000000   1.000000
  170      -49.644206    -45.926100   1.000000   1.000000
  171      -49.644152    -45.926084   1.000000   1.000000
  172      -49.644131    -45.926034   1.000000   1.000000
  173      -49.644108    -45.926001   1.000000   1.000000
  174      -49.644090    -45.925935   1.000000   1.000000
  175      -49.644057    -45.925848   1.000000   1.000000
  176      -49.644032    -45.925771   1.000000   1.000000
  177      -49.643998    -45.925752   1.000000   1.000000
  178      -49.643969    -45.925741   1.000000   1.000000
  179      -49.643916    -45.925701   1.000000   1.000000
  180      -49.643843    -45.925671   1.000000   1.000000
  181      -49.643797    -45.925598   1.000000   1.000000
  182      -49.643594    -45.925595   1.000000   1.000000
  183      -49.643549    -45.925556   1.000000   1.000000
  184      -49.643535    -45.925397   1.000000   1.000000
  185      -49.643474    -45.925281   1.000000   1.000000
  186      -49.643379    -45.925106   1.000000   1.000000
  187      -49.643329    -45.924990   1.000000   1.000000
  188      -49.643321    -45.924781   1.000000   1.000000
  189      -49.642870    -45.924598   1.000000   1.000000
  190      -49.642624    -45.924249   1.000000   1.000000
  191      -49.642365    -45.924186   1.000000   1.000000
  192      -49.642016    -45.923761   1.000000   1.000000
  193      -39.641190    -39.640274   1.000000   1.000000
  194      -39.641058    -39.640140   1.000000   1.000000
  195      -39.634086    -39.633220   1.000000   1.000000
  196      -39.633537    -39.632665   1.000000   1.000000
  197      -39.633466    -39.632594   1.000000   1.000000
  198      -39.633421    -39.632548   1.000000   1.000000
  199      -39.633418    -39.632546   1.000000   1.000000
  200      -39.633398    -39.632526   1.000000   1.000000
  201      -39.633339    -39.632466   1.000000   1.000000
  202      -39.632872    -39.631997   1.000000   1.000000
  203      -39.628151    -39.627318   1.000000   1.000000
  204      -39.627919    -39.627080   1.000000   1.000000
  205      -39.627860    -39.627022   1.000000   1.000000
  206      -39.627768    -39.626931   1.000000   1.000000
  207      -39.627756    -39.626918   1.000000   1.000000
  208      -39.627654    -39.626816   1.000000   1.000000
  209      -39.627544    -39.626707   1.000000   1.000000
  210      -39.627314    -39.626472   1.000000   1.000000
  211      -39.616924    -39.616164   1.000000   1.000000
  212      -39.616622    -39.615849   1.000000   1.000000
  213      -39.616135    -39.615358   1.000000   1.000000
  214      -39.615977    -39.615200   1.000000   1.000000
  215      -39.615958    -39.615181   1.000000   1.000000
  216      -39.615759    -39.614984   1.000000   1.000000
  217      -39.615659    -39.614881   1.000000   1.000000
  218      -39.615650    -39.614871   1.000000   1.000000
  219      -39.615512    -39.614741   1.000000   1.000000
  220      -39.615329    -39.614558   1.000000   1.000000
  221      -39.615282    -39.614513   1.000000   1.000000
  222      -39.615218    -39.614449   1.000000   1.000000
  223      -39.615177    -39.614409   1.000000   1.000000
  224      -39.615163    -39.614396   1.000000   1.000000
  225      -39.615150    -39.614383   1.000000   1.000000
  226      -39.615118    -39.614352   1.000000   1.000000
  227      -39.615006    -39.614237   1.000000   1.000000
  228      -39.614993    -39.614224   1.000000   1.000000
  229      -39.614963    -39.614195   1.000000   1.000000
  230      -39.614945    -39.614177   1.000000   1.000000
  231      -39.614931    -39.614163   1.000000   1.000000
  232      -39.614873    -39.614104   1.000000   1.000000
  233      -39.614828    -39.614061   1.000000   1.000000
  234      -39.614396    -39.613629   1.000000   1.000000
  235      -39.614335    -39.613577   1.000000   1.000000
  236      -39.614177    -39.613418   1.000000   1.000000
  237      -39.613775    -39.613013   1.000000   1.000000
  238      -39.613038    -39.612263   1.000000   1.000000
  239      -39.604295    -39.603580   1.000000   1.000000
  240      -39.603998    -39.603279   1.000000   1.000000
  241      -39.603931    -39.603212   1.000000   1.000000
  242      -39.603833    -39.603114   1.000000   1.000000
  243      -39.603806    -39.603087   1.000000   1.000000
  244      -39.603717    -39.602998   1.000000   1.000000
  245      -39.603673    -39.602953   1.000000   1.000000
  246      -39.603423    -39.602700   1.000000   1.000000
  247      -39.600039    -39.599335   1.000000   1.000000
  248      -39.599628    -39.598922   1.000000   1.000000
  249      -39.599558    -39.598852   1.000000   1.000000
  250      -39.599540    -39.598835   1.000000   1.000000
  251      -39.599527    -39.598822   1.000000   1.000000
  252      -39.599500    -39.598795   1.000000   1.000000
  253      -39.599370    -39.598664   1.000000   1.000000
  254      -39.598837    -39.598124   1.000000   1.000000
  255      -39.593291    -39.592609   1.000000   1.000000
  256      -39.593102    -39.592417   1.000000   1.000000
  257      -12.747204    -12.467734   1.000000   1.000000
  258      -12.747189    -12.467719   1.000000   1.000000
  259      -12.719658    -12.439909   1.000000   1.000000
  260      -12.719402    -12.439634   1.000000   1.000000
  261      -12.719337    -12.439585   1.000000   1.000000
  262      -12.719334    -12.439580   1.000000   1.000000
  263      -12.719311    -12.439565   1.000000   1.000000
  264      -12.719309    -12.439558   1.000000   1.000000
  265      -12.719232    -12.439490   1.000000   1.000000
  266      -12.718994    -12.439239   1.000000   1.000000
  267      -12.697185    -12.417012   1.000000   1.000000
  268      -12.697157    -12.416984   1.000000   1.000000
  269      -12.694782    -12.415171   1.000000   1.000000
  270      -12.694759    -12.415150   1.000000   1.000000
  271      -12.694737    -12.415129   1.000000   1.000000
  272      -12.694725    -12.415118   1.000000   1.000000
  273      -12.692389    -12.413324   1.000000   1.000000
  274      -12.692330    -12.413282   1.000000   1.000000
  275      -12.691251    -12.411218   1.000000   1.000000
  276      -12.691240    -12.411211   1.000000   1.000000
  277      -12.691234    -12.411201   1.000000   1.000000
  278      -12.691156    -12.411139   1.000000   1.000000
  279      -12.672851    -12.392837   1.000000   1.000000
  280      -12.672681    -12.392656   1.000000   1.000000
  281      -12.672616    -12.392602   1.000000   1.000000
  282      -12.672478    -12.392472   1.000000   1.000000
  283      -12.667776    -12.388886   1.000000   1.000000
  284      -12.667612    -12.388713   1.000000   1.000000
  285      -12.667549    -12.388659   1.000000   1.000000
  286      -12.667404    -12.388519   1.000000   1.000000
  287      -12.654507    -12.374554   1.000000   1.000000
  288      -12.643733    -12.366008   1.000000   1.000000
  289       -7.800035     -7.599035   1.000000   1.000000
  290       -7.748243     -7.551521   1.000000   1.000000
  291       -7.506274     -7.319936   1.000000   1.000000
  292       -7.505385     -7.319130   1.000000   1.000000
  293       -7.505349     -7.319096   1.000000   1.000000
  294       -7.504695     -7.318383   1.000000   1.000000
  295       -7.501595     -7.309522   1.000000   1.000000
  296       -7.500973     -7.308828   1.000000   1.000000
  297       -7.500934     -7.308790   1.000000   1.000000
  298       -7.500042     -7.307974   1.000000   1.000000
  299       -7.315215     -7.117762   1.000000   1.000000
  300       -7.315150     -7.117683   1.000000   1.000000
  301       -7.296888     -7.093622   1.000000   1.000000
  302       -7.296828     -7.093545   1.000000   1.000000
  303       -7.296792     -7.093508   1.000000   1.000000
  304       -7.296747     -7.093451   1.000000   1.000000
  305       -7.269259     -7.061971   1.000000   1.000000
  306       -7.269187     -7.061882   1.000000   1.000000
  307       -7.088763     -6.893897   1.000000   1.000000
  308       -7.084708     -6.893877   1.000000   1.000000
  309       -7.084671     -6.893837   1.000000   1.000000
  310       -7.084635     -6.893798   1.000000   1.000000
  311       -7.084531     -6.796770   1.000000   1.000000
  312       -7.046589     -6.783863   1.000000   1.000000
  313       -7.001313     -6.768850   1.000000   1.000000
  314       -6.999961     -6.767988   1.000000   1.000000
  315       -6.999906     -6.767911   1.000000   1.000000
  316       -6.999779     -6.767874   1.000000   1.000000
  317       -6.999763     -6.766898   1.000000   1.000000
  318       -6.999744     -6.766212   1.000000   1.000000
  319       -6.999624     -6.766140   1.000000   1.000000
  320       -6.998505     -6.766085   1.000000   1.000000
  321       -6.994835     -6.766054   1.000000   1.000000
  322       -6.994185     -6.766037   1.000000   1.000000
  323       -6.994029     -6.765914   1.000000   1.000000
  324       -6.993354     -6.764483   1.000000   1.000000
  325       -6.955844     -6.745570   1.000000   1.000000
  326       -6.955795     -6.744893   1.000000   1.000000
  327       -6.955751     -6.744854   1.000000   1.000000
  328       -6.955727     -6.744080   1.000000   1.000000
  329       -6.948329     -6.697493   1.000000   1.000000
  330       -6.948274     -6.697481   1.000000   1.000000
  331       -6.929338     -6.689782   1.000000   1.000000
  332       -6.928659     -6.689088   1.000000   1.000000
  333       -6.928604     -6.689056   1.000000   1.000000
  334       -6.927804     -6.688276   1.000000   1.000000
  335       -6.911319     -6.640763   1.000000   1.000000
  336       -6.911283     -6.639694   1.000000   1.000000
  337       -6.885743     -6.639205   1.000000   1.000000
  338       -6.885727     -6.639066   1.000000   1.000000
  339       -6.885641     -6.639060   1.000000   1.000000
  340       -6.885636     -6.638999   1.000000   1.000000
  341       -6.878096     -6.638917   1.000000   1.000000
  342       -6.876955     -6.638598   1.000000   1.000000
  343       -6.876840     -6.638367   1.000000   1.000000
  344       -6.876804     -6.638363   1.000000   1.000000
  345       -6.876787     -6.637619   1.000000   1.000000
  346       -6.876675     -6.637053   1.000000   1.000000
  347       -6.876644     -6.628067   1.000000   1.000000
  348       -6.875246     -6.627883   1.000000   1.000000
  349       -6.832570     -6.586612   1.000000   1.000000
  350       -6.832555     -6.586593   1.000000   1.000000
  351       -6.794268     -6.499089   1.000000   1.000000
  352       -6.794206     -6.499048   1.000000   1.000000
  353       -1.525518     -0.414606   1.000000   1.000000
  354       -1.467851     -0.414548   1.000000   1.000000
  355       -1.467765     -0.414458   1.000000   1.000000
  356       -1.467654     -0.414445   1.000000   1.000000
  357       -1.467426      0.026162   1.000000   1.000000
  358       -1.460335      0.026305   1.000000   1.000000
  359       -1.460322      0.026432   1.000000   1.000000
  360       -1.460211      0.026549   1.000000   1.000000
  361       -1.460106      0.037585   1.000000   1.000000
  362       -1.421390      0.037843   1.000000   1.000000
  363       -1.421330      0.037876   1.000000   1.000000
  364       -1.382817      0.037966   1.000000   1.000000
  365       -1.382781      0.038091   1.000000   1.000000
  366       -1.382755      0.038175   1.000000   1.000000
  367       -1.382746      0.038257   1.000000   1.000000
  368       -1.332825      0.038669   1.000000   1.000000
  369       -1.332771      0.102887   1.000000   1.000000
  370       -1.332555      0.102929   1.000000   1.000000
  371       -1.332529      0.207536   1.000000   1.000000
  372       -1.332469      0.207544   1.000000   1.000000
  373       -1.332438      0.207551   1.000000   1.000000
  374       -1.332204      0.207572   1.000000   1.000000
  375       -1.332190      0.304170   1.000000   1.000000
  376       -1.292682      0.392421   1.000000   1.000000
  377       -1.292577      0.392517   1.000000   1.000000
  378       -1.292441      0.392665   1.000000   1.000000
  379       -1.292208      0.392787   1.000000   1.000000
  380       -1.256794      0.490886   1.000000   1.000000
  381       -1.256782      0.490906   1.000000   1.000000
  382       -1.232197      0.497366   1.000000   1.000000
  383       -1.232135      0.497656   1.000000   1.000000
  384       -1.220382      0.497729   1.000000   1.000000
  385       -0.822826      0.498035   1.000000   1.000000
  386       -0.822689      0.510646   1.000000   1.000000
  387       -0.822669      0.510697   1.000000   1.000000
  388       -0.822626      0.531170   1.000000   1.000000
  389       -0.722698      0.531203   1.000000   1.000000
  390       -0.722617      0.531279   1.000000   1.000000
  391       -0.699198      0.531323   1.000000   1.000000
  392       -0.699099      0.573485   1.000000   1.000000
  393       -0.698993      0.574212   1.000000   1.000000
  394       -0.698928      0.574294   1.000000   1.000000
  395       -0.688559      0.574347   1.000000   1.000000
  396       -0.688341      0.574394   1.000000   1.000000
  397       -0.688207      0.574427   1.000000   1.000000
  398       -0.688165      0.574595   1.000000   1.000000
  399       -0.666793      0.575369   1.000000   1.000000
  400       -0.666560      0.638620   1.000000   1.000000
  401       -0.666446      0.666299   1.000000   1.000000
  402       -0.666270      0.666345   1.000000   1.000000
  403       -0.652041      0.733090   1.000000   1.000000
  404       -0.651942      0.733111   1.000000   1.000000
  405       -0.651819      0.931377   1.000000   1.000000
  406       -0.651684      0.932543   1.000000   1.000000
  407       -0.589439      0.935582   1.000000   1.000000
  408       -0.589395      0.935663   1.000000   1.000000
  409       -0.576601      0.948810   1.000000   1.000000
  410       -0.576586      0.948890   1.000000   1.000000
  411       -0.576516      0.949027   1.000000   1.000000
  412       -0.576473      0.949082   1.000000   1.000000
  413       -0.553430      0.986149   1.000000   1.000000
  414       -0.553360      0.986173   1.000000   1.000000
  415       -0.553161      0.986226   1.000000   1.000000
  416       -0.552830      0.986278   1.000000   1.000000
  417       -0.497628      0.992787   1.000000   1.000000
  418       -0.496878      0.992986   1.000000   1.000000
  419       -0.472912      1.008879   1.000000   1.000000
  420       -0.472686      1.008931   1.000000   1.000000
  421       -0.461567      1.008958   1.000000   1.000000
  422       -0.461497      1.009017   1.000000   1.000000
  423       -0.461310      1.018473   1.000000   1.000000
  424       -0.461077      1.049083   1.000000   1.000000
  425       -0.459853      1.049100   1.000000   1.000000
  426       -0.459776      1.051611   1.000000   1.000000
  427       -0.459519      1.051620   1.000000   1.000000
  428       -0.459271      1.051841   1.000000   1.000000
  429       -0.410062      1.051905   1.000000   1.000000
  430       -0.409960      1.078642   1.000000   1.000000
  431       -0.407600      1.078726   1.000000   1.000000
  432       -0.407569      1.078827   1.000000   1.000000
  433       -0.407499      1.078952   1.000000   1.000000
  434       -0.407461      1.079812   1.000000   1.000000
  435       -0.407369      1.079856   1.000000   1.000000
  436       -0.407282      1.079937   1.000000   1.000000
  437       -0.383312      1.080087   1.000000   1.000000
  438       -0.383270      1.192856   1.000000   1.000000
  439       -0.378181      1.192882   1.000000   1.000000
  440       -0.369220      1.376465   1.000000   1.000000
  441       -0.368948      1.390372   1.000000   1.000000
  442       -0.368758      1.390979   1.000000   1.000000
  443       -0.368728      1.391202   1.000000   1.000000
  444       -0.368624      1.391276   1.000000   1.000000
  445       -0.368605      1.391526   1.000000   1.000000
  446       -0.368490      1.437316   1.000000   1.000000
  447       -0.368180      1.450211   1.000000   1.000000
  448       -0.353549      1.526287   1.000000   1.000000
  449       -0.353526      1.526436   1.000000   1.000000
  450       -0.349053      1.526466   1.000000   1.000000
  451       -0.341791      1.526486   1.000000   1.000000
  452       -0.335921      1.528899   1.000000   1.000000
  453       -0.335748      1.528959   1.000000   1.000000
  454       -0.335389      1.529028   1.000000   1.000000
  455       -0.335340      1.529072   1.000000   1.000000
  456       -0.334247      1.558254   1.000000   1.000000
  457       -0.334196      1.558299   1.000000   1.000000
  458       -0.334053      1.558324   1.000000   1.000000
  459       -0.333989      1.558388   1.000000   1.000000
  460       -0.324280      1.566410   1.000000   1.000000
  461       -0.324152      1.566732   1.000000   1.000000
  462       -0.323854      1.566946   1.000000   1.000000
  463       -0.323829      1.567078   1.000000   1.000000
  464       -0.321780      1.567947   1.000000   1.000000
  465       -0.321555      1.568357   1.000000   1.000000
  466       -0.321197      1.568485   1.000000   1.000000
  467       -0.321192      1.568686   1.000000   1.000000
  468       -0.303832      1.586598   1.000000   1.000000
  469       -0.295906      1.586676   1.000000   1.000000
  470       -0.288025      1.695672   1.000000   1.000000
  471       -0.287967      1.695764   1.000000   1.000000
  472       -0.287801      1.740886   1.000000   1.000000
  473       -0.287662      1.741099   1.000000   1.000000
  474       -0.280408      1.741322   1.000000   1.000000
  475       -0.280370      1.741372   1.000000   1.000000
  476       -0.275077      1.746864   1.000000   1.000000
  477       -0.275073      1.746875   1.000000   1.000000
  478       -0.274857      1.746902   1.000000   1.000000
  479       -0.274761      1.746912   1.000000   1.000000
  480       -0.241921      1.779031   1.000000   1.000000
  481       -0.241681      1.780606   1.000000   1.000000
  482       -0.241593      1.780659   1.000000   1.000000
  483       -0.241550      1.836796   1.000000   1.000000
  484       -0.241439      1.836966   1.000000   1.000000
  485       -0.241388      1.837033   1.000000   1.000000
  486       -0.241199      1.837559   1.000000   1.000000
  487       -0.241164      1.837728   1.000000   1.000000
  488       -0.207400      1.837766   1.000000   1.000000
  489       -0.207394      1.838452   1.000000   1.000000
  490       -0.199641      1.838778   1.000000   1.000000
  491       -0.199606      1.866211   1.000000   1.000000
  492       -0.199520      1.866414   1.000000   1.000000
  493       -0.199490      1.913252   1.000000   1.000000
  494       -0.194083      1.913461   1.000000   1.000000
  495       -0.193947      1.913473   1.000000   1.000000
  496       -0.163982      1.913575   1.000000   1.000000
  497       -0.163929      1.913655   1.000000   1.000000
  498       -0.163854      1.913684   1.000000   1.000000
  499       -0.163583      1.913750   1.000000   1.000000
  500       -0.156707      1.913778   1.000000   1.000000
  501       -0.156644      1.926958   1.000000   1.000000
  502       -0.156393      1.926982   1.000000   1.000000
  503       -0.156020      1.927013   1.000000   1.000000
  504       -0.139106      1.927179   1.000000   1.000000
  505       -0.138977      2.133208   1.000000   1.000000
  506       -0.138844      2.133292   1.000000   1.000000
  507       -0.138814      2.191256   1.000000   1.000000
  508       -0.091029      2.193184   1.000000   1.000000
  509       -0.090905      2.300371   1.000000   1.000000
  510       -0.082717      2.300851   1.000000   1.000000
  511       -0.082477      2.301059   1.000000   1.000000
  512       -0.082446      2.301277   1.000000   1.000000