  28  28   0   0
  0.1357572E+02  0.7689802E-09  0.7689812E-09  0.6979496E-09  0.5000000E-15
  1.000000000000000E-004
  CAR 
 unknown system                          
     24.97150314    -55.09890916  301      5.55442815      1.00000000
    -55.099  0.0000E+00  0.0000E+00  0.0000E+00  0.0000E+00
    -54.832  0.0000E+00  0.0000E+00  0.0000E+00  0.0000E+00
    -54.565  0.0000E+00  0.0000E+00  0.0000E+00  0.0000E+00
    -54.298  0.0000E+00  0.0000E+00  0.0000E+00  0.0000E+00
    -54.031  0.0000E+00  0.0000E+00  0.0000E+00  0.0000E+00
    -53.764  0.0000E+00  0.0000E+00  0.0000E+00  0.0000E+00
    -53.498  0.0000E+00  0.0000E+00  0.0000E+00  0.0000E+00
    -53.231  0.0000E+00  0.0000E+00  0.0000E+00  0.0000E+00
    -52.964  0.0000E+00  0.0000E+00  0.0000E+00  0.0000E+00
    -52.697  0.0000E+00  0.0000E+00  0.0000E+00  0.0000E+00
    -52.430  0.0000E+00  0.0000E+00  0.0000E+00  0.0000E+00
    -52.163  0.0000E+00  0.0000E+00  0.0000E+00  0.0000E+00
    -51.896  0.0000E+00  0.0000E+00  0.0000E+00  0.0000E+00
    -51.629  0.2094E-04  0.0000E+00  0.5589E-05  0.0000E+00
    -51.362  0.2988E+02  0.0000E+00  0.7974E+01  0.0000E+00
    -51.095  0.9690E-01  0.0000E+00  0.8000E+01  0.0000E+00
    -50.828  0.0000E+00  0.0000E+00  0.8000E+01  0.0000E+00
    -50.562  0.0000E+00  0.0000E+00  0.8000E+01  0.0000E+00
    -50.295  0.0000E+00  0.0000E+00  0.8000E+01  0.0000E+00
    -50.028  0.1521E-10  0.0000E+00  0.8000E+01  0.0000E+00
    -49.761  0.1987E+02  0.0000E+00  0.1330E+02  0.0000E+00
    -49.494  0.3995E+02  0.0000E+00  0.2396E+02  0.0000E+00
    -49.227  0.1368E+00  0.0000E+00  0.2400E+02  0.0000E+00
    -48.960  0.0000E+00  0.0000E+00  0.2400E+02  0.0000E+00
    -48.693  0.0000E+00  0.0000E+00  0.2400E+02  0.0000E+00
    -48.426  0.0000E+00  0.0000E+00  0.2400E+02  0.0000E+00
    -48.159  0.0000E+00  0.0000E+00  0.2400E+02  0.0000E+00
    -47.893  0.0000E+00  0.0000E+00  0.2400E+02  0.0000E+00
    -47.626  0.0000E+00  0.0000E+00  0.2400E+02  0.0000E+00
    -47.359  0.0000E+00  0.0000E+00  0.2400E+02  0.0000E+00
    -47.092  0.0000E+00  0.0000E+00  0.2400E+02  0.0000E+00
    -46.825  0.0000E+00  0.5118E-04  0.2400E+02  0.1366E-04
    -46.558  0.0000E+00  0.2992E+02  0.2400E+02  0.7985E+01
    -46.291  0.0000E+00  0.5520E-01  0.2400E+02  0.8000E+01
    -46.024  0.0000E+00  0.2220E+02  0.2400E+02  0.1393E+02
    -45.757  0.0000E+00  0.3773E+02  0.2400E+02  0.2400E+02
    -45.490  0.0000E+00  0.8542E-02  0.2400E+02  0.2400E+02
    -45.224  0.0000E+00  0.0000E+00  0.2400E+02  0.2400E+02
    -44.957  0.0000E+00  0.0000E+00  0.2400E+02  0.2400E+02
    -44.690  0.0000E+00  0.0000E+00  0.2400E+02  0.2400E+02
    -44.423  0.0000E+00  0.0000E+00  0.2400E+02  0.2400E+02
    -44.156  0.0000E+00  0.0000E+00  0.2400E+02  0.2400E+02
    -43.889  0.0000E+00  0.0000E+00  0.2400E+02  0.2400E+02
    -43.622  0.0000E+00  0.0000E+00  0.2400E+02  0.2400E+02
    -43.355  0.0000E+00  0.0000E+00  0.2400E+02  0.2400E+02
    -43.088  0.0000E+00  0.0000E+00  0.2400E+02  0.2400E+02
    -42.821  0.0000E+00  0.0000E+00  0.2400E+02  0.2400E+02
    -42.555  0.0000E+00  0.0000E+00  0.2400E+02  0.2400E+02
    -42.288  0.0000E+00  0.0000E+00  0.2400E+02  0.2400E+02
    -42.021  0.0000E+00  0.0000E+00  0.2400E+02  0.2400E+02
    -41.754  0.0000E+00  0.0000E+00  0.2400E+02  0.2400E+02
    -41.487  0.0000E+00  0.0000E+00  0.2400E+02  0.2400E+02
    -41.220  0.0000E+00  0.0000E+00  0.2400E+02  0.2400E+02
    -40.953  0.0000E+00  0.0000E+00  0.2400E+02  0.2400E+02
    -40.686  0.0000E+00  0.0000E+00  0.2400E+02  0.2400E+02
    -40.419  0.0000E+00  0.0000E+00  0.2400E+02  0.2400E+02
    -40.152  0.0000E+00  0.0000E+00  0.2400E+02  0.2400E+02
    -39.886  0.0000E+00  0.0000E+00  0.2400E+02  0.2400E+02
    -39.619  0.2599E-06  0.2201E-06  0.2400E+02  0.2400E+02
    -39.352  0.2813E+02  0.2804E+02  0.3151E+02  0.3148E+02
    -39.085  0.1839E+01  0.1935E+01  0.3200E+02  0.3200E+02
    -38.818  0.0000E+00  0.0000E+00  0.3200E+02  0.3200E+02
    -38.551  0.0000E+00  0.0000E+00  0.3200E+02  0.3200E+02
    -38.284  0.0000E+00  0.0000E+00  0.3200E+02  0.3200E+02
    -38.017  0.0000E+00  0.0000E+00  0.3200E+02  0.3200E+02
    -37.750  0.0000E+00  0.0000E+00  0.3200E+02  0.3200E+02
    -37.483  0.0000E+00  0.0000E+00  0.3200E+02  0.3200E+02
    -37.217  0.0000E+00  0.0000E+00  0.3200E+02  0.3200E+02
    -36.950  0.0000E+00  0.0000E+00  0.3200E+02  0.3200E+02
    -36.683  0.0000E+00  0.0000E+00  0.3200E+02  0.3200E+02
    -36.416  0.0000E+00  0.0000E+00  0.3200E+02  0.3200E+02
    -36.149  0.0000E+00  0.0000E+00  0.3200E+02  0.3200E+02
    -35.882  0.0000E+00  0.0000E+00  0.3200E+02  0.3200E+02
    -35.615  0.0000E+00  0.0000E+00  0.3200E+02  0.3200E+02
    -35.348  0.0000E+00  0.0000E+00  0.3200E+02  0.3200E+02
    -35.081  0.0000E+00  0.0000E+00  0.3200E+02  0.3200E+02
    -34.814  0.0000E+00  0.0000E+00  0.3200E+02  0.3200E+02
    -34.548  0.0000E+00  0.0000E+00  0.3200E+02  0.3200E+02
    -34.281  0.0000E+00  0.0000E+00  0.3200E+02  0.3200E+02
    -34.014  0.0000E+00  0.0000E+00  0.3200E+02  0.3200E+02
    -33.747  0.0000E+00  0.0000E+00  0.3200E+02  0.3200E+02
    -33.480  0.0000E+00  0.0000E+00  0.3200E+02  0.3200E+02
    -33.213  0.0000E+00  0.0000E+00  0.3200E+02  0.3200E+02
    -32.946  0.0000E+00  0.0000E+00  0.3200E+02  0.3200E+02
    -32.679  0.0000E+00  0.0000E+00  0.3200E+02  0.3200E+02
    -32.412  0.0000E+00  0.0000E+00  0.3200E+02  0.3200E+02
    -32.145  0.0000E+00  0.0000E+00  0.3200E+02  0.3200E+02
    -31.878  0.0000E+00  0.0000E+00  0.3200E+02  0.3200E+02
    -31.612  0.0000E+00  0.0000E+00  0.3200E+02  0.3200E+02
    -31.345  0.0000E+00  0.0000E+00  0.3200E+02  0.3200E+02
    -31.078  0.0000E+00  0.0000E+00  0.3200E+02  0.3200E+02
    -30.811  0.0000E+00  0.0000E+00  0.3200E+02  0.3200E+02
    -30.544  0.0000E+00  0.0000E+00  0.3200E+02  0.3200E+02
    -30.277  0.0000E+00  0.0000E+00  0.3200E+02  0.3200E+02
    -30.010  0.0000E+00  0.0000E+00  0.3200E+02  0.3200E+02
    -29.743  0.0000E+00  0.0000E+00  0.3200E+02  0.3200E+02
    -29.476  0.0000E+00  0.0000E+00  0.3200E+02  0.3200E+02
    -29.209  0.0000E+00  0.0000E+00  0.3200E+02  0.3200E+02
    -28.943  0.0000E+00  0.0000E+00  0.3200E+02  0.3200E+02
    -28.676  0.0000E+00  0.0000E+00  0.3200E+02  0.3200E+02
    -28.409  0.0000E+00  0.0000E+00  0.3200E+02  0.3200E+02
    -28.142  0.0000E+00  0.0000E+00  0.3200E+02  0.3200E+02
    -27.875  0.0000E+00  0.0000E+00  0.3200E+02  0.3200E+02
    -27.608  0.0000E+00  0.0000E+00  0.3200E+02  0.3200E+02
    -27.341  0.0000E+00  0.0000E+00  0.3200E+02  0.3200E+02
    -27.074  0.0000E+00  0.0000E+00  0.3200E+02  0.3200E+02
    -26.807  0.0000E+00  0.0000E+00  0.3200E+02  0.3200E+02
    -26.540  0.0000E+00  0.0000E+00  0.3200E+02  0.3200E+02
    -26.274  0.0000E+00  0.0000E+00  0.3200E+02  0.3200E+02
    -26.007  0.0000E+00  0.0000E+00  0.3200E+02  0.3200E+02
    -25.740  0.0000E+00  0.0000E+00  0.3200E+02  0.3200E+02
    -25.473  0.0000E+00  0.0000E+00  0.3200E+02  0.3200E+02
    -25.206  0.0000E+00  0.0000E+00  0.3200E+02  0.3200E+02
    -24.939  0.0000E+00  0.0000E+00  0.3200E+02  0.3200E+02
    -24.672  0.0000E+00  0.0000E+00  0.3200E+02  0.3200E+02
    -24.405  0.0000E+00  0.0000E+00  0.3200E+02  0.3200E+02
    -24.138  0.0000E+00  0.0000E+00  0.3200E+02  0.3200E+02
    -23.871  0.0000E+00  0.0000E+00  0.3200E+02  0.3200E+02
    -23.605  0.0000E+00  0.0000E+00  0.3200E+02  0.3200E+02
    -23.338  0.0000E+00  0.0000E+00  0.3200E+02  0.3200E+02
    -23.071  0.0000E+00  0.0000E+00  0.3200E+02  0.3200E+02
    -22.804  0.0000E+00  0.0000E+00  0.3200E+02  0.3200E+02
    -22.537  0.0000E+00  0.0000E+00  0.3200E+02  0.3200E+02
    -22.270  0.0000E+00  0.0000E+00  0.3200E+02  0.3200E+02
    -22.003  0.0000E+00  0.0000E+00  0.3200E+02  0.3200E+02
    -21.736  0.0000E+00  0.0000E+00  0.3200E+02  0.3200E+02
    -21.469  0.0000E+00  0.0000E+00  0.3200E+02  0.3200E+02
    -21.202  0.0000E+00  0.0000E+00  0.3200E+02  0.3200E+02
    -20.936  0.0000E+00  0.0000E+00  0.3200E+02  0.3200E+02
    -20.669  0.0000E+00  0.0000E+00  0.3200E+02  0.3200E+02
    -20.402  0.0000E+00  0.0000E+00  0.3200E+02  0.3200E+02
    -20.135  0.0000E+00  0.0000E+00  0.3200E+02  0.3200E+02
    -19.868  0.0000E+00  0.0000E+00  0.3200E+02  0.3200E+02
    -19.601  0.0000E+00  0.0000E+00  0.3200E+02  0.3200E+02
    -19.334  0.0000E+00  0.0000E+00  0.3200E+02  0.3200E+02
    -19.067  0.0000E+00  0.0000E+00  0.3200E+02  0.3200E+02
    -18.800  0.0000E+00  0.0000E+00  0.3200E+02  0.3200E+02
    -18.533  0.0000E+00  0.0000E+00  0.3200E+02  0.3200E+02
    -18.267  0.0000E+00  0.0000E+00  0.3200E+02  0.3200E+02
    -18.000  0.0000E+00  0.0000E+00  0.3200E+02  0.3200E+02
    -17.733  0.0000E+00  0.0000E+00  0.3200E+02  0.3200E+02
    -17.466  0.0000E+00  0.0000E+00  0.3200E+02  0.3200E+02
    -17.199  0.0000E+00  0.0000E+00  0.3200E+02  0.3200E+02
    -16.932  0.0000E+00  0.0000E+00  0.3200E+02  0.3200E+02
    -16.665  0.0000E+00  0.0000E+00  0.3200E+02  0.3200E+02
    -16.398  0.0000E+00  0.0000E+00  0.3200E+02  0.3200E+02
    -16.131  0.0000E+00  0.0000E+00  0.3200E+02  0.3200E+02
    -15.864  0.0000E+00  0.0000E+00  0.3200E+02  0.3200E+02
    -15.598  0.0000E+00  0.0000E+00  0.3200E+02  0.3200E+02
    -15.331  0.0000E+00  0.0000E+00  0.3200E+02  0.3200E+02
    -15.064  0.0000E+00  0.0000E+00  0.3200E+02  0.3200E+02
    -14.797  0.0000E+00  0.0000E+00  0.3200E+02  0.3200E+02
    -14.530  0.0000E+00  0.0000E+00  0.3200E+02  0.3200E+02
    -14.263  0.0000E+00  0.0000E+00  0.3200E+02  0.3200E+02
    -13.996  0.0000E+00  0.0000E+00  0.3200E+02  0.3200E+02
    -13.729  0.0000E+00  0.0000E+00  0.3200E+02  0.3200E+02
    -13.462  0.0000E+00  0.0000E+00  0.3200E+02  0.3200E+02
    -13.195  0.0000E+00  0.0000E+00  0.3200E+02  0.3200E+02
    -12.928  0.0000E+00  0.0000E+00  0.3200E+02  0.3200E+02
    -12.662  0.0000E+00  0.0000E+00  0.3200E+02  0.3200E+02
    -12.395  0.4957E-05  0.0000E+00  0.3200E+02  0.3200E+02
    -12.128  0.1392E+02  0.2002E-01  0.3572E+02  0.3201E+02
    -11.861  0.1063E+01  0.1496E+02  0.3600E+02  0.3600E+02
    -11.594  0.0000E+00  0.4348E-02  0.3600E+02  0.3600E+02
    -11.327  0.0000E+00  0.0000E+00  0.3600E+02  0.3600E+02
    -11.060  0.0000E+00  0.0000E+00  0.3600E+02  0.3600E+02
    -10.793  0.0000E+00  0.0000E+00  0.3600E+02  0.3600E+02
    -10.526  0.0000E+00  0.0000E+00  0.3600E+02  0.3600E+02
    -10.259  0.0000E+00  0.0000E+00  0.3600E+02  0.3600E+02
     -9.993  0.0000E+00  0.0000E+00  0.3600E+02  0.3600E+02
     -9.726  0.0000E+00  0.0000E+00  0.3600E+02  0.3600E+02
     -9.459  0.0000E+00  0.0000E+00  0.3600E+02  0.3600E+02
     -9.192  0.0000E+00  0.0000E+00  0.3600E+02  0.3600E+02
     -8.925  0.0000E+00  0.0000E+00  0.3600E+02  0.3600E+02
     -8.658  0.0000E+00  0.0000E+00  0.3600E+02  0.3600E+02
     -8.391  0.0000E+00  0.0000E+00  0.3600E+02  0.3600E+02
     -8.124  0.2938E-14  0.0000E+00  0.3600E+02  0.3600E+02
     -7.857  0.6796E-01  0.3316E-09  0.3602E+02  0.3600E+02
     -7.590  0.2214E+01  0.3814E+00  0.3661E+02  0.3610E+02
     -7.324  0.3672E+01  0.3172E+01  0.3759E+02  0.3695E+02
     -7.057  0.8531E+01  0.4245E+01  0.3987E+02  0.3808E+02
     -6.790  0.1543E+02  0.8800E+01  0.4399E+02  0.4043E+02
     -6.523  0.5388E-01  0.1329E+02  0.4400E+02  0.4398E+02
     -6.256  0.0000E+00  0.8566E-01  0.4400E+02  0.4400E+02
     -5.989  0.0000E+00  0.0000E+00  0.4400E+02  0.4400E+02
     -5.722  0.0000E+00  0.0000E+00  0.4400E+02  0.4400E+02
     -5.455  0.0000E+00  0.0000E+00  0.4400E+02  0.4400E+02
     -5.188  0.0000E+00  0.0000E+00  0.4400E+02  0.4400E+02
     -4.921  0.0000E+00  0.0000E+00  0.4400E+02  0.4400E+02
     -4.655  0.0000E+00  0.0000E+00  0.4400E+02  0.4400E+02
     -4.388  0.0000E+00  0.0000E+00  0.4400E+02  0.4400E+02
     -4.121  0.0000E+00  0.0000E+00  0.4400E+02  0.4400E+02
     -3.854  0.0000E+00  0.0000E+00  0.4400E+02  0.4400E+02
     -3.587  0.0000E+00  0.0000E+00  0.4400E+02  0.4400E+02
     -3.320  0.0000E+00  0.0000E+00  0.4400E+02  0.4400E+02
     -3.053  0.0000E+00  0.0000E+00  0.4400E+02  0.4400E+02
     -2.786  0.0000E+00  0.0000E+00  0.4400E+02  0.4400E+02
     -2.519  0.0000E+00  0.0000E+00  0.4400E+02  0.4400E+02
     -2.252  0.0000E+00  0.0000E+00  0.4400E+02  0.4400E+02
     -1.986  0.0000E+00  0.0000E+00  0.4400E+02  0.4400E+02
     -1.719  0.0000E+00  0.0000E+00  0.4400E+02  0.4400E+02
     -1.452  0.9188E-12  0.0000E+00  0.4400E+02  0.4400E+02
     -1.185  0.2464E+00  0.0000E+00  0.4407E+02  0.4400E+02
     -0.918  0.1161E+02  0.0000E+00  0.4716E+02  0.4400E+02
     -0.651  0.1594E+02  0.0000E+00  0.5142E+02  0.4400E+02
     -0.384  0.3153E+02  0.1854E-01  0.5983E+02  0.4400E+02
     -0.117  0.2572E+02  0.1763E+01  0.6670E+02  0.4448E+02
      0.150  0.1875E+02  0.2631E+01  0.7170E+02  0.4518E+02
      0.417  0.1183E+02  0.6122E+01  0.7486E+02  0.4681E+02
      0.683  0.1682E+02  0.1079E+02  0.7935E+02  0.4969E+02
      0.950  0.1176E+02  0.6667E+01  0.8249E+02  0.5147E+02
      1.217  0.9601E+01  0.7897E+01  0.8505E+02  0.5358E+02
      1.484  0.9035E+01  0.8746E+01  0.8746E+02  0.5591E+02
      1.751  0.8810E+01  0.9541E+01  0.8981E+02  0.5846E+02
      2.018  0.9972E+01  0.1149E+02  0.9247E+02  0.6153E+02
      2.285  0.1024E+02  0.9426E+01  0.9521E+02  0.6404E+02
      2.552  0.1072E+02  0.7577E+01  0.9807E+02  0.6606E+02
      2.819  0.9031E+01  0.1440E+02  0.1005E+03  0.6991E+02
      3.086  0.1202E+02  0.1271E+02  0.1037E+03  0.7330E+02
      3.352  0.8853E+01  0.9566E+01  0.1061E+03  0.7585E+02
      3.619  0.4880E+01  0.1157E+02  0.1074E+03  0.7894E+02
      3.886  0.1093E+02  0.3570E+01  0.1103E+03  0.7989E+02
      4.153  0.1161E+02  0.6187E+01  0.1134E+03  0.8154E+02
      4.420  0.1164E+02  0.8791E+01  0.1165E+03  0.8389E+02
      4.687  0.4391E+01  0.1033E+02  0.1176E+03  0.8665E+02
      4.954  0.3720E+01  0.5075E+01  0.1186E+03  0.8800E+02
      5.221  0.4764E+01  0.0000E+00  0.1199E+03  0.8800E+02
      5.488  0.3238E+00  0.0000E+00  0.1200E+03  0.8800E+02
      5.755  0.0000E+00  0.2747E-02  0.1200E+03  0.8800E+02
      6.022  0.0000E+00  0.2326E+00  0.1200E+03  0.8806E+02
      6.288  0.0000E+00  0.9359E+00  0.1200E+03  0.8831E+02
      6.555  0.0000E+00  0.1179E+01  0.1200E+03  0.8863E+02
      6.822  0.0000E+00  0.3656E+01  0.1200E+03  0.8960E+02
      7.089  0.8037E-09  0.1006E+02  0.1200E+03  0.9229E+02
      7.356  0.1108E+00  0.1915E+02  0.1200E+03  0.9740E+02
      7.623  0.9036E-01  0.2537E+02  0.1201E+03  0.1042E+03
      7.890  0.1003E+01  0.1692E+02  0.1203E+03  0.1087E+03
      8.157  0.1167E+01  0.1198E+02  0.1206E+03  0.1119E+03
      8.424  0.1504E+01  0.6573E+01  0.1210E+03  0.1136E+03
      8.691  0.1148E+01  0.5238E+01  0.1213E+03  0.1150E+03
      8.957  0.4285E+01  0.8397E+01  0.1225E+03  0.1173E+03
      9.224  0.3405E+01  0.5262E+01  0.1234E+03  0.1187E+03
      9.491  0.5086E+01  0.7020E+01  0.1248E+03  0.1206E+03
      9.758  0.6220E+01  0.3935E+01  0.1264E+03  0.1216E+03
     10.025  0.5704E+01  0.3079E+01  0.1279E+03  0.1224E+03
     10.292  0.2783E+01  0.6836E+01  0.1287E+03  0.1243E+03
     10.559  0.3914E+01  0.5213E+01  0.1297E+03  0.1256E+03
     10.826  0.6236E+01  0.6526E+01  0.1314E+03  0.1274E+03
     11.093  0.4443E+01  0.5499E+01  0.1326E+03  0.1289E+03
     11.360  0.7364E+01  0.4336E+01  0.1345E+03  0.1300E+03
     11.626  0.7314E+01  0.4873E+01  0.1365E+03  0.1313E+03
     11.893  0.7805E+01  0.6127E+01  0.1386E+03  0.1329E+03
     12.160  0.9176E+01  0.5922E+01  0.1410E+03  0.1345E+03
     12.427  0.7549E+01  0.6937E+01  0.1430E+03  0.1364E+03
     12.694  0.6560E+01  0.1004E+02  0.1448E+03  0.1391E+03
     12.961  0.7290E+01  0.1010E+02  0.1467E+03  0.1418E+03
     13.228  0.7070E+01  0.7256E+01  0.1486E+03  0.1437E+03
     13.495  0.7768E+01  0.9215E+01  0.1507E+03  0.1462E+03
     13.762  0.6539E+01  0.9134E+01  0.1524E+03  0.1486E+03
     14.029  0.6452E+01  0.8528E+01  0.1542E+03  0.1509E+03
     14.295  0.4648E+01  0.5670E+01  0.1554E+03  0.1524E+03
     14.562  0.8213E+01  0.6744E+01  0.1576E+03  0.1542E+03
     14.829  0.4402E+01  0.4720E+01  0.1588E+03  0.1554E+03
     15.096  0.3532E+01  0.7987E+01  0.1597E+03  0.1576E+03
     15.363  0.6258E+01  0.4466E+01  0.1614E+03  0.1588E+03
     15.630  0.2607E+01  0.3005E+01  0.1621E+03  0.1596E+03
     15.897  0.4143E+01  0.5524E+01  0.1632E+03  0.1610E+03
     16.164  0.4826E+01  0.3330E+01  0.1645E+03  0.1619E+03
     16.431  0.4832E+01  0.4191E+01  0.1658E+03  0.1630E+03
     16.698  0.4853E+01  0.3726E+01  0.1671E+03  0.1640E+03
     16.964  0.8165E+01  0.5343E+01  0.1692E+03  0.1655E+03
     17.231  0.4756E+01  0.3338E+01  0.1705E+03  0.1664E+03
     17.498  0.4769E+01  0.7537E+01  0.1718E+03  0.1684E+03
     17.765  0.4873E+01  0.5106E+01  0.1731E+03  0.1697E+03
     18.032  0.6489E+01  0.5693E+01  0.1748E+03  0.1713E+03
     18.299  0.7383E+01  0.5700E+01  0.1768E+03  0.1728E+03
     18.566  0.6154E+01  0.6926E+01  0.1784E+03  0.1746E+03
     18.833  0.7166E+01  0.7438E+01  0.1803E+03  0.1766E+03
     19.100  0.7822E+01  0.6444E+01  0.1824E+03  0.1783E+03
     19.367  0.7970E+01  0.8538E+01  0.1845E+03  0.1806E+03
     19.633  0.5707E+01  0.6387E+01  0.1861E+03  0.1823E+03
     19.900  0.4318E+01  0.6999E+01  0.1872E+03  0.1842E+03
     20.167  0.6269E+01  0.7659E+01  0.1889E+03  0.1862E+03
     20.434  0.7320E+01  0.4013E+01  0.1909E+03  0.1873E+03
     20.701  0.3714E+01  0.6885E+01  0.1918E+03  0.1891E+03
     20.968  0.5855E+00  0.6468E+01  0.1920E+03  0.1909E+03
     21.235  0.0000E+00  0.3849E+01  0.1920E+03  0.1919E+03
     21.502  0.0000E+00  0.4350E+00  0.1920E+03  0.1920E+03
     21.769  0.0000E+00  0.0000E+00  0.1920E+03  0.1920E+03
     22.036  0.0000E+00  0.0000E+00  0.1920E+03  0.1920E+03
     22.302  0.0000E+00  0.0000E+00  0.1920E+03  0.1920E+03
     22.569  0.0000E+00  0.0000E+00  0.1920E+03  0.1920E+03
     22.836  0.0000E+00  0.0000E+00  0.1920E+03  0.1920E+03
     23.103  0.0000E+00  0.0000E+00  0.1920E+03  0.1920E+03
     23.370  0.0000E+00  0.0000E+00  0.1920E+03  0.1920E+03
     23.637  0.0000E+00  0.0000E+00  0.1920E+03  0.1920E+03
     23.904  0.0000E+00  0.0000E+00  0.1920E+03  0.1920E+03
     24.171  0.0000E+00  0.0000E+00  0.1920E+03  0.1920E+03
     24.438  0.0000E+00  0.0000E+00  0.1920E+03  0.1920E+03
     24.705  0.0000E+00  0.0000E+00  0.1920E+03  0.1920E+03
     24.972  0.0000E+00  0.0000E+00  0.1920E+03  0.1920E+03
