   28   28    1    2
  0.1357572E+02  0.7689801E-09  0.7689812E-09  0.6979496E-09  0.5000000E-15
  1.000000000000000E-004
  CAR 
 unknown system                          
    208     36    192
 
  0.0000000E+00  0.0000000E+00  0.0000000E+00  0.1562500E-01
    1      -51.459337    -46.661752   1.000000   1.000000
    2      -51.458803    -46.660984   1.000000   1.000000
    3      -51.458758    -46.660932   1.000000   1.000000
    4      -51.458724    -46.660919   1.000000   1.000000
    5      -51.458459    -46.660612   1.000000   1.000000
    6      -51.458370    -46.660545   1.000000   1.000000
    7      -51.458345    -46.660535   1.000000   1.000000
    8      -51.457829    -46.659760   1.000000   1.000000
    9      -49.776568    -46.048157   1.000000   1.000000
   10      -49.775985    -46.047349   1.000000   1.000000
   11      -49.775925    -46.047292   1.000000   1.000000
   12      -49.775897    -46.047279   1.000000   1.000000
   13      -49.775572    -46.046952   1.000000   1.000000
   14      -49.775535    -46.046889   1.000000   1.000000
   15      -49.775475    -46.046871   1.000000   1.000000
   16      -49.774885    -46.046019   1.000000   1.000000
   17      -49.587722    -45.881297   1.000000   1.000000
   18      -49.586645    -45.879815   1.000000   1.000000
   19      -49.586303    -45.879450   1.000000   1.000000
   20      -49.586196    -45.879386   1.000000   1.000000
   21      -49.586159    -45.879038   1.000000   1.000000
   22      -49.585909    -45.878759   1.000000   1.000000
   23      -49.585689    -45.878596   1.000000   1.000000
   24      -49.584804    -45.877390   1.000000   1.000000
   25      -39.434410    -39.433333   1.000000   1.000000
   26      -39.409622    -39.408643   1.000000   1.000000
   27      -39.409442    -39.408464   1.000000   1.000000
   28      -39.409124    -39.408139   1.000000   1.000000
   29      -39.408931    -39.407946   1.000000   1.000000
   30      -39.407980    -39.407018   1.000000   1.000000
   31      -39.407793    -39.406830   1.000000   1.000000
   32      -39.386919    -39.385995   1.000000   1.000000
   33      -12.241161    -12.051687   1.000000   1.000000
   34      -12.185764    -11.996008   1.000000   1.000000
   35      -12.185480    -11.995757   1.000000   1.000000
   36      -12.154343    -11.964433   1.000000   1.000000
   37       -7.803269     -7.600967   1.000000   1.000000
   38       -7.129578     -6.944053   1.000000   1.000000
   39       -7.128776     -6.943318   1.000000   1.000000
   40       -7.103755     -6.832701   1.000000   1.000000
   41       -7.006981     -6.822646   1.000000   1.000000
   42       -7.006156     -6.821890   1.000000   1.000000
   43       -6.964472     -6.682486   1.000000   1.000000
   44       -6.850969     -6.556910   1.000000   1.000000
   45       -1.210037     -0.334305   1.000000   1.000000
   46       -1.209632     -0.334188   1.000000   1.000000
   47       -1.094805      0.496326   1.000000   1.000000
   48       -0.896912      0.496451   1.000000   1.000000
   49       -0.890466      0.516330   1.000000   1.000000
   50       -0.890071      0.665927   1.000000   1.000000
   51       -0.770065      0.868596   1.000000   1.000000
   52       -0.769663      0.881768   1.000000   1.000000
   53       -0.632321      1.054149   1.000000   1.000000
   54       -0.631649      1.105170   1.000000   1.000000
   55       -0.607924      1.105287   1.000000   1.000000
   56       -0.607533      1.133031   1.000000   1.000000
   57       -0.450223      1.505098   1.000000   1.000000
   58       -0.379437      1.633357   1.000000   1.000000
   59       -0.344841      1.928032   1.000000   1.000000
   60       -0.265196      1.932167   1.000000   1.000000
   61       -0.242957      1.932818   1.000000   1.000000
   62       -0.236870      1.983385   1.000000   1.000000
   63       -0.236571      2.225290   1.000000   1.000000
   64       -0.226691      2.225495   1.000000   1.000000
   65       -0.177416      2.245523   1.000000   1.000000
   66       -0.148433      2.655411   1.000000   1.000000
   67       -0.147470      2.655768   1.000000   1.000000
   68       -0.070153      2.834210   1.000000   1.000000
   69       -0.050656      2.893168   1.000000   1.000000
   70        0.130334      2.893516   1.000000   1.000000
   71        0.271719      2.893685   1.000000   1.000000
   72        0.285746      2.995345   1.000000   1.000000
   73        0.299148      2.995488   1.000000   1.000000
   74        0.339222      3.063908   1.000000   1.000000
   75        0.339470      3.482411   1.000000   1.000000
   76        0.347023      3.482707   1.000000   1.000000
   77        0.465999      3.609986   1.000000   1.000000
   78        0.500442      3.671507   1.000000   1.000000
   79        0.501017      4.067574   1.000000   1.000000
   80        0.557347      4.100130   1.000000   1.000000
   81        0.659191      4.212858   1.000000   1.000000
   82        0.791090      4.213682   1.000000   1.000000
   83        0.792003      4.256833   1.000000   1.000000
   84        0.833955      4.266464   1.000000   1.000000
   85        1.007745      4.635841   1.000000   1.000000
   86        1.009415      4.636337   1.000000   1.000000
   87        1.290476      4.687665   1.000000   1.000000
   88        1.485116      4.795383   1.000000   1.000000
   89        1.665541      5.828531   1.000000   0.000000
   90        2.057937      6.504343   1.000000   0.000000
   91        2.059088      6.640467   1.000000   0.000000
   92        2.127596      6.694803   1.000000   0.000000
   93        2.214534      6.942133   1.000000   0.000000
   94        2.215793      7.032639   1.000000   0.000000
   95        2.254599      7.335371   1.000000   0.000000
   96        2.410165      7.344401   1.000000   0.000000
   97        2.470492      7.399290   1.000000   0.000000
   98        2.531537      7.399618   1.000000   0.000000
   99        2.861149      7.458927   1.000000   0.000000
  100        2.861682      7.460505   1.000000   0.000000
  101        2.883710      7.538534   1.000000   0.000000
  102        2.889080      7.538866   1.000000   0.000000
  103        2.907939      7.550711   1.000000   0.000000
  104        2.909608      7.550981   1.000000   0.000000
  105        2.993871      7.555427   1.000000   0.000000
  106        3.226942      7.638876   1.000000   0.000000
  107        3.227321      7.670105   1.000000   0.000000
  108        3.620962      7.826562   1.000000   0.000000
  109        3.740134      7.827202   1.000000   0.000000
  110        3.967539      7.898184   1.000000   0.000000
  111        4.108437      8.166102   1.000000   0.000000
  112        4.118285      8.183970   1.000000   0.000000
  113        4.225544      8.576071   1.000000   0.000000
  114        4.226175      8.576482   1.000000   0.000000
  115        4.538855      8.639385   1.000000   0.000000
  116        4.539105      8.639579   1.000000   0.000000
  117        4.708379      8.875682   1.000000   0.000000
  118        4.708634      8.929517   1.000000   0.000000
  119        5.143484      8.929860   1.000000   0.000000
  120        5.143901      9.096707   1.000000   0.000000
  121        7.350490      9.414098   0.000000   0.000000
  122        7.737098      9.414294   0.000000   0.000000
  123        8.792974      9.458513   0.000000   0.000000
  124        8.793393      9.458950   0.000000   0.000000
  125        8.841501     10.066695   0.000000   0.000000
  126        9.482298     10.066747   0.000000   0.000000
  127        9.507248     10.803021   0.000000   0.000000
  128        9.507483     11.278395   0.000000   0.000000
  129       10.446507     11.349698   0.000000   0.000000
  130       10.650943     11.349925   0.000000   0.000000
  131       10.651391     11.379202   0.000000   0.000000
  132       10.885979     11.379548   0.000000   0.000000
  133       10.886717     11.899914   0.000000   0.000000
  134       11.128420     11.900295   0.000000   0.000000
  135       11.361977     11.941601   0.000000   0.000000
  136       11.451198     12.319868   0.000000   0.000000
  137       11.451364     12.320327   0.000000   0.000000
  138       11.535457     12.352813   0.000000   0.000000
  139       11.621492     12.468306   0.000000   0.000000
  140       11.622546     12.588323   0.000000   0.000000
  141       12.031694     12.872138   0.000000   0.000000
  142       12.031985     13.032536   0.000000   0.000000
  143       12.144441     13.032826   0.000000   0.000000
  144       12.254047     13.323485   0.000000   0.000000
  145       13.052291     13.472025   0.000000   0.000000
  146       13.315153     13.643274   0.000000   0.000000
  147       13.315407     13.643326   0.000000   0.000000
  148       13.548313     13.789805   0.000000   0.000000
  149       13.548591     13.912989   0.000000   0.000000
  150       13.693275     13.913173   0.000000   0.000000
  151       14.157954     14.324818   0.000000   0.000000
  152       14.352265     14.947202   0.000000   0.000000
  153       14.372768     14.967319   0.000000   0.000000
  154       14.626851     15.094506   0.000000   0.000000
  155       14.627280     15.166875   0.000000   0.000000
  156       14.694138     15.221683   0.000000   0.000000
  157       14.712625     15.271240   0.000000   0.000000
  158       14.732856     15.383838   0.000000   0.000000
  159       14.993190     15.384194   0.000000   0.000000
  160       15.657919     16.017090   0.000000   0.000000
  161       15.821650     16.178471   0.000000   0.000000
  162       16.135178     16.491469   0.000000   0.000000
  163       16.158024     16.652599   0.000000   0.000000
  164       16.158533     16.653082   0.000000   0.000000
  165       16.421794     17.059146   0.000000   0.000000
  166       16.652707     17.059280   0.000000   0.000000
  167       16.750654     17.378584   0.000000   0.000000
  168       16.774697     17.434611   0.000000   0.000000
  169       16.781645     17.723795   0.000000   0.000000
  170       16.782129     17.737296   0.000000   0.000000
  171       16.850381     17.743911   0.000000   0.000000
  172       16.876071     18.016661   0.000000   0.000000
  173       17.090805     18.045836   0.000000   0.000000
  174       17.583747     18.266141   0.000000   0.000000
  175       17.583967     18.266336   0.000000   0.000000
  176       17.613875     18.310326   0.000000   0.000000
  177       17.613947     18.310600   0.000000   0.000000
  178       17.886328     18.732217   0.000000   0.000000
  179       17.896161     18.765665   0.000000   0.000000
  180       18.311122     18.765782   0.000000   0.000000
  181       18.311293     18.894772   0.000000   0.000000
  182       18.316300     18.894910   0.000000   0.000000
  183       18.316502     18.971515   0.000000   0.000000
  184       18.719004     19.048259   0.000000   0.000000
  185       18.719123     19.048386   0.000000   0.000000
  186       18.852208     19.097173   0.000000   0.000000
  187       19.060015     19.454087   0.000000   0.000000
  188       19.334289     19.687909   0.000000   0.000000
  189       19.893213     20.447159   0.000000   0.000000
  190       19.893902     20.499753   0.000000   0.000000
  191       20.195649     20.500392   0.000000   0.000000
  192       20.283131     21.200291   0.000000   0.000000
 
  0.2500000E+00  0.0000000E+00  0.6938894E-17  0.3125000E-01
    1      -51.459280    -46.661677   1.000000   1.000000
    2      -51.458953    -46.661208   1.000000   1.000000
    3      -51.458721    -46.660917   1.000000   1.000000
    4      -51.458709    -46.660886   1.000000   1.000000
    5      -51.458462    -46.660627   1.000000   1.000000
    6      -51.458399    -46.660564   1.000000   1.000000
    7      -51.458200    -46.660310   1.000000   1.000000
    8      -51.457869    -46.659825   1.000000   1.000000
    9      -49.776509    -46.048078   1.000000   1.000000
   10      -49.776145    -46.047581   1.000000   1.000000
   11      -49.775892    -46.047281   1.000000   1.000000
   12      -49.775878    -46.047242   1.000000   1.000000
   13      -49.775595    -46.046970   1.000000   1.000000
   14      -49.775558    -46.046900   1.000000   1.000000
   15      -49.775317    -46.046627   1.000000   1.000000
   16      -49.774939    -46.046092   1.000000   1.000000
   17      -49.587613    -45.881147   1.000000   1.000000
   18      -49.586885    -45.880133   1.000000   1.000000
   19      -49.586338    -45.879517   1.000000   1.000000
   20      -49.586312    -45.879470   1.000000   1.000000
   21      -49.586013    -45.878888   1.000000   1.000000
   22      -49.585918    -45.878774   1.000000   1.000000
   23      -49.585483    -45.878317   1.000000   1.000000
   24      -49.584892    -45.877508   1.000000   1.000000
   25      -39.432420    -39.431351   1.000000   1.000000
   26      -39.418606    -39.417592   1.000000   1.000000
   27      -39.409383    -39.408407   1.000000   1.000000
   28      -39.408768    -39.407786   1.000000   1.000000
   29      -39.408210    -39.407245   1.000000   1.000000
   30      -39.407951    -39.406986   1.000000   1.000000
   31      -39.400357    -39.399403   1.000000   1.000000
   32      -39.388494    -39.387568   1.000000   1.000000
   33      -12.233076    -12.043564   1.000000   1.000000
   34      -12.193806    -12.004106   1.000000   1.000000
   35      -12.180855    -11.991090   1.000000   1.000000
   36      -12.158735    -11.968850   1.000000   1.000000
   37       -7.739118     -7.541162   1.000000   1.000000
   38       -7.309705     -7.129625   1.000000   1.000000
   39       -7.105754     -6.907803   1.000000   1.000000
   40       -7.063560     -6.799695   1.000000   1.000000
   41       -6.989310     -6.786008   1.000000   1.000000
   42       -6.984567     -6.738830   1.000000   1.000000
   43       -6.948038     -6.723323   1.000000   1.000000
   44       -6.874552     -6.598590   1.000000   1.000000
   45       -1.144518     -0.207650   1.000000   1.000000
   46       -1.124822     -0.171148   1.000000   1.000000
   47       -1.081057      0.439855   1.000000   1.000000
   48       -0.909511      0.495297   1.000000   1.000000
   49       -0.817061      0.564313   1.000000   1.000000
   50       -0.797769      0.582508   1.000000   1.000000
   51       -0.727302      0.616256   1.000000   1.000000
   52       -0.698314      0.714446   1.000000   1.000000
   53       -0.601129      0.962556   1.000000   1.000000
   54       -0.578825      1.172759   1.000000   1.000000
   55       -0.542798      1.343885   1.000000   1.000000
   56       -0.529413      1.477795   1.000000   1.000000
   57       -0.512491      1.596909   1.000000   1.000000
   58       -0.469477      1.699316   1.000000   1.000000
   59       -0.379199      1.834417   1.000000   1.000000
   60       -0.313984      1.945286   1.000000   1.000000
   61       -0.303781      1.954745   1.000000   1.000000
   62       -0.291058      2.052464   1.000000   1.000000
   63       -0.263734      2.108586   1.000000   1.000000
   64       -0.239686      2.221547   1.000000   1.000000
   65       -0.235316      2.551427   1.000000   1.000000
   66       -0.174207      2.567028   1.000000   1.000000
   67       -0.120863      2.626890   1.000000   1.000000
   68       -0.109039      2.665242   1.000000   1.000000
   69       -0.077453      2.766466   1.000000   1.000000
   70       -0.063235      2.815419   1.000000   1.000000
   71        0.028942      2.844606   1.000000   1.000000
   72        0.121448      3.000983   1.000000   1.000000
   73        0.295136      3.016631   1.000000   1.000000
   74        0.323454      3.182602   1.000000   1.000000
   75        0.368105      3.393223   1.000000   1.000000
   76        0.386975      3.466519   1.000000   1.000000
   77        0.466057      3.506047   1.000000   1.000000
   78        0.507800      3.553375   1.000000   1.000000
   79        0.532811      3.755515   1.000000   1.000000
   80        0.653934      3.914525   1.000000   1.000000
   81        0.727873      4.073942   1.000000   1.000000
   82        0.760975      4.160781   1.000000   1.000000
   83        0.802987      4.194113   1.000000   1.000000
   84        0.962794      4.215716   1.000000   1.000000
   85        1.096110      4.635727   1.000000   1.000000
   86        1.252563      4.641857   1.000000   1.000000
   87        1.308623      4.670297   1.000000   1.000000
   88        1.511315      4.742290   1.000000   1.000000
   89        1.709608      6.132811   1.000000   0.000000
   90        1.893661      6.683889   1.000000   0.000000
   91        1.925485      6.756499   1.000000   0.000000
   92        2.013984      6.977363   1.000000   0.000000
   93        2.072418      7.178073   1.000000   0.000000
   94        2.253011      7.195891   1.000000   0.000000
   95        2.285590      7.228823   1.000000   0.000000
   96        2.397806      7.312220   1.000000   0.000000
   97        2.468737      7.344917   1.000000   0.000000
   98        2.663903      7.353070   1.000000   0.000000
   99        2.780480      7.424681   1.000000   0.000000
  100        2.810896      7.482227   1.000000   0.000000
  101        2.849105      7.506315   1.000000   0.000000
  102        2.905071      7.528980   1.000000   0.000000
  103        3.084851      7.556778   1.000000   0.000000
  104        3.153588      7.573272   1.000000   0.000000
  105        3.170637      7.655879   1.000000   0.000000
  106        3.396556      7.772062   1.000000   0.000000
  107        3.536224      7.849957   1.000000   0.000000
  108        3.598597      7.884758   1.000000   0.000000
  109        3.800375      7.894747   1.000000   0.000000
  110        3.863751      8.087926   1.000000   0.000000
  111        4.036931      8.157523   1.000000   0.000000
  112        4.078280      8.160517   1.000000   0.000000
  113        4.169967      8.199804   1.000000   0.000000
  114        4.177375      8.268393   1.000000   0.000000
  115        4.194010      8.306837   1.000000   0.000000
  116        4.269673      8.419487   1.000000   0.000000
  117        4.309386      8.794638   1.000000   0.000000
  118        4.613129      8.946008   1.000000   0.000000
  119        4.900914      9.055092   1.000000   0.000000
  120        4.966899      9.206820   1.000000   0.000000
  121        7.740245      9.340363   0.000000   0.000000
  122        8.271914      9.394846   0.000000   0.000000
  123        8.901985      9.841748   0.000000   0.000000
  124        8.962790     10.155484   0.000000   0.000000
  125        9.426173     10.278358   0.000000   0.000000
  126        9.528915     10.546671   0.000000   0.000000
  127        9.571276     10.720131   0.000000   0.000000
  128        9.972678     10.777331   0.000000   0.000000
  129       10.043186     10.981377   0.000000   0.000000
  130       10.315728     11.168649   0.000000   0.000000
  131       10.681214     11.426840   0.000000   0.000000
  132       10.764365     11.681066   0.000000   0.000000
  133       10.892514     11.699841   0.000000   0.000000
  134       11.116524     11.879452   0.000000   0.000000
  135       11.344070     12.285496   0.000000   0.000000
  136       11.489527     12.435244   0.000000   0.000000
  137       11.645560     12.449901   0.000000   0.000000
  138       11.797338     12.521937   0.000000   0.000000
  139       11.807754     12.649714   0.000000   0.000000
  140       11.882975     12.720924   0.000000   0.000000
  141       11.967287     12.782585   0.000000   0.000000
  142       12.130521     12.804090   0.000000   0.000000
  143       12.488530     13.188065   0.000000   0.000000
  144       12.844625     13.338886   0.000000   0.000000
  145       13.017143     13.503100   0.000000   0.000000
  146       13.059876     13.587431   0.000000   0.000000
  147       13.209317     13.709672   0.000000   0.000000
  148       13.381935     13.709857   0.000000   0.000000
  149       13.430930     13.882788   0.000000   0.000000
  150       13.715498     14.171007   0.000000   0.000000
  151       13.754913     14.172964   0.000000   0.000000
  152       13.924969     14.369724   0.000000   0.000000
  153       13.928668     14.421807   0.000000   0.000000
  154       14.075716     14.671973   0.000000   0.000000
  155       14.329998     14.917171   0.000000   0.000000
  156       14.448945     15.116778   0.000000   0.000000
  157       14.548495     15.186888   0.000000   0.000000
  158       14.620702     15.254442   0.000000   0.000000
  159       14.995838     15.654857   0.000000   0.000000
  160       15.164293     15.769463   0.000000   0.000000
  161       15.210759     15.822608   0.000000   0.000000
  162       15.672125     16.196937   0.000000   0.000000
  163       15.748275     16.333434   0.000000   0.000000
  164       15.886382     16.362362   0.000000   0.000000
  165       15.966796     16.711825   0.000000   0.000000
  166       16.065352     16.893566   0.000000   0.000000
  167       16.412143     16.928558   0.000000   0.000000
  168       16.452401     17.210445   0.000000   0.000000
  169       16.487139     17.240822   0.000000   0.000000
  170       16.521373     17.364238   0.000000   0.000000
  171       16.890682     17.551568   0.000000   0.000000
  172       16.901705     17.665406   0.000000   0.000000
  173       17.493139     17.995659   0.000000   0.000000
  174       17.776309     18.323768   0.000000   0.000000
  175       17.897193     18.385568   0.000000   0.000000
  176       17.930991     18.448796   0.000000   0.000000
  177       18.021732     18.568589   0.000000   0.000000
  178       18.176329     18.654992   0.000000   0.000000
  179       18.361744     18.893603   0.000000   0.000000
  180       18.601994     19.196895   0.000000   0.000000
  181       18.670469     19.249055   0.000000   0.000000
  182       18.888203     19.283739   0.000000   0.000000
  183       18.948467     19.574698   0.000000   0.000000
  184       19.143032     19.663753   0.000000   0.000000
  185       19.327661     19.801364   0.000000   0.000000
  186       19.364047     19.971395   0.000000   0.000000
  187       19.446065     20.235438   0.000000   0.000000
  188       19.978249     20.369129   0.000000   0.000000
  189       20.119168     20.494258   0.000000   0.000000
  190       20.159811     20.638984   0.000000   0.000000
  191       20.251205     20.825151   0.000000   0.000000
  192       20.322742     20.883933   0.000000   0.000000
 
  0.5000000E+00  0.0000000E+00  0.1387779E-16  0.1562500E-01
    1      -51.459148    -46.661490   1.000000   1.000000
    2      -51.459136    -46.661476   1.000000   1.000000
    3      -51.458716    -46.660908   1.000000   1.000000
    4      -51.458705    -46.660895   1.000000   1.000000
    5      -51.458468    -46.660615   1.000000   1.000000
    6      -51.458411    -46.660584   1.000000   1.000000
    7      -51.458042    -46.660051   1.000000   1.000000
    8      -51.457978    -46.660005   1.000000   1.000000
    9      -49.776363    -46.047881   1.000000   1.000000
   10      -49.776354    -46.047870   1.000000   1.000000
   11      -49.775884    -46.047265   1.000000   1.000000
   12      -49.775880    -46.047262   1.000000   1.000000
   13      -49.775596    -46.046949   1.000000   1.000000
   14      -49.775572    -46.046926   1.000000   1.000000
   15      -49.775112    -46.046330   1.000000   1.000000
   16      -49.775089    -46.046304   1.000000   1.000000
   17      -49.587303    -45.880717   1.000000   1.000000
   18      -49.587298    -45.880708   1.000000   1.000000
   19      -49.586346    -45.879513   1.000000   1.000000
   20      -49.586326    -45.879501   1.000000   1.000000
   21      -49.585965    -45.878823   1.000000   1.000000
   22      -49.585943    -45.878812   1.000000   1.000000
   23      -49.585159    -45.877858   1.000000   1.000000
   24      -49.585128    -45.877837   1.000000   1.000000
   25      -39.426817    -39.425771   1.000000   1.000000
   26      -39.426784    -39.425738   1.000000   1.000000
   27      -39.408824    -39.407853   1.000000   1.000000
   28      -39.408791    -39.407819   1.000000   1.000000
   29      -39.408391    -39.407417   1.000000   1.000000
   30      -39.408336    -39.407362   1.000000   1.000000
   31      -39.393156    -39.392220   1.000000   1.000000
   32      -39.393125    -39.392188   1.000000   1.000000
   33      -12.213503    -12.023899   1.000000   1.000000
   34      -12.213478    -12.023872   1.000000   1.000000
   35      -12.169620    -11.979796   1.000000   1.000000
   36      -12.169595    -11.979769   1.000000   1.000000
   37       -7.558454     -7.370668   1.000000   1.000000
   38       -7.558449     -7.370663   1.000000   1.000000
   39       -7.048253     -6.818037   1.000000   1.000000
   40       -7.048229     -6.818022   1.000000   1.000000
   41       -6.980638     -6.738928   1.000000   1.000000
   42       -6.980631     -6.738920   1.000000   1.000000
   43       -6.930369     -6.695015   1.000000   1.000000
   44       -6.930337     -6.694988   1.000000   1.000000
   45       -1.075015      0.144650   1.000000   1.000000
   46       -1.074933      0.144713   1.000000   1.000000
   47       -0.975794      0.228414   1.000000   1.000000
   48       -0.975632      0.228462   1.000000   1.000000
   49       -0.648658      0.490740   1.000000   1.000000
   50       -0.648412      0.491153   1.000000   1.000000
   51       -0.634841      0.557524   1.000000   1.000000
   52       -0.634401      0.557676   1.000000   1.000000
   53       -0.570750      1.112391   1.000000   1.000000
   54       -0.570600      1.112590   1.000000   1.000000
   55       -0.517222      1.659633   1.000000   1.000000
   56       -0.516868      1.660047   1.000000   1.000000
   57       -0.466186      1.750008   1.000000   1.000000
   58       -0.465504      1.750697   1.000000   1.000000
   59       -0.430247      1.858694   1.000000   1.000000
   60       -0.429987      1.859445   1.000000   1.000000
   61       -0.374088      2.059457   1.000000   1.000000
   62       -0.373752      2.059504   1.000000   1.000000
   63       -0.313649      2.249753   1.000000   1.000000
   64       -0.312875      2.250005   1.000000   1.000000
   65       -0.304051      2.512009   1.000000   1.000000
   66       -0.301616      2.512089   1.000000   1.000000
   67       -0.199099      2.579315   1.000000   1.000000
   68       -0.196827      2.579800   1.000000   1.000000
   69       -0.071205      2.620450   1.000000   1.000000
   70       -0.069980      2.620548   1.000000   1.000000
   71        0.018494      2.849883   1.000000   1.000000
   72        0.018883      2.850099   1.000000   1.000000
   73        0.301613      3.110567   1.000000   1.000000
   74        0.302477      3.110788   1.000000   1.000000
   75        0.415906      3.325246   1.000000   1.000000
   76        0.416333      3.327079   1.000000   1.000000
   77        0.436186      3.546445   1.000000   1.000000
   78        0.437356      3.546847   1.000000   1.000000
   79        0.587853      3.576962   1.000000   1.000000
   80        0.589083      3.577453   1.000000   1.000000
   81        0.747958      4.037162   1.000000   1.000000
   82        0.749547      4.037295   1.000000   1.000000
   83        0.910210      4.215267   1.000000   1.000000
   84        0.910310      4.215688   1.000000   1.000000
   85        1.225853      4.652926   1.000000   1.000000
   86        1.226029      4.653894   1.000000   1.000000
   87        1.493301      4.670026   1.000000   1.000000
   88        1.494021      4.670530   1.000000   1.000000
   89        1.718553      6.664273   1.000000   0.000000
   90        1.718992      6.664303   1.000000   0.000000
   91        1.881134      7.004378   1.000000   0.000000
   92        1.882490      7.004554   1.000000   0.000000
   93        2.198160      7.029454   1.000000   0.000000
   94        2.199139      7.030532   1.000000   0.000000
   95        2.534564      7.363495   1.000000   0.000000
   96        2.535729      7.366028   1.000000   0.000000
   97        2.763349      7.424924   1.000000   0.000000
   98        2.763464      7.425446   1.000000   0.000000
   99        2.853714      7.566311   1.000000   0.000000
  100        2.854139      7.567003   1.000000   0.000000
  101        2.904054      7.585257   1.000000   0.000000
  102        2.904242      7.585913   1.000000   0.000000
  103        2.962765      7.657029   1.000000   0.000000
  104        2.963585      7.658107   1.000000   0.000000
  105        3.216408      7.671593   1.000000   0.000000
  106        3.216552      7.672442   1.000000   0.000000
  107        3.682123      7.775374   1.000000   0.000000
  108        3.682270      7.776108   1.000000   0.000000
  109        3.704667      7.815150   1.000000   0.000000
  110        3.704729      7.817904   1.000000   0.000000
  111        4.020882      8.082399   1.000000   0.000000
  112        4.021016      8.082725   1.000000   0.000000
  113        4.066843      8.495295   1.000000   0.000000
  114        4.066882      8.495871   1.000000   0.000000
  115        4.276352      8.520837   1.000000   0.000000
  116        4.276375      8.521888   1.000000   0.000000
  117        4.398070      8.540882   1.000000   0.000000
  118        4.398167      8.541964   1.000000   0.000000
  119        4.541102      9.000634   1.000000   0.000000
  120        4.541126      9.000648   1.000000   0.000000
  121        8.705168      9.685449   0.000000   0.000000
  122        8.705189      9.685708   0.000000   0.000000
  123        9.019733     10.024264   0.000000   0.000000
  124        9.019794     10.024388   0.000000   0.000000
  125        9.203403     10.422154   0.000000   0.000000
  126        9.203431     10.422389   0.000000   0.000000