  88  88   0   0
  0.1431748E+02  0.1111223E-08  0.1111745E-08  0.1056954E-08  0.5000000E-15
  1.000000000000000E-004
  CAR 
 unknown system                          
     17.91361540    -54.34004773  301      5.20901297      1.00000000
    -54.340  0.0000E+00  0.0000E+00  0.0000E+00  0.0000E+00
    -54.099  0.0000E+00  0.0000E+00  0.0000E+00  0.0000E+00
    -53.858  0.0000E+00  0.0000E+00  0.0000E+00  0.0000E+00
    -53.618  0.0000E+00  0.0000E+00  0.0000E+00  0.0000E+00
    -53.377  0.0000E+00  0.0000E+00  0.0000E+00  0.0000E+00
    -53.136  0.0000E+00  0.0000E+00  0.0000E+00  0.0000E+00
    -52.895  0.0000E+00  0.0000E+00  0.0000E+00  0.0000E+00
    -52.654  0.0000E+00  0.0000E+00  0.0000E+00  0.0000E+00
    -52.413  0.0000E+00  0.0000E+00  0.0000E+00  0.0000E+00
    -52.172  0.0000E+00  0.0000E+00  0.0000E+00  0.0000E+00
    -51.932  0.0000E+00  0.0000E+00  0.0000E+00  0.0000E+00
    -51.691  0.0000E+00  0.0000E+00  0.0000E+00  0.0000E+00
    -51.450  0.0000E+00  0.0000E+00  0.0000E+00  0.0000E+00
    -51.209  0.4248E-03  0.0000E+00  0.1023E-03  0.0000E+00
    -50.968  0.1310E+03  0.0000E+00  0.3156E+02  0.0000E+00
    -50.727  0.1817E+01  0.0000E+00  0.3200E+02  0.0000E+00
    -50.487  0.0000E+00  0.0000E+00  0.3200E+02  0.0000E+00
    -50.246  0.0000E+00  0.0000E+00  0.3200E+02  0.0000E+00
    -50.005  0.0000E+00  0.0000E+00  0.3200E+02  0.0000E+00
    -49.764  0.2072E+01  0.0000E+00  0.3250E+02  0.0000E+00
    -49.523  0.2375E+03  0.0000E+00  0.8970E+02  0.0000E+00
    -49.282  0.2617E+02  0.0000E+00  0.9600E+02  0.0000E+00
    -49.041  0.0000E+00  0.0000E+00  0.9600E+02  0.0000E+00
    -48.801  0.0000E+00  0.0000E+00  0.9600E+02  0.0000E+00
    -48.560  0.0000E+00  0.0000E+00  0.9600E+02  0.0000E+00
    -48.319  0.0000E+00  0.0000E+00  0.9600E+02  0.0000E+00
    -48.078  0.0000E+00  0.0000E+00  0.9600E+02  0.0000E+00
    -47.837  0.0000E+00  0.0000E+00  0.9600E+02  0.0000E+00
    -47.596  0.0000E+00  0.0000E+00  0.9600E+02  0.0000E+00
    -47.356  0.0000E+00  0.0000E+00  0.9600E+02  0.0000E+00
    -47.115  0.0000E+00  0.0000E+00  0.9600E+02  0.0000E+00
    -46.874  0.0000E+00  0.0000E+00  0.9600E+02  0.0000E+00
    -46.633  0.0000E+00  0.0000E+00  0.9600E+02  0.0000E+00
    -46.392  0.0000E+00  0.4146E+00  0.9600E+02  0.9984E-01
    -46.151  0.0000E+00  0.1324E+03  0.9600E+02  0.3199E+02
    -45.910  0.0000E+00  0.6195E+02  0.9600E+02  0.4691E+02
    -45.670  0.0000E+00  0.2038E+03  0.9600E+02  0.9600E+02
    -45.429  0.0000E+00  0.0000E+00  0.9600E+02  0.9600E+02
    -45.188  0.0000E+00  0.0000E+00  0.9600E+02  0.9600E+02
    -44.947  0.0000E+00  0.0000E+00  0.9600E+02  0.9600E+02
    -44.706  0.0000E+00  0.0000E+00  0.9600E+02  0.9600E+02
    -44.465  0.0000E+00  0.0000E+00  0.9600E+02  0.9600E+02
    -44.225  0.0000E+00  0.0000E+00  0.9600E+02  0.9600E+02
    -43.984  0.0000E+00  0.0000E+00  0.9600E+02  0.9600E+02
    -43.743  0.0000E+00  0.0000E+00  0.9600E+02  0.9600E+02
    -43.502  0.0000E+00  0.0000E+00  0.9600E+02  0.9600E+02
    -43.261  0.0000E+00  0.0000E+00  0.9600E+02  0.9600E+02
    -43.020  0.0000E+00  0.0000E+00  0.9600E+02  0.9600E+02
    -42.779  0.0000E+00  0.0000E+00  0.9600E+02  0.9600E+02
    -42.539  0.0000E+00  0.0000E+00  0.9600E+02  0.9600E+02
    -42.298  0.0000E+00  0.0000E+00  0.9600E+02  0.9600E+02
    -42.057  0.0000E+00  0.0000E+00  0.9600E+02  0.9600E+02
    -41.816  0.0000E+00  0.0000E+00  0.9600E+02  0.9600E+02
    -41.575  0.0000E+00  0.0000E+00  0.9600E+02  0.9600E+02
    -41.334  0.0000E+00  0.0000E+00  0.9600E+02  0.9600E+02
    -41.094  0.0000E+00  0.0000E+00  0.9600E+02  0.9600E+02
    -40.853  0.0000E+00  0.0000E+00  0.9600E+02  0.9600E+02
    -40.612  0.0000E+00  0.0000E+00  0.9600E+02  0.9600E+02
    -40.371  0.0000E+00  0.0000E+00  0.9600E+02  0.9600E+02
    -40.130  0.2201E-11  0.1411E-11  0.9600E+02  0.9600E+02
    -39.889  0.1639E+02  0.1519E+02  0.9995E+02  0.9966E+02
    -39.648  0.5005E+02  0.5125E+02  0.1120E+03  0.1120E+03
    -39.408  0.0000E+00  0.0000E+00  0.1120E+03  0.1120E+03
    -39.167  0.0000E+00  0.0000E+00  0.1120E+03  0.1120E+03
    -38.926  0.0000E+00  0.0000E+00  0.1120E+03  0.1120E+03
    -38.685  0.0000E+00  0.0000E+00  0.1120E+03  0.1120E+03
    -38.444  0.0000E+00  0.0000E+00  0.1120E+03  0.1120E+03
    -38.203  0.0000E+00  0.0000E+00  0.1120E+03  0.1120E+03
    -37.963  0.0000E+00  0.0000E+00  0.1120E+03  0.1120E+03
    -37.722  0.0000E+00  0.0000E+00  0.1120E+03  0.1120E+03
    -37.481  0.0000E+00  0.0000E+00  0.1120E+03  0.1120E+03
    -37.240  0.0000E+00  0.0000E+00  0.1120E+03  0.1120E+03
    -36.999  0.0000E+00  0.0000E+00  0.1120E+03  0.1120E+03
    -36.758  0.0000E+00  0.0000E+00  0.1120E+03  0.1120E+03
    -36.517  0.0000E+00  0.0000E+00  0.1120E+03  0.1120E+03
    -36.277  0.0000E+00  0.0000E+00  0.1120E+03  0.1120E+03
    -36.036  0.0000E+00  0.0000E+00  0.1120E+03  0.1120E+03
    -35.795  0.0000E+00  0.0000E+00  0.1120E+03  0.1120E+03
    -35.554  0.0000E+00  0.0000E+00  0.1120E+03  0.1120E+03
    -35.313  0.0000E+00  0.0000E+00  0.1120E+03  0.1120E+03
    -35.072  0.0000E+00  0.0000E+00  0.1120E+03  0.1120E+03
    -34.832  0.0000E+00  0.0000E+00  0.1120E+03  0.1120E+03
    -34.591  0.0000E+00  0.0000E+00  0.1120E+03  0.1120E+03
    -34.350  0.0000E+00  0.0000E+00  0.1120E+03  0.1120E+03
    -34.109  0.0000E+00  0.0000E+00  0.1120E+03  0.1120E+03
    -33.868  0.0000E+00  0.0000E+00  0.1120E+03  0.1120E+03
    -33.627  0.0000E+00  0.0000E+00  0.1120E+03  0.1120E+03
    -33.386  0.0000E+00  0.0000E+00  0.1120E+03  0.1120E+03
    -33.146  0.0000E+00  0.0000E+00  0.1120E+03  0.1120E+03
    -32.905  0.0000E+00  0.0000E+00  0.1120E+03  0.1120E+03
    -32.664  0.0000E+00  0.0000E+00  0.1120E+03  0.1120E+03
    -32.423  0.0000E+00  0.0000E+00  0.1120E+03  0.1120E+03
    -32.182  0.0000E+00  0.0000E+00  0.1120E+03  0.1120E+03
    -31.941  0.0000E+00  0.0000E+00  0.1120E+03  0.1120E+03
    -31.701  0.0000E+00  0.0000E+00  0.1120E+03  0.1120E+03
    -31.460  0.0000E+00  0.0000E+00  0.1120E+03  0.1120E+03
    -31.219  0.0000E+00  0.0000E+00  0.1120E+03  0.1120E+03
    -30.978  0.0000E+00  0.0000E+00  0.1120E+03  0.1120E+03
    -30.737  0.0000E+00  0.0000E+00  0.1120E+03  0.1120E+03
    -30.496  0.0000E+00  0.0000E+00  0.1120E+03  0.1120E+03
    -30.255  0.0000E+00  0.0000E+00  0.1120E+03  0.1120E+03
    -30.015  0.0000E+00  0.0000E+00  0.1120E+03  0.1120E+03
    -29.774  0.0000E+00  0.0000E+00  0.1120E+03  0.1120E+03
    -29.533  0.0000E+00  0.0000E+00  0.1120E+03  0.1120E+03
    -29.292  0.0000E+00  0.0000E+00  0.1120E+03  0.1120E+03
    -29.051  0.0000E+00  0.0000E+00  0.1120E+03  0.1120E+03
    -28.810  0.0000E+00  0.0000E+00  0.1120E+03  0.1120E+03
    -28.570  0.0000E+00  0.0000E+00  0.1120E+03  0.1120E+03
    -28.329  0.0000E+00  0.0000E+00  0.1120E+03  0.1120E+03
    -28.088  0.0000E+00  0.0000E+00  0.1120E+03  0.1120E+03
    -27.847  0.0000E+00  0.0000E+00  0.1120E+03  0.1120E+03
    -27.606  0.0000E+00  0.0000E+00  0.1120E+03  0.1120E+03
    -27.365  0.0000E+00  0.0000E+00  0.1120E+03  0.1120E+03
    -27.125  0.0000E+00  0.0000E+00  0.1120E+03  0.1120E+03
    -26.884  0.0000E+00  0.0000E+00  0.1120E+03  0.1120E+03
    -26.643  0.0000E+00  0.0000E+00  0.1120E+03  0.1120E+03
    -26.402  0.0000E+00  0.0000E+00  0.1120E+03  0.1120E+03
    -26.161  0.0000E+00  0.0000E+00  0.1120E+03  0.1120E+03
    -25.920  0.0000E+00  0.0000E+00  0.1120E+03  0.1120E+03
    -25.679  0.0000E+00  0.0000E+00  0.1120E+03  0.1120E+03
    -25.439  0.0000E+00  0.0000E+00  0.1120E+03  0.1120E+03
    -25.198  0.0000E+00  0.0000E+00  0.1120E+03  0.1120E+03
    -24.957  0.0000E+00  0.0000E+00  0.1120E+03  0.1120E+03
    -24.716  0.0000E+00  0.0000E+00  0.1120E+03  0.1120E+03
    -24.475  0.0000E+00  0.0000E+00  0.1120E+03  0.1120E+03
    -24.234  0.0000E+00  0.0000E+00  0.1120E+03  0.1120E+03
    -23.994  0.0000E+00  0.0000E+00  0.1120E+03  0.1120E+03
    -23.753  0.0000E+00  0.0000E+00  0.1120E+03  0.1120E+03
    -23.512  0.0000E+00  0.0000E+00  0.1120E+03  0.1120E+03
    -23.271  0.0000E+00  0.0000E+00  0.1120E+03  0.1120E+03
    -23.030  0.0000E+00  0.0000E+00  0.1120E+03  0.1120E+03
    -22.789  0.0000E+00  0.0000E+00  0.1120E+03  0.1120E+03
    -22.548  0.0000E+00  0.0000E+00  0.1120E+03  0.1120E+03
    -22.308  0.0000E+00  0.0000E+00  0.1120E+03  0.1120E+03
    -22.067  0.0000E+00  0.0000E+00  0.1120E+03  0.1120E+03
    -21.826  0.0000E+00  0.0000E+00  0.1120E+03  0.1120E+03
    -21.585  0.0000E+00  0.0000E+00  0.1120E+03  0.1120E+03
    -21.344  0.0000E+00  0.0000E+00  0.1120E+03  0.1120E+03
    -21.103  0.0000E+00  0.0000E+00  0.1120E+03  0.1120E+03
    -20.863  0.0000E+00  0.0000E+00  0.1120E+03  0.1120E+03
    -20.622  0.0000E+00  0.0000E+00  0.1120E+03  0.1120E+03
    -20.381  0.0000E+00  0.0000E+00  0.1120E+03  0.1120E+03
    -20.140  0.0000E+00  0.0000E+00  0.1120E+03  0.1120E+03
    -19.899  0.0000E+00  0.0000E+00  0.1120E+03  0.1120E+03
    -19.658  0.0000E+00  0.0000E+00  0.1120E+03  0.1120E+03
    -19.417  0.0000E+00  0.0000E+00  0.1120E+03  0.1120E+03
    -19.177  0.0000E+00  0.0000E+00  0.1120E+03  0.1120E+03
    -18.936  0.0000E+00  0.0000E+00  0.1120E+03  0.1120E+03
    -18.695  0.0000E+00  0.0000E+00  0.1120E+03  0.1120E+03
    -18.454  0.0000E+00  0.0000E+00  0.1120E+03  0.1120E+03
    -18.213  0.0000E+00  0.0000E+00  0.1120E+03  0.1120E+03
    -17.972  0.0000E+00  0.0000E+00  0.1120E+03  0.1120E+03
    -17.732  0.0000E+00  0.0000E+00  0.1120E+03  0.1120E+03
    -17.491  0.0000E+00  0.0000E+00  0.1120E+03  0.1120E+03
    -17.250  0.0000E+00  0.0000E+00  0.1120E+03  0.1120E+03
    -17.009  0.0000E+00  0.0000E+00  0.1120E+03  0.1120E+03
    -16.768  0.0000E+00  0.0000E+00  0.1120E+03  0.1120E+03
    -16.527  0.0000E+00  0.0000E+00  0.1120E+03  0.1120E+03
    -16.286  0.0000E+00  0.0000E+00  0.1120E+03  0.1120E+03
    -16.046  0.0000E+00  0.0000E+00  0.1120E+03  0.1120E+03
    -15.805  0.0000E+00  0.0000E+00  0.1120E+03  0.1120E+03
    -15.564  0.0000E+00  0.0000E+00  0.1120E+03  0.1120E+03
    -15.323  0.0000E+00  0.0000E+00  0.1120E+03  0.1120E+03
    -15.082  0.0000E+00  0.0000E+00  0.1120E+03  0.1120E+03
    -14.841  0.0000E+00  0.0000E+00  0.1120E+03  0.1120E+03
    -14.601  0.0000E+00  0.0000E+00  0.1120E+03  0.1120E+03
    -14.360  0.0000E+00  0.0000E+00  0.1120E+03  0.1120E+03
    -14.119  0.0000E+00  0.0000E+00  0.1120E+03  0.1120E+03
    -13.878  0.0000E+00  0.0000E+00  0.1120E+03  0.1120E+03
    -13.637  0.0000E+00  0.0000E+00  0.1120E+03  0.1120E+03
    -13.396  0.1260E-05  0.0000E+00  0.1120E+03  0.1120E+03
    -13.155  0.2009E+02  0.0000E+00  0.1168E+03  0.1120E+03
    -12.915  0.4524E+02  0.1225E-01  0.1277E+03  0.1120E+03
    -12.674  0.1105E+01  0.4365E+02  0.1280E+03  0.1225E+03
    -12.433  0.0000E+00  0.2277E+02  0.1280E+03  0.1280E+03
    -12.192  0.0000E+00  0.0000E+00  0.1280E+03  0.1280E+03
    -11.951  0.0000E+00  0.0000E+00  0.1280E+03  0.1280E+03
    -11.710  0.0000E+00  0.0000E+00  0.1280E+03  0.1280E+03
    -11.470  0.0000E+00  0.0000E+00  0.1280E+03  0.1280E+03
    -11.229  0.0000E+00  0.0000E+00  0.1280E+03  0.1280E+03
    -10.988  0.0000E+00  0.0000E+00  0.1280E+03  0.1280E+03
    -10.747  0.0000E+00  0.0000E+00  0.1280E+03  0.1280E+03
    -10.506  0.0000E+00  0.0000E+00  0.1280E+03  0.1280E+03
    -10.265  0.0000E+00  0.0000E+00  0.1280E+03  0.1280E+03
    -10.024  0.0000E+00  0.0000E+00  0.1280E+03  0.1280E+03
     -9.784  0.0000E+00  0.0000E+00  0.1280E+03  0.1280E+03
     -9.543  0.0000E+00  0.0000E+00  0.1280E+03  0.1280E+03
     -9.302  0.0000E+00  0.0000E+00  0.1280E+03  0.1280E+03
     -9.061  0.0000E+00  0.0000E+00  0.1280E+03  0.1280E+03
     -8.820  0.0000E+00  0.0000E+00  0.1280E+03  0.1280E+03
     -8.579  0.0000E+00  0.0000E+00  0.1280E+03  0.1280E+03
     -8.339  0.0000E+00  0.0000E+00  0.1280E+03  0.1280E+03
     -8.098  0.0000E+00  0.0000E+00  0.1280E+03  0.1280E+03
     -7.857  0.1783E-09  0.0000E+00  0.1280E+03  0.1280E+03
     -7.616  0.6693E+00  0.3342E-10  0.1282E+03  0.1280E+03
     -7.375  0.1303E+02  0.5977E+00  0.1313E+03  0.1281E+03
     -7.134  0.3025E+02  0.1433E+02  0.1386E+03  0.1316E+03
     -6.893  0.3486E+02  0.2940E+02  0.1470E+03  0.1387E+03
     -6.653  0.2084E+02  0.2672E+02  0.1520E+03  0.1451E+03
     -6.412  0.1086E-04  0.2856E+02  0.1520E+03  0.1520E+03
     -6.171  0.0000E+00  0.3948E-01  0.1520E+03  0.1520E+03
     -5.930  0.0000E+00  0.0000E+00  0.1520E+03  0.1520E+03
     -5.689  0.0000E+00  0.0000E+00  0.1520E+03  0.1520E+03
     -5.448  0.0000E+00  0.0000E+00  0.1520E+03  0.1520E+03
     -5.208  0.0000E+00  0.0000E+00  0.1520E+03  0.1520E+03
     -4.967  0.0000E+00  0.0000E+00  0.1520E+03  0.1520E+03
     -4.726  0.0000E+00  0.0000E+00  0.1520E+03  0.1520E+03
     -4.485  0.0000E+00  0.0000E+00  0.1520E+03  0.1520E+03
     -4.244  0.0000E+00  0.0000E+00  0.1520E+03  0.1520E+03
     -4.003  0.0000E+00  0.0000E+00  0.1520E+03  0.1520E+03
     -3.762  0.0000E+00  0.0000E+00  0.1520E+03  0.1520E+03
     -3.522  0.0000E+00  0.0000E+00  0.1520E+03  0.1520E+03
     -3.281  0.0000E+00  0.0000E+00  0.1520E+03  0.1520E+03
     -3.040  0.0000E+00  0.0000E+00  0.1520E+03  0.1520E+03
     -2.799  0.0000E+00  0.0000E+00  0.1520E+03  0.1520E+03
     -2.558  0.0000E+00  0.0000E+00  0.1520E+03  0.1520E+03
     -2.317  0.0000E+00  0.0000E+00  0.1520E+03  0.1520E+03
     -2.077  0.4787E-04  0.0000E+00  0.1520E+03  0.1520E+03
     -1.836  0.1659E+02  0.0000E+00  0.1560E+03  0.1520E+03
     -1.595  0.1933E+02  0.0000E+00  0.1607E+03  0.1520E+03
     -1.354  0.1462E+02  0.0000E+00  0.1642E+03  0.1520E+03
     -1.113  0.1730E+02  0.0000E+00  0.1683E+03  0.1520E+03
     -0.872  0.4656E+02  0.0000E+00  0.1796E+03  0.1520E+03
     -0.631  0.5913E+02  0.1917E-05  0.1938E+03  0.1520E+03
     -0.391  0.3874E+02  0.4570E+01  0.2031E+03  0.1531E+03
     -0.150  0.6847E+02  0.2031E+02  0.2196E+03  0.1580E+03
      0.091  0.7345E+02  0.1226E+02  0.2373E+03  0.1609E+03
      0.332  0.7764E+02  0.1879E+02  0.2560E+03  0.1655E+03
      0.573  0.7009E+02  0.2968E+02  0.2729E+03  0.1726E+03
      0.814  0.5462E+02  0.3939E+02  0.2860E+03  0.1821E+03
      1.054  0.3629E+02  0.3729E+02  0.2948E+03  0.1911E+03
      1.295  0.3076E+02  0.3084E+02  0.3022E+03  0.1985E+03
      1.536  0.4503E+02  0.2084E+02  0.3130E+03  0.2035E+03
      1.777  0.4288E+02  0.2880E+02  0.3234E+03  0.2105E+03
      2.018  0.6913E+02  0.3733E+02  0.3400E+03  0.2195E+03
      2.259  0.5679E+02  0.2707E+02  0.3537E+03  0.2260E+03
      2.500  0.2704E+02  0.2710E+02  0.3602E+03  0.2325E+03
      2.740  0.4282E+02  0.3132E+02  0.3705E+03  0.2400E+03
      2.981  0.2930E+02  0.4464E+02  0.3776E+03  0.2508E+03
      3.222  0.8740E+01  0.4542E+02  0.3797E+03  0.2617E+03
      3.463  0.2851E+02  0.3137E+02  0.3865E+03  0.2693E+03
      3.704  0.2684E+02  0.1216E+02  0.3930E+03  0.2722E+03
      3.945  0.3114E+02  0.1837E+02  0.4005E+03  0.2766E+03
      4.185  0.3590E+02  0.5210E+02  0.4092E+03  0.2892E+03
      4.426  0.3640E+02  0.4532E+02  0.4179E+03  0.3001E+03
      4.667  0.3005E+02  0.1614E+02  0.4252E+03  0.3040E+03
      4.908  0.2563E+02  0.2994E-02  0.4313E+03  0.3040E+03
      5.149  0.2778E+01  0.0000E+00  0.4320E+03  0.3040E+03
      5.390  0.0000E+00  0.0000E+00  0.4320E+03  0.3040E+03
      5.630  0.0000E+00  0.0000E+00  0.4320E+03  0.3040E+03
      5.871  0.0000E+00  0.0000E+00  0.4320E+03  0.3040E+03
      6.112  0.0000E+00  0.9990E-09  0.4320E+03  0.3040E+03
      6.353  0.0000E+00  0.4361E+00  0.4320E+03  0.3041E+03
      6.594  0.0000E+00  0.4213E+01  0.4320E+03  0.3051E+03
      6.835  0.0000E+00  0.8015E+01  0.4320E+03  0.3071E+03
      7.076  0.2672E-14  0.1987E+02  0.4320E+03  0.3118E+03
      7.316  0.3406E-01  0.4457E+02  0.4320E+03  0.3226E+03
      7.557  0.1197E+00  0.5386E+02  0.4320E+03  0.3355E+03
      7.798  0.2836E+00  0.6303E+02  0.4321E+03  0.3507E+03
      8.039  0.7090E+00  0.6623E+02  0.4323E+03  0.3667E+03
      8.280  0.2224E+01  0.7042E+02  0.4328E+03  0.3836E+03
      8.521  0.2656E+01  0.5863E+02  0.4335E+03  0.3978E+03
      8.761  0.8972E+01  0.5881E+02  0.4356E+03  0.4119E+03
      9.002  0.1262E+02  0.4715E+02  0.4387E+03  0.4233E+03
      9.243  0.1316E+02  0.2928E+02  0.4418E+03  0.4303E+03
      9.484  0.1813E+02  0.8643E+01  0.4462E+03  0.4324E+03
      9.725  0.1614E+02  0.3146E+01  0.4501E+03  0.4332E+03
      9.966  0.1574E+02  0.8462E+01  0.4539E+03  0.4352E+03
     10.207  0.2248E+02  0.1883E+02  0.4593E+03  0.4397E+03
     10.447  0.1487E+02  0.1797E+02  0.4629E+03  0.4441E+03
     10.688  0.1523E+02  0.1731E+02  0.4665E+03  0.4482E+03
     10.929  0.1333E+02  0.2754E+02  0.4697E+03  0.4549E+03
     11.170  0.2069E+02  0.1896E+02  0.4747E+03  0.4594E+03
     11.411  0.2502E+02  0.2407E+02  0.4807E+03  0.4652E+03
     11.652  0.2701E+02  0.1450E+02  0.4873E+03  0.4687E+03
     11.892  0.2497E+02  0.1389E+02  0.4933E+03  0.4721E+03
     12.133  0.3316E+02  0.1629E+02  0.5013E+03  0.4760E+03
     12.374  0.1983E+02  0.3718E+02  0.5060E+03  0.4849E+03
     12.615  0.2309E+02  0.3249E+02  0.5116E+03  0.4928E+03
     12.856  0.2154E+02  0.2942E+02  0.5168E+03  0.4999E+03
     13.097  0.2002E+02  0.2020E+02  0.5216E+03  0.5047E+03
     13.338  0.2439E+02  0.2247E+02  0.5275E+03  0.5101E+03
     13.578  0.2390E+02  0.2727E+02  0.5332E+03  0.5167E+03
     13.819  0.1332E+02  0.2373E+02  0.5364E+03  0.5224E+03
     14.060  0.6491E+01  0.2616E+02  0.5380E+03  0.5287E+03
     14.301  0.2269E-02  0.1906E+02  0.5380E+03  0.5333E+03
     14.542  0.0000E+00  0.1651E+02  0.5380E+03  0.5373E+03
     14.783  0.0000E+00  0.2959E+01  0.5380E+03  0.5380E+03
     15.023  0.0000E+00  0.2242E-05  0.5380E+03  0.5380E+03
     15.264  0.0000E+00  0.0000E+00  0.5380E+03  0.5380E+03
     15.505  0.0000E+00  0.0000E+00  0.5380E+03  0.5380E+03
     15.746  0.0000E+00  0.0000E+00  0.5380E+03  0.5380E+03
     15.987  0.0000E+00  0.0000E+00  0.5380E+03  0.5380E+03
     16.228  0.0000E+00  0.0000E+00  0.5380E+03  0.5380E+03
     16.469  0.0000E+00  0.0000E+00  0.5380E+03  0.5380E+03
     16.709  0.0000E+00  0.0000E+00  0.5380E+03  0.5380E+03
     16.950  0.0000E+00  0.0000E+00  0.5380E+03  0.5380E+03
     17.191  0.0000E+00  0.0000E+00  0.5380E+03  0.5380E+03
     17.432  0.0000E+00  0.0000E+00  0.5380E+03  0.5380E+03
     17.673  0.0000E+00  0.0000E+00  0.5380E+03  0.5380E+03
     17.914  0.0000E+00  0.0000E+00  0.5380E+03  0.5380E+03
