 vasp.5.4.4.18Apr17-6-g9f103f2a35 (build Oct 25 2017 14:42:18) complex          
  
 executed on             LinuxIFC date 2021.06.02  18:38:58
 running on   24 total cores
 distrk:  each k-point on   12 cores,    2 groups
 distr:  one band on NCORES_PER_BAND=   6 cores,    2 groups


--------------------------------------------------------------------------------------------------------


 INCAR:
 POTCAR:    PAW_PBE Li_sv 10Sep2004               
 POTCAR:    PAW_PBE O 08Apr2002                   
 POTCAR:    PAW_PBE S 06Sep2000                   
 POTCAR:    PAW_PBE Fe_pv 02Aug2007               

 ----------------------------------------------------------------------------- 
|                                                                             |
|           W    W    AA    RRRRR   N    N  II  N    N   GGGG   !!!           |
|           W    W   A  A   R    R  NN   N  II  NN   N  G    G  !!!           |
|           W    W  A    A  R    R  N N  N  II  N N  N  G       !!!           |
|           W WW W  AAAAAA  RRRRR   N  N N  II  N  N N  G  GGG   !            |
|           WW  WW  A    A  R   R   N   NN  II  N   NN  G    G                |
|           W    W  A    A  R    R  N    N  II  N    N   GGGG   !!!           |
|                                                                             |
|      You have enabled k-point parallelism (KPAR>1).                         |
|      This developmental code was originally  written by Paul Kent at ORNL,  |
|      and carefully double checked in Vienna.                                |
|      GW as well as linear response parallelism added by Martijn Marsman     |
|      and Georg Kresse.                                                      |
|      Carefully verify results versus KPAR=1.                                |
|      Report problems to Paul Kent and Vienna.                               |
|                                                                             |
 ----------------------------------------------------------------------------- 

 POTCAR:    PAW_PBE Li_sv 10Sep2004               
  local pseudopotential read in
  atomic valenz-charges read in
  non local Contribution for L=           0  read in
    real space projection operators read in
  non local Contribution for L=           0  read in
    real space projection operators read in
  non local Contribution for L=           1  read in
    real space projection operators read in
    PAW grid and wavefunctions read in
 
   number of l-projection  operators is LMAX  =           3
   number of lm-projection operators is LMMAX =           5
 
 POTCAR:    PAW_PBE O 08Apr2002                   
  local pseudopotential read in
  partial core-charges read in
  partial kinetic energy density read in
  kinetic energy density of atom read in
  atomic valenz-charges read in
  non local Contribution for L=           0  read in
    real space projection operators read in
  non local Contribution for L=           0  read in
    real space projection operators read in
  non local Contribution for L=           1  read in
    real space projection operators read in
  non local Contribution for L=           1  read in
    real space projection operators read in
    PAW grid and wavefunctions read in
 
   number of l-projection  operators is LMAX  =           4
   number of lm-projection operators is LMMAX =           8
 
 POTCAR:    PAW_PBE S 06Sep2000                   
  local pseudopotential read in
  partial core-charges read in
  partial kinetic energy density read in
  atomic valenz-charges read in
  non local Contribution for L=           0  read in
    real space projection operators read in
  non local Contribution for L=           0  read in
    real space projection operators read in
  non local Contribution for L=           1  read in
    real space projection operators read in
  non local Contribution for L=           1  read in
    real space projection operators read in
    PAW grid and wavefunctions read in
 
   number of l-projection  operators is LMAX  =           4
   number of lm-projection operators is LMMAX =           8
 
 POTCAR:    PAW_PBE Fe_pv 02Aug2007               
  local pseudopotential read in
  partial core-charges read in
  partial kinetic energy density read in
  atomic valenz-charges read in
  non local Contribution for L=           1  read in
    real space projection operators read in
  non local Contribution for L=           1  read in
    real space projection operators read in
  non local Contribution for L=           2  read in
    real space projection operators read in
  non local Contribution for L=           2  read in
    real space projection operators read in
  non local Contribution for L=           0  read in
    real space projection operators read in
  non local Contribution for L=           0  read in
    real space projection operators read in
    PAW grid and wavefunctions read in
 
   number of l-projection  operators is LMAX  =           6
   number of lm-projection operators is LMMAX =          18
 

 ----------------------------------------------------------------------------- 
|                                                                             |
|  ADVICE TO THIS USER RUNNING 'VASP/VAMP'   (HEAR YOUR MASTER'S VOICE ...):  |
|                                                                             |
|      You have a (more or less) 'large supercell' and for larger cells       |
|      it might be more efficient to use real space projection opertators     |
|      So try LREAL= Auto  in the INCAR   file.                               |
|      Mind:          For very  accurate calculation you might also keep the  |
|      reciprocal projection scheme          (i.e. LREAL=.FALSE.)             |
|                                                                             |
 ----------------------------------------------------------------------------- 

  PAW_PBE Li_sv 10Sep2004               :
 energy of atom  1       EATOM= -202.7858
 kinetic energy error for atom=    0.0072 (will be added to EATOM!!)
  PAW_PBE O 08Apr2002                   :
 energy of atom  2       EATOM= -432.3788
 kinetic energy error for atom=    0.0129 (will be added to EATOM!!)
  PAW_PBE S 06Sep2000                   :
 energy of atom  3       EATOM= -276.8230
 kinetic energy error for atom=    0.0008 (will be added to EATOM!!)
  PAW_PBE Fe_pv 02Aug2007               :
 energy of atom  4       EATOM=-2457.4239
 kinetic energy error for atom=    0.0041 (will be added to EATOM!!)
 
 
 POSCAR: # Compound: Li16O16S24Fe32. Old comment:
  positions in direct lattice
  No initial velocities read in
 exchange correlation table for  LEXCH =        8
   RHO(1)=    0.500       N(1)  =     2000
   RHO(2)=  100.500       N(2)  =     4000
 


--------------------------------------------------------------------------------------------------------


 ion  position               nearest neighbor table
   1  0.289  0.469  0.156-  27 2.00  29 2.00  55 2.53  49 2.53
   2  0.789  0.469  0.156-  28 2.00  30 2.00  56 2.53  50 2.53
   3  0.289  0.969  0.156-  25 2.00  31 2.00  53 2.53  51 2.53
   4  0.789  0.969  0.156-  26 2.00  32 2.00  54 2.53  52 2.53
   5  0.046  0.219  0.186-  30 1.98  25 1.98
   6  0.546  0.219  0.186-  29 1.98  26 1.98
   7  0.046  0.719  0.186-  32 1.98  27 1.98
   8  0.546  0.719  0.186-  31 1.98  28 1.98
   9  0.454  0.469  0.814-  20 1.98  21 1.98
  10  0.954  0.469  0.814-  19 1.98  22 1.98
  11  0.454  0.969  0.814-  18 1.98  23 1.98
  12  0.954  0.969  0.814-  17 1.98  24 1.98
  13  0.211  0.219  0.844-  21 2.00  17 2.00  49 2.53  53 2.53
  14  0.711  0.219  0.844-  22 2.00  18 2.00  50 2.53  54 2.53
  15  0.211  0.719  0.844-  23 2.00  19 2.00  51 2.53  55 2.53
  16  0.711  0.719  0.844-  24 2.00  20 2.00  52 2.53  56 2.53
  17  0.077  0.095  0.803-  12 1.98  13 2.00  57 2.01  83 2.01  86 2.01
  18  0.577  0.095  0.803-  11 1.98  14 2.00  58 2.01  84 2.01  85 2.01
  19  0.077  0.595  0.803-  10 1.98  15 2.00  59 2.01  81 2.01  88 2.01
  20  0.577  0.595  0.803-   9 1.98  16 2.00  60 2.01  82 2.01  87 2.01
  21  0.325  0.343  0.803-   9 1.98  13 2.00  61 2.01  81 2.01  85 2.01
  22  0.825  0.343  0.803-  10 1.98  14 2.00  62 2.01  82 2.01  86 2.01
  23  0.325  0.843  0.803-  11 1.98  15 2.00  63 2.01  83 2.01  87 2.01
  24  0.825  0.843  0.803-  12 1.98  16 2.00  64 2.01  84 2.01  88 2.01
  25  0.175  0.093  0.197-   5 1.98   3 2.00  65 2.01  77 2.01  75 2.01
  26  0.675  0.093  0.197-   6 1.98   4 2.00  66 2.01  78 2.01  76 2.01
  27  0.175  0.593  0.197-   7 1.98   1 2.00  67 2.01  79 2.01  73 2.01
  28  0.675  0.593  0.197-   8 1.98   2 2.00  68 2.01  80 2.01  74 2.01
  29  0.423  0.345  0.197-   6 1.98   1 2.00  69 2.01  77 2.01  74 2.01
  30  0.923  0.345  0.197-   5 1.98   2 2.00  70 2.01  78 2.01  73 2.01
  31  0.423  0.845  0.197-   8 1.98   3 2.00  71 2.01  79 2.01  76 2.01
  32  0.923  0.845  0.197-   7 1.98   4 2.00  72 2.01  80 2.01  75 2.01
  33  0.219  0.345  0.371-  61 2.41  67 2.65  69 2.65
  34  0.719  0.345  0.371-  62 2.41  68 2.65  70 2.65
  35  0.219  0.845  0.371-  63 2.41  65 2.65  71 2.65
  36  0.719  0.845  0.371-  64 2.41  66 2.65  72 2.65
  37  0.467  0.093  0.371-  58 2.41  71 2.65  65 2.65
  38  0.967  0.093  0.371-  57 2.41  72 2.65  66 2.65
  39  0.467  0.593  0.371-  60 2.41  69 2.65  67 2.65
  40  0.967  0.593  0.371-  59 2.41  70 2.65  68 2.65
  41  0.033  0.343  0.629-  70 2.41  57 2.65  61 2.65
  42  0.533  0.343  0.629-  69 2.41  58 2.65  62 2.65
  43  0.033  0.843  0.629-  72 2.41  59 2.65  63 2.65
  44  0.533  0.843  0.629-  71 2.41  60 2.65  64 2.65
  45  0.281  0.095  0.629-  65 2.41  61 2.64  57 2.65
  46  0.781  0.095  0.629-  66 2.41  62 2.65  58 2.65
  47  0.281  0.595  0.629-  67 2.41  63 2.65  59 2.65
  48  0.781  0.595  0.629-  68 2.41  64 2.65  60 2.65
  49  0.124  0.344  0.000-  73 2.51  86 2.51  81 2.52  77 2.52  13 2.53   1 2.53
  50  0.624  0.344  0.000-  74 2.51  85 2.51  82 2.52  78 2.52  14 2.53   2 2.53
  51  0.124  0.844  0.000-  75 2.51  88 2.51  83 2.52  79 2.52  15 2.53   3 2.53
  52  0.624  0.844  0.000-  76 2.51  87 2.51  84 2.52  80 2.52  16 2.53   4 2.53
  53  0.376  0.094  1.000-  85 2.51  76 2.51  77 2.52  83 2.52   3 2.53  13 2.53
  54  0.876  0.094  1.000-  86 2.51  75 2.51  78 2.52  84 2.52   4 2.53  14 2.53
  55  0.376  0.594  1.000-  87 2.51  74 2.51  79 2.52  81 2.52   1 2.53  15 2.53
  56  0.876  0.594  1.000-  88 2.51  73 2.51  80 2.52  82 2.52   2 2.53  16 2.53
  57  0.038  0.106  0.606-  17 2.01  38 2.41  41 2.65  45 2.65
  58  0.538  0.106  0.606-  18 2.01  37 2.41  42 2.65  46 2.65
  59  0.038  0.606  0.606-  19 2.01  40 2.41  43 2.65  47 2.65
  60  0.538  0.606  0.606-  20 2.01  39 2.41  44 2.65  48 2.65
  61  0.265  0.331  0.606-  21 2.01  33 2.41  45 2.64  41 2.65
  62  0.765  0.332  0.606-  22 2.01  34 2.41  46 2.65  42 2.65
  63  0.265  0.832  0.606-  23 2.01  35 2.41  47 2.65  43 2.65
  64  0.765  0.832  0.606-  24 2.01  36 2.41  48 2.65  44 2.65
  65  0.235  0.082  0.394-  25 2.01  45 2.41  35 2.65  37 2.65
  66  0.735  0.082  0.394-  26 2.01  46 2.41  36 2.65  38 2.65
  67  0.235  0.582  0.394-  27 2.01  47 2.41  33 2.65  39 2.65
  68  0.735  0.582  0.394-  28 2.01  48 2.41  34 2.65  40 2.65
  69  0.462  0.356  0.394-  29 2.01  42 2.41  39 2.65  33 2.65
  70  0.962  0.356  0.394-  30 2.01  41 2.41  40 2.65  34 2.65
  71  0.462  0.856  0.394-  31 2.01  44 2.41  37 2.65  35 2.65
  72  0.962  0.856  0.394-  32 2.01  43 2.41  38 2.65  36 2.65
  73  0.038  0.469  0.154-  30 2.01  27 2.01  49 2.51  56 2.51
  74  0.538  0.469  0.154-  29 2.01  28 2.01  50 2.51  55 2.51
  75  0.038  0.969  0.154-  32 2.01  25 2.01  51 2.51  54 2.51
  76  0.538  0.969  0.154-  31 2.01  26 2.01  52 2.51  53 2.51
  77  0.289  0.219  0.154-  25 2.01  29 2.01  53 2.52  49 2.52
  78  0.789  0.219  0.154-  26 2.01  30 2.01  54 2.52  50 2.52
  79  0.289  0.719  0.154-  27 2.01  31 2.01  55 2.52  51 2.52
  80  0.789  0.719  0.154-  28 2.01  32 2.01  56 2.52  52 2.52
  81  0.211  0.469  0.846-  21 2.01  19 2.01  49 2.52  55 2.52
  82  0.711  0.469  0.846-  22 2.01  20 2.01  50 2.52  56 2.52
  83  0.211  0.969  0.846-  23 2.01  17 2.01  51 2.52  53 2.52
  84  0.711  0.969  0.846-  24 2.01  18 2.01  52 2.52  54 2.52
  85  0.462  0.219  0.846-  18 2.01  21 2.01  53 2.51  50 2.51
  86  0.962  0.219  0.846-  17 2.01  22 2.01  54 2.51  49 2.51
  87  0.462  0.719  0.846-  20 2.01  23 2.01  55 2.51  52 2.51
  88  0.962  0.719  0.846-  19 2.01  24 2.01  56 2.51  51 2.51
 

IMPORTANT INFORMATION: All symmetrisations will be switched off!
NOSYMM: (Re-)initialisation of all symmetry stuff for point group C_1.

 
 
 KPOINTS: # No comment                            

Automatic generation of k-mesh.
Space group operators:
 irot       det(A)        alpha          n_x          n_y          n_z        tau_x        tau_y        tau_z
    1     1.000000     0.000000     1.000000     0.000000     0.000000     0.000000     0.000000     0.000000
 
 Subroutine IBZKPT returns following result:
 ===========================================
 
 Found     14 irreducible k-points:
 
 Following reciprocal coordinates:
            Coordinates               Weight
  0.000000  0.000000  0.000000      1.000000
  0.333333  0.000000  0.000000      2.000000
  0.000000  0.333333  0.000000      2.000000
  0.333333  0.333333  0.000000      2.000000
 -0.333333  0.333333 -0.000000      2.000000
  0.000000  0.000000  0.333333      2.000000
  0.333333  0.000000  0.333333      2.000000
 -0.333333  0.000000  0.333333      2.000000
  0.000000  0.333333  0.333333      2.000000
  0.333333  0.333333  0.333333      2.000000
 -0.333333  0.333333  0.333333      2.000000
  0.000000 -0.333333  0.333333      2.000000
  0.333333 -0.333333  0.333333      2.000000
 -0.333333 -0.333333  0.333333      2.000000
 
 Following cartesian coordinates:
            Coordinates               Weight
  0.000000  0.000000  0.000000      1.000000
  0.029997  0.000000  0.008162      2.000000
  0.000000  0.029983  0.000000      2.000000
  0.029997  0.029983  0.008162      2.000000
 -0.029997  0.029983 -0.008162      2.000000
  0.000001  0.000000  0.032684      2.000000
  0.029998  0.000000  0.040846      2.000000
 -0.029996  0.000000  0.024522      2.000000
  0.000001  0.029983  0.032684      2.000000
  0.029998  0.029983  0.040846      2.000000
 -0.029996  0.029983  0.024522      2.000000
  0.000001 -0.029983  0.032684      2.000000
  0.029998 -0.029983  0.040846      2.000000
 -0.029996 -0.029983  0.024522      2.000000
 


--------------------------------------------------------------------------------------------------------




 Dimension of arrays:
   k-points           NKPTS =     14   k-points in BZ     NKDIM =     14   number of bands    NBANDS=    538
   number of dos      NEDOS =    301   number of ions     NIONS =     88
   non local maximal  LDIM  =      6   non local SUM 2l+1 LMDIM =     18
   total plane-waves  NPLWV = 829440
   max r-space proj   IRMAX =      1   max aug-charges    IRDMAX= 166102
   dimension x,y,z NGX =    96 NGY =   96 NGZ =   90
   dimension x,y,z NGXF=   192 NGYF=  192 NGZF=  180
   support grid    NGXF=   384 NGYF=  384 NGZF=  360
   ions per type =              16  16  24  32
   NGX,Y,Z   is equivalent  to a cutoff of  14.36, 14.36, 14.16 a.u.
   NGXF,Y,Z  is equivalent  to a cutoff of  28.72, 28.71, 28.31 a.u.

 SYSTEM =  unknown system                          
 POSCAR =  # Compound: Li16O16S24Fe32. Old comment:

 Startparameter for this run:
   NWRITE =      1    write-flag & timer
   PREC   = accura    normal or accurate (medium, high low for compatibility)
   ISTART =      0    job   : 0-new  1-cont  2-samecut
   ICHARG =      1    charge: 1-file 2-atom 10-const
   ISPIN  =      2    spin polarized calculation?
   LNONCOLLINEAR =      F non collinear calculations
   LSORBIT =      F    spin-orbit coupling
   INIWAV =      1    electr: 0-lowe 1-rand  2-diag
   LASPH  =      T    aspherical Exc in radial PAW
   METAGGA=      F    non-selfconsistent MetaGGA calc.

 Electronic Relaxation 1
   ENCUT  =  650.0 eV  47.77 Ry    6.91 a.u.  23.10 23.11 21.97*2*pi/ulx,y,z
   ENINI  =  650.0     initial cutoff
   ENAUG  =  628.9 eV  augmentation charge cutoff
   NELM   =    200;   NELMIN=  8; NELMDL=  0     # of ELM steps 
   EDIFF  = 0.1E-05   stopping-criterion for ELM
   LREAL  =      F    real-space projection
   NLSPLINE    = F    spline interpolate recip. space projectors
   LCOMPAT=      F    compatible to vasp.4.4
   GGA_COMPAT  = T    GGA compatible to vasp.4.4-vasp.4.6
   LMAXPAW     = -100 max onsite density
   LMAXMIX     =    4 max onsite mixed and CHGCAR
   VOSKOWN=      0    Vosko Wilk Nusair interpolation
   ROPT   =    0.00000   0.00000   0.00000   0.00000
 Ionic relaxation
   EDIFFG = 0.1E-04   stopping-criterion for IOM
   NSW    =      0    number of steps for IOM
   NBLOCK =      1;   KBLOCK =      1    inner block; outer block 
   IBRION =     -1    ionic relax: 0-MD 1-quasi-New 2-CG
   NFREE  =      0    steps in history (QN), initial steepest desc. (CG)
   ISIF   =      2    stress and relaxation
   IWAVPR =     10    prediction:  0-non 1-charg 2-wave 3-comb
   ISYM   =      0    0-nonsym 1-usesym 2-fastsym
   LCORR  =      T    Harris-Foulkes like correction to forces

   POTIM  = 0.5000    time-step for ionic-motion
   TEIN   =    0.0    initial temperature
   TEBEG  =    0.0;   TEEND  =   0.0 temperature during run
   SMASS  =  -3.00    Nose mass-parameter (am)
   estimated Nose-frequenzy (Omega)   =  0.10E-29 period in steps =****** mass=  -0.282E-26a.u.
   SCALEE = 1.0000    scale energy and forces
   NPACO  =    256;   APACO  = 16.0  distance and # of slots for P.C.
   PSTRESS=    0.0 pullay stress

  Mass of Ions in am
   POMASS =   7.01 16.00 32.07 55.85
  Ionic Valenz
   ZVAL   =   3.00  6.00  6.00 14.00
  Atomic Wigner-Seitz radii
   RWIGS  =  -1.00 -1.00 -1.00 -1.00
  virtual crystal weights 
   VCA    =   1.00  1.00  1.00  1.00
   NELECT =     736.0000    total number of electrons
   NUPDOWN=      -1.0000    fix difference up-down

 DOS related values:
   EMIN   =  10.00;   EMAX   =-10.00  energy-range for DOS
   EFERMI =   0.00
   ISMEAR =     0;   SIGMA  =   0.05  broadening in eV -4-tet -1-fermi 0-gaus

 Electronic relaxation 2 (details)
   IALGO  =     38    algorithm
   LDIAG  =      T    sub-space diagonalisation (order eigenvalues)
   LSUBROT=      F    optimize rotation matrix (better conditioning)
   TURBO    =      0    0=normal 1=particle mesh
   IRESTART =      0    0=no restart 2=restart with 2 vectors
   NREBOOT  =      0    no. of reboots
   NMIN     =      0    reboot dimension
   EREF     =   0.00    reference energy to select bands
   IMIX   =      4    mixing-type and parameters
     AMIX     =   0.40;   BMIX     =  1.00
     AMIX_MAG =   1.60;   BMIX_MAG =  1.00
     AMIN     =   0.10
     WC   =   100.;   INIMIX=   1;  MIXPRE=   1;  MAXMIX= -45

 Intra band minimization:
   WEIMIN = 0.0000     energy-eigenvalue tresh-hold
   EBREAK =  0.46E-09  absolut break condition
   DEPER  =   0.30     relativ break condition  

   TIME   =   0.40     timestep for ELM

  volume/ion in A,a.u.               =      14.32        96.62
  Fermi-wavevector in a.u.,A,eV,Ry     =   1.368520  2.586127 25.481613  1.872846
  Thomas-Fermi vector in A             =   2.494476
 
 Write flags
   LWAVE        =      F    write WAVECAR
   LDOWNSAMPLE  =      F    k-point downsampling of WAVECAR
   LCHARG       =      T    write CHGCAR
   LVTOT        =      F    write LOCPOT, total local potential
   LVHAR        =      F    write LOCPOT, Hartree potential only
   LELF         =      F    write electronic localiz. function (ELF)
   LORBIT       =      0    0 simple, 1 ext, 2 COOP (PROOUT), +10 PAW based schemes


 Dipole corrections
   LMONO  =      F    monopole corrections only (constant potential shift)
   LDIPOL =      F    correct potential (dipole corrections)
   IDIPOL =      0    1-x, 2-y, 3-z, 4-all directions 
   EPSILON=  1.0000000 bulk dielectric constant

 LDA+U is selected, type is set to LDAUTYPE =  2
   angular momentum for each species LDAUL =    -1   -1   -1    2
   U (eV)           for each species LDAUU =   0.0  0.0  0.0  4.0
   J (eV)           for each species LDAUJ =   0.0  0.0  0.0  0.0
 Exchange correlation treatment:
   GGA     =    PE    GGA type
   LEXCH   =     8    internal setting for exchange type
   VOSKOWN=      0    Vosko Wilk Nusair interpolation
   LHFCALC =     F    Hartree Fock is set to
   LHFONE  =     F    Hartree Fock one center treatment
   AEXX    =    0.0000 exact exchange contribution

 Linear response parameters
   LEPSILON=     F    determine dielectric tensor
   LRPA    =     F    only Hartree local field effects (RPA)
   LNABLA  =     F    use nabla operator in PAW spheres
   LVEL    =     F    velocity operator in full k-point grid
   LINTERFAST=   F  fast interpolation
   KINTER  =     0    interpolate to denser k-point grid
   CSHIFT  =0.1000    complex shift for real part using Kramers Kronig
   OMEGAMAX=  -1.0    maximum frequency
   DEG_THRESHOLD= 0.2000000E-02 threshold for treating states as degnerate
   RTIME   =   -0.100 relaxation time in fs
  (WPLASMAI=    0.000 imaginary part of plasma frequency in eV, 0.658/RTIME)
   DFIELD  = 0.0000000 0.0000000 0.0000000 field for delta impulse in time
 
 Orbital magnetization related:
   ORBITALMAG=     F  switch on orbital magnetization
   LCHIMAG   =     F  perturbation theory with respect to B field
   DQ        =  0.001000  dq finite difference perturbation B field
   LLRAUG    =     F  two centre corrections for induced B field



--------------------------------------------------------------------------------------------------------


 Static calculation
 charge density and potential will be updated during run
 spin polarized calculation
 Variant of blocked Davidson
 Davidson routine will perform the subspace rotation
 perform sub-space diagonalisation
    after iterative eigenvector-optimisation
 modified Broyden-mixing scheme, WC =      100.0
 initial mixing is a Kerker type mixing with AMIX =  0.4000 and BMIX =      1.0000
 Hartree-type preconditioning will be used
 using additional bands          170
 reciprocal scheme for non local part
 use partial core corrections
 calculate Harris-corrections to forces 
   (improved forces if not selfconsistent)
 use gradient corrections 
 use of overlap-Matrix (Vanderbilt PP)
 Gauss-broadening in eV      SIGMA  =   0.05


--------------------------------------------------------------------------------------------------------


  energy-cutoff  :      650.00
  volume of cell :     1259.94
      direct lattice vectors                 reciprocal lattice vectors
    11.112233740  0.000000000 -0.000290340     0.089991547  0.000000000  0.024487024
     0.000000000 11.117451940  0.000000000     0.000000000  0.089948669  0.000000000
    -2.775108980  0.000000000 10.198722210     0.000002562  0.000000000  0.098052196

  length of vectors
    11.112233744 11.117451940 10.569539468     0.093263567  0.089948669  0.098052196


 
 k-points in units of 2pi/SCALE and weight: # No comment                            
   0.00000000  0.00000000  0.00000000       0.037
   0.02999718  0.00000000  0.00816234       0.074
   0.00000000  0.02998289  0.00000000       0.074
   0.02999718  0.02998289  0.00816234       0.074
  -0.02999718  0.02998289 -0.00816234       0.074
   0.00000085  0.00000000  0.03268407       0.074
   0.02999804  0.00000000  0.04084641       0.074
  -0.02999633  0.00000000  0.02452172       0.074
   0.00000085  0.02998289  0.03268407       0.074
   0.02999804  0.02998289  0.04084641       0.074
  -0.02999633  0.02998289  0.02452172       0.074
   0.00000085 -0.02998289  0.03268407       0.074
   0.02999804 -0.02998289  0.04084641       0.074
  -0.02999633 -0.02998289  0.02452172       0.074
 
 k-points in reciprocal lattice and weights: # No comment                            
   0.00000000  0.00000000  0.00000000       0.037
   0.33333333  0.00000000  0.00000000       0.074
   0.00000000  0.33333333  0.00000000       0.074
   0.33333333  0.33333333  0.00000000       0.074
  -0.33333333  0.33333333 -0.00000000       0.074
   0.00000000  0.00000000  0.33333333       0.074
   0.33333333  0.00000000  0.33333333       0.074
  -0.33333333  0.00000000  0.33333333       0.074
   0.00000000  0.33333333  0.33333333       0.074
   0.33333333  0.33333333  0.33333333       0.074
  -0.33333333  0.33333333  0.33333333       0.074
   0.00000000 -0.33333333  0.33333333       0.074
   0.33333333 -0.33333333  0.33333333       0.074
  -0.33333333 -0.33333333  0.33333333       0.074
 
 position of ions in fractional coordinates (direct lattice) 
   0.28894969  0.46933910  0.15583616
   0.78894969  0.46933910  0.15583616
   0.28894969  0.96933910  0.15583616
   0.78894969  0.96933910  0.15583616
   0.04646972  0.21934976  0.18586770
   0.54646972  0.21934976  0.18586770
   0.04646972  0.71934976  0.18586770
   0.54646972  0.71934976  0.18586770
   0.45353028  0.46934976  0.81413230
   0.95353028  0.46934976  0.81413230
   0.45353028  0.96934976  0.81413230
   0.95353028  0.96934976  0.81413230
   0.21105031  0.21933910  0.84416384
   0.71105031  0.21933910  0.84416384
   0.21105031  0.71933910  0.84416384
   0.71105031  0.71933910  0.84416384
   0.07654971  0.09530995  0.80250593
   0.57654971  0.09530995  0.80250593
   0.07654971  0.59530995  0.80250593
   0.57654971  0.59530995  0.80250593
   0.32470466  0.34338175  0.80250383
   0.82470466  0.34338175  0.80250383
   0.32470466  0.84338175  0.80250383
   0.82470466  0.84338175  0.80250383
   0.17529534  0.09338175  0.19749617
   0.67529534  0.09338175  0.19749617
   0.17529534  0.59338175  0.19749617
   0.67529534  0.59338175  0.19749617
   0.42345029  0.34530995  0.19749407
   0.92345029  0.34530995  0.19749407
   0.42345029  0.84530995  0.19749407
   0.92345029  0.84530995  0.19749407
   0.21868463  0.34523395  0.37102476
   0.71868463  0.34523395  0.37102476
   0.21868463  0.84523395  0.37102476
   0.71868463  0.84523395  0.37102476
   0.46681660  0.09344897  0.37102399
   0.96681660  0.09344897  0.37102399
   0.46681660  0.59344897  0.37102399
   0.96681660  0.59344897  0.37102399
   0.03318340  0.34344897  0.62897601
   0.53318340  0.34344897  0.62897601
   0.03318340  0.84344897  0.62897601
   0.53318340  0.84344897  0.62897601
   0.28131537  0.09523395  0.62897524
   0.78131537  0.09523395  0.62897524
   0.28131537  0.59523395  0.62897524
   0.78131537  0.59523395  0.62897524
   0.12439279  0.34434306  0.00000412
   0.62439279  0.34434306  0.00000412
   0.12439279  0.84434306  0.00000412
   0.62439279  0.84434306  0.00000412
   0.37560721  0.09434306  0.99999588
   0.87560721  0.09434306  0.99999588
   0.37560721  0.59434306  0.99999588
   0.87560721  0.59434306  0.99999588
   0.03824426  0.10634799  0.60632306
   0.53824426  0.10634799  0.60632306
   0.03824426  0.60634799  0.60632306
   0.53824426  0.60634799  0.60632306
   0.26492712  0.33142702  0.60632763
   0.76492712  0.33232651  0.60632763
   0.26492712  0.83232651  0.60632763
   0.76492712  0.83232651  0.60632763
   0.23507288  0.08232651  0.39367237
   0.73507288  0.08232651  0.39367237
   0.23507288  0.58232651  0.39367237
   0.73507288  0.58232651  0.39367237
   0.46175574  0.35634799  0.39367694
   0.96175574  0.35634799  0.39367694
   0.46175574  0.85634799  0.39367694
   0.96175574  0.85634799  0.39367694
   0.03848398  0.46936404  0.15397331
   0.53848398  0.46936404  0.15397331
   0.03848398  0.96936404  0.15397331
   0.53848398  0.96936404  0.15397331
   0.28861657  0.21935690  0.15447525
   0.78861657  0.21935690  0.15447525
   0.28861657  0.71935690  0.15447525
   0.78861657  0.71935690  0.15447525
   0.21138343  0.46935690  0.84552475
   0.71138343  0.46935690  0.84552475
   0.21138343  0.96935690  0.84552475
   0.71138343  0.96935690  0.84552475
   0.46151602  0.21936404  0.84602669
   0.96151602  0.21936404  0.84602669
   0.46151602  0.71936404  0.84602669
   0.96151602  0.71936404  0.84602669
 
 position of ions in cartesian coordinates  (Angst):
   2.77841422  5.21785483  1.58924581
   8.33453109  5.21785483  1.58910064
   2.77841422 10.77658080  1.58924581
   8.33453109 10.77658080  1.58910064
   0.00057921  2.43861041  1.89559955
   5.55669608  2.43861041  1.89545438
   0.00057921  7.99733638  1.89559955
   5.55669608  7.99733638  1.89545438
   2.78042868  5.21797340  8.30297749
   8.33654555  5.21797340  8.30283232
   2.78042868 10.77669937  8.30297749
   8.33654555 10.77669937  8.30283232
   0.00259367  2.43849185  8.60933123
   5.55871054  2.43849185  8.60918606
   0.00259367  7.99721782  8.60933123
   5.55871054  7.99721782  8.60918606
  -1.37640314  1.05960384  8.18451283
   4.17971373  1.05960384  8.18436766
  -1.37640314  6.61832981  8.18451283
   4.17971373  6.61832981  8.18436766
   1.38115855  3.81753010  8.18441936
   6.93727542  3.81753010  8.18427419
   1.38115855  9.37625607  8.18441936
   6.93727542  9.37625607  8.18427419
   1.39984934  1.03816712  2.01415768
   6.95596621  1.03816712  2.01401251
   1.39984934  6.59689309  2.01415768
   6.95596621  6.59689309  2.01401251
   4.15741103  3.83896683  2.01406421
   9.71352790  3.83896683  2.01391904
   4.15741103  9.39769280  2.01406421
   9.71352790  9.39769280  2.01391904
   1.40044058  3.83812185  3.78391497
   6.95655745  3.83812185  3.78376980
   1.40044058  9.39684782  3.78391497
   6.95655745  9.39684782  3.78376980
   4.15774317  1.03891443  3.78383507
   9.71386004  1.03891443  3.78368990
   4.15774317  6.59764040  3.78383507
   9.71386004  6.59764040  3.78368990
  -1.37673528  3.81827742  6.41474197
   4.17938159  3.81827742  6.41459680
  -1.37673528  9.37700339  6.41474197
   4.17938159  9.37700339  6.41459680
   1.38056731  1.05875886  6.41466207
   6.93668418  1.05875886  6.41451690
   1.38056731  6.61748483  6.41466207
   6.93668418  6.61748483  6.41451690
   1.38227032  3.82821742  0.00000590
   6.93838719  3.82821742 -0.00013927
   1.38227032  9.38694339  0.00000590
   6.93838719  9.38694339 -0.00013927
   1.39873757  1.04885444 10.19857114
   6.95485444  1.04885444 10.19842597
   1.39873757  6.60758041 10.19857114
   6.95485444  6.60758041 10.19842597
  -1.25763347  1.18231867  6.18370935
   4.29848340  1.18231867  6.18356418
  -1.25763347  6.74104464  6.18370935
   4.29848340  6.74104464  6.18356418
   1.26130689  3.68462400  6.18369015
   6.81742376  3.69462400  6.18354498
   1.26130689  9.25334997  6.18369015
   6.81742376  9.25334997  6.18354498
   1.51970100  0.91526102  4.01488689
   7.07581787  0.91526102  4.01474172
   1.51970100  6.47398699  4.01488689
   7.07581787  6.47398699  4.01474172
   4.03864136  3.96168165  4.01486769
   9.59475823  3.96168165  4.01472252
   4.03864136  9.52040762  4.01486769
   9.59475823  9.52040762  4.01472252
   0.00035027  5.21813216  1.57031984
   5.55646714  5.21813216  1.57017467
   0.00035027 10.77685813  1.57031984
   5.55646714 10.77685813  1.57017467
   2.77848919  2.43868979  1.57536637
   8.33460606  2.43868979  1.57522120
   2.77848919  7.99741576  1.57536637
   8.33460606  7.99741576  1.57522120
   0.00251870  5.21805278  8.62321067
   5.55863557  5.21805278  8.62306550
   0.00251870 10.77677875  8.62321067
   5.55863557 10.77677875  8.62306550
   2.78065762  2.43876917  8.62825720
   8.33677449  2.43876917  8.62811203
   2.78065762  7.99749514  8.62825720
   8.33677449  7.99749514  8.62811203
 


--------------------------------------------------------------------------------------------------------


 k-point  1 :   0.0000 0.0000 0.0000  plane waves:   47369
 k-point  2 :   0.3333 0.0000 0.0000  plane waves:   47373
 k-point  3 :   0.0000 0.3333 0.0000  plane waves:   47370
 k-point  4 :   0.3333 0.3333 0.0000  plane waves:   47404
 k-point  5 :  -0.3333 0.3333-0.0000  plane waves:   47404
 k-point  6 :   0.0000 0.0000 0.3333  plane waves:   47419
 k-point  7 :   0.3333 0.0000 0.3333  plane waves:   47399
 k-point  8 :  -0.3333 0.0000 0.3333  plane waves:   47417
 k-point  9 :   0.0000 0.3333 0.3333  plane waves:   47409
 k-point 10 :   0.3333 0.3333 0.3333  plane waves:   47422
 k-point 11 :  -0.3333 0.3333 0.3333  plane waves:   47440
 k-point 12 :   0.0000-0.3333 0.3333  plane waves:   47409
 k-point 13 :   0.3333-0.3333 0.3333  plane waves:   47422
 k-point 14 :  -0.3333-0.3333 0.3333  plane waves:   47440

 maximum and minimum number of plane-waves per node :      7942     7858

 maximum number of plane-waves:     47440
 maximum index in each direction: 
   IXMAX=   23   IYMAX=   23   IZMAX=   21
   IXMIN=  -23   IYMIN=  -23   IZMIN=  -22


 parallel 3D FFT for wavefunctions:
    minimum data exchange during FFTs selected (reduces bandwidth)
 parallel 3D FFT for charge:
    minimum data exchange during FFTs selected (reduces bandwidth)


 total amount of memory used by VASP MPI-rank0  1233264. kBytes
=======================================================================

   base      :      30000. kBytes
   nonl-proj :      75226. kBytes
   fftplans  :      85054. kBytes
   grid      :      64684. kBytes
   one-center:        466. kBytes
   wavefun   :     977834. kBytes
 
     INWAV:  cpu time    0.0000: real time    0.0000
 Broyden mixing: mesh for mixing (old mesh)
   NGX = 47   NGY = 47   NGZ = 43
  (NGX  =192   NGY  =192   NGZ  =180)
  gives a total of  94987 points

 initial charge density was supplied:
 number of electron     736.0000016 magnetization     127.9999885
 keeping initial charge density in first step


--------------------------------------------------------------------------------------------------------


 Maximum index for augmentation-charges        13229 (set IRDMAX)


--------------------------------------------------------------------------------------------------------


 First call to EWALD:  gamma=   0.164
 Maximum number of real-space cells 3x 3x 3
 Maximum number of reciprocal cells 3x 3x 3

    FEWALD:  cpu time    0.0048: real time    0.0055


--------------------------------------- Iteration      1(   1)  ---------------------------------------


    POTLOK:  cpu time    1.0371: real time    1.1015
    SETDIJ:  cpu time    2.3124: real time    2.3219
     EDDAV:  cpu time  308.3518: real time  311.3730
       DOS:  cpu time    0.0082: real time    0.0083
    --------------------------------------------
      LOOP:  cpu time  311.7094: real time  314.8046

 eigenvalue-minimisations  : 30944
 total energy-change (2. order) : 0.1040968E+05  (-0.4118839E+05)
 number of electron     736.0000016 magnetization     127.9999885
 augmentation part      736.0000016 magnetization     127.9999885

 Free energy of the ion-electron system (eV)
  ---------------------------------------------------
  alpha Z        PSCENC =      2314.49656628
  Ewald energy   TEWEN  =    -57722.85019937
  -Hartree energ DENC   =    -30349.07961691
  -exchange      EXHF   =         0.00000000
  -V(xc)+E(xc)   XCENC  =      3229.30215878
  PAW double counting   =     92679.89207989   -95535.38516353
  entropy T*S    EENTRO =        -0.01680327
  eigenvalues    EBANDS =       349.83967682
  atomic energy  EATOM  =     95443.47970955
  Solvation  Ediel_sol  =         0.00000000
  ---------------------------------------------------
  free energy    TOTEN  =     10409.67840825 eV

  energy without entropy =    10409.69521151  energy(sigma->0) =    10409.68680988


--------------------------------------------------------------------------------------------------------




--------------------------------------- Iteration      1(   2)  ---------------------------------------


     EDDAV:  cpu time  302.6656: real time  305.5907
       DOS:  cpu time    0.0081: real time    0.0082
    --------------------------------------------
      LOOP:  cpu time  302.6737: real time  305.5989

 eigenvalue-minimisations  : 30128
 total energy-change (2. order) :-0.9232176E+04  (-0.8658323E+04)
 number of electron     736.0000016 magnetization     127.9999885
 augmentation part      736.0000016 magnetization     127.9999885

 Free energy of the ion-electron system (eV)
  ---------------------------------------------------
  alpha Z        PSCENC =      2314.49656628
  Ewald energy   TEWEN  =    -57722.85019937
  -Hartree energ DENC   =    -30349.07961691
  -exchange      EXHF   =         0.00000000
  -V(xc)+E(xc)   XCENC  =      3229.30215878
  PAW double counting   =     92679.89207989   -95535.38516353
  entropy T*S    EENTRO =        -0.06501718
  eigenvalues    EBANDS =     -8882.28783425
  atomic energy  EATOM  =     95443.47970955
  Solvation  Ediel_sol  =         0.00000000
  ---------------------------------------------------
  free energy    TOTEN  =      1177.50268327 eV

  energy without entropy =     1177.56770044  energy(sigma->0) =     1177.53519186


--------------------------------------------------------------------------------------------------------




--------------------------------------- Iteration      1(   3)  ---------------------------------------


     EDDAV:  cpu time  319.9803: real time  323.4969
       DOS:  cpu time    0.0025: real time    0.0025
    --------------------------------------------
      LOOP:  cpu time  319.9828: real time  323.4993

 eigenvalue-minimisations  : 32368
 total energy-change (2. order) :-0.1485666E+04  (-0.1278941E+04)
 number of electron     736.0000016 magnetization     127.9999885
 augmentation part      736.0000016 magnetization     127.9999885

 Free energy of the ion-electron system (eV)
  ---------------------------------------------------
  alpha Z        PSCENC =      2314.49656628
  Ewald energy   TEWEN  =    -57722.85019937
  -Hartree energ DENC   =    -30349.07961691
  -exchange      EXHF   =         0.00000000
  -V(xc)+E(xc)   XCENC  =      3229.30215878
  PAW double counting   =     92679.89207989   -95535.38516353
  entropy T*S    EENTRO =        -0.00000000
  eigenvalues    EBANDS =    -10368.01905856
  atomic energy  EATOM  =     95443.47970955
  Solvation  Ediel_sol  =         0.00000000
  ---------------------------------------------------
  free energy    TOTEN  =      -308.16352387 eV

  energy without entropy =     -308.16352387  energy(sigma->0) =     -308.16352387


--------------------------------------------------------------------------------------------------------




--------------------------------------- Iteration      1(   4)  ---------------------------------------


     EDDAV:  cpu time  341.5306: real time  345.1424
       DOS:  cpu time    0.0025: real time    0.0025
    --------------------------------------------
      LOOP:  cpu time  341.5330: real time  345.1449

 eigenvalue-minimisations  : 35048
 total energy-change (2. order) :-0.1681391E+03  (-0.1653805E+03)
 number of electron     736.0000016 magnetization     127.9999885
 augmentation part      736.0000016 magnetization     127.9999885

 Free energy of the ion-electron system (eV)
  ---------------------------------------------------
  alpha Z        PSCENC =      2314.49656628
  Ewald energy   TEWEN  =    -57722.85019937
  -Hartree energ DENC   =    -30349.07961691
  -exchange      EXHF   =         0.00000000
  -V(xc)+E(xc)   XCENC  =      3229.30215878
  PAW double counting   =     92679.89207989   -95535.38516353
  entropy T*S    EENTRO =        -0.00000000
  eigenvalues    EBANDS =    -10536.15819973
  atomic energy  EATOM  =     95443.47970955
  Solvation  Ediel_sol  =         0.00000000
  ---------------------------------------------------
  free energy    TOTEN  =      -476.30266504 eV

  energy without entropy =     -476.30266504  energy(sigma->0) =     -476.30266504


--------------------------------------------------------------------------------------------------------




--------------------------------------- Iteration      1(   5)  ---------------------------------------


     EDDAV:  cpu time  451.4415: real time  455.8238
       DOS:  cpu time    0.0026: real time    0.0026
    CHARGE:  cpu time    9.2149: real time    9.3614
    MIXING:  cpu time    0.0255: real time    0.0255
    --------------------------------------------
      LOOP:  cpu time  460.6845: real time  465.2133

 eigenvalue-minimisations  : 49712
 total energy-change (2. order) :-0.1242721E+02  (-0.1230423E+02)
 number of electron     736.0000016 magnetization     127.9999932
 augmentation part      278.4633216 magnetization      84.1331672

 Broyden mixing:
  rms(total) = 0.21618E+00    rms(broyden)= 0.21601E+00
  rms(prec ) = 0.21951E+00
  weight for this iteration     100.00

 Free energy of the ion-electron system (eV)
  ---------------------------------------------------
  alpha Z        PSCENC =      2314.49656628
  Ewald energy   TEWEN  =    -57722.85019937
  -Hartree energ DENC   =    -30349.07961691
  -exchange      EXHF   =         0.00000000
  -V(xc)+E(xc)   XCENC  =      3229.30215878
  PAW double counting   =     92679.89207989   -95535.38516353
  entropy T*S    EENTRO =        -0.00000000
  eigenvalues    EBANDS =    -10548.58541144
  atomic energy  EATOM  =     95443.47970955
  Solvation  Ediel_sol  =         0.00000000
  ---------------------------------------------------
  free energy    TOTEN  =      -488.72987675 eV

  energy without entropy =     -488.72987675  energy(sigma->0) =     -488.72987675


--------------------------------------------------------------------------------------------------------




--------------------------------------- Iteration      1(   6)  ---------------------------------------


    POTLOK:  cpu time    1.0565: real time    1.0589
    SETDIJ:  cpu time    2.3107: real time    2.3142
     EDDAV:  cpu time  397.1089: real time  400.6684
       DOS:  cpu time    0.0025: real time    0.0025
    CHARGE:  cpu time    9.2829: real time    9.3787
    MIXING:  cpu time    0.0271: real time    1.1640
    --------------------------------------------
      LOOP:  cpu time  409.7886: real time  414.5867

 eigenvalue-minimisations  : 42480
 total energy-change (2. order) :-0.4700083E+00  (-0.4811772E+00)
 number of electron     736.0000016 magnetization     127.9999951
 augmentation part      277.9600515 magnetization      84.1621003

 Broyden mixing:
  rms(total) = 0.10552E+00    rms(broyden)= 0.10537E+00
  rms(prec ) = 0.10625E+00
  weight for this iteration     100.00

 eigenvalues of (default mixing * dielectric matrix)
  average eigenvalue GAMMA=   0.6694
  0.6694

 Free energy of the ion-electron system (eV)
  ---------------------------------------------------
  alpha Z        PSCENC =      2314.49656628
  Ewald energy   TEWEN  =    -57722.85019937
  -Hartree energ DENC   =    -30347.25457063
  -exchange      EXHF   =         0.00000000
  -V(xc)+E(xc)   XCENC  =      3229.00220439
  PAW double counting   =     92523.60154186   -95377.44212234
  entropy T*S    EENTRO =        -0.00000000
  eigenvalues    EBANDS =    -10552.23301482
  atomic energy  EATOM  =     95443.47970955
  Solvation  Ediel_sol  =         0.00000000
  ---------------------------------------------------
  free energy    TOTEN  =      -489.19988508 eV

  energy without entropy =     -489.19988508  energy(sigma->0) =     -489.19988508


--------------------------------------------------------------------------------------------------------




--------------------------------------- Iteration      1(   7)  ---------------------------------------


    POTLOK:  cpu time    1.0531: real time    1.0573
    SETDIJ:  cpu time    2.3133: real time    2.3157
     EDDAV:  cpu time  420.5890: real time  424.6926
       DOS:  cpu time    0.0027: real time    0.0027
    CHARGE:  cpu time    9.1520: real time    9.2977
    MIXING:  cpu time    0.0284: real time    0.4365
    --------------------------------------------
      LOOP:  cpu time  433.1384: real time  437.8025

 eigenvalue-minimisations  : 45456
 total energy-change (2. order) :-0.1743185E-01  (-0.1769550E-01)
 number of electron     736.0000016 magnetization     127.9999958
 augmentation part      277.8793488 magnetization      84.1548672

 Broyden mixing:
  rms(total) = 0.59203E-01    rms(broyden)= 0.59161E-01
  rms(prec ) = 0.60658E-01
  weight for this iteration     100.00

 eigenvalues of (default mixing * dielectric matrix)
  average eigenvalue GAMMA=   0.5417
  0.5417  0.5417

 Free energy of the ion-electron system (eV)
  ---------------------------------------------------
  alpha Z        PSCENC =      2314.49656628
  Ewald energy   TEWEN  =    -57722.85019937
  -Hartree energ DENC   =    -30348.17509630
  -exchange      EXHF   =         0.00000000
  -V(xc)+E(xc)   XCENC  =      3229.08584027
  PAW double counting   =     92581.33598279   -95435.74977921
  entropy T*S    EENTRO =        -0.00000000
  eigenvalues    EBANDS =    -10550.84034094
  atomic energy  EATOM  =     95443.47970955
  Solvation  Ediel_sol  =         0.00000000
  ---------------------------------------------------
  free energy    TOTEN  =      -489.21731693 eV

  energy without entropy =     -489.21731693  energy(sigma->0) =     -489.21731693


--------------------------------------------------------------------------------------------------------




--------------------------------------- Iteration      1(   8)  ---------------------------------------


    POTLOK:  cpu time    1.0531: real time    1.0563
    SETDIJ:  cpu time    2.3106: real time    2.3199
     EDDAV:  cpu time  400.4745: real time  404.6054
       DOS:  cpu time    0.0029: real time    0.0029
    CHARGE:  cpu time    9.3241: real time    9.4017
    MIXING:  cpu time    0.0331: real time    0.0350
    --------------------------------------------
      LOOP:  cpu time  413.1984: real time  417.4214

 eigenvalue-minimisations  : 43128
 total energy-change (2. order) : 0.4241136E-03  (-0.3772988E-03)
 number of electron     736.0000016 magnetization     127.9999967
 augmentation part      277.8710423 magnetization      84.1567146

 Broyden mixing:
  rms(total) = 0.53098E-01    rms(broyden)= 0.53094E-01
  rms(prec ) = 0.54390E-01
  weight for this iteration     100.00

 eigenvalues of (default mixing * dielectric matrix)
  average eigenvalue GAMMA=   0.5869
  0.5461  0.6073  0.6073

 Free energy of the ion-electron system (eV)
  ---------------------------------------------------
  alpha Z        PSCENC =      2314.49656628
  Ewald energy   TEWEN  =    -57722.85019937
  -Hartree energ DENC   =    -30348.14990278
  -exchange      EXHF   =         0.00000000
  -V(xc)+E(xc)   XCENC  =      3229.11417456
  PAW double counting   =     92594.63865744   -95449.18496002
  entropy T*S    EENTRO =        -0.00000000
  eigenvalues    EBANDS =    -10550.76093847
  atomic energy  EATOM  =     95443.47970955
  Solvation  Ediel_sol  =         0.00000000
  ---------------------------------------------------
  free energy    TOTEN  =      -489.21689281 eV

  energy without entropy =     -489.21689281  energy(sigma->0) =     -489.21689281


--------------------------------------------------------------------------------------------------------




--------------------------------------- Iteration      1(   9)  ---------------------------------------


    POTLOK:  cpu time    1.0426: real time    1.0547
    SETDIJ:  cpu time    2.3127: real time    2.3148
     EDDAV:  cpu time  434.3609: real time  438.3440
       DOS:  cpu time    0.0029: real time    0.0029
    CHARGE:  cpu time    9.2500: real time    9.3255
    MIXING:  cpu time    0.0369: real time    0.0369
    --------------------------------------------
      LOOP:  cpu time  447.0060: real time  451.0789

 eigenvalue-minimisations  : 47528
 total energy-change (2. order) : 0.7085486E-03  (-0.2157385E-04)
 number of electron     736.0000016 magnetization     127.9999997
 augmentation part      277.8734264 magnetization      84.1569598

 Broyden mixing:
  rms(total) = 0.42557E-01    rms(broyden)= 0.42557E-01
  rms(prec ) = 0.43532E-01
  weight for this iteration     100.00

 eigenvalues of (default mixing * dielectric matrix)
  average eigenvalue GAMMA=   1.1041
  1.9094  1.2254  0.6408  0.6408

 Free energy of the ion-electron system (eV)
  ---------------------------------------------------
  alpha Z        PSCENC =      2314.49656628
  Ewald energy   TEWEN  =    -57722.85019937
  -Hartree energ DENC   =    -30348.29552035
  -exchange      EXHF   =         0.00000000
  -V(xc)+E(xc)   XCENC  =      3229.15606859
  PAW double counting   =     92609.14716552   -95463.89182296
  entropy T*S    EENTRO =        -0.00000000
  eigenvalues    EBANDS =    -10550.45815153
  atomic energy  EATOM  =     95443.47970955
  Solvation  Ediel_sol  =         0.00000000
  ---------------------------------------------------
  free energy    TOTEN  =      -489.21618426 eV

  energy without entropy =     -489.21618426  energy(sigma->0) =     -489.21618426


--------------------------------------------------------------------------------------------------------




--------------------------------------- Iteration      1(  10)  ---------------------------------------


    POTLOK:  cpu time    1.0422: real time    1.0563
    SETDIJ:  cpu time    2.0817: real time    2.3189
     EDDAV:  cpu time  443.6508: real time  448.5614
       DOS:  cpu time    0.0030: real time    0.0032
    CHARGE:  cpu time    9.2676: real time    9.4081
    MIXING:  cpu time    0.0445: real time    0.0481
    --------------------------------------------
      LOOP:  cpu time  456.0900: real time  461.3961

 eigenvalue-minimisations  : 48720
 total energy-change (2. order) : 0.9135050E-03  (-0.1995661E-03)
 number of electron     736.0000016 magnetization     128.0000003
 augmentation part      277.8918077 magnetization      84.1588406

 Broyden mixing:
  rms(total) = 0.81289E-02    rms(broyden)= 0.81246E-02
  rms(prec ) = 0.81807E-02
  weight for this iteration     100.00

 eigenvalues of (default mixing * dielectric matrix)
  average eigenvalue GAMMA=   1.0661
  2.5607  0.9121  0.6557  0.6557  0.5465

 Free energy of the ion-electron system (eV)
  ---------------------------------------------------
  alpha Z        PSCENC =      2314.49656628
  Ewald energy   TEWEN  =    -57722.85019937
  -Hartree energ DENC   =    -30349.02965332
  -exchange      EXHF   =         0.00000000
  -V(xc)+E(xc)   XCENC  =      3229.30714178
  PAW double counting   =     92663.87671642   -95519.34295739
  entropy T*S    EENTRO =        -0.00000000
  eigenvalues    EBANDS =    -10549.15259471
  atomic energy  EATOM  =     95443.47970955
  Solvation  Ediel_sol  =         0.00000000
  ---------------------------------------------------
  free energy    TOTEN  =      -489.21527076 eV

  energy without entropy =     -489.21527076  energy(sigma->0) =     -489.21527076


--------------------------------------------------------------------------------------------------------




--------------------------------------- Iteration      1(  11)  ---------------------------------------


    POTLOK:  cpu time    1.0488: real time    1.0572
    SETDIJ:  cpu time    2.2942: real time    2.3140
     EDDAV:  cpu time  365.2265: real time  368.9196
       DOS:  cpu time    0.0026: real time    0.0026
    CHARGE:  cpu time    9.2312: real time    9.2848
    MIXING:  cpu time    0.0357: real time    0.0357
    --------------------------------------------
      LOOP:  cpu time  377.8390: real time  381.6138

 eigenvalue-minimisations  : 38504
 total energy-change (2. order) :-0.8411042E-04  (-0.5207988E-04)
 number of electron     736.0000016 magnetization     128.0000004
 augmentation part      277.8948409 magnetization      84.1585767

 Broyden mixing:
  rms(total) = 0.65592E-02    rms(broyden)= 0.65571E-02
  rms(prec ) = 0.69240E-02
  weight for this iteration     100.00

 eigenvalues of (default mixing * dielectric matrix)
  average eigenvalue GAMMA=   1.0289
  2.5986  0.7307  0.7307  0.8623  0.6257  0.6257

 Free energy of the ion-electron system (eV)
  ---------------------------------------------------
  alpha Z        PSCENC =      2314.49656628
  Ewald energy   TEWEN  =    -57722.85019937
  -Hartree energ DENC   =    -30349.15251673
  -exchange      EXHF   =         0.00000000
  -V(xc)+E(xc)   XCENC  =      3229.32941147
  PAW double counting   =     92676.54376982   -95532.12902869
  entropy T*S    EENTRO =        -0.00000000
  eigenvalues    EBANDS =    -10548.93306721
  atomic energy  EATOM  =     95443.47970955
  Solvation  Ediel_sol  =         0.00000000
  ---------------------------------------------------
  free energy    TOTEN  =      -489.21535487 eV

  energy without entropy =     -489.21535487  energy(sigma->0) =     -489.21535487


--------------------------------------------------------------------------------------------------------




--------------------------------------- Iteration      1(  12)  ---------------------------------------


    POTLOK:  cpu time    1.0373: real time    1.0930
    SETDIJ:  cpu time    2.2822: real time    2.3197
     EDDAV:  cpu time  386.3194: real time  390.4762
       DOS:  cpu time    0.0028: real time    0.0028
    CHARGE:  cpu time    9.2485: real time    9.3328
    MIXING:  cpu time    0.0411: real time    0.0413
    --------------------------------------------
      LOOP:  cpu time  398.9313: real time  403.2658

 eigenvalue-minimisations  : 41016
 total energy-change (2. order) : 0.1713140E-04  (-0.4872443E-05)
 number of electron     736.0000016 magnetization     128.0000004
 augmentation part      277.8965918 magnetization      84.1584219

 Broyden mixing:
  rms(total) = 0.53025E-02    rms(broyden)= 0.53010E-02
  rms(prec ) = 0.55867E-02
  weight for this iteration     100.00

 eigenvalues of (default mixing * dielectric matrix)
  average eigenvalue GAMMA=   1.1364
  2.5968  1.3263  1.3263  0.8653  0.6590  0.6590  0.5225

 Free energy of the ion-electron system (eV)
  ---------------------------------------------------
  alpha Z        PSCENC =      2314.49656628
  Ewald energy   TEWEN  =    -57722.85019937
  -Hartree energ DENC   =    -30349.13599376
  -exchange      EXHF   =         0.00000000
  -V(xc)+E(xc)   XCENC  =      3229.32230538
  PAW double counting   =     92677.08224115   -95532.63752610
  entropy T*S    EENTRO =        -0.00000000
  eigenvalues    EBANDS =    -10548.97244086
  atomic energy  EATOM  =     95443.47970955
  Solvation  Ediel_sol  =         0.00000000
  ---------------------------------------------------
  free energy    TOTEN  =      -489.21533774 eV

  energy without entropy =     -489.21533774  energy(sigma->0) =     -489.21533774


--------------------------------------------------------------------------------------------------------




--------------------------------------- Iteration      1(  13)  ---------------------------------------


    POTLOK:  cpu time    1.0525: real time    1.0538
    SETDIJ:  cpu time    2.3210: real time    2.3254
     EDDAV:  cpu time  357.5496: real time  361.6391
       DOS:  cpu time    0.0026: real time    0.0026
    CHARGE:  cpu time    9.2540: real time    9.2757
    MIXING:  cpu time    0.0473: real time    0.0474
    --------------------------------------------
      LOOP:  cpu time  370.2270: real time  374.3439

 eigenvalue-minimisations  : 37304
 total energy-change (2. order) : 0.1610462E-04  (-0.2685036E-05)
 number of electron     736.0000016 magnetization     128.0000005
 augmentation part      277.8946699 magnetization      84.1582479

 Broyden mixing:
  rms(total) = 0.14595E-02    rms(broyden)= 0.14552E-02
  rms(prec ) = 0.15005E-02
  weight for this iteration     100.00

 eigenvalues of (default mixing * dielectric matrix)
  average eigenvalue GAMMA=   1.1876
  2.8524  1.5686  1.5686  0.8887  0.7196  0.7196  0.5914  0.5914

 Free energy of the ion-electron system (eV)
  ---------------------------------------------------
  alpha Z        PSCENC =      2314.49656628
  Ewald energy   TEWEN  =    -57722.85019937
  -Hartree energ DENC   =    -30349.07699550
  -exchange      EXHF   =         0.00000000
  -V(xc)+E(xc)   XCENC  =      3229.30419054
  PAW double counting   =     92678.18476723   -95533.67380313
  entropy T*S    EENTRO =        -0.00000000
  eigenvalues    EBANDS =    -10549.07955723
  atomic energy  EATOM  =     95443.47970955
  Solvation  Ediel_sol  =         0.00000000
  ---------------------------------------------------
  free energy    TOTEN  =      -489.21532163 eV

  energy without entropy =     -489.21532163  energy(sigma->0) =     -489.21532163


--------------------------------------------------------------------------------------------------------




--------------------------------------- Iteration      1(  14)  ---------------------------------------


    POTLOK:  cpu time    1.0498: real time    1.0510
    SETDIJ:  cpu time    2.3098: real time    2.3176
     EDDAV:  cpu time  321.9100: real time  325.0182
       DOS:  cpu time    0.0025: real time    0.0025
    CHARGE:  cpu time    9.2835: real time    9.3572
    MIXING:  cpu time    0.0413: real time    0.0413
    --------------------------------------------
      LOOP:  cpu time  334.5968: real time  337.7878

 eigenvalue-minimisations  : 32472
 total energy-change (2. order) :-0.5156340E-05  (-0.2437058E-05)
 number of electron     736.0000016 magnetization     128.0000005
 augmentation part      277.8931083 magnetization      84.1580768

 Broyden mixing:
  rms(total) = 0.91354E-03    rms(broyden)= 0.90662E-03
  rms(prec ) = 0.94684E-03
  weight for this iteration     100.00

 eigenvalues of (default mixing * dielectric matrix)
  average eigenvalue GAMMA=   1.1220
  2.8292  1.5360  1.5360  0.9977  0.7106  0.7106  0.6402  0.6402  0.4974

 Free energy of the ion-electron system (eV)
  ---------------------------------------------------
  alpha Z        PSCENC =      2314.49656628
  Ewald energy   TEWEN  =    -57722.85019937
  -Hartree energ DENC   =    -30349.06991704
  -exchange      EXHF   =         0.00000000
  -V(xc)+E(xc)   XCENC  =      3229.29958595
  PAW double counting   =     92679.47699686   -95534.95569057
  entropy T*S    EENTRO =        -0.00000000
  eigenvalues    EBANDS =    -10549.09237844
  atomic energy  EATOM  =     95443.47970955
  Solvation  Ediel_sol  =         0.00000000
  ---------------------------------------------------
  free energy    TOTEN  =      -489.21532679 eV

  energy without entropy =     -489.21532679  energy(sigma->0) =     -489.21532679


--------------------------------------------------------------------------------------------------------




--------------------------------------- Iteration      1(  15)  ---------------------------------------


    POTLOK:  cpu time    1.0517: real time    1.0556
    SETDIJ:  cpu time    2.3183: real time    2.3195
     EDDAV:  cpu time  289.5132: real time  292.9014
       DOS:  cpu time    0.0032: real time    0.0046
    CHARGE:  cpu time    9.2000: real time    9.3538
    MIXING:  cpu time    0.0344: real time    0.0344
    --------------------------------------------
      LOOP:  cpu time  302.1207: real time  305.6694

 eigenvalue-minimisations  : 28264
 total energy-change (2. order) : 0.1300694E-05  (-0.2729571E-06)
 number of electron     736.0000016 magnetization     128.0000004
 augmentation part      277.8928363 magnetization      84.1581523

 Broyden mixing:
  rms(total) = 0.61371E-03    rms(broyden)= 0.60360E-03
  rms(prec ) = 0.62118E-03
  weight for this iteration     100.00

 eigenvalues of (default mixing * dielectric matrix)
  average eigenvalue GAMMA=   1.1207
  2.8037  1.3595  1.3595  1.3761  0.8919  0.8919  0.5805  0.5805  0.6819  0.6819

 Free energy of the ion-electron system (eV)
  ---------------------------------------------------
  alpha Z        PSCENC =      2314.49656628
  Ewald energy   TEWEN  =    -57722.85019937
  -Hartree energ DENC   =    -30349.07259020
  -exchange      EXHF   =         0.00000000
  -V(xc)+E(xc)   XCENC  =      3229.30125456
  PAW double counting   =     92679.71150575   -95535.20036733
  entropy T*S    EENTRO =        -0.00000000
  eigenvalues    EBANDS =    -10549.08120473
  atomic energy  EATOM  =     95443.47970955
  Solvation  Ediel_sol  =         0.00000000
  ---------------------------------------------------
  free energy    TOTEN  =      -489.21532549 eV

  energy without entropy =     -489.21532549  energy(sigma->0) =     -489.21532549


--------------------------------------------------------------------------------------------------------




--------------------------------------- Iteration      1(  16)  ---------------------------------------


    POTLOK:  cpu time    1.0535: real time    1.0552
    SETDIJ:  cpu time    2.3373: real time    2.3468
     EDDAV:  cpu time  212.2562: real time  214.2621
       DOS:  cpu time    0.0025: real time    0.0025
    --------------------------------------------
      LOOP:  cpu time  215.6494: real time  217.6666

 eigenvalue-minimisations  : 18176
 total energy-change (2. order) :-0.7697236E-06  (-0.2962376E-07)
 number of electron     736.0000016 magnetization     128.0000004
 augmentation part      277.8928363 magnetization      84.1581523

 Free energy of the ion-electron system (eV)
  ---------------------------------------------------
  alpha Z        PSCENC =      2314.49656628
  Ewald energy   TEWEN  =    -57722.85019937
  -Hartree energ DENC   =    -30349.06799930
  -exchange      EXHF   =         0.00000000
  -V(xc)+E(xc)   XCENC  =      3229.30051415
  PAW double counting   =     92680.06549158   -95535.55494519
  entropy T*S    EENTRO =        -0.00000000
  eigenvalues    EBANDS =    -10549.08446395
  atomic energy  EATOM  =     95443.47970955
  Solvation  Ediel_sol  =         0.00000000
  ---------------------------------------------------
  free energy    TOTEN  =      -489.21532626 eV

  energy without entropy =     -489.21532626  energy(sigma->0) =     -489.21532626


--------------------------------------------------------------------------------------------------------




 average (electrostatic) potential at core
  the test charge radii are     0.7079  0.7215  0.9698  0.9500
  (the norm of the test charge is              1.0000)
       1 -58.9486       2 -58.9487       3 -58.9493       4 -58.9492       5 -58.9479
       6 -58.9483       7 -58.9481       8 -58.9477       9 -58.9459      10 -58.9478
      11 -58.9495      12 -58.9485      13 -58.9503      14 -58.9491      15 -58.9483
      16 -58.9487      17 -69.8174      18 -69.8173      19 -69.8153      20 -69.8155
      21 -69.8152      22 -69.8161      23 -69.8165      24 -69.8163      25 -69.8166
      26 -69.8167      27 -69.8161      28 -69.8160      29 -69.8161      30 -69.8161
      31 -69.8163      32 -69.8163      33 -85.5791      34 -85.5796      35 -85.5800
      36 -85.5798      37 -85.5805      38 -85.5806      39 -85.5791      40 -85.5792
      41 -85.5796      42 -85.5795      43 -85.5799      44 -85.5798      45 -85.5882
      46 -85.5799      47 -85.5729      48 -85.5796      49 -85.6383      50 -85.6387
      51 -85.6388      52 -85.6387      53 -85.6394      54 -85.6389      55 -85.6380
      56 -85.6384      57 -78.5759      58 -78.5751      59 -78.5729      60 -78.5733
      61 -78.5743      62 -78.5737      63 -78.5735      64 -78.5740      65 -78.5764
      66 -78.5744      67 -78.5723      68 -78.5737      69 -78.5739      70 -78.5740
      71 -78.5742      72 -78.5742      73 -78.5818      74 -78.5816      75 -78.5821
      76 -78.5823      77 -78.5914      78 -78.5917      79 -78.5914      80 -78.5913
      81 -78.5899      82 -78.5913      83 -78.5926      84 -78.5918      85 -78.5831
      86 -78.5820      87 -78.5811      88 -78.5817
 
 
 
 E-fermi :   5.2090     XC(G=0): -10.4849     alpha+bet :-11.8156


 spin component 1

 k-point     1 :       0.0000    0.0000    0.0000
  band No.  band energies     occupation 
      1     -51.0558      1.00000
      2     -51.0553      1.00000
      3     -51.0549      1.00000
      4     -51.0546      1.00000
      5     -51.0540      1.00000
      6     -51.0537      1.00000
      7     -51.0536      1.00000
      8     -51.0535      1.00000
      9     -51.0527      1.00000
     10     -51.0526      1.00000
     11     -51.0524      1.00000
     12     -51.0523      1.00000
     13     -51.0520      1.00000
     14     -51.0510      1.00000
     15     -51.0510      1.00000
     16     -51.0500      1.00000
     17     -51.0448      1.00000
     18     -51.0443      1.00000
     19     -51.0442      1.00000
     20     -51.0441      1.00000
     21     -51.0438      1.00000
     22     -51.0437      1.00000
     23     -51.0436      1.00000
     24     -51.0429      1.00000
     25     -51.0401      1.00000
     26     -51.0397      1.00000
     27     -51.0396      1.00000
     28     -51.0395      1.00000
     29     -51.0391      1.00000
     30     -51.0391      1.00000
     31     -51.0390      1.00000
     32     -51.0387      1.00000
     33     -49.7027      1.00000
     34     -49.7018      1.00000
     35     -49.7017      1.00000
     36     -49.7014      1.00000
     37     -49.7014      1.00000
     38     -49.7014      1.00000
     39     -49.7013      1.00000
     40     -49.6994      1.00000
     41     -49.6957      1.00000
     42     -49.6943      1.00000
     43     -49.6942      1.00000
     44     -49.6939      1.00000
     45     -49.6938      1.00000
     46     -49.6938      1.00000
     47     -49.6936      1.00000
     48     -49.6931      1.00000
     49     -49.5996      1.00000
     50     -49.5987      1.00000
     51     -49.5984      1.00000
     52     -49.5979      1.00000
     53     -49.5974      1.00000
     54     -49.5971      1.00000
     55     -49.5970      1.00000
     56     -49.5969      1.00000
     57     -49.5965      1.00000
     58     -49.5963      1.00000
     59     -49.5960      1.00000
     60     -49.5960      1.00000
     61     -49.5959      1.00000
     62     -49.5955      1.00000
     63     -49.5953      1.00000
     64     -49.5947      1.00000
     65     -49.5679      1.00000
     66     -49.5672      1.00000
     67     -49.5668      1.00000
     68     -49.5662      1.00000
     69     -49.5660      1.00000
     70     -49.5656      1.00000
     71     -49.5654      1.00000
     72     -49.5650      1.00000
     73     -49.5647      1.00000
     74     -49.5643      1.00000
     75     -49.5642      1.00000
     76     -49.5640      1.00000
     77     -49.5638      1.00000
     78     -49.5633      1.00000
     79     -49.5630      1.00000
     80     -49.5629      1.00000
     81     -49.5551      1.00000
     82     -49.5543      1.00000
     83     -49.5542      1.00000
     84     -49.5540      1.00000
     85     -49.5540      1.00000
     86     -49.5539      1.00000
     87     -49.5539      1.00000
     88     -49.5528      1.00000
     89     -49.5403      1.00000
     90     -49.5397      1.00000
     91     -49.5396      1.00000
     92     -49.5394      1.00000
     93     -49.5393      1.00000
     94     -49.5392      1.00000
     95     -49.5391      1.00000
     96     -49.5387      1.00000
     97     -39.8667      1.00000
     98     -39.8664      1.00000
     99     -39.8659      1.00000
    100     -39.8656      1.00000
    101     -39.8656      1.00000
    102     -39.8653      1.00000
    103     -39.8652      1.00000
    104     -39.8651      1.00000
    105     -39.8650      1.00000
    106     -39.8649      1.00000
    107     -39.8648      1.00000
    108     -39.8647      1.00000
    109     -39.8646      1.00000
    110     -39.8644      1.00000
    111     -39.8643      1.00000
    112     -39.8628      1.00000
    113     -13.2248      1.00000
    114     -13.2246      1.00000
    115     -13.2103      1.00000
    116     -13.1834      1.00000
    117     -13.1009      1.00000
    118     -13.0990      1.00000
    119     -13.0987      1.00000
    120     -13.0930      1.00000
    121     -13.0859      1.00000
    122     -13.0801      1.00000
    123     -13.0798      1.00000
    124     -13.0776      1.00000
    125     -12.9880      1.00000
    126     -12.9773      1.00000
    127     -12.9418      1.00000
    128     -12.9416      1.00000
    129      -7.6454      1.00000
    130      -7.4068      1.00000
    131      -7.3264      1.00000
    132      -7.3260      1.00000
    133      -7.3099      1.00000
    134      -7.3092      1.00000
    135      -7.3085      1.00000
    136      -7.3070      1.00000
    137      -7.1696      1.00000
    138      -7.1575      1.00000
    139      -7.1241      1.00000
    140      -7.1236      1.00000
    141      -7.0366      1.00000
    142      -7.0222      1.00000
    143      -7.0024      1.00000
    144      -7.0019      1.00000
    145      -6.9413      1.00000
    146      -6.9407      1.00000
    147      -6.8879      1.00000
    148      -6.8870      1.00000
    149      -6.8655      1.00000
    150      -6.8616      1.00000
    151      -6.8345      1.00000
    152      -6.8038      1.00000
    153      -1.9355      1.00000
    154      -1.9353      1.00000
    155      -1.9104      1.00000
    156      -1.8935      1.00000
    157      -1.6665      1.00000
    158      -1.6662      1.00000
    159      -1.6585      1.00000
    160      -1.6572      1.00000
    161      -1.5996      1.00000
    162      -1.5980      1.00000
    163      -1.5863      1.00000
    164      -1.5859      1.00000
    165      -1.2982      1.00000
    166      -1.1748      1.00000
    167      -1.1745      1.00000
    168      -1.1134      1.00000
    169      -1.1129      1.00000
    170      -1.1071      1.00000
    171      -1.0492      1.00000
    172      -0.9811      1.00000
    173      -0.9646      1.00000
    174      -0.9594      1.00000
    175      -0.9578      1.00000
    176      -0.9574      1.00000
    177      -0.9471      1.00000
    178      -0.9451      1.00000
    179      -0.9225      1.00000
    180      -0.8712      1.00000
    181      -0.8710      1.00000
    182      -0.8035      1.00000
    183      -0.8026      1.00000
    184      -0.8024      1.00000
    185      -0.7751      1.00000
    186      -0.7741      1.00000
    187      -0.7739      1.00000
    188      -0.7606      1.00000
    189      -0.7167      1.00000
    190      -0.7165      1.00000
    191      -0.7065      1.00000
    192      -0.7048      1.00000
    193      -0.6991      1.00000
    194      -0.6989      1.00000
    195      -0.6090      1.00000
    196      -0.6086      1.00000
    197      -0.5617      1.00000
    198      -0.5612      1.00000
    199      -0.5495      1.00000
    200      -0.5480      1.00000
    201      -0.4084      1.00000
    202      -0.4080      1.00000
    203      -0.3573      1.00000
    204      -0.3480      1.00000
    205      -0.3296      1.00000
    206      -0.3293      1.00000
    207      -0.2990      1.00000
    208      -0.2987      1.00000
    209      -0.2816      1.00000
    210      -0.2692      1.00000
    211      -0.2629      1.00000
    212      -0.2556      1.00000
    213      -0.2548      1.00000
    214      -0.2089      1.00000
    215      -0.2087      1.00000
    216      -0.1886      1.00000
    217      -0.1867      1.00000
    218      -0.1866      1.00000
    219      -0.1759      1.00000
    220      -0.1580      1.00000
    221      -0.1256      1.00000
    222      -0.1253      1.00000
    223      -0.1095      1.00000
    224      -0.0709      1.00000
    225      -0.0702      1.00000
    226      -0.0606      1.00000
    227      -0.0432      1.00000
    228      -0.0175      1.00000
    229      -0.0173      1.00000
    230      -0.0115      1.00000
    231       0.0016      1.00000
    232       0.0018      1.00000
    233       0.0463      1.00000
    234       0.0493      1.00000
    235       0.0496      1.00000
    236       0.0915      1.00000
    237       0.0933      1.00000
    238       0.1184      1.00000
    239       0.1188      1.00000
    240       0.1578      1.00000
    241       0.1627      1.00000
    242       0.1769      1.00000
    243       0.1789      1.00000
    244       0.1820      1.00000
    245       0.1822      1.00000
    246       0.1854      1.00000
    247       0.1893      1.00000
    248       0.1933      1.00000
    249       0.1943      1.00000
    250       0.2009      1.00000
    251       0.2010      1.00000
    252       0.2388      1.00000
    253       0.2513      1.00000
    254       0.2571      1.00000
    255       0.2572      1.00000
    256       0.2770      1.00000
    257       0.3370      1.00000
    258       0.3475      1.00000
    259       0.3590      1.00000
    260       0.3590      1.00000
    261       0.3604      1.00000
    262       0.3606      1.00000
    263       0.3882      1.00000
    264       0.4017      1.00000
    265       0.4524      1.00000
    266       0.4526      1.00000
    267       0.5789      1.00000
    268       0.5791      1.00000
    269       0.5845      1.00000
    270       0.6019      1.00000
    271       0.6021      1.00000
    272       0.6064      1.00000
    273       0.6079      1.00000
    274       0.6401      1.00000
    275       0.6512      1.00000
    276       0.6513      1.00000
    277       0.6622      1.00000
    278       0.6624      1.00000
    279       0.6655      1.00000
    280       0.6731      1.00000
    281       0.6745      1.00000
    282       0.6750      1.00000
    283       0.6966      1.00000
    284       0.7231      1.00000
    285       0.7833      1.00000
    286       0.8195      1.00000
    287       0.8295      1.00000
    288       0.8319      1.00000
    289       0.8322      1.00000
    290       0.8610      1.00000
    291       0.8613      1.00000
    292       0.9090      1.00000
    293       0.9403      1.00000
    294       0.9482      1.00000
    295       0.9486      1.00000
    296       0.9831      1.00000
    297       1.0258      1.00000
    298       1.0703      1.00000
    299       1.2693      1.00000
    300       1.2981      1.00000
    301       1.2982      1.00000
    302       1.3110      1.00000
    303       1.3324      1.00000
    304       1.3336      1.00000
    305       1.3377      1.00000
    306       1.3841      1.00000
    307       1.4053      1.00000
    308       1.4280      1.00000
    309       1.4669      1.00000
    310       1.4677      1.00000
    311       1.4683      1.00000
    312       1.4813      1.00000
    313       1.5109      1.00000
    314       1.5113      1.00000
    315       1.5409      1.00000
    316       1.5611      1.00000
    317       1.5769      1.00000
    318       1.6462      1.00000
    319       1.6554      1.00000
    320       1.7558      1.00000
    321       1.7564      1.00000
    322       1.7633      1.00000
    323       1.7786      1.00000
    324       1.8029      1.00000
    325       1.8030      1.00000
    326       1.8109      1.00000
    327       1.8232      1.00000
    328       1.8365      1.00000
    329       1.8368      1.00000
    330       1.8461      1.00000
    331       1.8466      1.00000
    332       1.8784      1.00000
    333       1.8896      1.00000
    334       1.9469      1.00000
    335       1.9935      1.00000
    336       1.9940      1.00000
    337       2.0061      1.00000
    338       2.0068      1.00000
    339       2.0099      1.00000
    340       2.0189      1.00000
    341       2.0200      1.00000
    342       2.0205      1.00000
    343       2.0396      1.00000
    344       2.0464      1.00000
    345       2.0469      1.00000
    346       2.0573      1.00000
    347       2.0684      1.00000
    348       2.0692      1.00000
    349       2.0920      1.00000
    350       2.1129      1.00000
    351       2.1908      1.00000
    352       2.1908      1.00000
    353       2.2471      1.00000
    354       2.2471      1.00000
    355       2.2707      1.00000
    356       2.2732      1.00000
    357       2.2843      1.00000
    358       2.4278      1.00000
    359       2.4663      1.00000
    360       2.4666      1.00000
    361       2.4777      1.00000
    362       2.5037      1.00000
    363       2.5275      1.00000
    364       2.5544      1.00000
    365       2.5922      1.00000
    366       2.6267      1.00000
    367       2.6269      1.00000
    368       2.6564      1.00000
    369       2.7383      1.00000
    370       2.7388      1.00000
    371       2.7612      1.00000
    372       2.7613      1.00000
    373       2.8339      1.00000
    374       2.8730      1.00000
    375       2.9269      1.00000
    376       2.9345      1.00000
    377       2.9351      1.00000
    378       2.9686      1.00000
    379       3.0272      1.00000
    380       3.0277      1.00000
    381       3.0613      1.00000
    382       3.0967      1.00000
    383       3.3076      1.00000
    384       3.3103      1.00000
    385       3.3482      1.00000
    386       3.3762      1.00000
    387       3.4216      1.00000
    388       3.4222      1.00000
    389       3.4406      1.00000
    390       3.4585      1.00000
    391       3.4590      1.00000
    392       3.5319      1.00000
    393       3.7480      1.00000
    394       3.8083      1.00000
    395       3.8093      1.00000
    396       3.8152      1.00000
    397       3.8153      1.00000
    398       3.8826      1.00000
    399       3.8827      1.00000
    400       3.9327      1.00000
    401       3.9355      1.00000
    402       3.9405      1.00000
    403       3.9407      1.00000
    404       4.0392      1.00000
    405       4.0395      1.00000
    406       4.0702      1.00000
    407       4.1389      1.00000
    408       4.1493      1.00000
    409       4.1516      1.00000
    410       4.3149      1.00000
    411       4.3180      1.00000
    412       4.3380      1.00000
    413       4.3586      1.00000
    414       4.3586      1.00000
    415       4.4287      1.00000
    416       4.4446      1.00000
    417       4.4462      1.00000
    418       4.4537      1.00000
    419       4.4558      1.00000
    420       4.4569      1.00000
    421       4.6360      1.00000
    422       4.6364      1.00000
    423       4.7320      1.00000
    424       4.7323      1.00000
    425       4.7639      1.00000
    426       4.7640      1.00000
    427       4.7692      1.00000
    428       4.7695      1.00000
    429       4.8105      1.00000
    430       4.8529      1.00000
    431       4.8535      1.00000
    432       4.8572      1.00000
    433       7.3435      0.00000
    434       8.1285      0.00000
    435       8.4450      0.00000
    436       8.6425      0.00000
    437       8.6428      0.00000
    438       8.8580      0.00000
    439       9.0843      0.00000
    440       9.0847      0.00000
    441       9.2612      0.00000
    442       9.2734      0.00000
    443       9.2889      0.00000
    444       9.2894      0.00000
    445       9.7265      0.00000
    446       9.7718      0.00000
    447       9.7723      0.00000
    448       9.7901      0.00000
    449       9.8546      0.00000
    450       9.8548      0.00000
    451       9.8590      0.00000
    452       9.8789      0.00000
    453       9.8893      0.00000
    454      10.0606      0.00000
    455      10.0828      0.00000
    456      10.1359      0.00000
    457      10.1362      0.00000
    458      10.3060      0.00000
    459      10.3062      0.00000
    460      10.4162      0.00000
    461      10.5266      0.00000
    462      10.5707      0.00000
    463      10.5718      0.00000
    464      10.5719      0.00000
    465      10.5780      0.00000
    466      10.5791      0.00000
    467      10.6758      0.00000
    468      10.9757      0.00000
    469      11.0190      0.00000
    470      11.0194      0.00000
    471      11.0403      0.00000
    472      11.0411      0.00000
    473      11.0773      0.00000
    474      11.1283      0.00000
    475      11.1782      0.00000
[...]
   -.359E-01 -.279E-01 -.259E+02   0.363E-01 0.290E-01 0.257E+02   -.211E-03 -.945E-03 0.250E+00   -.143E-04 0.498E-05 0.268E-04
   -.342E-01 0.936E-01 -.260E+02   0.364E-01 -.956E-01 0.257E+02   -.107E-02 0.944E-03 0.249E+00   -.227E-04 0.280E-04 0.693E-05
   0.178E-01 0.343E-01 -.259E+02   -.182E-01 -.345E-01 0.257E+02   0.267E-03 -.155E-04 0.251E+00   -.490E-05 0.122E-04 0.322E-04
   0.119E+00 -.774E-01 -.423E+02   -.120E+00 0.810E-01 0.423E+02   -.526E-03 -.295E-02 0.945E-02   0.119E-04 -.466E-04 -.218E-04
   -.141E-01 -.184E-01 -.421E+02   0.148E-01 0.204E-01 0.421E+02   -.627E-03 -.174E-02 0.109E-01   -.120E-04 -.159E-04 -.280E-04
   -.138E-01 0.995E-01 -.420E+02   0.147E-01 -.100E+00 0.420E+02   -.479E-03 -.169E-03 0.116E-01   -.124E-04 0.240E-04 -.148E-04
   0.164E-01 0.432E-01 -.421E+02   -.164E-01 -.426E-01 0.420E+02   -.141E-03 -.761E-03 0.109E-01   -.114E-05 0.107E-04 -.172E-04
   0.160E+02 0.150E+02 -.126E+03   -.164E+02 -.154E+02 0.131E+03   0.392E+00 0.380E+00 -.463E+01   0.550E-04 0.866E-04 -.306E-04
   0.157E+02 0.150E+02 -.126E+03   -.161E+02 -.153E+02 0.131E+03   0.381E+00 0.380E+00 -.463E+01   -.132E-03 0.656E-04 -.628E-04
   0.157E+02 0.150E+02 -.126E+03   -.161E+02 -.154E+02 0.131E+03   0.382E+00 0.381E+00 -.463E+01   -.151E-03 0.857E-04 0.293E-04
   0.160E+02 0.150E+02 -.126E+03   -.164E+02 -.154E+02 0.131E+03   0.391E+00 0.380E+00 -.463E+01   -.109E-04 0.859E-04 0.137E-04
   -.159E+02 -.163E+02 -.126E+03   0.163E+02 0.167E+02 0.130E+03   -.391E+00 -.450E+00 -.461E+01   -.556E-04 -.881E-04 -.185E-04
   -.159E+02 -.150E+02 -.126E+03   0.163E+02 0.153E+02 0.131E+03   -.389E+00 -.380E+00 -.463E+01   -.292E-04 -.598E-04 -.134E-04
   -.159E+02 -.147E+02 -.126E+03   0.163E+02 0.150E+02 0.131E+03   -.390E+00 -.365E+00 -.463E+01   0.361E-04 0.139E-03 -.327E-04
   -.159E+02 -.148E+02 -.126E+03   0.163E+02 0.152E+02 0.131E+03   -.389E+00 -.379E+00 -.463E+01   -.236E-04 -.653E-04 0.314E-04
   0.159E+02 -.149E+02 0.126E+03   -.163E+02 0.152E+02 -.131E+03   0.389E+00 -.381E+00 0.463E+01   -.351E-04 -.486E-04 0.137E-04
   0.159E+02 -.149E+02 0.126E+03   -.163E+02 0.153E+02 -.131E+03   0.389E+00 -.380E+00 0.463E+01   -.519E-04 -.493E-04 -.162E-04
   0.159E+02 -.148E+02 0.126E+03   -.163E+02 0.152E+02 -.131E+03   0.389E+00 -.380E+00 0.463E+01   0.290E-04 -.231E-04 -.265E-04
   0.159E+02 -.149E+02 0.126E+03   -.163E+02 0.153E+02 -.131E+03   0.390E+00 -.379E+00 0.463E+01   -.766E-05 -.289E-04 -.204E-04
   -.159E+02 0.148E+02 0.126E+03   0.163E+02 -.152E+02 -.131E+03   -.386E+00 0.379E+00 0.463E+01   0.902E-04 -.158E-04 0.115E-04
   -.159E+02 0.148E+02 0.126E+03   0.163E+02 -.152E+02 -.131E+03   -.387E+00 0.379E+00 0.463E+01   0.130E-04 0.383E-04 0.172E-07
   -.159E+02 0.150E+02 0.126E+03   0.163E+02 -.154E+02 -.131E+03   -.387E+00 0.382E+00 0.463E+01   0.394E-04 0.845E-04 -.448E-05
   -.159E+02 0.150E+02 0.126E+03   0.163E+02 -.154E+02 -.131E+03   -.386E+00 0.381E+00 0.463E+01   0.857E-04 0.116E-03 0.223E-04
   0.280E+02 0.274E+02 0.332E+02   -.284E+02 -.277E+02 -.337E+02   0.350E+00 0.342E+00 0.522E+00   0.156E-05 -.286E-03 0.686E-04
   0.280E+02 0.281E+02 0.333E+02   -.284E+02 -.285E+02 -.339E+02   0.350E+00 0.352E+00 0.518E+00   -.408E-04 0.138E-05 0.971E-04
   0.280E+02 0.284E+02 0.334E+02   -.284E+02 -.287E+02 -.339E+02   0.350E+00 0.358E+00 0.519E+00   -.168E-04 0.104E-03 0.783E-04
   0.280E+02 0.282E+02 0.333E+02   -.284E+02 -.286E+02 -.339E+02   0.350E+00 0.354E+00 0.519E+00   0.962E-05 0.663E-04 0.641E-04
   -.280E+02 -.282E+02 0.334E+02   0.284E+02 0.285E+02 -.339E+02   -.351E+00 -.354E+00 0.520E+00   -.661E-04 -.373E-04 0.127E-03
   -.278E+02 -.282E+02 0.334E+02   0.281E+02 0.285E+02 -.340E+02   -.347E+00 -.354E+00 0.521E+00   0.847E-04 -.646E-04 0.120E-03
   -.278E+02 -.282E+02 0.332E+02   0.282E+02 0.285E+02 -.338E+02   -.348E+00 -.353E+00 0.518E+00   0.314E-04 -.204E-04 0.589E-04
   -.280E+02 -.282E+02 0.332E+02   0.284E+02 0.285E+02 -.337E+02   -.350E+00 -.354E+00 0.518E+00   -.519E-05 -.821E-06 0.377E-04
   0.278E+02 -.288E+02 -.333E+02   -.282E+02 0.292E+02 0.338E+02   0.349E+00 -.364E+00 -.519E+00   0.113E-04 -.114E-03 -.669E-04
   0.280E+02 -.287E+02 -.333E+02   -.283E+02 0.290E+02 0.338E+02   0.351E+00 -.362E+00 -.518E+00   0.190E-04 -.124E-03 -.607E-04
   0.279E+02 -.280E+02 -.333E+02   -.283E+02 0.284E+02 0.338E+02   0.349E+00 -.350E+00 -.519E+00   0.434E-04 0.827E-06 -.783E-04
   0.279E+02 -.281E+02 -.333E+02   -.283E+02 0.284E+02 0.338E+02   0.349E+00 -.350E+00 -.519E+00   -.375E-04 0.168E-04 -.634E-04
   -.281E+02 0.295E+02 -.335E+02   0.284E+02 -.299E+02 0.340E+02   -.351E+00 0.365E+00 -.518E+00   0.713E-04 0.496E-04 -.168E-03
   -.280E+02 0.282E+02 -.333E+02   0.283E+02 -.285E+02 0.339E+02   -.350E+00 0.352E+00 -.519E+00   0.217E-04 0.601E-04 -.472E-04
   -.279E+02 0.292E+02 -.332E+02   0.283E+02 -.295E+02 0.338E+02   -.350E+00 0.377E+00 -.518E+00   0.112E-04 0.113E-03 0.204E-04
   -.280E+02 0.282E+02 -.333E+02   0.284E+02 -.286E+02 0.339E+02   -.350E+00 0.353E+00 -.519E+00   0.250E-04 0.243E-04 -.504E-04
   0.990E+01 -.685E-01 -.405E-02   -.100E+02 0.684E-01 0.430E-02   0.114E+00 -.256E-03 -.137E-03   -.600E-04 -.334E-06 0.299E-05
   0.990E+01 -.446E-01 -.325E-02   -.100E+02 0.446E-01 0.337E-02   0.115E+00 -.401E-03 -.121E-03   -.692E-04 0.192E-04 -.246E-04
   0.990E+01 0.132E+00 -.104E-01   -.100E+02 -.133E+00 0.105E-01   0.115E+00 0.115E-02 -.125E-03   -.838E-04 0.293E-04 0.204E-04
   0.990E+01 0.116E+00 -.113E-01   -.100E+02 -.117E+00 0.114E-01   0.115E+00 0.124E-02 0.138E-03   -.762E-04 0.645E-04 -.210E-04
   -.991E+01 0.719E-01 -.106E+00   0.100E+02 -.720E-01 0.108E+00   -.115E+00 -.132E-03 -.202E-02   0.378E-04 -.163E-05 -.437E-04
   -.989E+01 0.460E-01 0.624E-02   0.100E+02 -.464E-01 -.638E-02   -.115E+00 0.245E-03 0.910E-04   0.127E-03 0.966E-05 -.278E-04
   -.989E+01 0.898E-01 0.113E+00   0.100E+02 -.904E-01 -.114E+00   -.115E+00 0.618E-03 0.155E-02   0.382E-04 0.945E-05 -.669E-05
   -.991E+01 0.548E-01 0.112E-01   0.100E+02 -.553E-01 -.112E-01   -.115E+00 0.487E-03 0.883E-05   0.768E-04 0.257E-04 -.345E-04
   0.199E+02 0.193E+02 0.185E+03   -.189E+02 -.183E+02 -.183E+03   -.105E+01 -.108E+01 -.241E+01   0.357E-03 0.744E-04 -.153E-03
   0.184E+02 0.191E+02 0.185E+03   -.173E+02 -.180E+02 -.183E+03   -.107E+01 -.109E+01 -.241E+01   -.309E-03 0.238E-04 -.113E-03
   0.184E+02 0.194E+02 0.185E+03   -.173E+02 -.183E+02 -.183E+03   -.107E+01 -.108E+01 -.241E+01   -.208E-03 0.180E-03 -.134E-03
   0.195E+02 0.192E+02 0.185E+03   -.184E+02 -.181E+02 -.183E+03   -.106E+01 -.108E+01 -.241E+01   0.274E-03 0.133E-03 -.180E-03
   -.185E+02 -.222E+02 0.185E+03   0.174E+02 0.211E+02 -.183E+03   0.106E+01 0.111E+01 -.241E+01   0.157E-04 -.388E-02 -.240E-03
   -.189E+02 -.191E+02 0.185E+03   0.178E+02 0.180E+02 -.183E+03   0.107E+01 0.109E+01 -.241E+01   0.452E-05 -.139E-03 -.239E-03
   -.189E+02 -.182E+02 0.185E+03   0.178E+02 0.171E+02 -.183E+03   0.106E+01 0.112E+01 -.241E+01   -.704E-05 0.528E-03 -.161E-03
   -.189E+02 -.187E+02 0.185E+03   0.178E+02 0.176E+02 -.183E+03   0.106E+01 0.109E+01 -.241E+01   -.278E-05 -.119E-03 -.249E-03
   0.188E+02 -.182E+02 -.184E+03   -.177E+02 0.171E+02 0.182E+03   -.107E+01 0.109E+01 0.243E+01   -.475E-04 0.147E-04 0.672E-03
   0.189E+02 -.189E+02 -.185E+03   -.179E+02 0.178E+02 0.183E+03   -.106E+01 0.109E+01 0.241E+01   -.251E-05 -.122E-03 0.378E-03
   0.190E+02 -.182E+02 -.186E+03   -.179E+02 0.171E+02 0.184E+03   -.106E+01 0.109E+01 0.239E+01   -.151E-04 0.145E-03 -.187E-03
   0.189E+02 -.189E+02 -.185E+03   -.178E+02 0.178E+02 0.183E+03   -.106E+01 0.108E+01 0.241E+01   -.432E-04 -.106E-03 0.387E-03
   -.189E+02 0.184E+02 -.185E+03   0.178E+02 -.173E+02 0.183E+03   0.106E+01 -.109E+01 0.241E+01   0.544E-04 -.163E-03 0.253E-03
   -.191E+02 0.184E+02 -.185E+03   0.181E+02 -.173E+02 0.183E+03   0.106E+01 -.109E+01 0.241E+01   -.102E-03 -.150E-03 0.233E-03
   -.190E+02 0.192E+02 -.185E+03   0.180E+02 -.181E+02 0.183E+03   0.106E+01 -.108E+01 0.241E+01   -.120E-03 0.225E-03 0.241E-03
   -.190E+02 0.192E+02 -.185E+03   0.179E+02 -.181E+02 0.183E+03   0.106E+01 -.108E+01 0.241E+01   0.418E-06 0.191E-03 0.177E-03
   -.412E-01 -.201E+00 0.209E+03   0.395E-01 0.200E+00 -.211E+03   0.138E-02 0.160E-02 0.206E+01   0.576E-04 0.575E-04 -.399E-03
   0.632E-01 -.172E+00 0.209E+03   -.654E-01 0.172E+00 -.211E+03   0.185E-02 0.671E-03 0.206E+01   0.159E-04 -.127E-03 -.384E-03
   0.590E-01 0.702E-01 0.209E+03   -.593E-01 -.739E-01 -.211E+03   0.293E-03 0.330E-02 0.206E+01   0.573E-04 0.701E-04 -.294E-03
   -.141E-01 0.344E-01 0.209E+03   0.145E-01 -.393E-01 -.211E+03   -.256E-03 0.443E-02 0.206E+01   -.832E-04 -.395E-04 -.389E-03
   -.102E-01 -.238E+00 0.199E+03   0.664E-02 0.242E+00 -.201E+03   0.297E-02 -.228E-02 0.206E+01   -.504E-04 -.307E-03 -.396E-03
   0.391E-01 -.152E+00 0.199E+03   -.391E-01 0.152E+00 -.201E+03   0.140E-03 0.479E-05 0.206E+01   0.178E-04 -.148E-04 -.373E-03
   0.393E-01 0.124E+00 0.199E+03   -.376E-01 -.128E+00 -.201E+03   -.125E-02 0.414E-02 0.206E+01   -.156E-03 0.477E-04 -.338E-03
   0.117E-01 0.435E-01 0.199E+03   -.118E-01 -.474E-01 -.201E+03   0.108E-03 0.333E-02 0.206E+01   0.206E-04 0.122E-03 -.365E-03
   -.535E+00 -.244E+00 -.198E+03   0.542E+00 0.244E+00 0.200E+03   -.422E-02 0.360E-04 -.205E+01   -.339E-04 -.111E-03 0.424E-03
   0.819E-01 -.171E+00 -.199E+03   -.826E-01 0.171E+00 0.201E+03   0.252E-03 0.187E-03 -.206E+01   0.127E-03 -.127E-03 0.348E-03
   0.942E-01 0.351E+00 -.199E+03   -.985E-01 -.361E+00 0.201E+03   0.282E-02 0.777E-02 -.207E+01   0.217E-03 0.155E-03 0.143E-03
   -.824E-01 0.725E-01 -.199E+03   0.843E-01 -.774E-01 0.201E+03   -.144E-02 0.424E-02 -.206E+01   -.851E-04 0.779E-04 0.328E-03
   -.535E+00 -.471E+00 -.210E+03   0.540E+00 0.478E+00 0.212E+03   -.305E-02 -.586E-02 -.207E+01   -.837E-04 -.256E-03 0.121E-03
   0.104E+00 -.235E+00 -.209E+03   -.104E+00 0.238E+00 0.211E+03   0.681E-04 -.169E-02 -.206E+01   0.537E-06 -.212E-03 0.337E-03
   0.861E-01 0.300E+00 -.209E+03   -.882E-01 -.309E+00 0.211E+03   0.137E-02 0.769E-02 -.206E+01   0.365E-04 0.246E-03 0.400E-03
   -.827E-01 0.855E-01 -.209E+03   0.848E-01 -.909E-01 0.211E+03   -.178E-02 0.487E-02 -.206E+01   0.856E-06 0.667E-05 0.351E-03
 -----------------------------------------------------------------------------------------------
   0.371E-02 -.618E-01 -.192E-01   -.197E-12 -.312E-12 -.739E-12   -.358E-02 0.637E-01 0.192E-01   -.111E-03 -.330E-02 0.542E-04
 
 
 POSITION                                       TOTAL-FORCE (eV/Angst)
 -----------------------------------------------------------------------------------
      2.77841      5.21785      1.58925         0.000293      0.000132     -0.000257
      8.33453      5.21785      1.58910         0.000109      0.000166      0.000062
      2.77841     10.77658      1.58925        -0.000061     -0.000168      0.000037
      8.33453     10.77658      1.58910         0.000010     -0.000156     -0.000166
      0.00058      2.43861      1.89560         0.000377      0.000513      0.000130
      5.55670      2.43861      1.89545         0.000033      0.000342      0.000009
      0.00058      7.99734      1.89560        -0.000181     -0.000201      0.000027
      5.55670      7.99734      1.89545        -0.000148     -0.000251     -0.000008
      2.78043      5.21797      8.30298        -0.002293     -0.000456     -0.003370
      8.33655      5.21797      8.30283         0.000191      0.000169      0.000218
      2.78043     10.77670      8.30298         0.001032     -0.000984      0.001297
      8.33655     10.77670      8.30283        -0.000111     -0.000199     -0.000071
      0.00259      2.43849      8.60933        -0.001700      0.000566      0.003484
      5.55871      2.43849      8.60919         0.000093      0.000329     -0.000061
      0.00259      7.99722      8.60933         0.000429     -0.000752     -0.000828
      5.55871      7.99722      8.60919        -0.000149     -0.000166      0.000053
     -1.37640      1.05960      8.18451         0.001971     -0.000313     -0.000999
      4.17971      1.05960      8.18437        -0.001456      0.000302     -0.000808
     -1.37640      6.61833      8.18451        -0.001338      0.000541      0.000478
      4.17971      6.61833      8.18437         0.001368     -0.000100      0.000455
      1.38116      3.81753      8.18442         0.000106     -0.007554     -0.003788
      6.93728      3.81753      8.18427        -0.000116     -0.000065      0.000081
      1.38116      9.37626      8.18442        -0.000731      0.004810     -0.000306
      6.93728      9.37626      8.18427        -0.000254      0.000242     -0.000062
      1.39985      1.03817      2.01416         0.000103     -0.000629      0.000815
      6.95597      1.03817      2.01401         0.000062     -0.000032      0.000261
      1.39985      6.59689      2.01416         0.000093     -0.000157     -0.000231
      6.95597      6.59689      2.01401         0.000253      0.000091     -0.000053
      4.15741      3.83897      2.01406         0.000011     -0.000450      0.000020
      9.71353      3.83897      2.01392        -0.000478     -0.000345     -0.000025
      4.15741      9.39769      2.01406        -0.000094      0.000511      0.000093
      9.71353      9.39769      2.01392        -0.000017      0.000379      0.000126
      1.40044      3.83812      3.78391         0.000137     -0.002917      0.002234
      6.95656      3.83812      3.78377        -0.000029     -0.000403     -0.000016
      1.40044      9.39685      3.78391        -0.000131      0.002253      0.000342
      6.95656      9.39685      3.78377        -0.000036      0.000185      0.000075
      4.15774      1.03891      3.78384        -0.000727      0.000026      0.000847
      9.71386      1.03891      3.78369         0.000926      0.000051      0.001011
      4.15774      6.59764      3.78384         0.000713      0.000254     -0.000313
      9.71386      6.59764      3.78369        -0.000540      0.000248     -0.000390
     -1.37674      3.81828      6.41474         0.000272     -0.001978      0.000110
      4.17938      3.81828      6.41460         0.000714     -0.001879     -0.000262
     -1.37674      9.37700      6.41474        -0.000089      0.001674     -0.000148
      4.17938      9.37700      6.41460        -0.000050      0.001369     -0.000192
      1.38057      1.05876      6.41466         0.001108     -0.005849      0.001297
      6.93668      1.05876      6.41452         0.000014     -0.000424     -0.000128
      1.38057      6.61748      6.41466        -0.000093      0.006627     -0.000559
      6.93668      6.61748      6.41452         0.000095     -0.000217     -0.000094
      1.38227      3.82822      0.00001        -0.000124     -0.000315      0.000118
      6.93839      3.82822     -0.00014         0.000035     -0.000431     -0.000031
      1.38227      9.38694      0.00001         0.000079      0.000317      0.000010
      6.93839      9.38694     -0.00014         0.000016      0.000336      0.000152
      1.39874      1.04885     10.19857         0.000034     -0.000265     -0.000831
      6.95485      1.04885     10.19843        -0.000043     -0.000086     -0.000079
      1.39874      6.60758     10.19857         0.000023      0.000054      0.000519
      6.95485      6.60758     10.19843        -0.000008      0.000017     -0.000034
     -1.25763      1.18232      6.18371        -0.004432     -0.001297     -0.000186
      4.29848      1.18232      6.18356         0.002764     -0.000537     -0.000132
     -1.25763      6.74104      6.18371         0.002724     -0.000957      0.000334
      4.29848      6.74104      6.18356        -0.002471     -0.000472      0.000159
      1.26131      3.68462      6.18369        -0.001146      0.023298      0.000502
      6.81742      3.69462      6.18354         0.000137     -0.000619      0.000270
      1.26131      9.25335      6.18369         0.000138     -0.009223      0.000253
      6.81742      9.25335      6.18354         0.000200      0.000049      0.000136
      1.51970      0.91526      4.01489         0.000400     -0.002002     -0.007307
      7.07582      0.91526      4.01474        -0.000312     -0.000024      0.000102
      1.51970      6.47399      4.01489        -0.000645     -0.001984      0.005788
      7.07582      6.47399      4.01474        -0.000174     -0.000034     -0.000266
      4.03864      3.96168      4.01487        -0.000386      0.000850      0.000113
      9.59476      3.96168      4.01472         0.000735      0.000791      0.000086
      4.03864      9.52041      4.01487         0.000381     -0.000507     -0.000068
      9.59476      9.52041      4.01472         0.000208     -0.000469     -0.000090
      0.00035      5.21813      1.57032        -0.000254      0.000115     -0.000240
      5.55647      5.21813      1.57017        -0.000270      0.000366      0.000132
      0.00035     10.77686      1.57032        -0.000007     -0.000277     -0.000009
      5.55647     10.77686      1.57017         0.000136     -0.000511     -0.000055
      2.77849      2.43869      1.57537        -0.000627      0.001041      0.000513
      8.33461      2.43869      1.57522         0.000108      0.000467     -0.000222
      2.77849      7.99742      1.57537         0.000340     -0.000552     -0.000219
      8.33461      7.99742      1.57522         0.000037     -0.000391      0.000040
      0.00252      5.21805      8.62321         0.002486     -0.000354     -0.004890
      5.55864      5.21805      8.62307        -0.000281      0.000286      0.000060
      0.00252     10.77678      8.62321        -0.001193     -0.001753      0.002004
      5.55864     10.77678      8.62307         0.000306     -0.000567      0.000105
      2.78066      2.43877      8.62826         0.002134      0.001631      0.004681
      8.33677      2.43877      8.62811        -0.000380      0.000903     -0.000220
      2.78066      7.99750      8.62826        -0.000703     -0.001462     -0.001522
      8.33677      7.99750      8.62811         0.000346     -0.000571     -0.000097
 -----------------------------------------------------------------------------------
    total drift:                                0.000015     -0.001345      0.000024


--------------------------------------------------------------------------------------------------------



  FREE ENERGIE OF THE ION-ELECTRON SYSTEM (eV)
  ---------------------------------------------------
  free  energy   TOTEN  =      -489.21532626 eV

  energy  without entropy=     -489.21532626  energy(sigma->0) =     -489.21532626
 


--------------------------------------------------------------------------------------------------------


    POTLOK:  cpu time    3.2937: real time    3.3252


--------------------------------------------------------------------------------------------------------


     LOOP+:  cpu time 6417.2394: real time 6483.7307
    4ORBIT:  cpu time    0.0000: real time    0.0000

 total amount of memory used by VASP MPI-rank0  1233264. kBytes
=======================================================================

   base      :      30000. kBytes
   nonl-proj :      75226. kBytes
   fftplans  :      85054. kBytes
   grid      :      64684. kBytes
   one-center:        466. kBytes
   wavefun   :     977834. kBytes
 
  
  
 General timing and accounting informations for this job:
 ========================================================
  
                  Total CPU time used (sec):     6515.337
                            User time (sec):     6446.510
                          System time (sec):       68.827
                         Elapsed time (sec):     6584.534
  
                   Maximum memory used (kb):     1434952.
                   Average memory used (kb):           0.
  
                          Minor page faults:       992885
                          Major page faults:           16
                 Voluntary context switches:        64785
