    9    9    1    2
  0.1337776E+02  0.3793020E-09  0.5634524E-09  0.5634869E-09  0.5000000E-15
   1.0000000000000000E-004
  CAR 
 unknown system                          
     72     52     56

  0.1262379E-14  0.1262379E-14  0.1262379E-14  0.1041667E-01
    1      -56.108014    -49.523813   1.000000   1.000000
    2      -56.106489    -49.520628   1.000000   1.000000
    3      -55.815332    -49.469854   1.000000   1.000000
    4      -54.816054    -49.445963   1.000000   1.000000
    5      -54.814538    -49.443715   1.000000   1.000000
    6      -54.493157    -49.443622   1.000000   1.000000
    7      -54.472960    -49.164559   1.000000   1.000000
    8      -54.323387    -49.155601   1.000000   1.000000
    9      -54.321313    -49.131880   1.000000   1.000000
   10      -43.566361    -43.572732   1.000000   1.000000
   11      -43.564235    -43.570528   1.000000   1.000000
   12      -16.206466    -15.708030   1.000000   1.000000
   13      -16.078334    -15.582759   1.000000   1.000000
   14       -9.364341     -9.006789   1.000000   1.000000
   15       -8.830079     -8.500332   1.000000   1.000000
   16       -2.794512     -1.684069   1.000000   1.000000
   17       -2.306539     -0.929379   1.000000   1.000000
   18       -2.121113     -0.514730   1.000000   1.000000
   19       -1.991981     -0.427285   1.000000   1.000000
   20       -1.711803     -0.360467   1.000000   1.000000
   21       -1.382789     -0.214656   1.000000   1.000000
   22       -0.737181      0.912688   1.000000   1.000000
   23       -0.702603      2.332833   1.000000   1.000000
   24       -0.654853      2.514423   1.000000   1.000000
   25       -0.369499      2.613956   1.000000   1.000000
   26       -0.299251      2.782612   1.000000   1.000000
   27       -0.057746      2.813912   1.000000   1.000000
   28       -0.038232      3.166606   1.000000   1.000000
   29        0.002250      3.914578   1.000000   1.000000
   30        0.274860      4.723300   1.000000   1.000000
   31        0.541976      7.177462   1.000000   0.000000
   32        0.571900      7.317364   1.000000   0.000000
   33        0.788124      7.437087   1.000000   0.000000
   34        1.263970      7.549851   1.000000   0.000000
   35        1.938095      8.262781   1.000000   0.000000
   36        2.018566      8.357273   1.000000   0.000000
   37        2.323419      8.535238   1.000000   0.000000
   38        3.340033      8.790589   1.000000   0.000000
   39        3.396044      8.966083   1.000000   0.000000
   40        3.552169      9.130480   1.000000   0.000000
   41        4.218307      9.272693   1.000000   0.000000
   42        4.284655      9.374514   1.000000   0.000000
   43        7.562134      9.872241   0.000000   0.000000
   44        8.095303     10.314991   0.000000   0.000000
   45        9.497941     10.559531   0.000000   0.000000
   46       10.516310     11.488617   0.000000   0.000000
   47       11.623623     12.226754   0.000000   0.000000
   48       12.489084     13.509810   0.000000   0.000000
   49       13.206254     14.508943   0.000000   0.000000
   50       14.796316     15.205734   0.000000   0.000000
   51       14.832659     15.548742   0.000000   0.000000
   52       16.336547     16.864771   0.000000   0.000000
   53       16.532958     17.299406   0.000000   0.000000
   54       16.662012     17.332727   0.000000   0.000000
   55       16.916864     17.576617   0.000000   0.000000
   56       17.647061     18.365863   0.000000   0.000000

  0.1666667E+00  0.1262379E-14  0.1262380E-14  0.2083333E-01
    1      -56.108625    -49.523602   1.000000   1.000000
    2      -56.107091    -49.520382   1.000000   1.000000
    3      -55.815234    -49.469978   1.000000   1.000000
    4      -54.816048    -49.446947   1.000000   1.000000
    5      -54.814534    -49.444754   1.000000   1.000000
    6      -54.493186    -49.443590   1.000000   1.000000
    7      -54.472969    -49.164501   1.000000   1.000000
    8      -54.323359    -49.155961   1.000000   1.000000
    9      -54.321597    -49.131808   1.000000   1.000000
   10      -43.566146    -43.572494   1.000000   1.000000
   11      -43.564041    -43.570355   1.000000   1.000000
   12      -16.148943    -15.650500   1.000000   1.000000
   13      -16.025689    -15.531227   1.000000   1.000000
   14       -9.309601     -8.957976   1.000000   1.000000
   15       -8.767578     -8.428356   1.000000   1.000000
   16       -2.914223     -1.509750   1.000000   1.000000
   17       -2.616691     -0.791491   1.000000   1.000000
   18       -1.983170     -0.732843   1.000000   1.000000
   19       -1.948075     -0.718842   1.000000   1.000000
   20       -1.464911     -0.212065   1.000000   1.000000
   21       -1.409879     -0.179682   1.000000   1.000000
   22       -1.085637      0.931493   1.000000   1.000000
   23       -0.599942      2.057024   1.000000   1.000000
   24       -0.568167      2.148261   1.000000   1.000000
   25       -0.260974      2.373595   1.000000   1.000000
   26       -0.167568      2.377343   1.000000   1.000000
   27       -0.082393      2.523525   1.000000   1.000000
   28       -0.039457      2.769909   1.000000   1.000000
   29        0.133132      4.095551   1.000000   1.000000
   30        0.143861      4.749253   1.000000   1.000000
   31        0.464274      7.188364   1.000000   0.000000
   32        0.583072      7.314596   1.000000   0.000000
   33        0.778986      7.465987   1.000000   0.000000
   34        1.311024      7.754204   1.000000   0.000000
   35        1.339182      7.818809   1.000000   0.000000
   36        2.142708      8.353753   1.000000   0.000000
   37        2.252658      8.508432   1.000000   0.000000
   38        2.581580      8.814673   1.000000   0.000000
   39        3.087303      8.960469   1.000000   0.000000
   40        3.534829      9.126450   1.000000   0.000000
   41        3.661141      9.359729   1.000000   0.000000
   42        4.078948      9.510422   1.000000   0.000000
   43        8.274741     10.050123   0.000000   0.000000
   44        8.848839     11.043717   0.000000   0.000000
   45       10.061723     11.448564   0.000000   0.000000
   46       11.684328     12.145707   0.000000   0.000000
   47       12.205578     12.934528   0.000000   0.000000
   48       12.511667     13.513457   0.000000   0.000000
   49       12.592878     13.912894   0.000000   0.000000
   50       14.200350     14.619478   0.000000   0.000000
   51       15.049289     15.670869   0.000000   0.000000
   52       15.328146     15.937984   0.000000   0.000000
   53       16.005031     16.646807   0.000000   0.000000
   54       16.379481     16.924862   0.000000   0.000000
   55       16.822120     17.802878   0.000000   0.000000
   56       16.840803     17.905246   0.000000   0.000000

  0.3333333E+00  0.1262383E-14  0.1262382E-14  0.2083333E-01
    1      -56.109783    -49.523172   1.000000   1.000000
    2      -56.108304    -49.519876   1.000000   1.000000
    3      -55.815037    -49.470221   1.000000   1.000000
    4      -54.816032    -49.448885   1.000000   1.000000
    5      -54.814508    -49.446854   1.000000   1.000000
    6      -54.493257    -49.443499   1.000000   1.000000
    7      -54.472977    -49.164357   1.000000   1.000000
    8      -54.323287    -49.156696   1.000000   1.000000
    9      -54.322156    -49.131671   1.000000   1.000000
   10      -43.565737    -43.572040   1.000000   1.000000
   11      -43.563569    -43.569927   1.000000   1.000000
   12      -16.030519    -15.532219   1.000000   1.000000
   13      -15.917854    -15.425931   1.000000   1.000000
   14       -9.199324     -8.861128   1.000000   1.000000
   15       -8.636457     -8.275525   1.000000   1.000000
   16       -2.960826     -1.221870   1.000000   1.000000
   17       -2.939089     -1.213888   1.000000   1.000000
   18       -2.058021     -0.877151   1.000000   1.000000
   19       -2.049715     -0.401901   1.000000   1.000000
   20       -1.778067     -0.106393   1.000000   1.000000
   21       -1.085992      0.137249   1.000000   1.000000
   22       -0.835488      0.705813   1.000000   1.000000
   23       -0.660387      1.018142   1.000000   1.000000
   24       -0.518175      1.355869   1.000000   1.000000
   25       -0.461638      1.369377   1.000000   1.000000
   26       -0.338442      2.118454   1.000000   1.000000
   27       -0.041011      2.258508   1.000000   1.000000
   28        0.122003      2.778053   1.000000   1.000000
   29        0.406961      4.155353   1.000000   1.000000
   30        0.431857      4.808106   1.000000   1.000000
   31        0.503959      6.770530   1.000000   0.000000
   32        0.530824      7.070381   1.000000   0.000000
   33        0.715097      7.245250   1.000000   0.000000
   34        0.786081      7.897678   1.000000   0.000000
   35        1.163607      8.280432   1.000000   0.000000
   36        1.832893      8.318636   1.000000   0.000000
   37        1.917781      8.514169   1.000000   0.000000
   38        2.078025      8.776759   1.000000   0.000000
   39        2.130206      9.023500   1.000000   0.000000
   40        3.309146      9.315931   1.000000   0.000000
   41        3.471529      9.433049   1.000000   0.000000
   42        3.523410      9.607998   1.000000   0.000000
   43        9.588717     11.240780   0.000000   0.000000
   44       10.438120     11.618364   0.000000   0.000000
   45       10.600144     12.318625   0.000000   0.000000
   46       11.700955     13.251563   0.000000   0.000000
   47       12.531719     13.448069   0.000000   0.000000
   48       13.245490     13.664835   0.000000   0.000000
   49       13.515749     14.116480   0.000000   0.000000
   50       13.724885     14.365374   0.000000   0.000000
   51       14.482835     15.193576   0.000000   0.000000
   52       14.804978     15.293925   0.000000   0.000000
   53       15.494640     16.270773   0.000000   0.000000
   54       15.974822     16.542348   0.000000   0.000000
   55       16.391558     17.004344   0.000000   0.000000
   56       16.604034     17.385045   0.000000   0.000000

  0.5000000E+00  0.1262383E-14  0.1262383E-14  0.1041667E-01
    1      -56.110322    -49.522947   1.000000   1.000000
    2      -56.108929    -49.519635   1.000000   1.000000
    3      -55.814952    -49.470336   1.000000   1.000000
    4      -54.816013    -49.449844   1.000000   1.000000
    5      -54.814509    -49.447911   1.000000   1.000000
    6      -54.493302    -49.443453   1.000000   1.000000
    7      -54.472984    -49.164282   1.000000   1.000000
    8      -54.323240    -49.157074   1.000000   1.000000
    9      -54.322446    -49.131615   1.000000   1.000000
   10      -43.565520    -43.571801   1.000000   1.000000
   11      -43.563374    -43.569755   1.000000   1.000000
   12      -15.969565    -15.471428   1.000000   1.000000
   13      -15.862652    -15.372170   1.000000   1.000000
   14       -9.144009     -8.813392   1.000000   1.000000
   15       -8.567458     -8.194033   1.000000   1.000000
   16       -3.059876     -1.451373   1.000000   1.000000
   17       -2.875800     -1.241022   1.000000   1.000000
   18       -2.312441     -0.584791   1.000000   1.000000
   19       -2.099129     -0.068230   1.000000   1.000000
   20       -1.920553     -0.029012   1.000000   1.000000
   21       -0.985116      0.333243   1.000000   1.000000
   22       -0.727657      0.386973   1.000000   1.000000
   23       -0.693747      0.637496   1.000000   1.000000
   24       -0.559573      0.817964   1.000000   1.000000
   25       -0.422682      0.927727   1.000000   1.000000
   26       -0.260789      1.891697   1.000000   1.000000
   27       -0.049604      2.112067   1.000000   1.000000
   28        0.175847      2.805785   1.000000   1.000000
   29        0.340262      4.152647   1.000000   1.000000
   30        0.423222      4.840200   1.000000   1.000000
   31        0.484557      6.612767   1.000000   0.000000
   32        0.600718      6.970899   1.000000   0.000000
   33        0.613615      7.021608   1.000000   0.000000
   34        0.796312      8.096411   1.000000   0.000000
   35        1.345963      8.187535   1.000000   0.000000
   36        1.545858      8.548685   1.000000   0.000000
   37        1.650386      8.677858   1.000000   0.000000
   38        1.767833      8.802705   1.000000   0.000000
   39        2.073023      8.894867   1.000000   0.000000
   40        2.853028      9.434137   1.000000   0.000000
   41        3.441026      9.447654   1.000000   0.000000
   42        3.460719      9.699416   1.000000   0.000000
   43       10.333523     11.589957   0.000000   0.000000
   44       10.871735     12.213736   0.000000   0.000000
   45       11.439071     12.988425   0.000000   0.000000
   46       11.506463     13.048679   0.000000   0.000000
   47       12.293118     13.366871   0.000000   0.000000
   48       13.027961     13.806184   0.000000   0.000000
   49       13.322867     13.818192   0.000000   0.000000
   50       13.926017     14.622539   0.000000   0.000000
   51       14.344442     14.907724   0.000000   0.000000
   52       14.662505     15.127344   0.000000   0.000000
   53       14.855121     15.312188   0.000000   0.000000
   54       15.530852     16.303087   0.000000   0.000000
   55       16.187068     17.247530   0.000000   0.000000
   56       17.394182     17.995400   0.000000   0.000000

  0.1262379E-14  0.2500000E+00  0.1259217E-14  0.2083333E-01
    1      -56.108020    -49.523862   1.000000   1.000000
    2      -56.106509    -49.520443   1.000000   1.000000
    3      -55.815338    -49.470049   1.000000   1.000000
    4      -54.816153    -49.445886   1.000000   1.000000
    5      -54.814464    -49.443740   1.000000   1.000000
    6      -54.493166    -49.443301   1.000000   1.000000
    7      -54.472982    -49.164571   1.000000   1.000000
    8      -54.323393    -49.155611   1.000000   1.000000
    9      -54.321317    -49.131922   1.000000   1.000000
   10      -43.566202    -43.572548   1.000000   1.000000
   11      -43.564347    -43.570642   1.000000   1.000000
   12      -16.203032    -15.703599   1.000000   1.000000
   13      -16.078146    -15.583010   1.000000   1.000000
   14       -9.302034     -8.950735   1.000000   1.000000
   15       -8.904475     -8.587784   1.000000   1.000000
   16       -2.734218     -1.457477   1.000000   1.000000
   17       -2.341882     -0.709852   1.000000   1.000000
   18       -2.083233     -0.501458   1.000000   1.000000
   19       -1.987193     -0.483177   1.000000   1.000000
   20       -1.758548     -0.366059   1.000000   1.000000
   21       -1.410329     -0.118790   1.000000   1.000000
   22       -0.903000      0.783739   1.000000   1.000000
   23       -0.751993      1.740483   1.000000   1.000000
   24       -0.643541      2.080222   1.000000   1.000000
   25       -0.384543      2.378678   1.000000   1.000000
   26       -0.334750      2.698992   1.000000   1.000000
   27       -0.159149      3.094436   1.000000   1.000000
   28       -0.045546      3.121224   1.000000   1.000000
   29       -0.044765      3.881838   1.000000   1.000000
   30        0.480708      4.640143   1.000000   1.000000
   31        0.609502      7.338571   1.000000   0.000000
   32        0.768610      7.638113   1.000000   0.000000
   33        1.053808      7.840500   1.000000   0.000000
   34        1.227812      7.920358   1.000000   0.000000
   35        1.839889      8.296819   1.000000   0.000000
   36        2.057631      8.541022   1.000000   0.000000
   37        2.233669      8.548372   1.000000   0.000000
   38        3.097913      8.787851   1.000000   0.000000
   39        3.295523      8.830129   1.000000   0.000000
   40        3.303003      9.123627   1.000000   0.000000
   41        4.147353      9.523137   1.000000   0.000000
   42        4.188959      9.815451   1.000000   0.000000
   43        8.501124      9.884864   0.000000   0.000000
   44        8.749433     10.377402   0.000000   0.000000
   45        9.974797     10.878239   0.000000   0.000000
   46       10.811810     11.816906   0.000000   0.000000
   47       11.762860     12.344888   0.000000   0.000000
   48       12.744296     13.560280   0.000000   0.000000
   49       13.577180     14.383568   0.000000   0.000000
   50       13.794941     14.725692   0.000000   0.000000
   51       14.083915     14.920057   0.000000   0.000000
   52       14.526961     15.582606   0.000000   0.000000
   53       15.185661     15.690189   0.000000   0.000000
   54       16.347860     16.907842   0.000000   0.000000
   55       16.452877     17.447132   0.000000   0.000000
   56       16.939704     17.885918   0.000000   0.000000

  0.1666667E+00  0.2500000E+00  0.1258850E-14  0.2083333E-01
    1      -56.108634    -49.523638   1.000000   1.000000
    2      -56.107090    -49.520189   1.000000   1.000000
    3      -55.815243    -49.470092   1.000000   1.000000
    4      -54.816141    -49.446931   1.000000   1.000000
    5      -54.814455    -49.444823   1.000000   1.000000
    6      -54.493185    -49.443254   1.000000   1.000000
    7      -54.473007    -49.164501   1.000000   1.000000
    8      -54.323358    -49.155966   1.000000   1.000000
    9      -54.321591    -49.131845   1.000000   1.000000
   10      -43.566022    -43.572355   1.000000   1.000000
   11      -43.564114    -43.570420   1.000000   1.000000
   12      -16.147484    -15.648200   1.000000   1.000000
   13      -16.024183    -15.530106   1.000000   1.000000
   14       -9.238969     -8.891599   1.000000   1.000000
   15       -8.837877     -8.513008   1.000000   1.000000
   16       -2.873466     -1.338714   1.000000   1.000000
   17       -2.651185     -0.852541   1.000000   1.000000
   18       -1.978694     -0.759834   1.000000   1.000000
   19       -1.916498     -0.541363   1.000000   1.000000
   20       -1.538531     -0.306253   1.000000   1.000000
   21       -1.453856     -0.053561   1.000000   1.000000
   22       -1.144581      0.883378   1.000000   1.000000
   23       -0.832053      1.621672   1.000000   1.000000
   24       -0.632971      1.829472   1.000000   1.000000
   25       -0.318188      2.144135   1.000000   1.000000
   26       -0.188660      2.341468   1.000000   1.000000
   27       -0.132168      2.495121   1.000000   1.000000
   28        0.018403      3.100913   1.000000   1.000000
   29        0.070317      4.084377   1.000000   1.000000
   30        0.379550      4.635502   1.000000   1.000000
   31        0.584128      7.471262   1.000000   0.000000
   32        0.718111      7.540132   1.000000   0.000000
   33        0.956364      7.788575   1.000000   0.000000
   34        1.190134      7.858602   1.000000   0.000000
   35        1.324544      7.962094   1.000000   0.000000
   36        1.979081      8.443875   1.000000   0.000000
   37        2.373488      8.652728   1.000000   0.000000
   38        2.598786      8.795214   1.000000   0.000000
   39        3.153181      8.903649   1.000000   0.000000
   40        3.402218      9.104143   1.000000   0.000000
   41        3.566343      9.401553   1.000000   0.000000
   42        4.148088      9.693163   1.000000   0.000000
   43        9.000089     10.482882   0.000000   0.000000
   44        9.301479     11.019857   0.000000   0.000000
   45       10.611456     11.741601   0.000000   0.000000
   46       11.780835     12.357110   0.000000   0.000000
   47       12.262644     12.961364   0.000000   0.000000
   48       12.647468     13.492734   0.000000   0.000000
   49       12.800668     14.160540   0.000000   0.000000
   50       13.597111     14.280152   0.000000   0.000000
   51       13.965406     14.649484   0.000000   0.000000
   52       14.243448     14.977698   0.000000   0.000000
   53       14.603889     15.579655   0.000000   0.000000
   54       14.945686     16.017100   0.000000   0.000000
   55       17.077616     17.457978   0.000000   0.000000
   56       17.488851     18.168904   0.000000   0.000000

  0.3333333E+00  0.2500000E+00  0.1261440E-14  0.2083333E-01
    1      -56.109843    -49.523194   1.000000   1.000000
    2      -56.108264    -49.519686   1.000000   1.000000
    3      -55.815055    -49.470156   1.000000   1.000000
    4      -54.816120    -49.449002   1.000000   1.000000
    5      -54.814433    -49.446779   1.000000   1.000000
    6      -54.493224    -49.443374   1.000000   1.000000
    7      -54.473059    -49.164354   1.000000   1.000000
    8      -54.323284    -49.156690   1.000000   1.000000
    9      -54.322147    -49.131693   1.000000   1.000000
   10      -43.565630    -43.571940   1.000000   1.000000
   11      -43.563664    -43.569993   1.000000   1.000000
   12      -16.033537    -15.534763   1.000000   1.000000
   13      -15.913345    -15.421670   1.000000   1.000000
   14       -9.110887     -8.772044   1.000000   1.000000
   15       -8.696161     -8.353100   1.000000   1.000000
   16       -3.001623     -1.390817   1.000000   1.000000
   17       -2.924510     -1.307788   1.000000   1.000000
   18       -2.109608     -0.799577   1.000000   1.000000
   19       -2.012214     -0.344778   1.000000   1.000000
   20       -1.738597     -0.209005   1.000000   1.000000
   21       -1.329723     -0.031158   1.000000   1.000000
   22       -1.066526      0.904890   1.000000   1.000000
   23       -0.939022      1.102990   1.000000   1.000000
   24       -0.639017      1.189938   1.000000   1.000000
   25       -0.386482      1.677156   1.000000   1.000000
   26       -0.279934      1.943686   1.000000   1.000000
   27       -0.120489      2.067413   1.000000   1.000000
   28        0.076200      3.036951   1.000000   1.000000
   29        0.321119      4.155326   1.000000   1.000000
   30        0.368961      4.624405   1.000000   1.000000
   31        0.483341      7.101907   1.000000   0.000000
   32        0.613794      7.356147   1.000000   0.000000
   33        0.755716      7.617948   1.000000   0.000000
   34        1.137209      7.981696   1.000000   0.000000
   35        1.401431      8.163017   1.000000   0.000000
   36        1.714381      8.410107   1.000000   0.000000
   37        2.047014      8.601732   1.000000   0.000000
   38        2.165640      8.724022   1.000000   0.000000
   39        2.600499      8.901640   1.000000   0.000000
   40        3.249111      9.360729   1.000000   0.000000
   41        3.378549      9.435420   1.000000   0.000000
   42        3.896051      9.652058   1.000000   0.000000
   43        9.934338     11.352878   0.000000   0.000000
   44       10.396602     11.854806   0.000000   0.000000
   45       11.130548     12.118428   0.000000   0.000000
   46       11.713577     12.980029   0.000000   0.000000
   47       12.173323     13.272711   0.000000   0.000000
   48       12.627757     13.460073   0.000000   0.000000
   49       13.030912     13.955329   0.000000   0.000000
   50       13.599586     14.180148   0.000000   0.000000
   51       14.000740     14.685943   0.000000   0.000000
   52       14.368188     15.020457   0.000000   0.000000
   53       14.542579     15.412634   0.000000   0.000000
   54       14.932514     15.705763   0.000000   0.000000
   55       16.873635     17.363672   0.000000   0.000000
   56       17.096042     17.609351   0.000000   0.000000

  0.5000000E+00  0.2500000E+00  0.1261941E-14  0.2083333E-01
    1      -56.110439    -49.522975   1.000000   1.000000
    2      -56.108857    -49.519441   1.000000   1.000000
    3      -55.814968    -49.470189   1.000000   1.000000
    4      -54.816111    -49.450040   1.000000   1.000000
    5      -54.814426    -49.447738   1.000000   1.000000
    6      -54.493252    -49.443452   1.000000   1.000000
    7      -54.473093    -49.164278   1.000000   1.000000
    8      -54.323242    -49.157064   1.000000   1.000000
    9      -54.322435    -49.131626   1.000000   1.000000
   10      -43.565431    -43.571731   1.000000   1.000000
   11      -43.563421    -43.569762   1.000000   1.000000
   12      -15.975051    -15.476660   1.000000   1.000000
   13      -15.856418    -15.366091   1.000000   1.000000
   14       -9.045969     -8.711734   1.000000   1.000000
   15       -8.620575     -8.267314   1.000000   1.000000
   16       -3.100646     -1.613579   1.000000   1.000000
   17       -2.876717     -1.389884   1.000000   1.000000
   18       -2.249253     -0.714287   1.000000   1.000000
   19       -2.199277     -0.412360   1.000000   1.000000
   20       -1.887644     -0.156701   1.000000   1.000000
   21       -1.335724      0.120910   1.000000   1.000000
   22       -1.092748      0.762045   1.000000   1.000000
   23       -0.876651      0.970881   1.000000   1.000000
   24       -0.630423      1.010030   1.000000   1.000000
   25       -0.386817      1.393625   1.000000   1.000000
   26       -0.346391      1.727689   1.000000   1.000000
   27       -0.079488      1.907515   1.000000   1.000000
   28       -0.074136      3.011142   1.000000   1.000000
   29        0.114505      4.148058   1.000000   1.000000
   30        0.534056      4.620922   1.000000   1.000000
   31        0.539273      6.952789   1.000000   0.000000
   32        0.806595      7.249701   1.000000   0.000000
   33        0.815326      7.511583   1.000000   0.000000
   34        1.178532      7.967408   1.000000   0.000000
   35        1.400510      8.399905   1.000000   0.000000
   36        1.550061      8.450270   1.000000   0.000000
   37        1.808868      8.607333   1.000000   0.000000
   38        2.050881      8.685957   1.000000   0.000000
   39        2.513036      8.895981   1.000000   0.000000
   40        3.120790      9.453503   1.000000   0.000000
   41        3.129436      9.480496   1.000000   0.000000
   42        3.870499      9.615130   1.000000   0.000000
   43       10.564676     12.071685   0.000000   0.000000
   44       10.916140     12.080774   0.000000   0.000000
   45       11.379069     12.311196   0.000000   0.000000
   46       11.384519     12.344938   0.000000   0.000000
   47       11.625294     13.240756   0.000000   0.000000
   48       12.285642     13.422721   0.000000   0.000000
   49       13.029333     13.545466   0.000000   0.000000
   50       13.409792     14.160613   0.000000   0.000000
   51       14.160244     15.100740   0.000000   0.000000
   52       14.601360     15.181989   0.000000   0.000000
   53       14.829926     15.802542   0.000000   0.000000
   54       15.421039     16.033630   0.000000   0.000000
   55       16.241425     16.820560   0.000000   0.000000
   56       17.380796     18.250479   0.000000   0.000000

 -0.3333333E+00  0.2500000E+00  0.1261170E-14  0.2083333E-01
    1      -56.109835    -49.523186   1.000000   1.000000
    2      -56.108256    -49.519678   1.000000   1.000000
    3      -55.815047    -49.470149   1.000000   1.000000
    4      -54.816113    -49.448993   1.000000   1.000000
    5      -54.814425    -49.446771   1.000000   1.000000
    6      -54.493217    -49.443367   1.000000   1.000000
    7      -54.473051    -49.164346   1.000000   1.000000
    8      -54.323276    -49.156682   1.000000   1.000000
    9      -54.322139    -49.131685   1.000000   1.000000
   10      -43.565617    -43.571927   1.000000   1.000000
   11      -43.563651    -43.569980   1.000000   1.000000
   12      -16.033526    -15.534752   1.000000   1.000000
   13      -15.913338    -15.421663   1.000000   1.000000
   14       -9.110820     -8.772003   1.000000   1.000000
   15       -8.696249     -8.353161   1.000000   1.000000
   16       -3.001489     -1.390488   1.000000   1.000000
   17       -2.924476     -1.307471   1.000000   1.000000
   18       -2.109692     -0.799883   1.000000   1.000000
   19       -2.012297     -0.344990   1.000000   1.000000
   20       -1.738698     -0.208529   1.000000   1.000000
   21       -1.329631     -0.031421   1.000000   1.000000
   22       -1.066018      0.905441   1.000000   1.000000
   23       -0.939839      1.101525   1.000000   1.000000
   24       -0.638482      1.190353   1.000000   1.000000
   25       -0.385402      1.677099   1.000000   1.000000
   26       -0.279778      1.943872   1.000000   1.000000
   27       -0.120428      2.067444   1.000000   1.000000
   28        0.076061      3.036817   1.000000   1.000000
   29        0.319493      4.155494   1.000000   1.000000
   30        0.369124      4.624645   1.000000   1.000000
   31        0.483920      7.101312   1.000000   0.000000
   32        0.613159      7.355522   1.000000   0.000000
   33        0.756532      7.619074   1.000000   0.000000
   34        1.136807      7.981825   1.000000   0.000000
   35        1.401756      8.161729   1.000000   0.000000
   36        1.714131      8.411227   1.000000   0.000000
   37        2.046710      8.601220   1.000000   0.000000
   38        2.165138      8.723297   1.000000   0.000000
   39        2.599897      8.901690   1.000000   0.000000
   40        3.248977      9.361211   1.000000   0.000000
   41        3.381239      9.436585   1.000000   0.000000
   42        3.894585      9.651713   1.000000   0.000000
   43        9.934365     11.352816   0.000000   0.000000
   44       10.396374     11.854906   0.000000   0.000000
   45       11.131470     12.118450   0.000000   0.000000
   46       11.713528     12.979649   0.000000   0.000000
   47       12.173262     13.273482   0.000000   0.000000
   48       12.628405     13.460129   0.000000   0.000000
   49       13.030272     13.955098   0.000000   0.000000
   50       13.601133     14.182586   0.000000   0.000000
   51       13.998890     14.684812   0.000000   0.000000
   52       14.369580     15.021270   0.000000   0.000000
   53       14.542731     15.409147   0.000000   0.000000
   54       14.931136     15.707021   0.000000   0.000000
   55       16.875815     17.365884   0.000000   0.000000
   56       17.149068     17.607126   0.000000   0.000000
