 ----------------------------------------------------
    OOO  PPPP  EEEEE N   N M   M PPPP
   O   O P   P E     NN  N MM MM P   P
   O   O PPPP  EEEEE N N N M M M PPPP   -- VERSION
   O   O P     E     N  NN M   M P
    OOO  P     EEEEE N   N M   M P
 ----------------------------------------------------
 running 1280 mpi-ranks, with    1 threads/rank
 each image running on  256 cores
 distrk:  each k-point on   32 cores,    8 groups
 distr:  one band on    4 cores,    8 groups
 vasp.6.2.0 18Jan21 (build May  7 2021 14:06:14) complex                         
 POSCAR found type information on POSCAR FeLiO S 
 01/POSCAR found :  4 types and      95 ions
 scaLAPACK will be used
 -----------------------------------------------------------------------------
|                                                                             |
|               ----> ADVICE to this user running VASP <----                  |
|                                                                             |
|     You have a (more or less) 'large supercell' and for larger cells it     |
|     might be more efficient to use real-space projection operators.         |
|     Therefore, try LREAL= Auto in the INCAR file.                           |
|     Mind: For very accurate calculation, you might also keep the            |
|     reciprocal projection scheme (i.e. LREAL=.FALSE.).                      |
|                                                                             |
 -----------------------------------------------------------------------------

 LDA part: xc-table for Pade appr. of Perdew
 POSCAR found type information on POSCAR FeLiO S 
 00/POSCAR found :  4 types and      95 ions
 POSCAR found type information on POSCAR FeLiO S 
 06/POSCAR found :  4 types and      95 ions
 Jacobian:    23.154902702064952     
 POSCAR, INCAR and KPOINTS ok, starting setup
 FFT: planning ...
 WAVECAR not read
 entering main loop
       N       E                     dE             d eps       ncg     rms          rms(c)
DAV:   1     0.848657934342E+04    0.84866E+04   -0.31859E+05 16240   0.162E+03
DAV:   2     0.833162272963E+03   -0.76534E+04   -0.70160E+04 15616   0.462E+02
DAV:   3    -0.392132714306E+03   -0.12253E+04   -0.11613E+04 16952   0.192E+02
DAV:   4    -0.537106112901E+03   -0.14497E+03   -0.14210E+03 20680   0.496E+01
BRMIX: very serious problems
 the old and the new charge density differ
 old charge density:   669.00000 new  668.00001
DAV:   5    -0.555577473069E+03   -0.18471E+02   -0.18074E+02 27016   0.149E+01BRMIX: very serious problems
 the old and the new charge density differ
 old charge density:   669.00000 new  668.00001
BRMIX: very serious problems
 the old and the new charge density differ
 old charge density:   669.00000 new  668.00001
BRMIX: very serious problems
 the old and the new charge density differ
 old charge density:   669.00000 new  668.00001
BRMIX: very serious problems
 the old and the new charge density differ
 old charge density:   669.00000 new  668.00001
    0.944E+01
BRMIX: very serious problems
 the old and the new charge density differ
 old charge density:   669.00000 new  668.00001
BRMIX: very serious problems
 the old and the new charge density differ
 old charge density:   669.00000 new  668.00001
BRMIX: very serious problems
 the old and the new charge density differ
 old charge density:   669.00000 new  668.00001
BRMIX: very serious problems
 the old and the new charge density differ
 old charge density:   669.00000 new  668.00001
BRMIX: very serious problems
 the old and the new charge density differ
 old charge density:   669.00000 new  668.00001
BRMIX: very serious problems
 the old and the new charge density differ
 old charge density:   669.00000 new  668.00001
BRMIX: very serious problems
 the old and the new charge density differ
 old charge density:   669.00000 new  668.00001
BRMIX: very serious problems
 the old and the new charge density differ
 old charge density:   669.00000 new  668.00001
BRMIX: very serious problems
 the old and the new charge density differ
 old charge density:   669.00000 new  668.00001
BRMIX: very serious problems
 the old and the new charge density differ
 old charge density:   669.00000 new  668.00001
BRMIX: very serious problems
 the old and the new charge density differ
 old charge density:   669.00000 new  668.00001
BRMIX: very serious problems
 the old and the new charge density differ
 old charge density:   669.00000 new  668.00001
BRMIX: very serious problems
 the old and the new charge density differ
 old charge density:   669.00000 new  668.00001
BRMIX: very serious problems
 the old and the new charge density differ
 old charge density:   669.00000 new  668.00001
BRMIX: very serious problems
 the old and the new charge density differ
 old charge density:   669.00000 new  668.00001
BRMIX: very serious problems
 the old and the new charge density differ
 old charge density:   669.00000 new  668.00001
BRMIX: very serious problems
 the old and the new charge density differ
 old charge density:   669.00000 new  668.00001
BRMIX: very serious problems
 the old and the new charge density differ
 old charge density:   669.00000 new  668.00001
BRMIX: very serious problems
 the old and the new charge density differ
 old charge density:   669.00000 new  668.00001
BRMIX: very serious problems
 the old and the new charge density differ
 old charge density:   669.00000 new  668.00001
BRMIX: very serious problems
 the old and the new charge density differ
 old charge density:   669.00000 new  668.00001
BRMIX: very serious problems
 the old and the new charge density differ
 old charge density:   669.00000 new  668.00001
BRMIX: very serious problems
 the old and the new charge density differ
 old charge density:   669.00000 new  668.00001
BRMIX: very serious problems
 the old and the new charge density differ
 old charge density:   669.00000 new  668.00001
BRMIX: very serious problems
 the old and the new charge density differ
 old charge density:   669.00000 new  668.00001
BRMIX: very serious problems
 the old and the new charge density differ
 old charge density:   669.00000 new  668.00001
BRMIX: very serious problems
 the old and the new charge density differ
 old charge density:   669.00000 new  668.00001
BRMIX: very serious problems
 the old and the new charge density differ
 old charge density:   669.00000 new  668.00001
BRMIX: very serious problems
 the old and the new charge density differ
 old charge density:   669.00000 new  668.00001
BRMIX: very serious problems
 the old and the new charge density differ
 old charge density:   669.00000 new  668.00001
BRMIX: very serious problems
 the old and the new charge density differ
 old charge density:   669.00000 new  668.00001
DAV:   6    -0.471472948043E+03    0.84105E+02   -0.56613E+02 19392   0.706E+01    0.122E+02
DAV:   7    -0.493787326472E+03   -0.22314E+02   -0.25928E+02 18752   0.419E+01    0.923E+01
DAV:   8    -0.477039822584E+03    0.16748E+02   -0.73963E+01 19632   0.324E+01    0.424E+01
DAV:   9    -0.487450617928E+03   -0.10411E+02   -0.33016E+01 20016   0.267E+01    0.419E+01
DAV:  10    -0.491719918146E+03   -0.42693E+01   -0.20354E+01 18552   0.190E+01    0.283E+01
DAV:  11    -0.494273669780E+03   -0.25538E+01   -0.84757E+00 18888   0.142E+01    0.235E+01
DAV:  12    -0.495480888209E+03   -0.12072E+01   -0.49642E+00 18968   0.610E+00    0.129E+01
DAV:  13    -0.496215322135E+03   -0.73443E+00   -0.13871E+00 19720   0.498E+00    0.818E+00
DAV:  14    -0.496553848529E+03   -0.33853E+00   -0.73989E-01 20080   0.297E+00    0.496E+00
DAV:  15    -0.496797917300E+03   -0.24407E+00   -0.32168E-01 20984   0.213E+00    0.265E+00
DAV:  16    -0.496938106001E+03   -0.14019E+00   -0.20128E-01 20664   0.158E+00    0.150E+00
DAV:  17    -0.496975909789E+03   -0.37804E-01   -0.13266E-01 20296   0.697E-01    0.101E+00
DAV:  18    -0.496981244735E+03   -0.53349E-02   -0.20150E-02 20208   0.422E-01    0.656E-01
DAV:  19    -0.496985502011E+03   -0.42573E-02   -0.32535E-03 20960   0.191E-01    0.512E-01
DAV:  20    -0.496990822006E+03   -0.53200E-02   -0.23149E-03 20696   0.199E-01    0.380E-01
DAV:  21    -0.496996961576E+03   -0.61396E-02   -0.30026E-03 19872   0.250E-01    0.299E-01
DAV:  22    -0.497000961999E+03   -0.40004E-02   -0.32949E-03 20368   0.182E-01    0.263E-01
DAV:  23    -0.497004170717E+03   -0.32087E-02   -0.14580E-03 20824   0.161E-01    0.215E-01
DAV:  24    -0.497008113390E+03   -0.39427E-02   -0.28110E-03 19784   0.252E-01    0.177E-01
DAV:  25    -0.497010721978E+03   -0.26086E-02   -0.36818E-03 19808   0.178E-01    0.149E-01
DAV:  26    -0.497012481267E+03   -0.17593E-02   -0.14170E-03 19808   0.143E-01    0.121E-01
DAV:  27    -0.497013974635E+03   -0.14934E-02   -0.14481E-03 19512   0.161E-01    0.102E-01
DAV:  28    -0.497015072060E+03   -0.10974E-02   -0.19840E-03 19920   0.161E-01    0.813E-02
DAV:  29    -0.497015822962E+03   -0.75090E-03   -0.15947E-03 19192   0.962E-02    0.637E-02
DAV:  30    -0.497016212270E+03   -0.38931E-03   -0.44998E-04 19224   0.549E-02    0.538E-02
DAV:  31    -0.497016501597E+03   -0.28933E-03   -0.27368E-04 20888   0.797E-02    0.460E-02
DAV:  32    -0.497016691787E+03   -0.19019E-03   -0.40153E-04 19696   0.594E-02    0.404E-02
DAV:  33    -0.497016822440E+03   -0.13065E-03   -0.15053E-04 18920   0.374E-02    0.340E-02
DAV:  34    -0.497016927639E+03   -0.10520E-03   -0.93638E-05 19008   0.384E-02    0.275E-02
DAV:  35    -0.497017036831E+03   -0.10919E-03   -0.20129E-04 19440   0.627E-02    0.235E-02
DAV:  36    -0.497017100197E+03   -0.63366E-04   -0.22066E-04 19264   0.373E-02    0.204E-02
DAV:  37    -0.497017126036E+03   -0.25839E-04   -0.68701E-05 17240   0.150E-02    0.156E-02
DAV:  38    -0.497017140337E+03   -0.14301E-04   -0.11485E-05 18232   0.155E-02    0.108E-02
DAV:  39    -0.497017152645E+03   -0.12308E-04   -0.38881E-05 19232   0.266E-02    0.920E-03
DAV:  40    -0.497017160448E+03   -0.78026E-05   -0.38531E-05 19232   0.181E-02    0.674E-03
DAV:  41    -0.497017165098E+03   -0.46507E-05   -0.11713E-05 15352   0.690E-03    0.521E-03
DAV:  42    -0.497017166338E+03   -0.12393E-05   -0.81928E-07  9464   0.345E-03    0.425E-03
DAV:  43    -0.497017167468E+03   -0.11307E-05   -0.10237E-06 10336   0.380E-03    0.378E-03
DAV:  44    -0.497017168714E+03   -0.12456E-05   -0.18412E-06 12744   0.533E-03    0.299E-03
DAV:  45    -0.497017169851E+03   -0.11366E-05   -0.19146E-06 11352   0.409E-03    0.252E-03
DAV:  46    -0.497017170651E+03   -0.80015E-06   -0.13188E-06 10368   0.472E-03
   1 F= -.49701717E+03 E0= -.49701136E+03  d E =-.497017E+03  mag=    93.9999
quench:  g(F)=  0.000E+00 g(S)=  0.000E+00 dE (1.order)= 0.000E+00
 bond charge predicted
       N       E                     dE             d eps       ncg     rms          rms(c)
DAV:   1    -0.497009144549E+03    0.80253E-02   -0.19328E+00 19664   0.587E+00    0.111E+00
DAV:   2    -0.497068506341E+03   -0.59362E-01   -0.54716E-01 16744   0.991E-01    0.552E-01
DAV:   3    -0.497071412384E+03   -0.29060E-02   -0.17276E-02 20608   0.225E-01    0.221E-01
DAV:   4    -0.497071443785E+03   -0.31402E-04   -0.13154E-03 22512   0.499E-02    0.152E-01
DAV:   5    -0.497071383342E+03    0.60444E-04   -0.11873E-04 21312   0.460E-02    0.767E-02
DAV:   6    -0.497071396211E+03   -0.12869E-04   -0.95055E-05 21976   0.255E-02    0.234E-02
DAV:   7    -0.497071400759E+03   -0.45487E-05   -0.27499E-05 18328   0.970E-03    0.159E-02
DAV:   8    -0.497071401902E+03   -0.11424E-05   -0.38428E-06 16960   0.422E-03    0.100E-02
DAV:   9    -0.497071402879E+03   -0.97742E-06   -0.82724E-07  9976   0.388E-03
   2 F= -.49707140E+03 E0= -.49706555E+03  d E =-.542322E-01  mag=    94.0000
quench:  g(F)=  0.000E+00 g(S)=  0.000E+00 dE (1.order)= 0.000E+00
 bond charge predicted
       N       E                     dE             d eps       ncg     rms          rms(c)
DAV:   1    -0.496924654030E+03    0.14675E+00   -0.75636E+00 19576   0.115E+01    0.217E+00
DAV:   2    -0.497154339526E+03   -0.22969E+00   -0.21166E+00 16760   0.193E+00    0.112E+00
DAV:   3    -0.497165190010E+03   -0.10850E-01   -0.63898E-02 20504   0.446E-01    0.451E-01
DAV:   4    -0.497165338205E+03   -0.14820E-03   -0.53285E-03 22248   0.105E-01    0.306E-01
DAV:   5    -0.497165093042E+03    0.24516E-03   -0.48598E-04 21424   0.883E-02    0.152E-01
DAV:   6    -0.497165140806E+03   -0.47764E-04   -0.36830E-04 21808   0.529E-02    0.500E-02
DAV:   7    -0.497165163139E+03   -0.22333E-04   -0.11844E-04 18416   0.195E-02    0.336E-02
DAV:   8    -0.497165169037E+03   -0.58984E-05   -0.14761E-05 22016   0.797E-03    0.208E-02
DAV:   9    -0.497165175173E+03   -0.61353E-05   -0.43074E-06 17400   0.847E-03    0.136E-02
DAV:  10    -0.497165181295E+03   -0.61223E-05   -0.54141E-06 17520   0.598E-03    0.108E-02
DAV:  11    -0.497165185003E+03   -0.37082E-05   -0.18227E-06 11624   0.333E-03    0.959E-03
DAV:  12    -0.497165191804E+03   -0.68007E-05   -0.24705E-06 13560   0.727E-03    0.821E-03
DAV:  13    -0.497165200341E+03   -0.85376E-05   -0.17843E-05 19208   0.181E-02    0.529E-03
DAV:  14    -0.497165204932E+03   -0.45911E-05   -0.15954E-05 18704   0.101E-02    0.380E-03
DAV:  15    -0.497165206839E+03   -0.19067E-05   -0.37401E-06 13480   0.332E-03    0.311E-03
DAV:  16    -0.497165207199E+03   -0.35997E-06   -0.15055E-07  8520   0.127E-03
   3 F= -.49716521E+03 E0= -.49715925E+03  d E =-.938043E-01  mag=    94.0000
quench:  g(F)=  0.000E+00 g(S)=  0.000E+00 dE (1.order)= 0.000E+00
 bond charge predicted
       N       E                     dE             d eps       ncg     rms          rms(c)
DAV:   1    -0.496765101395E+03    0.40011E+00   -0.15899E+01 19576   0.164E+01    0.313E+00
DAV:   2    -0.497243634542E+03   -0.47853E+00   -0.44075E+00 16624   0.275E+00    0.171E+00
DAV:   3    -0.497267494149E+03   -0.23860E-01   -0.14729E-01 20488   0.679E-01    0.680E-01
DAV:   4    -0.497267822346E+03   -0.32820E-03   -0.11358E-02 21928   0.161E-01    0.448E-01
DAV:   5    -0.497267283921E+03    0.53843E-03   -0.10930E-03 21384   0.124E-01    0.218E-01
DAV:   6    -0.497267364147E+03   -0.80226E-04   -0.76302E-04 21824   0.762E-02    0.719E-02
DAV:   7    -0.497267406191E+03   -0.42044E-04   -0.24388E-04 18248   0.278E-02    0.482E-02
DAV:   8    -0.497267413174E+03   -0.69833E-05   -0.28785E-05 22536   0.104E-02    0.283E-02
DAV:   9    -0.497267419659E+03   -0.64852E-05   -0.81127E-06 19520   0.108E-02    0.171E-02
DAV:  10    -0.497267427097E+03   -0.74378E-05   -0.80276E-06 19168   0.704E-03    0.126E-02
DAV:  11    -0.497267431618E+03   -0.45211E-05   -0.23193E-06 12840   0.368E-03    0.111E-02
DAV:  12    -0.497267438736E+03   -0.71176E-05   -0.19137E-06 12488   0.618E-03    0.990E-03
DAV:  13    -0.497267451351E+03   -0.12615E-04   -0.17391E-05 19128   0.184E-02    0.690E-03
DAV:  14    -0.497267458306E+03   -0.69547E-05   -0.22757E-05 19560   0.147E-02    0.513E-03
DAV:  15    -0.497267461855E+03   -0.35489E-05   -0.75440E-06 14944   0.460E-03    0.398E-03
DAV:  16    -0.497267462759E+03   -0.90442E-06   -0.42516E-07  8928   0.207E-03
   4 F= -.49726746E+03 E0= -.49726134E+03  d E =-.102256E+00  mag=    94.0000
quench:  g(F)=  0.000E+00 g(S)=  0.000E+00 dE (1.order)= 0.000E+00
 bond charge predicted
       N       E                     dE             d eps       ncg     rms          rms(c)
DAV:   1    -0.496544243421E+03    0.72322E+00   -0.25030E+01 19584   0.204E+01    0.395E+00
DAV:   2    -0.497305678445E+03   -0.76144E+00   -0.70093E+00 16632   0.345E+00    0.227E+00
DAV:   3    -0.497342699632E+03   -0.37021E-01   -0.22566E-01 19976   0.882E-01    0.892E-01
DAV:   4    -0.497343398705E+03   -0.69907E-03   -0.19166E-02 21616   0.211E-01    0.567E-01
DAV:   5    -0.497342530776E+03    0.86793E-03   -0.18204E-03 21792   0.152E-01    0.275E-01
DAV:   6    -0.497342639067E+03   -0.10829E-03   -0.12350E-03 22008   0.955E-02    0.910E-02
DAV:   7    -0.497342707254E+03   -0.68187E-04   -0.40281E-04 18520   0.348E-02    0.590E-02
DAV:   8    -0.497342716080E+03   -0.88259E-05   -0.44805E-05 23056   0.121E-02    0.349E-02
DAV:   9    -0.497342723576E+03   -0.74957E-05   -0.11787E-05 19928   0.126E-02    0.206E-02
DAV:  10    -0.497342732927E+03   -0.93512E-05   -0.10571E-05 19856   0.811E-03    0.144E-02
DAV:  11    -0.497342738925E+03   -0.59985E-05   -0.31064E-06 14416   0.430E-03    0.126E-02
DAV:  12    -0.497342747101E+03   -0.81756E-05   -0.20356E-06 12648   0.597E-03    0.114E-02
DAV:  13    -0.497342763912E+03   -0.16811E-04   -0.17935E-05 19104   0.192E-02    0.835E-03
DAV:  14    -0.497342774009E+03   -0.10097E-04   -0.29870E-05 19424   0.183E-02    0.628E-03
DAV:  15    -0.497342779288E+03   -0.52787E-05   -0.12115E-05 16040   0.591E-03    0.477E-03
DAV:  16    -0.497342780843E+03   -0.15557E-05   -0.90755E-07  9792   0.281E-03    0.385E-03
DAV:  17    -0.497342782342E+03   -0.14989E-05   -0.18733E-06 13016   0.567E-03    0.326E-03
DAV:  18    -0.497342783351E+03   -0.10085E-05   -0.22692E-06 12728   0.375E-03    0.287E-03
DAV:  19    -0.497342783995E+03   -0.64448E-06   -0.58798E-07 10000   0.193E-03
   5 F= -.49734278E+03 E0= -.49733647E+03  d E =-.753212E-01  mag=    94.0000
quench:  g(F)=  0.000E+00 g(S)=  0.000E+00 dE (1.order)= 0.000E+00
 bond charge predicted
       N       E                     dE             d eps       ncg     rms          rms(c)
DAV:   1    -0.496285514463E+03    0.10573E+01   -0.33057E+01 19592   0.237E+01    0.460E+00
DAV:   2    -0.497319160421E+03   -0.10336E+01   -0.95049E+00 16408   0.405E+00    0.277E+00
DAV:   3    -0.497372551064E+03   -0.53391E-01   -0.34006E-01 19992   0.109E+00    0.108E+00
DAV:   4    -0.497373047673E+03   -0.49661E-03   -0.21219E-02 21944   0.243E-01    0.656E-01
DAV:   5    -0.497371870032E+03    0.11776E-02   -0.25002E-03 21776   0.175E-01    0.310E-01
DAV:   6    -0.497372022479E+03   -0.15245E-03   -0.17098E-03 22248   0.109E-01    0.101E-01
DAV:   7    -0.497372100677E+03   -0.78198E-04   -0.50213E-04 18456   0.397E-02    0.648E-02
DAV:   8    -0.497372110067E+03   -0.93899E-05   -0.54846E-05 22592   0.130E-02    0.372E-02
DAV:   9    -0.497372115856E+03   -0.57892E-05   -0.13403E-05 20160   0.135E-02    0.215E-02
DAV:  10    -0.497372124700E+03   -0.88432E-05   -0.11017E-05 19616   0.811E-03    0.144E-02
DAV:  11    -0.497372130919E+03   -0.62196E-05   -0.31477E-06 14528   0.451E-03    0.125E-02
DAV:  12    -0.497372138587E+03   -0.76680E-05   -0.18936E-06 12136   0.549E-03    0.113E-02
DAV:  13    -0.497372154639E+03   -0.16051E-04   -0.13428E-05 19072   0.169E-02    0.864E-03
DAV:  14    -0.497372165568E+03   -0.10929E-04   -0.26505E-05 19168   0.185E-02    0.657E-03
DAV:  15    -0.497372171078E+03   -0.55109E-05   -0.12300E-05 16672   0.659E-03    0.500E-03
DAV:  16    -0.497372173165E+03   -0.20865E-05   -0.11983E-06 10384   0.391E-03    0.392E-03
DAV:  17    -0.497372174722E+03   -0.15572E-05   -0.25026E-06 14248   0.605E-03    0.322E-03
DAV:  18    -0.497372175722E+03   -0.99992E-06   -0.24219E-06 12120   0.377E-03
   6 F= -.49737218E+03 E0= -.49736568E+03  d E =-.293917E-01  mag=    94.0000
quench:  g(F)=  0.000E+00 g(S)=  0.000E+00 dE (1.order)= 0.000E+00
 bond charge predicted
       N       E                     dE             d eps       ncg     rms          rms(c)
DAV:   1    -0.496211940729E+03    0.11602E+01   -0.34841E+01 19600   0.248E+01    0.473E+00
DAV:   2    -0.497309336416E+03   -0.10974E+01   -0.10083E+01 16304   0.424E+00    0.289E+00
DAV:   3    -0.497365130774E+03   -0.55794E-01   -0.35341E-01 20200   0.115E+00    0.113E+00
DAV:   4    -0.497365807009E+03   -0.67623E-03   -0.22290E-02 21880   0.253E-01    0.667E-01
DAV:   5    -0.497364599600E+03    0.12074E-02   -0.25861E-03 21448   0.180E-01    0.315E-01
DAV:   6    -0.497364761956E+03   -0.16236E-03   -0.18651E-03 22216   0.113E-01    0.999E-02
DAV:   7    -0.497364842380E+03   -0.80424E-04   -0.53132E-04 18504   0.416E-02    0.622E-02
DAV:   8    -0.497364852925E+03   -0.10545E-04   -0.54292E-05 22384   0.121E-02    0.359E-02
DAV:   9    -0.497364859532E+03   -0.66068E-05   -0.12739E-05 20144   0.132E-02    0.212E-02
DAV:  10    -0.497364868449E+03   -0.89176E-05   -0.97039E-06 19344   0.809E-03    0.141E-02
DAV:  11    -0.497364875208E+03   -0.67587E-05   -0.31815E-06 14280   0.485E-03    0.123E-02
DAV:  12    -0.497364883039E+03   -0.78305E-05   -0.19299E-06 11768   0.562E-03    0.112E-02
DAV:  13    -0.497364899013E+03   -0.15974E-04   -0.12951E-05 19688   0.169E-02    0.879E-03
DAV:  14    -0.497364910038E+03   -0.11025E-04   -0.24874E-05 19600   0.185E-02    0.660E-03
DAV:  15    -0.497364915649E+03   -0.56108E-05   -0.12185E-05 16936   0.711E-03    0.506E-03
DAV:  16    -0.497364917910E+03   -0.22619E-05   -0.14577E-06 10608   0.433E-03    0.392E-03
DAV:  17    -0.497364919478E+03   -0.15677E-05   -0.27228E-06 14392   0.642E-03    0.316E-03
DAV:  18    -0.497364920474E+03   -0.99609E-06   -0.26561E-06 12504   0.395E-03
   7 F= -.49736492E+03 E0= -.49735831E+03  d E =0.725525E-02  mag=    94.0000
quench:  g(F)=  0.000E+00 g(S)=  0.000E+00 dE (1.order)= 0.000E+00
 bond charge predicted
       N       E                     dE             d eps       ncg     rms          rms(c)
DAV:   1    -0.497367201430E+03   -0.22820E-02   -0.20335E-02 20368   0.549E-01    0.871E-02
DAV:   2    -0.497367592208E+03   -0.39078E-03   -0.36644E-03 17008   0.973E-02    0.450E-02
DAV:   3    -0.497367611078E+03   -0.18870E-04   -0.14490E-04 21048   0.235E-02    0.245E-02
DAV:   4    -0.497367611468E+03   -0.38942E-06   -0.13289E-05 20176   0.554E-03    0.138E-02
DAV:   5    -0.497367610970E+03    0.49776E-06   -0.14031E-06 12336   0.398E-03
   8 F= -.49736761E+03 E0= -.49736100E+03  d E =-.269050E-02  mag=    94.0000
quench:  g(F)=  0.000E+00 g(S)=  0.000E+00 dE (1.order)= 0.000E+00
 bond charge predicted
       N       E                     dE             d eps       ncg     rms          rms(c)
DAV:   1    -0.497371271112E+03   -0.36596E-02   -0.79695E-02 20248   0.108E+00    0.172E-01
DAV:   2    -0.497372788809E+03   -0.15177E-02   -0.14244E-02 17088   0.192E-01    0.889E-02
DAV:   3    -0.497372861808E+03   -0.72999E-04   -0.56372E-04 21216   0.463E-02    0.485E-02
DAV:   4    -0.497372863241E+03   -0.14334E-05   -0.51992E-05 20968   0.109E-02    0.273E-02
DAV:   5    -0.497372861035E+03    0.22058E-05   -0.59127E-06 18384   0.759E-03    0.150E-02
DAV:   6    -0.497372861343E+03   -0.30734E-06   -0.38337E-06 16392   0.487E-03
   9 F= -.49737286E+03 E0= -.49736625E+03  d E =-.525037E-02  mag=    94.0000
quench:  g(F)=  0.000E+00 g(S)=  0.000E+00 dE (1.order)= 0.000E+00
 bond charge predicted
       N       E                     dE             d eps       ncg     rms          rms(c)
DAV:   1    -0.497376913625E+03   -0.40526E-02   -0.17267E-01 20040   0.159E+00    0.251E-01
DAV:   2    -0.497380151411E+03   -0.32378E-02   -0.30429E-02 17128   0.282E-01    0.131E-01
DAV:   3    -0.497380306436E+03   -0.15502E-03   -0.12095E-03 21280   0.684E-02    0.709E-02
DAV:   4    -0.497380309296E+03   -0.28599E-05   -0.11054E-04 21320   0.159E-02    0.395E-02
DAV:   5    -0.497380304443E+03    0.48526E-05   -0.12375E-05 20112   0.110E-02    0.220E-02
DAV:   6    -0.497380305099E+03   -0.65622E-06   -0.82885E-06 18968   0.716E-03
  10 F= -.49738031E+03 E0= -.49737371E+03  d E =-.744376E-02  mag=    94.0000
quench:  g(F)=  0.000E+00 g(S)=  0.000E+00 dE (1.order)= 0.000E+00
 bond charge predicted
       N       E                     dE             d eps       ncg     rms          rms(c)
DAV:   1    -0.497383831203E+03   -0.35268E-02   -0.28949E-01 19840   0.204E+00    0.322E-01
DAV:   2    -0.497389159556E+03   -0.53284E-02   -0.50170E-02 17224   0.365E-01    0.168E-01
DAV:   3    -0.497389402601E+03   -0.24305E-03   -0.19001E-03 21296   0.875E-02    0.908E-02
DAV:   4    -0.497389406936E+03   -0.43348E-05   -0.18015E-04 21608   0.205E-02    0.506E-02
DAV:   5    -0.497389398893E+03    0.80433E-05   -0.20277E-05 20344   0.142E-02    0.283E-02
DAV:   6    -0.497389400247E+03   -0.13540E-05   -0.14008E-05 20072   0.937E-03    0.104E-02
DAV:   7    -0.497389401122E+03   -0.87505E-06   -0.38977E-06 15792   0.384E-03
  11 F= -.49738940E+03 E0= -.49738282E+03  d E =-.909602E-02  mag=    94.0000
quench:  g(F)=  0.000E+00 g(S)=  0.000E+00 dE (1.order)= 0.000E+00
 bond charge predicted
       N       E                     dE             d eps       ncg     rms          rms(c)
DAV:   1    -0.497391711896E+03   -0.23116E-02   -0.42075E-01 19744   0.243E+00    0.382E-01
DAV:   2    -0.497399143827E+03   -0.74319E-02   -0.70027E-02 17192   0.436E-01    0.201E-01
DAV:   3    -0.497399488729E+03   -0.34490E-03   -0.27079E-03 21504   0.105E-01    0.106E-01
DAV:   4    -0.497399492496E+03   -0.37666E-05   -0.24293E-04 21704   0.245E-02    0.596E-02
DAV:   5    -0.497399480647E+03    0.11849E-04   -0.29102E-05 20536   0.171E-02    0.337E-02
DAV:   6    -0.497399482722E+03   -0.20756E-05   -0.20225E-05 20384   0.114E-02    0.125E-02
DAV:   7    -0.497399484121E+03   -0.13986E-05   -0.58110E-06 17120   0.469E-03    0.763E-03
DAV:   8    -0.497399484778E+03   -0.65735E-06   -0.10793E-06  9896   0.244E-03
  12 F= -.49739948E+03 E0= -.49739292E+03  d E =-.100837E-01  mag=    94.0000
quench:  g(F)=  0.000E+00 g(S)=  0.000E+00 dE (1.order)= 0.000E+00
 bond charge predicted
       N       E                     dE             d eps       ncg     rms          rms(c)
DAV:   1    -0.497399702521E+03   -0.21840E-03   -0.55412E-01 19520   0.277E+00    0.433E-01
DAV:   2    -0.497409439493E+03   -0.97370E-02   -0.92144E-02 17384   0.502E-01    0.229E-01
DAV:   3    -0.497409859866E+03   -0.42037E-03   -0.33885E-03 21720   0.120E-01    0.121E-01
DAV:   4    -0.497409863953E+03   -0.40877E-05   -0.31321E-04 21520   0.278E-02    0.683E-02
DAV:   5    -0.497409846878E+03    0.17075E-04   -0.36725E-05 20800   0.200E-02    0.390E-02
DAV:   6    -0.497409849529E+03   -0.26505E-05   -0.27605E-05 20656   0.137E-02    0.143E-02
DAV:   7    -0.497409851532E+03   -0.20038E-05   -0.81400E-06 17816   0.552E-03    0.885E-03
DAV:   8    -0.497409852516E+03   -0.98377E-06   -0.13711E-06 10584   0.280E-03
  13 F= -.49740985E+03 E0= -.49740331E+03  d E =-.103677E-01  mag=    94.0000
quench:  g(F)=  0.000E+00 g(S)=  0.000E+00 dE (1.order)= 0.000E+00
 bond charge predicted
       N       E                     dE             d eps       ncg     rms          rms(c)
DAV:   1    -0.497405359725E+03    0.44918E-02   -0.84994E-01 19344   0.343E+00    0.534E-01
DAV:   2    -0.497420186853E+03   -0.14827E-01   -0.14057E-01 17416   0.624E-01    0.283E-01
DAV:   3    -0.497420843578E+03   -0.65672E-03   -0.53834E-03 21792   0.150E-01    0.146E-01
DAV:   4    -0.497420847715E+03   -0.41365E-05   -0.45796E-04 21656   0.345E-02    0.839E-02
DAV:   5    -0.497420819787E+03    0.27928E-04   -0.54955E-05 21008   0.251E-02    0.482E-02
DAV:   6    -0.497420823490E+03   -0.37033E-05   -0.43032E-05 21000   0.174E-02    0.176E-02
DAV:   7    -0.497420826585E+03   -0.30951E-05   -0.12996E-05 18488   0.687E-03    0.109E-02
DAV:   8    -0.497420828119E+03   -0.15343E-05   -0.19814E-06 11632   0.334E-03    0.802E-03
DAV:   9    -0.497420829815E+03   -0.16958E-05   -0.74081E-07  9520   0.350E-03    0.637E-03
DAV:  10    -0.497420831820E+03   -0.20048E-05   -0.11246E-06  9960   0.381E-03    0.539E-03
DAV:  11    -0.497420833104E+03   -0.12839E-05   -0.94989E-07  9936   0.248E-03    0.488E-03
DAV:  12    -0.497420834885E+03   -0.17811E-05   -0.40988E-07  8560   0.401E-03    0.430E-03
DAV:  13    -0.497420837646E+03   -0.27613E-05   -0.72784E-06 16768   0.124E-02    0.304E-03
DAV:  14    -0.497420839297E+03   -0.16509E-05   -0.75747E-06 17016   0.847E-03    0.220E-03
DAV:  15    -0.497420840236E+03   -0.93920E-06   -0.22262E-06 11536   0.272E-03
  14 F= -.49742084E+03 E0= -.49741433E+03  d E =-.109877E-01  mag=    94.0000
quench:  g(F)=  0.000E+00 g(S)=  0.000E+00 dE (1.order)= 0.000E+00
 bond charge predicted
       N       E                     dE             d eps       ncg     rms          rms(c)
DAV:   1    -0.497407613186E+03    0.13226E-01   -0.12735E+00 19224   0.423E+00    0.662E-01
DAV:   2    -0.497430385220E+03   -0.22772E-01   -0.21561E-01 17520   0.769E-01    0.351E-01
DAV:   3    -0.497431358242E+03   -0.97302E-03   -0.77152E-03 21808   0.182E-01    0.173E-01
DAV:   4    -0.497431359766E+03   -0.15244E-05   -0.65043E-04 21816   0.418E-02    0.103E-01
DAV:   5    -0.497431311654E+03    0.48113E-04   -0.78609E-05 21240   0.311E-02    0.585E-02
DAV:   6    -0.497431313090E+03   -0.14359E-05   -0.64333E-05 21104   0.214E-02    0.198E-02
DAV:   7    -0.497431316113E+03   -0.30232E-05   -0.19453E-05 19048   0.811E-03    0.115E-02
DAV:   8    -0.497431316962E+03   -0.84967E-06   -0.23293E-06 12512   0.311E-03
  15 F= -.49743132E+03 E0= -.49742485E+03  d E =-.104767E-01  mag=    94.0000
quench:  g(F)=  0.000E+00 g(S)=  0.000E+00 dE (1.order)= 0.000E+00
 bond charge predicted
       N       E                     dE             d eps       ncg     rms          rms(c)
DAV:   1    -0.497401778126E+03    0.29538E-01   -0.19058E+00 19224   0.531E+00    0.845E-01
DAV:   2    -0.497438246978E+03   -0.36469E-01   -0.34305E-01 17528   0.954E-01    0.446E-01
DAV:   3    -0.497439852935E+03   -0.16060E-02   -0.11679E-02 21800   0.223E-01    0.206E-01
DAV:   4    -0.497439859222E+03   -0.62873E-05   -0.97322E-04 22056   0.506E-02    0.128E-01
DAV:   5    -0.497439787652E+03    0.71570E-04   -0.11087E-04 21280   0.399E-02    0.727E-02
DAV:   6    -0.497439792838E+03   -0.51859E-05   -0.98130E-05 21312   0.282E-02    0.238E-02
DAV:   7    -0.497439798727E+03   -0.58888E-05   -0.31742E-05 18776   0.104E-02    0.153E-02
DAV:   8    -0.497439801021E+03   -0.22946E-05   -0.32175E-06 14912   0.393E-03    0.107E-02
DAV:   9    -0.497439803613E+03   -0.25918E-05   -0.12765E-06 10544   0.497E-03    0.785E-03
DAV:  10    -0.497439806271E+03   -0.26582E-05   -0.18688E-06 11664   0.432E-03    0.645E-03
DAV:  11    -0.497439807895E+03   -0.16235E-05   -0.11836E-06 10504   0.270E-03    0.586E-03
DAV:  12    -0.497439810217E+03   -0.23219E-05   -0.53535E-07  8672   0.429E-03    0.522E-03
DAV:  13    -0.497439813961E+03   -0.37444E-05   -0.73367E-06 16896   0.123E-02    0.384E-03
DAV:  14    -0.497439816130E+03   -0.21686E-05   -0.86357E-06 17664   0.994E-03    0.278E-03
DAV:  15    -0.497439817453E+03   -0.13236E-05   -0.30487E-06 12568   0.312E-03    0.212E-03
DAV:  16    -0.497439817686E+03   -0.23327E-06   -0.20161E-07  8336   0.983E-04
  16 F= -.49743982E+03 E0= -.49743340E+03  d E =-.850072E-02  mag=    94.0000
quench:  g(F)=  0.000E+00 g(S)=  0.000E+00 dE (1.order)= 0.000E+00
 bond charge predicted
       N       E                     dE             d eps       ncg     rms          rms(c)
DAV:   1    -0.497380122417E+03    0.59695E-01   -0.29171E+00 19440   0.683E+00    0.111E+00
DAV:   2    -0.497441849975E+03   -0.61728E-01   -0.57520E-01 17344   0.120E+00    0.582E-01
DAV:   3    -0.497444743593E+03   -0.28936E-02   -0.19353E-02 21528   0.279E-01    0.250E-01
DAV:   4    -0.497444761575E+03   -0.17983E-04   -0.15393E-03 22200   0.636E-02    0.162E-01
DAV:   5    -0.497444652279E+03    0.10930E-03   -0.17082E-04 21488   0.515E-02    0.882E-02
DAV:   6    -0.497444659034E+03   -0.67555E-05   -0.14623E-04 21792   0.339E-02    0.269E-02
DAV:   7    -0.497444665999E+03   -0.69643E-05   -0.46267E-05 18896   0.126E-02    0.175E-02
DAV:   8    -0.497444667597E+03   -0.15985E-05   -0.38728E-06 17208   0.382E-03    0.114E-02
DAV:   9    -0.497444669174E+03   -0.15772E-05   -0.12027E-06 10904   0.500E-03    0.737E-03
DAV:  10    -0.497444670840E+03   -0.16660E-05   -0.18105E-06 11096   0.351E-03    0.543E-03
DAV:  11    -0.497444671892E+03   -0.10514E-05   -0.74822E-07  9624   0.217E-03    0.497E-03
DAV:  12    -0.497444673142E+03   -0.12499E-05   -0.29353E-07  8584   0.265E-03    0.451E-03
DAV:  13    -0.497444675439E+03   -0.22978E-05   -0.22435E-06 12176   0.714E-03    0.359E-03
DAV:  14    -0.497444677134E+03   -0.16945E-05   -0.55171E-06 15992   0.904E-03    0.264E-03
DAV:  15    -0.497444678201E+03   -0.10669E-05   -0.28092E-06 11976   0.330E-03    0.198E-03
DAV:  16    -0.497444678493E+03   -0.29262E-06   -0.29792E-07  8368   0.128E-03
  17 F= -.49744468E+03 E0= -.49743831E+03  d E =-.486081E-02  mag=    94.0000
quench:  g(F)=  0.000E+00 g(S)=  0.000E+00 dE (1.order)= 0.000E+00
 bond charge predicted
       N       E                     dE             d eps       ncg     rms          rms(c)
DAV:   1    -0.497330989155E+03    0.11369E+00   -0.45730E+00 19736   0.890E+00    0.148E+00
DAV:   2    -0.497438930326E+03   -0.10794E+00   -0.99820E-01 16888   0.154E+00    0.774E-01
DAV:   3    -0.497444463028E+03   -0.55327E-02   -0.35945E-02 21528   0.362E-01    0.314E-01
DAV:   4    -0.497444538293E+03   -0.75265E-04   -0.27702E-03 22440   0.820E-02    0.210E-01
DAV:   5    -0.497444381706E+03    0.15659E-03   -0.25987E-04 21152   0.651E-02    0.110E-01
DAV:   6    -0.497444395710E+03   -0.14004E-04   -0.22295E-04 22176   0.428E-02    0.322E-02
DAV:   7    -0.497444406275E+03   -0.10565E-04   -0.71539E-05 18840   0.159E-02    0.220E-02
DAV:   8    -0.497444408319E+03   -0.20440E-05   -0.59626E-06 19752   0.465E-03    0.140E-02
DAV:   9    -0.497444410382E+03   -0.20634E-05   -0.17357E-06 12584   0.602E-03    0.888E-03
DAV:  10    -0.497444412568E+03   -0.21862E-05   -0.22284E-06 12056   0.399E-03    0.633E-03
DAV:  11    -0.497444414151E+03   -0.15827E-05   -0.83516E-07  9712   0.262E-03    0.575E-03
DAV:  12    -0.497444416378E+03   -0.22265E-05   -0.61498E-07  8944   0.424E-03    0.505E-03
DAV:  13    -0.497444419587E+03   -0.32091E-05   -0.54113E-06 16312   0.103E-02    0.373E-03
DAV:  14    -0.497444421504E+03   -0.19175E-05   -0.61596E-06 16592   0.798E-03    0.284E-03
DAV:  15    -0.497444422492E+03   -0.98732E-06   -0.21269E-06 11344   0.267E-03
  18 F= -.49744442E+03 E0= -.49743810E+03  d E =0.256002E-03  mag=    94.0000
quench:  g(F)=  0.000E+00 g(S)=  0.000E+00 dE (1.order)= 0.000E+00
 bond charge predicted
       N       E                     dE             d eps       ncg     rms          rms(c)
DAV:   1    -0.497245382843E+03    0.19904E+00   -0.71851E+00 19872   0.115E+01    0.193E+00
DAV:   2    -0.497428947632E+03   -0.18356E+00   -0.16916E+00 16696   0.197E+00    0.101E+00
DAV:   3    -0.497438173339E+03   -0.92257E-02   -0.56254E-02 21480   0.465E-01    0.403E-01
DAV:   4    -0.497438307380E+03   -0.13404E-03   -0.43661E-03 22504   0.106E-01    0.270E-01
DAV:   5    -0.497438073795E+03    0.23359E-03   -0.41501E-04 21152   0.855E-02    0.136E-01
DAV:   6    -0.497438104515E+03   -0.30721E-04   -0.35230E-04 22216   0.539E-02    0.391E-02
DAV:   7    -0.497438119984E+03   -0.15468E-04   -0.10989E-04 18776   0.202E-02    0.272E-02
DAV:   8    -0.497438122792E+03   -0.28087E-05   -0.10404E-05 21528   0.607E-03    0.172E-02
DAV:   9    -0.497438125635E+03   -0.28427E-05   -0.26028E-06 14576   0.734E-03    0.110E-02
DAV:  10    -0.497438128851E+03   -0.32156E-05   -0.32642E-06 14680   0.490E-03    0.775E-03
DAV:  11    -0.497438131109E+03   -0.22580E-05   -0.10999E-06 10624   0.304E-03    0.697E-03
DAV:  12    -0.497438134953E+03   -0.38447E-05   -0.13414E-06 10664   0.629E-03    0.599E-03
DAV:  13    -0.497438139629E+03   -0.46754E-05   -0.97300E-06 18344   0.138E-02    0.436E-03
DAV:  14    -0.497438142346E+03   -0.27170E-05   -0.81134E-06 17248   0.781E-03    0.328E-03
DAV:  15    -0.497438143452E+03   -0.11065E-05   -0.18733E-06 11520   0.260E-03    0.255E-03
DAV:  16    -0.497438143855E+03   -0.40255E-06   -0.20411E-07  8336   0.230E-03
  19 F= -.49743814E+03 E0= -.49743186E+03  d E =0.627864E-02  mag=    94.0000
quench:  g(F)=  0.000E+00 g(S)=  0.000E+00 dE (1.order)= 0.000E+00
 bond charge predicted
       N       E                     dE             d eps       ncg     rms          rms(c)
DAV:   1    -0.497122214244E+03    0.31593E+00   -0.10822E+01 19880   0.144E+01    0.240E+00
DAV:   2    -0.497411549797E+03   -0.28934E+00   -0.26685E+00 16480   0.245E+00    0.128E+00
DAV:   3    -0.497426290138E+03   -0.14740E-01   -0.92901E-02 21416   0.590E-01    0.510E-01
DAV:   4    -0.497426589805E+03   -0.29967E-03   -0.72681E-03 22576   0.136E-01    0.339E-01
DAV:   5    -0.497426248883E+03    0.34092E-03   -0.61883E-04 21120   0.105E-01    0.165E-01
DAV:   6    -0.497426293869E+03   -0.44986E-04   -0.51825E-04 22184   0.677E-02    0.460E-02
DAV:   7    -0.497426316899E+03   -0.23030E-04   -0.17680E-04 18576   0.258E-02    0.322E-02
DAV:   8    -0.497426320440E+03   -0.35402E-05   -0.17472E-05 22792   0.743E-03    0.204E-02
DAV:   9    -0.497426323819E+03   -0.33794E-05   -0.34613E-06 15872   0.841E-03    0.132E-02
DAV:  10    -0.497426328160E+03   -0.43413E-05   -0.44393E-06 16376   0.590E-03    0.901E-03
DAV:  11    -0.497426330902E+03   -0.27417E-05   -0.15330E-06 11328   0.333E-03    0.798E-03
DAV:  12    -0.497426335252E+03   -0.43504E-05   -0.11618E-06 10216   0.592E-03    0.701E-03
DAV:  13    -0.497426341591E+03   -0.63384E-05   -0.10909E-05 18448   0.148E-02    0.509E-03
DAV:  14    -0.497426345251E+03   -0.36602E-05   -0.10653E-05 18352   0.996E-03    0.392E-03
DAV:  15    -0.497426346926E+03   -0.16752E-05   -0.31090E-06 13040   0.330E-03    0.305E-03
DAV:  16    -0.497426347497E+03   -0.57054E-06   -0.27900E-07  8576   0.231E-03
  20 F= -.49742635E+03 E0= -.49742010E+03  d E =0.117964E-01  mag=    94.0000
quench:  g(F)=  0.000E+00 g(S)=  0.000E+00 dE (1.order)= 0.000E+00
 bond charge predicted
       N       E                     dE             d eps       ncg     rms          rms(c)
DAV:   1    -0.497013428608E+03    0.41292E+00   -0.14422E+01 19752   0.164E+01    0.273E+00
DAV:   2    -0.497393603019E+03   -0.38017E+00   -0.35106E+00 16512   0.280E+00    0.149E+00
DAV:   3    -0.497411808142E+03   -0.18205E-01   -0.11229E-01 21224   0.673E-01    0.598E-01
DAV:   4    -0.497412238693E+03   -0.43055E-03   -0.97501E-03 22464   0.158E-01    0.390E-01
DAV:   5    -0.497411783224E+03    0.45547E-03   -0.83194E-04 21152   0.120E-01    0.190E-01
DAV:   6    -0.497411841651E+03   -0.58427E-04   -0.69006E-04 22288   0.783E-02    0.527E-02
DAV:   7    -0.497411874444E+03   -0.32793E-04   -0.24112E-04 18664   0.298E-02    0.363E-02
DAV:   8    -0.497411879141E+03   -0.46975E-05   -0.22789E-05 22976   0.851E-03    0.234E-02
DAV:   9    -0.497411883873E+03   -0.47322E-05   -0.47240E-06 17328   0.941E-03    0.153E-02
DAV:  10    -0.497411889858E+03   -0.59842E-05   -0.56813E-06 17280   0.691E-03    0.105E-02
DAV:  11    -0.497411893662E+03   -0.38042E-05   -0.21029E-06 12112   0.394E-03    0.930E-03
DAV:  12    -0.497411899224E+03   -0.55625E-05   -0.15505E-06 11080   0.629E-03    0.825E-03
DAV:  13    -0.497411907935E+03   -0.87110E-05   -0.12690E-05 18400   0.168E-02    0.599E-03
DAV:  14    -0.497411913027E+03   -0.50917E-05   -0.15669E-05 19328   0.131E-02    0.452E-03
DAV:  15    -0.497411915631E+03   -0.26039E-05   -0.52598E-06 13800   0.418E-03    0.354E-03
DAV:  16    -0.497411916347E+03   -0.71591E-06   -0.38385E-07  8600   0.212E-03
  21 F= -.49741192E+03 E0= -.49740571E+03  d E =0.144311E-01  mag=    94.0000
quench:  g(F)=  0.000E+00 g(S)=  0.000E+00 dE (1.order)= 0.000E+00
 bond charge predicted
       N       E                     dE             d eps       ncg     rms          rms(c)
DAV:   1    -0.497000546451E+03    0.41137E+00   -0.16441E+01 19648   0.167E+01    0.276E+00
DAV:   2    -0.497381163365E+03   -0.38062E+00   -0.35146E+00 16640   0.286E+00    0.153E+00
DAV:   3    -0.497400302901E+03   -0.19140E-01   -0.12018E-01 21384   0.702E-01    0.615E-01
DAV:   4    -0.497400712626E+03   -0.40973E-03   -0.10031E-02 22576   0.162E-01    0.391E-01
DAV:   5    -0.497400232205E+03    0.48042E-03   -0.91114E-04 21232   0.121E-01    0.194E-01
DAV:   6    -0.497400297826E+03   -0.65621E-04   -0.75549E-04 22456   0.796E-02    0.550E-02
DAV:   7    -0.497400334225E+03   -0.36399E-04   -0.25313E-04 18688   0.305E-02    0.378E-02
DAV:   8    -0.497400340518E+03   -0.62928E-05   -0.23150E-05 23272   0.885E-03    0.248E-02
DAV:   9    -0.497400347422E+03   -0.69044E-05   -0.56015E-06 18008   0.967E-03    0.168E-02
DAV:  10    -0.497400355112E+03   -0.76895E-05   -0.61692E-06 17384   0.756E-03    0.118E-02
DAV:  11    -0.497400360477E+03   -0.53647E-05   -0.24871E-06 12464   0.476E-03    0.105E-02
DAV:  12    -0.497400368331E+03   -0.78545E-05   -0.26667E-06 12992   0.804E-03    0.923E-03
DAV:  13    -0.497400379495E+03   -0.11164E-04   -0.18262E-05 18776   0.207E-02    0.657E-03
DAV:  14    -0.497400385947E+03   -0.64524E-05   -0.21266E-05 19288   0.143E-02    0.485E-03
DAV:  15    -0.497400389179E+03   -0.32323E-05   -0.63341E-06 14120   0.454E-03    0.387E-03
DAV:  16    -0.497400389938E+03   -0.75882E-06   -0.42590E-07  8744   0.197E-03
  22 F= -.49740039E+03 E0= -.49739420E+03  d E =0.115264E-01  mag=    94.0000
quench:  g(F)=  0.000E+00 g(S)=  0.000E+00 dE (1.order)= 0.000E+00
 bond charge predicted
       N       E                     dE             d eps       ncg     rms          rms(c)
DAV:   1    -0.497402259046E+03   -0.18699E-02   -0.18217E-02 19184   0.512E-01    0.779E-02
DAV:   2    -0.497402574251E+03   -0.31521E-03   -0.29407E-03 16744   0.881E-02    0.395E-02
DAV:   3    -0.497402589444E+03   -0.15193E-04   -0.10681E-04 22016   0.206E-02    0.183E-02
DAV:   4    -0.497402589637E+03   -0.19310E-06   -0.80079E-06 18520   0.455E-03
  23 F= -.49740259E+03 E0= -.49739639E+03  d E =-.219970E-02  mag=    94.0000
quench:  g(F)=  0.000E+00 g(S)=  0.000E+00 dE (1.order)= 0.000E+00
 bond charge predicted
       N       E                     dE             d eps       ncg     rms          rms(c)
DAV:   1    -0.497405583073E+03   -0.29936E-02   -0.71963E-02 19120   0.102E+00    0.153E-01
DAV:   2    -0.497406824096E+03   -0.12410E-02   -0.11573E-02 16736   0.174E-01    0.794E-02
DAV:   3    -0.497406882662E+03   -0.58566E-04   -0.42214E-04 22088   0.405E-02    0.379E-02
DAV:   4    -0.497406883180E+03   -0.51798E-06   -0.32427E-05 21328   0.903E-03    0.245E-02
DAV:   5    -0.497406881458E+03    0.17226E-05   -0.38056E-06 16912   0.766E-03    0.129E-02
DAV:   6    -0.497406881917E+03   -0.45997E-06   -0.32404E-06 15328   0.478E-03
  24 F= -.49740688E+03 E0= -.49740067E+03  d E =-.429228E-02  mag=    94.0000
quench:  g(F)=  0.000E+00 g(S)=  0.000E+00 dE (1.order)= 0.000E+00
 bond charge predicted
       N       E                     dE             d eps       ncg     rms          rms(c)
DAV:   1    -0.497410181946E+03   -0.33005E-02   -0.15656E-01 19072   0.150E+00    0.229E-01
DAV:   2    -0.497412880119E+03   -0.26982E-02   -0.25171E-02 16704   0.257E-01    0.116E-01
DAV:   3    -0.497413012307E+03   -0.13219E-03   -0.92395E-04 22088   0.601E-02    0.528E-02
DAV:   4    -0.497413013960E+03   -0.16536E-05   -0.70325E-05 21728   0.132E-02    0.335E-02
DAV:   5    -0.497413010542E+03    0.34185E-05   -0.68541E-06 19304   0.974E-03    0.191E-02
DAV:   6    -0.497413011109E+03   -0.56742E-06   -0.60340E-06 19184   0.721E-03
  25 F= -.49741301E+03 E0= -.49740678E+03  d E =-.612919E-02  mag=    94.0000
quench:  g(F)=  0.000E+00 g(S)=  0.000E+00 dE (1.order)= 0.000E+00
 bond charge predicted
       N       E                     dE             d eps       ncg     rms          rms(c)
DAV:   1    -0.497415855260E+03   -0.28447E-02   -0.26228E-01 19072   0.194E+00    0.298E-01
DAV:   2    -0.497420388579E+03   -0.45333E-02   -0.42250E-02 16696   0.332E-01    0.150E-01
DAV:   3    -0.497420613064E+03   -0.22449E-03   -0.15593E-03 22040   0.777E-02    0.678E-02
DAV:   4    -0.497420616175E+03   -0.31109E-05   -0.11964E-04 21920   0.172E-02    0.433E-02
DAV:   5    -0.497420610657E+03    0.55183E-05   -0.11406E-05 20400   0.125E-02    0.246E-02
DAV:   6    -0.497420611665E+03   -0.10086E-05   -0.99596E-06 21096   0.931E-03    0.793E-03
DAV:   7    -0.497420612304E+03   -0.63884E-06   -0.31769E-06 14688   0.344E-03
  26 F= -.49742061E+03 E0= -.49741436E+03  d E =-.760120E-02  mag=    94.0000
quench:  g(F)=  0.000E+00 g(S)=  0.000E+00 dE (1.order)= 0.000E+00
 bond charge predicted
       N       E                     dE             d eps       ncg     rms          rms(c)
DAV:   1    -0.497422387237E+03   -0.17756E-02   -0.37742E-01 19064   0.233E+00    0.359E-01
DAV:   2    -0.497428941774E+03   -0.65545E-02   -0.61018E-02 16672   0.399E-01    0.180E-01
DAV:   3    -0.497429270232E+03   -0.32846E-03   -0.22676E-03 21976   0.932E-02    0.803E-02
DAV:   4    -0.497429274584E+03   -0.43518E-05   -0.17177E-04 22112   0.205E-02    0.517E-02
DAV:   5    -0.497429266586E+03    0.79981E-05   -0.16140E-05 20704   0.150E-02    0.295E-02
DAV:   6    -0.497429268008E+03   -0.14221E-05   -0.14134E-05 21320   0.112E-02    0.941E-03
DAV:   7    -0.497429268946E+03   -0.93822E-06   -0.46815E-06 16400   0.415E-03
  27 F= -.49742927E+03 E0= -.49742299E+03  d E =-.865664E-02  mag=    94.0000
quench:  g(F)=  0.000E+00 g(S)=  0.000E+00 dE (1.order)= 0.000E+00
 bond charge predicted
       N       E                     dE             d eps       ncg     rms          rms(c)
DAV:   1    -0.497429490706E+03   -0.22270E-03   -0.48811E-01 19040   0.267E+00    0.413E-01
DAV:   2    -0.497438133383E+03   -0.86427E-02   -0.80353E-02 16712   0.453E-01    0.207E-01
DAV:   3    -0.497438555818E+03   -0.42243E-03   -0.28381E-03 21968   0.105E-01    0.911E-02
DAV:   4    -0.497438561928E+03   -0.61095E-05   -0.22342E-04 22192   0.231E-02    0.591E-02
DAV:   5    -0.497438551624E+03    0.10303E-04   -0.20437E-05 20736   0.173E-02    0.336E-02
DAV:   6    -0.497438553589E+03   -0.19647E-05   -0.18274E-05 21472   0.129E-02    0.107E-02
DAV:   7    -0.497438554849E+03   -0.12598E-05   -0.61149E-06 17312   0.468E-03    0.746E-03
DAV:   8    -0.497438555407E+03   -0.55820E-06   -0.66247E-07  8928   0.214E-03
  28 F= -.49743856E+03 E0= -.49743225E+03  d E =-.928646E-02  mag=    94.0000
quench:  g(F)=  0.000E+00 g(S)=  0.000E+00 dE (1.order)= 0.000E+00
 bond charge predicted
       N       E                     dE             d eps       ncg     rms          rms(c)
DAV:   1    -0.497435011933E+03    0.35429E-02   -0.71268E-01 19064   0.327E+00    0.513E-01
DAV:   2    -0.497448396760E+03   -0.13385E-01   -0.12438E-01 16704   0.556E-01    0.255E-01
DAV:   3    -0.497449054849E+03   -0.65809E-03   -0.44415E-03 21848   0.129E-01    0.110E-01
DAV:   4    -0.497449062151E+03   -0.73010E-05   -0.32948E-04 22248   0.285E-02    0.731E-02
DAV:   5    -0.497449045487E+03    0.16663E-04   -0.30634E-05 20952   0.217E-02    0.412E-02
DAV:   6    -0.497449048062E+03   -0.25746E-05   -0.27507E-05 21752   0.158E-02    0.127E-02
DAV:   7    -0.497449049798E+03   -0.17361E-05   -0.92479E-06 17984   0.575E-03    0.887E-03
DAV:   8    -0.497449050499E+03   -0.70149E-06   -0.86169E-07  9040   0.245E-03
  29 F= -.49744905E+03 E0= -.49744272E+03  d E =-.104951E-01  mag=    94.0000
quench:  g(F)=  0.000E+00 g(S)=  0.000E+00 dE (1.order)= 0.000E+00
 bond charge predicted
       N       E                     dE             d eps       ncg     rms          rms(c)
DAV:   1    -0.497439681892E+03    0.93679E-02   -0.96286E-01 19152   0.391E+00    0.622E-01
DAV:   2    -0.497459253759E+03   -0.19572E-01   -0.18160E-01 16744   0.663E-01    0.308E-01
DAV:   3    -0.497460228974E+03   -0.97522E-03   -0.64630E-03 21888   0.154E-01    0.129E-01
DAV:   4    -0.497460239784E+03   -0.10810E-04   -0.47179E-04 22216   0.337E-02    0.873E-02
DAV:   5    -0.497460216549E+03    0.23235E-04   -0.42568E-05 21144   0.262E-02    0.489E-02
DAV:   6    -0.497460220230E+03   -0.36809E-05   -0.37881E-05 21792   0.187E-02    0.144E-02
DAV:   7    -0.497460222574E+03   -0.23442E-05   -0.13003E-05 18456   0.683E-03    0.103E-02
DAV:   8    -0.497460223463E+03   -0.88842E-06   -0.10710E-06  9864   0.274E-03
  30 F= -.49746022E+03 E0= -.49745387E+03  d E =-.111730E-01  mag=    94.0000
quench:  g(F)=  0.000E+00 g(S)=  0.000E+00 dE (1.order)= 0.000E+00
 bond charge predicted
       N       E                     dE             d eps       ncg     rms          rms(c)
DAV:   1    -0.497442867300E+03    0.17355E-01   -0.11703E+00 19328   0.451E+00    0.729E-01
DAV:   2    -0.497469655083E+03   -0.26788E-01   -0.24827E-01 16880   0.768E-01    0.359E-01
DAV:   3    -0.497471000875E+03   -0.13458E-02   -0.87445E-03 21976   0.176E-01    0.146E-01
DAV:   4    -0.497471015750E+03   -0.14875E-04   -0.63316E-04 22248   0.385E-02    0.101E-01
DAV:   5    -0.497470985669E+03    0.30081E-04   -0.55050E-05 21032   0.306E-02    0.559E-02
DAV:   6    -0.497470990702E+03   -0.50328E-05   -0.48055E-05 22088   0.214E-02    0.157E-02
DAV:   7    -0.497470993706E+03   -0.30045E-05   -0.16963E-05 18352   0.785E-03    0.116E-02
DAV:   8    -0.497470994772E+03   -0.10656E-05   -0.12959E-06 10544   0.303E-03    0.784E-03
DAV:   9    -0.497470995944E+03   -0.11716E-05   -0.80760E-07  9152   0.363E-03    0.569E-03
DAV:  10    -0.497470996994E+03   -0.10508E-05   -0.10423E-06  9736   0.259E-03    0.446E-03
DAV:  11    -0.497470997840E+03   -0.84567E-06   -0.36586E-07  8752   0.202E-03
  31 F= -.49747100E+03 E0= -.49746462E+03  d E =-.107744E-01  mag=    94.0000
quench:  g(F)=  0.000E+00 g(S)=  0.000E+00 dE (1.order)= 0.000E+00
 bond charge predicted
       N       E                     dE             d eps       ncg     rms          rms(c)
DAV:   1    -0.497445967699E+03    0.25029E-01   -0.12799E+00 19656   0.493E+00    0.801E-01
DAV:   2    -0.497478393433E+03   -0.32426E-01   -0.30034E-01 16880   0.847E-01    0.394E-01
DAV:   3    -0.497480023132E+03   -0.16297E-02   -0.10405E-02 21928   0.192E-01    0.157E-01
DAV:   4    -0.497480039431E+03   -0.16299E-04   -0.75662E-04 22328   0.419E-02    0.110E-01
DAV:   5    -0.497480002662E+03    0.36768E-04   -0.65054E-05 21024   0.344E-02    0.599E-02
DAV:   6    -0.497480008136E+03   -0.54735E-05   -0.56278E-05 22064   0.229E-02    0.163E-02
DAV:   7    -0.497480011229E+03   -0.30930E-05   -0.19204E-05 18384   0.844E-03    0.120E-02
DAV:   8    -0.497480012091E+03   -0.86236E-06   -0.15796E-06 11352   0.309E-03
  32 F= -.49748001E+03 E0= -.49747362E+03  d E =-.901425E-02  mag=    94.0000
quench:  g(F)=  0.000E+00 g(S)=  0.000E+00 dE (1.order)= 0.000E+00
 bond charge predicted
       N       E                     dE             d eps       ncg     rms          rms(c)
DAV:   1    -0.497479828386E+03    0.18284E-03   -0.97099E-04 18504   0.939E-02    0.137E-02
DAV:   2    -0.497479838220E+03   -0.98335E-05   -0.87829E-05 16800   0.168E-02    0.829E-03
DAV:   3    -0.497479839044E+03   -0.82464E-06   -0.35271E-06 16168   0.417E-03    0.535E-03
DAV:   4    -0.497479839377E+03   -0.33232E-06   -0.42768E-07  8704   0.149E-03
  33 F= -.49747984E+03 E0= -.49747345E+03  d E =0.172715E-03  mag=    94.0000
quench:  g(F)=  0.000E+00 g(S)=  0.000E+00 dE (1.order)= 0.000E+00
 bond charge predicted
       N       E                     dE             d eps       ncg     rms          rms(c)
DAV:   1    -0.497479453601E+03    0.38544E-03   -0.38088E-03 18448   0.187E-01    0.249E-02
DAV:   2    -0.497479490114E+03   -0.36513E-04   -0.34372E-04 16792   0.328E-02    0.140E-02
DAV:   3    -0.497479492105E+03   -0.19911E-05   -0.14528E-05 21400   0.789E-03    0.779E-03
DAV:   4    -0.497479492287E+03   -0.18162E-06   -0.92499E-07 10064   0.194E-03
  34 F= -.49747949E+03 E0= -.49747310E+03  d E =0.347090E-03  mag=    94.0000
quench:  g(F)=  0.000E+00 g(S)=  0.000E+00 dE (1.order)= 0.000E+00
 bond charge predicted
       N       E                     dE             d eps       ncg     rms          rms(c)
DAV:   1    -0.497478885149E+03    0.60696E-03   -0.83367E-03 18416   0.277E-01    0.364E-02
DAV:   2    -0.497478964180E+03   -0.79031E-04   -0.74876E-04 16792   0.484E-02    0.204E-02
DAV:   3    -0.497478968088E+03   -0.39084E-05   -0.31357E-05 22592   0.115E-02    0.109E-02
DAV:   4    -0.497478968193E+03   -0.10488E-06   -0.19081E-06 12104   0.260E-03
  35 F= -.49747897E+03 E0= -.49747258E+03  d E =0.524094E-03  mag=    94.0000
quench:  g(F)=  0.000E+00 g(S)=  0.000E+00 dE (1.order)= 0.000E+00
 bond charge predicted
       N       E                     dE             d eps       ncg     rms          rms(c)
DAV:   1    -0.497478129570E+03    0.83852E-03   -0.14247E-02 18384   0.364E-01    0.476E-02
DAV:   2    -0.497478264807E+03   -0.13524E-03   -0.12831E-03 16760   0.634E-02    0.266E-02
DAV:   3    -0.497478271337E+03   -0.65302E-05   -0.53452E-05 22736   0.150E-02    0.141E-02
DAV:   4    -0.497478271412E+03   -0.74477E-07   -0.34071E-06 15264   0.334E-03
  36 F= -.49747827E+03 E0= -.49747189E+03  d E =0.696781E-03  mag=    94.0000
quench:  g(F)=  0.000E+00 g(S)=  0.000E+00 dE (1.order)= 0.000E+00
 bond charge predicted
       N       E                     dE             d eps       ncg     rms          rms(c)
DAV:   1    -0.497477191215E+03    0.10801E-02   -0.21159E-02 18360   0.446E-01    0.581E-02
DAV:   2    -0.497477393081E+03   -0.20187E-03   -0.19153E-03 16760   0.775E-02    0.325E-02
DAV:   3    -0.497477402813E+03   -0.97316E-05   -0.80030E-05 22824   0.184E-02    0.170E-02
DAV:   4    -0.497477402874E+03   -0.61162E-07   -0.51172E-06 17008   0.401E-03
  37 F= -.49747740E+03 E0= -.49747103E+03  d E =0.868538E-03  mag=    94.0000
quench:  g(F)=  0.000E+00 g(S)=  0.000E+00 dE (1.order)= 0.000E+00
 bond charge predicted
       N       E                     dE             d eps       ncg     rms          rms(c)
DAV:   1    -0.497476087479E+03    0.13153E-02   -0.28632E-02 18416   0.524E-01    0.680E-02
DAV:   2    -0.497476362992E+03   -0.27551E-03   -0.26123E-03 16800   0.905E-02    0.378E-02
DAV:   3    -0.497476376309E+03   -0.13317E-04   -0.10891E-04 22936   0.214E-02    0.196E-02
DAV:   4    -0.497476376373E+03   -0.63388E-07   -0.69064E-06 18136   0.462E-03
  38 F= -.49747638E+03 E0= -.49747001E+03  d E =0.102650E-02  mag=    94.0000
quench:  g(F)=  0.000E+00 g(S)=  0.000E+00 dE (1.order)= 0.000E+00
 bond charge predicted
       N       E                     dE             d eps       ncg     rms          rms(c)
DAV:   1    -0.497474615620E+03    0.17607E-02   -0.44811E-02 18440   0.662E-01    0.862E-02
DAV:   2    -0.497475054657E+03   -0.43904E-03   -0.41579E-03 16792   0.114E-01    0.474E-02
DAV:   3    -0.497475076171E+03   -0.21513E-04   -0.17330E-04 23080   0.271E-02    0.240E-02
DAV:   4    -0.497475076296E+03   -0.12513E-06   -0.11019E-05 19824   0.577E-03    0.150E-02
DAV:   5    -0.497475075713E+03    0.58253E-06   -0.15277E-06 12592   0.542E-03
  39 F= -.49747508E+03 E0= -.49746871E+03  d E =0.130066E-02  mag=    94.0000
quench:  g(F)=  0.000E+00 g(S)=  0.000E+00 dE (1.order)= 0.000E+00
 bond charge predicted
       N       E                     dE             d eps       ncg     rms          rms(c)
DAV:   1    -0.497472765826E+03    0.23105E-02   -0.67282E-02 18520   0.827E-01    0.110E-01
DAV:   2    -0.497473448632E+03   -0.68281E-03   -0.64571E-03 16808   0.143E-01    0.580E-02
DAV:   3    -0.497473483904E+03   -0.35272E-04   -0.26743E-04 23192   0.340E-02    0.274E-02
DAV:   4    -0.497473484261E+03   -0.35757E-06   -0.16633E-05 20616   0.703E-03    0.168E-02
DAV:   5    -0.497473483440E+03    0.82151E-06   -0.17627E-06 13384   0.567E-03
  40 F= -.49747348E+03 E0= -.49746712E+03  d E =0.159227E-02  mag=    94.0000
quench:  g(F)=  0.000E+00 g(S)=  0.000E+00 dE (1.order)= 0.000E+00
 bond charge predicted
       N       E                     dE             d eps       ncg     rms          rms(c)
DAV:   1    -0.497470518627E+03    0.29656E-02   -0.96899E-02 18648   0.102E+00    0.137E-01
DAV:   2    -0.497471556478E+03   -0.10379E-02   -0.97872E-03 16912   0.176E-01    0.707E-02
DAV:   3    -0.497471610676E+03   -0.54198E-04   -0.39866E-04 23280   0.414E-02    0.322E-02
DAV:   4    -0.497471611242E+03   -0.56652E-06   -0.24421E-05 21432   0.853E-03    0.203E-02
DAV:   5    -0.497471610051E+03    0.11913E-05   -0.26290E-06 14984   0.707E-03    0.110E-02
DAV:   6    -0.497471610475E+03   -0.42371E-06   -0.29289E-06 14544   0.488E-03
  41 F= -.49747161E+03 E0= -.49746526E+03  d E =0.187297E-02  mag=    94.0000
quench:  g(F)=  0.000E+00 g(S)=  0.000E+00 dE (1.order)= 0.000E+00
 bond charge predicted
       N       E                     dE             d eps       ncg     rms          rms(c)
DAV:   1    -0.497467868715E+03    0.37413E-02   -0.13477E-01 18832   0.126E+00    0.169E-01
DAV:   2    -0.497469432304E+03   -0.15636E-02   -0.14696E-02 17048   0.216E-01    0.856E-02
DAV:   3    -0.497469514846E+03   -0.82542E-04   -0.58394E-04 23440   0.500E-02    0.369E-02
DAV:   4    -0.497469515687E+03   -0.84094E-06   -0.34947E-05 21848   0.101E-02    0.240E-02
DAV:   5    -0.497469514007E+03    0.16799E-05   -0.36356E-06 16536   0.865E-03    0.129E-02
DAV:   6    -0.497469514582E+03   -0.57567E-06   -0.39412E-06 15968   0.583E-03
  42 F= -.49746951E+03 E0= -.49746317E+03  d E =0.209589E-02  mag=    94.0000
quench:  g(F)=  0.000E+00 g(S)=  0.000E+00 dE (1.order)= 0.000E+00
 bond charge predicted
       N       E                     dE             d eps       ncg     rms          rms(c)
DAV:   1    -0.497464826209E+03    0.46878E-02   -0.18518E-01 18984   0.155E+00    0.209E-01
DAV:   2    -0.497467177067E+03   -0.23509E-02   -0.22014E-02 17144   0.263E-01    0.103E-01
DAV:   3    -0.497467304019E+03   -0.12695E-03   -0.86327E-04 23384   0.603E-02    0.425E-02
DAV:   4    -0.497467305524E+03   -0.15056E-05   -0.51482E-05 22096   0.122E-02    0.286E-02
DAV:   5    -0.497467303352E+03    0.21722E-05   -0.49481E-06 17808   0.107E-02    0.150E-02
DAV:   6    -0.497467304202E+03   -0.85012E-06   -0.53194E-06 17576   0.669E-03
  43 F= -.49746730E+03 E0= -.49746096E+03  d E =0.221038E-02  mag=    94.0000
quench:  g(F)=  0.000E+00 g(S)=  0.000E+00 dE (1.order)= 0.000E+00
 bond charge predicted
       N       E                     dE             d eps       ncg     rms          rms(c)
DAV:   1    -0.497461198592E+03    0.61048E-02   -0.26267E-01 19064   0.193E+00    0.261E-01
DAV:   2    -0.497464843340E+03   -0.36447E-02   -0.34034E-02 17136   0.326E-01    0.128E-01
DAV:   3    -0.497465043640E+03   -0.20030E-03   -0.13206E-03 23304   0.741E-02    0.503E-02
DAV:   4    -0.497465046250E+03   -0.26104E-05   -0.78609E-05 22152   0.150E-02    0.345E-02
DAV:   5    -0.497465043408E+03    0.28420E-05   -0.72627E-06 19216   0.135E-02    0.176E-02
DAV:   6    -0.497465044693E+03   -0.12846E-05   -0.70492E-06 18944   0.755E-03    0.530E-03
DAV:   7    -0.497465045026E+03   -0.33334E-06   -0.18672E-06 11416   0.334E-03
  44 F= -.49746505E+03 E0= -.49745869E+03  d E =0.225918E-02  mag=    94.0000
quench:  g(F)=  0.000E+00 g(S)=  0.000E+00 dE (1.order)= 0.000E+00
 bond charge predicted
       N       E                     dE             d eps       ncg     rms          rms(c)
DAV:   1    -0.497456364858E+03    0.86798E-02   -0.40267E-01 19104   0.245E+00    0.335E-01
DAV:   2    -0.497462327590E+03   -0.59627E-02   -0.55570E-02 17120   0.415E-01    0.164E-01
DAV:   3    -0.497462656993E+03   -0.32940E-03   -0.21354E-03 23152   0.936E-02    0.628E-02
DAV:   4    -0.497462661382E+03   -0.43886E-05   -0.12832E-04 22280   0.189E-02    0.435E-02
DAV:   5    -0.497462656755E+03    0.46273E-05   -0.11707E-05 20552   0.177E-02    0.215E-02
DAV:   6    -0.497462658734E+03   -0.19792E-05   -0.10694E-05 21304   0.901E-03    0.621E-03
DAV:   7    -0.497462659142E+03   -0.40818E-06   -0.26236E-06 12560   0.400E-03
  45 F= -.49746266E+03 E0= -.49745630E+03  d E =0.238588E-02  mag=    94.0000
quench:  g(F)=  0.000E+00 g(S)=  0.000E+00 dE (1.order)= 0.000E+00
 bond charge predicted
       N       E                     dE             d eps       ncg     rms          rms(c)
DAV:   1    -0.497448655354E+03    0.14003E-01   -0.68197E-01 19112   0.322E+00    0.446E-01
DAV:   2    -0.497459185672E+03   -0.10530E-01   -0.98019E-02 17056   0.544E-01    0.218E-01
DAV:   3    -0.497459766781E+03   -0.58111E-03   -0.37329E-03 23000   0.123E-01    0.836E-02
DAV:   4    -0.497459775317E+03   -0.85362E-05   -0.22937E-04 22248   0.250E-02    0.580E-02
DAV:   5    -0.497459767219E+03    0.80983E-05   -0.20382E-05 21104   0.234E-02    0.283E-02
DAV:   6    -0.497459770509E+03   -0.32900E-05   -0.18242E-05 21472   0.118E-02    0.794E-03
DAV:   7    -0.497459771149E+03   -0.64034E-06   -0.47248E-06 14848   0.524E-03
  46 F= -.49745977E+03 E0= -.49745339E+03  d E =0.288799E-02  mag=    94.0000
quench:  g(F)=  0.000E+00 g(S)=  0.000E+00 dE (1.order)= 0.000E+00
 bond charge predicted
       N       E                     dE             d eps       ncg     rms          rms(c)
DAV:   1    -0.497434362569E+03    0.25408E-01   -0.12692E+00 19112   0.438E+00    0.617E-01
DAV:   2    -0.497454467230E+03   -0.20105E-01   -0.18699E-01 17048   0.738E-01    0.304E-01
DAV:   3    -0.497455570426E+03   -0.11032E-02   -0.70610E-03 22840   0.167E-01    0.116E-01
DAV:   4    -0.497455587764E+03   -0.17337E-04   -0.44377E-04 22344   0.343E-02    0.809E-02
DAV:   5    -0.497455572037E+03    0.15727E-04   -0.38463E-05 21216   0.317E-02    0.397E-02
DAV:   6    -0.497455577930E+03   -0.58940E-05   -0.34394E-05 21824   0.163E-02    0.109E-02
DAV:   7    -0.497455579129E+03   -0.11987E-05   -0.92814E-06 16888   0.711E-03    0.796E-03
DAV:   8    -0.497455579638E+03   -0.50913E-06   -0.68215E-07  9384   0.265E-03
  47 F= -.49745558E+03 E0= -.49744916E+03  d E =0.419151E-02  mag=    94.0000
quench:  g(F)=  0.000E+00 g(S)=  0.000E+00 dE (1.order)= 0.000E+00
 bond charge predicted
       N       E                     dE             d eps       ncg     rms          rms(c)
DAV:   1    -0.497405987438E+03    0.49592E-01   -0.25244E+00 19152   0.613E+00    0.878E-01
DAV:   2    -0.497446794735E+03   -0.40807E-01   -0.37936E-01 17032   0.103E+00    0.434E-01
DAV:   3    -0.497448907545E+03   -0.21128E-02   -0.13152E-02 22760   0.231E-01    0.169E-01
DAV:   4    -0.497448941951E+03   -0.34405E-04   -0.88242E-04 22352   0.480E-02    0.117E-01
DAV:   5    -0.497448907300E+03    0.34651E-04   -0.78462E-05 21224   0.450E-02    0.575E-02
DAV:   6    -0.497448918297E+03   -0.10997E-04   -0.70560E-05 22128   0.237E-02    0.159E-02
DAV:   7    -0.497448920706E+03   -0.24094E-05   -0.19241E-05 17992   0.995E-03    0.112E-02
DAV:   8    -0.497448921494E+03   -0.78838E-06   -0.13805E-06 10344   0.353E-03
  48 F= -.49744892E+03 E0= -.49744245E+03  d E =0.665814E-02  mag=    94.0000
quench:  g(F)=  0.000E+00 g(S)=  0.000E+00 dE (1.order)= 0.000E+00
 bond charge predicted
       N       E                     dE             d eps       ncg     rms          rms(c)
DAV:   1    -0.497352074260E+03    0.96846E-01   -0.50652E+00 19216   0.861E+00    0.125E+00
DAV:   2    -0.497434237006E+03   -0.82163E-01   -0.76360E-01 16968   0.145E+00    0.620E-01
DAV:   3    -0.497438666420E+03   -0.44294E-02   -0.28420E-02 22712   0.329E-01    0.240E-01
DAV:   4    -0.497438737653E+03   -0.71233E-04   -0.18070E-03 22384   0.692E-02    0.167E-01
DAV:   5    -0.497438670557E+03    0.67095E-04   -0.15821E-04 21296   0.619E-02    0.828E-02
DAV:   6    -0.497438691815E+03   -0.21257E-04   -0.13875E-04 22264   0.336E-02    0.226E-02
DAV:   7    -0.497438696818E+03   -0.50033E-05   -0.39492E-05 18264   0.142E-02    0.158E-02
DAV:   8    -0.497438698514E+03   -0.16958E-05   -0.37895E-06 16584   0.494E-03    0.973E-03
DAV:   9    -0.497438700388E+03   -0.18742E-05   -0.11657E-06  9688   0.449E-03    0.677E-03
DAV:  10    -0.497438702091E+03   -0.17034E-05   -0.12931E-06 10272   0.287E-03    0.522E-03
DAV:  11    -0.497438703442E+03   -0.13506E-05   -0.41861E-07  8912   0.212E-03    0.481E-03
DAV:  12    -0.497438705380E+03   -0.19376E-05   -0.57644E-07  8760   0.350E-03    0.436E-03
DAV:  13    -0.497438708094E+03   -0.27142E-05   -0.29115E-06 14072   0.729E-03    0.334E-03
DAV:  14    -0.497438709910E+03   -0.18165E-05   -0.58863E-06 16552   0.928E-03    0.245E-03
DAV:  15    -0.497438711261E+03   -0.13504E-05   -0.31004E-06 12104   0.336E-03    0.173E-03
DAV:  16    -0.497438711575E+03   -0.31441E-06   -0.35355E-07  8640   0.119E-03
  49 F= -.49743871E+03 E0= -.49743216E+03  d E =0.102099E-01  mag=    94.0000
quench:  g(F)=  0.000E+00 g(S)=  0.000E+00 dE (1.order)= 0.000E+00
 bond charge predicted
       N       E                     dE             d eps       ncg     rms          rms(c)
DAV:   1    -0.497265882996E+03    0.17283E+00   -0.95537E+00 19136   0.117E+01    0.171E+00
DAV:   2    -0.497416404353E+03   -0.15052E+00   -0.13961E+00 16960   0.197E+00    0.860E-01
DAV:   3    -0.497424862388E+03   -0.84580E-02   -0.54024E-02 22624   0.455E-01    0.330E-01
DAV:   4    -0.497425021126E+03   -0.15874E-03   -0.35207E-03 22360   0.952E-02    0.228E-01
DAV:   5    -0.497424897274E+03    0.12385E-03   -0.29008E-04 21288   0.818E-02    0.113E-01
DAV:   6    -0.497424931567E+03   -0.34293E-04   -0.25310E-04 22312   0.469E-02    0.300E-02
DAV:   7    -0.497424939896E+03   -0.83287E-05   -0.76077E-05 18584   0.197E-02    0.207E-02
DAV:   8    -0.497424941067E+03   -0.11707E-05   -0.75571E-06 20344   0.599E-03    0.119E-02
DAV:   9    -0.497424942364E+03   -0.12978E-05   -0.12924E-06 10080   0.500E-03    0.742E-03
DAV:  10    -0.497424943887E+03   -0.15231E-05   -0.16545E-06 11176   0.300E-03    0.488E-03
DAV:  11    -0.497424944843E+03   -0.95506E-06   -0.47146E-07  9088   0.178E-03
  50 F= -.49742494E+03 E0= -.49741828E+03  d E =0.137667E-01  mag=    94.0000
quench:  g(F)=  0.000E+00 g(S)=  0.000E+00 dE (1.order)= 0.000E+00
 bond charge predicted
       N       E                     dE             d eps       ncg     rms          rms(c)
DAV:   1    -0.497158028493E+03    0.26692E+00   -0.15780E+01 19096   0.149E+01    0.215E+00
DAV:   2    -0.497396776703E+03   -0.23875E+00   -0.22149E+00 16968   0.249E+00    0.109E+00
DAV:   3    -0.497410470802E+03   -0.13694E-01   -0.88742E-02 22696   0.585E-01    0.426E-01
DAV:   4    -0.497410640598E+03   -0.16980E-03   -0.48112E-03 22304   0.121E-01    0.287E-01
DAV:   5    -0.497410446796E+03    0.19380E-03   -0.49603E-04 21368   0.106E-01    0.140E-01
DAV:   6    -0.497410509767E+03   -0.62971E-04   -0.41191E-04 22520   0.572E-02    0.394E-02
DAV:   7    -0.497410524559E+03   -0.14793E-04   -0.11031E-04 18816   0.235E-02    0.271E-02
DAV:   8    -0.497410528859E+03   -0.42999E-05   -0.11729E-05 21720   0.777E-03    0.165E-02
DAV:   9    -0.497410533321E+03   -0.44614E-05   -0.27827E-06 14480   0.722E-03    0.108E-02
DAV:  10    -0.497410537696E+03   -0.43755E-05   -0.30573E-06 13792   0.459E-03    0.813E-03
DAV:  11    -0.497410540892E+03   -0.31959E-05   -0.93864E-07  9784   0.313E-03    0.745E-03
DAV:  12    -0.497410546239E+03   -0.53472E-05   -0.15889E-06 11280   0.628E-03    0.657E-03
DAV:  13    -0.497410552682E+03   -0.64428E-05   -0.77462E-06 17616   0.114E-02    0.502E-03
DAV:  14    -0.497410556950E+03   -0.42676E-05   -0.10024E-05 17064   0.115E-02    0.387E-03
DAV:  15    -0.497410559647E+03   -0.26971E-05   -0.51301E-06 14296   0.477E-03    0.290E-03
DAV:  16    -0.497410560540E+03   -0.89363E-06   -0.62964E-07  8944   0.245E-03
  51 F= -.49741056E+03 E0= -.49740375E+03  d E =0.143843E-01  mag=    94.0000
quench:  g(F)=  0.000E+00 g(S)=  0.000E+00 dE (1.order)= 0.000E+00
 bond charge predicted
       N       E                     dE             d eps       ncg     rms          rms(c)
DAV:   1    -0.497129478876E+03    0.28108E+00   -0.19565E+01 19040   0.159E+01    0.222E+00
DAV:   2    -0.497389519113E+03   -0.26004E+00   -0.24168E+00 17048   0.265E+00    0.112E+00
DAV:   3    -0.497404391203E+03   -0.14872E-01   -0.98034E-02 23000   0.624E-01    0.439E-01
DAV:   4    -0.497404650346E+03   -0.25914E-03   -0.59836E-03 22120   0.128E-01    0.297E-01
DAV:   5    -0.497404421461E+03    0.22889E-03   -0.53007E-04 21328   0.109E-01    0.147E-01
DAV:   6    -0.497404484015E+03   -0.62554E-04   -0.46009E-04 22296   0.641E-02    0.400E-02
DAV:   7    -0.497404499539E+03   -0.15523E-04   -0.13726E-04 18864   0.269E-02    0.279E-02
DAV:   8    -0.497404502925E+03   -0.33861E-05   -0.13311E-05 22336   0.777E-03    0.166E-02
DAV:   9    -0.497404506535E+03   -0.36102E-05   -0.26833E-06 14512   0.694E-03    0.104E-02
DAV:  10    -0.497404510158E+03   -0.36237E-05   -0.27772E-06 13536   0.431E-03    0.742E-03
DAV:  11    -0.497404512766E+03   -0.26076E-05   -0.83425E-07  9776   0.287E-03    0.680E-03
DAV:  12    -0.497404516354E+03   -0.35882E-05   -0.95229E-07  9632   0.454E-03    0.610E-03
DAV:  13    -0.497404521520E+03   -0.51660E-05   -0.47849E-06 16464   0.970E-03    0.473E-03
DAV:  14    -0.497404525228E+03   -0.37081E-05   -0.87583E-06 17624   0.111E-02    0.361E-03
DAV:  15    -0.497404527574E+03   -0.23452E-05   -0.46961E-06 14072   0.461E-03    0.276E-03
DAV:  16    -0.497404528371E+03   -0.79730E-06   -0.62205E-07  9040   0.212E-03
  52 F= -.49740453E+03 E0= -.49739756E+03  d E =0.603217E-02  mag=    94.0000
quench:  g(F)=  0.000E+00 g(S)=  0.000E+00 dE (1.order)= 0.000E+00
 bond charge predicted
       N       E                     dE             d eps       ncg     rms          rms(c)
DAV:   1    -0.497406795824E+03   -0.22683E-02   -0.67166E-02 18648   0.805E-01    0.133E-01
DAV:   2    -0.497407698471E+03   -0.90265E-03   -0.83584E-03 16344   0.132E-01    0.669E-02
DAV:   3    -0.497407749210E+03   -0.50739E-04   -0.32055E-04 22248   0.308E-02    0.262E-02
DAV:   4    -0.497407750410E+03   -0.12001E-05   -0.21657E-05 20824   0.651E-03    0.179E-02
DAV:   5    -0.497407749652E+03    0.75791E-06   -0.12565E-06 12376   0.539E-03
  53 F= -.49740775E+03 E0= -.49740078E+03  d E =-.322128E-02  mag=    94.0000
quench:  g(F)=  0.000E+00 g(S)=  0.000E+00 dE (1.order)= 0.000E+00
 bond charge predicted
       N       E                     dE             d eps       ncg     rms          rms(c)
DAV:   1    -0.497410312286E+03   -0.25619E-02   -0.26159E-01 18648   0.159E+00    0.264E-01
DAV:   2    -0.497413845292E+03   -0.35330E-02   -0.32727E-02 16304   0.261E-01    0.133E-01
DAV:   3    -0.497414042984E+03   -0.19769E-03   -0.12364E-03 22272   0.608E-02    0.522E-02
DAV:   4    -0.497414048130E+03   -0.51458E-05   -0.85290E-05 22464   0.129E-02    0.355E-02
DAV:   5    -0.497414045560E+03    0.25703E-05   -0.59334E-06 18960   0.104E-02    0.182E-02
DAV:   6    -0.497414046163E+03   -0.60345E-06   -0.55843E-06 19592   0.679E-03
  54 F= -.49741405E+03 E0= -.49740709E+03  d E =-.629651E-02  mag=    94.0000
quench:  g(F)=  0.000E+00 g(S)=  0.000E+00 dE (1.order)= 0.000E+00
 bond charge predicted
       N       E                     dE             d eps       ncg     rms          rms(c)
DAV:   1    -0.497415050069E+03   -0.10045E-02   -0.55302E-01 18648   0.232E+00    0.386E-01
DAV:   2    -0.497422599451E+03   -0.75494E-02   -0.69904E-02 16288   0.382E-01    0.194E-01
DAV:   3    -0.497423023404E+03   -0.42395E-03   -0.26545E-03 22240   0.890E-02    0.761E-02
DAV:   4    -0.497423034638E+03   -0.11234E-04   -0.18399E-04 22608   0.190E-02    0.518E-02
DAV:   5    -0.497423029228E+03    0.54102E-05   -0.12631E-05 20744   0.151E-02    0.269E-02
DAV:   6    -0.497423030519E+03   -0.12911E-05   -0.11535E-05 21392   0.101E-02    0.688E-03
DAV:   7    -0.497423031199E+03   -0.68043E-06   -0.47276E-06 15816   0.418E-03
  55 F= -.49742303E+03 E0= -.49741608E+03  d E =-.898504E-02  mag=    94.0000
quench:  g(F)=  0.000E+00 g(S)=  0.000E+00 dE (1.order)= 0.000E+00
 bond charge predicted
       N       E                     dE             d eps       ncg     rms          rms(c)
DAV:   1    -0.497421142130E+03    0.18884E-02   -0.88875E-01 18664   0.297E+00    0.493E-01
DAV:   2    -0.497433410431E+03   -0.12268E-01   -0.11354E-01 16288   0.487E-01    0.248E-01
DAV:   3    -0.497434110974E+03   -0.70054E-03   -0.44143E-03 22224   0.114E-01    0.967E-02
DAV:   4    -0.497434128912E+03   -0.17939E-04   -0.30054E-04 22584   0.244E-02    0.660E-02
DAV:   5    -0.497434120025E+03    0.88876E-05   -0.20587E-05 21232   0.191E-02    0.345E-02
DAV:   6    -0.497434122096E+03   -0.20713E-05   -0.18206E-05 21576   0.132E-02    0.874E-03
DAV:   7    -0.497434123241E+03   -0.11446E-05   -0.80460E-06 17264   0.545E-03    0.613E-03
DAV:   8    -0.497434123483E+03   -0.24207E-06   -0.57563E-07  9328   0.176E-03
  56 F= -.49743412E+03 E0= -.49742718E+03  d E =-.110923E-01  mag=    94.0000
quench:  g(F)=  0.000E+00 g(S)=  0.000E+00 dE (1.order)= 0.000E+00
 bond charge predicted
       N       E                     dE             d eps       ncg     rms          rms(c)
DAV:   1    -0.497428588597E+03    0.55346E-02   -0.12048E+00 18720   0.351E+00    0.581E-01
DAV:   2    -0.497445602864E+03   -0.17014E-01   -0.15730E-01 16288   0.575E-01    0.292E-01
DAV:   3    -0.497446576694E+03   -0.97383E-03   -0.61208E-03 22240   0.134E-01    0.114E-01
DAV:   4    -0.497446601069E+03   -0.24375E-04   -0.41472E-04 22560   0.288E-02    0.777E-02
DAV:   5    -0.497446588384E+03    0.12685E-04   -0.28345E-05 21312   0.227E-02    0.404E-02
DAV:   6    -0.497446591240E+03   -0.28556E-05   -0.25535E-05 21792   0.155E-02    0.102E-02
DAV:   7    -0.497446592804E+03   -0.15645E-05   -0.11013E-05 17976   0.640E-03    0.723E-03
DAV:   8    -0.497446593134E+03   -0.33005E-06   -0.76746E-07  9760   0.200E-03
  57 F= -.49744659E+03 E0= -.49743967E+03  d E =-.124697E-01  mag=    94.0000
quench:  g(F)=  0.000E+00 g(S)=  0.000E+00 dE (1.order)= 0.000E+00
 bond charge predicted
       N       E                     dE             d eps       ncg     rms          rms(c)
DAV:   1    -0.497437349264E+03    0.92435E-02   -0.14327E+00 18808   0.392E+00    0.646E-01
DAV:   2    -0.497458382312E+03   -0.21033E-01   -0.19428E-01 16424   0.643E-01    0.325E-01
DAV:   3    -0.497459517149E+03   -0.11348E-02   -0.68143E-03 22264   0.147E-01    0.126E-01
DAV:   4    -0.497459546733E+03   -0.29584E-04   -0.50206E-04 22560   0.318E-02    0.864E-02
DAV:   5    -0.497459530663E+03    0.16070E-04   -0.34656E-05 21352   0.257E-02    0.448E-02
DAV:   6    -0.497459534307E+03   -0.36439E-05   -0.31781E-05 21928   0.173E-02    0.114E-02
DAV:   7    -0.497459536208E+03   -0.19016E-05   -0.13188E-05 18088   0.701E-03    0.808E-03
DAV:   8    -0.497459536610E+03   -0.40205E-06   -0.85500E-07 10000   0.217E-03
  58 F= -.49745954E+03 E0= -.49745262E+03  d E =-.129435E-01  mag=    94.0000
quench:  g(F)=  0.000E+00 g(S)=  0.000E+00 dE (1.order)= 0.000E+00
 bond charge predicted
       N       E                     dE             d eps       ncg     rms          rms(c)
DAV:   1    -0.497443322615E+03    0.16214E-01   -0.18206E+00 18936   0.461E+00    0.748E-01
DAV:   2    -0.497471349014E+03   -0.28026E-01   -0.25839E-01 16408   0.755E-01    0.376E-01
DAV:   3    -0.497472950408E+03   -0.16014E-02   -0.99098E-03 22456   0.175E-01    0.143E-01
DAV:   4    -0.497472988928E+03   -0.38520E-04   -0.67720E-04 22496   0.375E-02    0.990E-02
DAV:   5    -0.497472968317E+03    0.20611E-04   -0.46777E-05 21408   0.303E-02    0.509E-02
DAV:   6    -0.497472973385E+03   -0.50674E-05   -0.41560E-05 22064   0.196E-02    0.127E-02
DAV:   7    -0.497472975717E+03   -0.23323E-05   -0.16596E-05 18040   0.819E-03    0.916E-03
DAV:   8    -0.497472976237E+03   -0.51991E-06   -0.11082E-06 10664   0.254E-03
  59 F= -.49747298E+03 E0= -.49746607E+03  d E =-.134396E-01  mag=    94.0000
quench:  g(F)=  0.000E+00 g(S)=  0.000E+00 dE (1.order)= 0.000E+00
 bond charge predicted
       N       E                     dE             d eps       ncg     rms          rms(c)
DAV:   1    -0.497451256758E+03    0.21719E-01   -0.20090E+00 19112   0.506E+00    0.800E-01
DAV:   2    -0.497483173432E+03   -0.31917E-01   -0.29376E-01 16616   0.829E-01    0.401E-01
DAV:   3    -0.497485002195E+03   -0.18288E-02   -0.11320E-02 22608   0.193E-01    0.152E-01
DAV:   4    -0.497485042912E+03   -0.40717E-04   -0.76328E-04 22392   0.406E-02    0.105E-01
DAV:   5    -0.497485018033E+03    0.24879E-04   -0.56473E-05 21400   0.343E-02    0.529E-02
DAV:   6    -0.497485024472E+03   -0.64391E-05   -0.49320E-05 22304   0.204E-02    0.136E-02
DAV:   7    -0.497485026962E+03   -0.24894E-05   -0.17545E-05 17896   0.865E-03    0.976E-03
DAV:   8    -0.497485027588E+03   -0.62608E-06   -0.11533E-06 10528   0.278E-03
  60 F= -.49748503E+03 E0= -.49747812E+03  d E =-.120514E-01  mag=    94.0000
quench:  g(F)=  0.000E+00 g(S)=  0.000E+00 dE (1.order)= 0.000E+00
 bond charge predicted
       N       E                     dE             d eps       ncg     rms          rms(c)
DAV:   1    -0.497484686689E+03    0.34027E-03   -0.27755E-03 18528   0.146E-01    0.208E-02
DAV:   2    -0.497484710731E+03   -0.24042E-04   -0.22199E-04 17160   0.242E-02    0.112E-02
DAV:   3    -0.497484712337E+03   -0.16055E-05   -0.94749E-06 20080   0.585E-03    0.573E-03
DAV:   4    -0.497484712601E+03   -0.26457E-06   -0.62300E-07  9328   0.159E-03
  61 F= -.49748471E+03 E0= -.49747780E+03  d E =0.314987E-03  mag=    94.0000
quench:  g(F)=  0.000E+00 g(S)=  0.000E+00 dE (1.order)= 0.000E+00
 bond charge predicted
       N       E                     dE             d eps       ncg     rms          rms(c)
DAV:   1    -0.497483981503E+03    0.73083E-03   -0.11795E-02 18440   0.303E-01    0.417E-02
DAV:   2    -0.497484082018E+03   -0.10052E-03   -0.94306E-04 17024   0.497E-02    0.220E-02
DAV:   3    -0.497484087783E+03   -0.57653E-05   -0.41138E-05 23064   0.119E-02    0.101E-02
DAV:   4    -0.497484088014E+03   -0.23143E-06   -0.21868E-06 13424   0.258E-03
  62 F= -.49748409E+03 E0= -.49747718E+03  d E =0.624587E-03  mag=    94.0000
quench:  g(F)=  0.000E+00 g(S)=  0.000E+00 dE (1.order)= 0.000E+00
 bond charge predicted
       N       E                     dE             d eps       ncg     rms          rms(c)
DAV:   1    -0.497482868378E+03    0.12194E-02   -0.29107E-02 18496   0.480E-01    0.663E-02
DAV:   2    -0.497483121858E+03   -0.25348E-03   -0.23795E-03 17000   0.782E-02    0.349E-02
DAV:   3    -0.497483135997E+03   -0.14138E-04   -0.10214E-04 23112   0.187E-02    0.157E-02
DAV:   4    -0.497483136345E+03   -0.34834E-06   -0.57783E-06 17456   0.398E-03
  63 F= -.49748314E+03 E0= -.49747622E+03  d E =0.951670E-03  mag=    94.0000
quench:  g(F)=  0.000E+00 g(S)=  0.000E+00 dE (1.order)= 0.000E+00
 bond charge predicted
       N       E                     dE             d eps       ncg     rms          rms(c)
DAV:   1    -0.497481275673E+03    0.18603E-02   -0.57667E-02 18592   0.689E-01    0.960E-02
DAV:   2    -0.497481801748E+03   -0.52608E-03   -0.49296E-03 16960   0.112E-01    0.502E-02
DAV:   3    -0.497481830947E+03   -0.29199E-04   -0.20837E-04 23024   0.266E-02    0.223E-02
DAV:   4    -0.497481831622E+03   -0.67447E-06   -0.12433E-05 20408   0.564E-03    0.147E-02
DAV:   5    -0.497481831397E+03    0.22535E-06   -0.11669E-06 12048   0.547E-03
  64 F= -.49748183E+03 E0= -.49747490E+03  d E =0.130495E-02  mag=    94.0000
quench:  g(F)=  0.000E+00 g(S)=  0.000E+00 dE (1.order)= 0.000E+00
 bond charge predicted
       N       E                     dE             d eps       ncg     rms          rms(c)
DAV:   1    -0.497479141221E+03    0.26904E-02   -0.10021E-01 18688   0.934E-01    0.134E-01
DAV:   2    -0.497480119972E+03   -0.97875E-03   -0.91483E-03 16904   0.152E-01    0.676E-02
DAV:   3    -0.497480175691E+03   -0.55719E-04   -0.37842E-04 23040   0.359E-02    0.281E-02
DAV:   4    -0.497480177027E+03   -0.13363E-05   -0.22800E-05 21648   0.733E-03    0.185E-02
DAV:   5    -0.497480176487E+03    0.53951E-06   -0.17198E-06 13720   0.639E-03
  65 F= -.49748018E+03 E0= -.49747324E+03  d E =0.165491E-02  mag=    94.0000
quench:  g(F)=  0.000E+00 g(S)=  0.000E+00 dE (1.order)= 0.000E+00
 bond charge predicted
       N       E                     dE             d eps       ncg     rms          rms(c)
DAV:   1    -0.497476453732E+03    0.37233E-02   -0.15788E-01 18744   0.122E+00    0.176E-01
DAV:   2    -0.497478128354E+03   -0.16746E-02   -0.15604E-02 16976   0.197E-01    0.881E-02
[...]
Note: The following floating-point exceptions are signalling: IEEE_INVALID_FLAG IEEE_DIVIDE_BY_ZERO IEEE_UNDERFLOW_FLAG IEEE_DENORMAL
Note: The following floating-point exceptions are signalling: IEEE_INVALID_FLAG IEEE_DIVIDE_BY_ZERO IEEE_UNDERFLOW_FLAG IEEE_DENORMAL
Note: The following floating-point exceptions are signalling: IEEE_INVALID_FLAG IEEE_DIVIDE_BY_ZERO IEEE_UNDERFLOW_FLAG IEEE_DENORMAL
Note: The following floating-point exceptions are signalling: IEEE_INVALID_FLAG IEEE_DIVIDE_BY_ZERO IEEE_UNDERFLOW_FLAG IEEE_DENORMAL
Note: The following floating-point exceptions are signalling: IEEE_INVALID_FLAG IEEE_DIVIDE_BY_ZERO IEEE_UNDERFLOW_FLAG IEEE_DENORMAL
Note: The following floating-point exceptions are signalling: IEEE_INVALID_FLAG IEEE_DIVIDE_BY_ZERO IEEE_UNDERFLOW_FLAG IEEE_DENORMAL
Note: The following floating-point exceptions are signalling: IEEE_INVALID_FLAG IEEE_DIVIDE_BY_ZERO IEEE_UNDERFLOW_FLAG IEEE_DENORMAL
Note: The following floating-point exceptions are signalling: IEEE_INVALID_FLAG IEEE_DIVIDE_BY_ZERO IEEE_UNDERFLOW_FLAG IEEE_DENORMAL
Note: The following floating-point exceptions are signalling: IEEE_INVALID_FLAG IEEE_DIVIDE_BY_ZERO IEEE_UNDERFLOW_FLAG IEEE_DENORMAL
Note: The following floating-point exceptions are signalling: IEEE_INVALID_FLAG IEEE_DIVIDE_BY_ZERO IEEE_UNDERFLOW_FLAG IEEE_DENORMAL
Note: The following floating-point exceptions are signalling: IEEE_INVALID_FLAG IEEE_DIVIDE_BY_ZERO IEEE_UNDERFLOW_FLAG IEEE_DENORMAL
Note: The following floating-point exceptions are signalling: IEEE_INVALID_FLAG IEEE_DIVIDE_BY_ZERO IEEE_UNDERFLOW_FLAG IEEE_DENORMAL
Note: The following floating-point exceptions are signalling: IEEE_INVALID_FLAG IEEE_DIVIDE_BY_ZERO IEEE_UNDERFLOW_FLAG IEEE_DENORMAL
Note: The following floating-point exceptions are signalling: IEEE_INVALID_FLAG IEEE_DIVIDE_BY_ZERO IEEE_UNDERFLOW_FLAG IEEE_DENORMAL
Note: The following floating-point exceptions are signalling: IEEE_INVALID_FLAG IEEE_DIVIDE_BY_ZERO IEEE_UNDERFLOW_FLAG IEEE_DENORMAL
Note: The following floating-point exceptions are signalling: IEEE_INVALID_FLAG IEEE_DIVIDE_BY_ZERO IEEE_UNDERFLOW_FLAG IEEE_DENORMAL
Note: The following floating-point exceptions are signalling: IEEE_INVALID_FLAG IEEE_DIVIDE_BY_ZERO IEEE_UNDERFLOW_FLAG IEEE_DENORMAL
Note: The following floating-point exceptions are signalling: IEEE_INVALID_FLAG IEEE_DIVIDE_BY_ZERO IEEE_UNDERFLOW_FLAG IEEE_DENORMAL
Note: The following floating-point exceptions are signalling: IEEE_INVALID_FLAG IEEE_DIVIDE_BY_ZERO IEEE_UNDERFLOW_FLAG IEEE_DENORMAL
Note: The following floating-point exceptions are signalling: IEEE_INVALID_FLAG IEEE_DIVIDE_BY_ZERO IEEE_UNDERFLOW_FLAG IEEE_DENORMAL
Note: The following floating-point exceptions are signalling: IEEE_INVALID_FLAG IEEE_DIVIDE_BY_ZERO IEEE_UNDERFLOW_FLAG IEEE_DENORMAL
Note: The following floating-point exceptions are signalling: IEEE_INVALID_FLAG IEEE_DIVIDE_BY_ZERO IEEE_UNDERFLOW_FLAG IEEE_DENORMAL
Note: The following floating-point exceptions are signalling: IEEE_INVALID_FLAG IEEE_DIVIDE_BY_ZERO IEEE_UNDERFLOW_FLAG IEEE_DENORMAL
Note: The following floating-point exceptions are signalling: IEEE_INVALID_FLAG IEEE_DIVIDE_BY_ZERO IEEE_UNDERFLOW_FLAG IEEE_DENORMAL
Note: The following floating-point exceptions are signalling: IEEE_INVALID_FLAG IEEE_DIVIDE_BY_ZERO IEEE_UNDERFLOW_FLAG IEEE_DENORMAL
Note: The following floating-point exceptions are signalling: IEEE_INVALID_FLAG IEEE_DIVIDE_BY_ZERO IEEE_UNDERFLOW_FLAG IEEE_DENORMAL
Note: The following floating-point exceptions are signalling: IEEE_INVALID_FLAG IEEE_DIVIDE_BY_ZERO IEEE_UNDERFLOW_FLAG IEEE_DENORMAL
Note: The following floating-point exceptions are signalling: IEEE_INVALID_FLAG IEEE_DIVIDE_BY_ZERO IEEE_UNDERFLOW_FLAG IEEE_DENORMAL
Note: The following floating-point exceptions are signalling: IEEE_INVALID_FLAG IEEE_DIVIDE_BY_ZERO IEEE_UNDERFLOW_FLAG IEEE_DENORMAL
Note: The following floating-point exceptions are signalling: IEEE_INVALID_FLAG IEEE_DIVIDE_BY_ZERO IEEE_UNDERFLOW_FLAG IEEE_DENORMAL
Note: The following floating-point exceptions are signalling: IEEE_INVALID_FLAG IEEE_DIVIDE_BY_ZERO IEEE_UNDERFLOW_FLAG IEEE_DENORMAL
Note: The following floating-point exceptions are signalling: IEEE_INVALID_FLAG IEEE_DIVIDE_BY_ZERO IEEE_UNDERFLOW_FLAG IEEE_DENORMAL
Note: The following floating-point exceptions are signalling: IEEE_INVALID_FLAG IEEE_DIVIDE_BY_ZERO IEEE_UNDERFLOW_FLAG IEEE_DENORMAL
Note: The following floating-point exceptions are signalling: IEEE_INVALID_FLAG IEEE_DIVIDE_BY_ZERO IEEE_UNDERFLOW_FLAG IEEE_DENORMAL
Note: The following floating-point exceptions are signalling: IEEE_INVALID_FLAG IEEE_DIVIDE_BY_ZERO IEEE_UNDERFLOW_FLAG IEEE_DENORMAL
Note: The following floating-point exceptions are signalling: IEEE_INVALID_FLAG IEEE_DIVIDE_BY_ZERO IEEE_UNDERFLOW_FLAG IEEE_DENORMAL
Note: The following floating-point exceptions are signalling: IEEE_INVALID_FLAG IEEE_DIVIDE_BY_ZERO IEEE_UNDERFLOW_FLAG IEEE_DENORMAL
Note: The following floating-point exceptions are signalling: IEEE_INVALID_FLAG IEEE_DIVIDE_BY_ZERO IEEE_UNDERFLOW_FLAG IEEE_DENORMAL
Note: The following floating-point exceptions are signalling: IEEE_INVALID_FLAG IEEE_DIVIDE_BY_ZERO IEEE_UNDERFLOW_FLAG IEEE_DENORMAL
Note: The following floating-point exceptions are signalling: IEEE_INVALID_FLAG IEEE_DIVIDE_BY_ZERO IEEE_UNDERFLOW_FLAG IEEE_DENORMAL
Note: The following floating-point exceptions are signalling: IEEE_INVALID_FLAG IEEE_DIVIDE_BY_ZERO IEEE_UNDERFLOW_FLAG IEEE_DENORMAL
Note: The following floating-point exceptions are signalling: IEEE_INVALID_FLAG IEEE_DIVIDE_BY_ZERO IEEE_UNDERFLOW_FLAG IEEE_DENORMAL
Note: The following floating-point exceptions are signalling: IEEE_INVALID_FLAG IEEE_DIVIDE_BY_ZERO IEEE_UNDERFLOW_FLAG IEEE_DENORMAL
Note: The following floating-point exceptions are signalling: IEEE_INVALID_FLAG IEEE_DIVIDE_BY_ZERO IEEE_UNDERFLOW_FLAG IEEE_DENORMAL
Note: The following floating-point exceptions are signalling: IEEE_INVALID_FLAG IEEE_DIVIDE_BY_ZERO IEEE_UNDERFLOW_FLAG IEEE_DENORMAL
Note: The following floating-point exceptions are signalling: IEEE_INVALID_FLAG IEEE_DIVIDE_BY_ZERO IEEE_UNDERFLOW_FLAG IEEE_DENORMAL
Note: The following floating-point exceptions are signalling: IEEE_INVALID_FLAG IEEE_DIVIDE_BY_ZERO IEEE_UNDERFLOW_FLAG IEEE_DENORMAL
Note: The following floating-point exceptions are signalling: IEEE_INVALID_FLAG IEEE_DIVIDE_BY_ZERO IEEE_UNDERFLOW_FLAG IEEE_DENORMAL
Note: The following floating-point exceptions are signalling: IEEE_INVALID_FLAG IEEE_DIVIDE_BY_ZERO IEEE_UNDERFLOW_FLAG IEEE_DENORMAL
Note: The following floating-point exceptions are signalling: IEEE_INVALID_FLAG IEEE_DIVIDE_BY_ZERO IEEE_UNDERFLOW_FLAG IEEE_DENORMAL
Note: The following floating-point exceptions are signalling: IEEE_INVALID_FLAG IEEE_DIVIDE_BY_ZERO IEEE_UNDERFLOW_FLAG IEEE_DENORMAL
Note: The following floating-point exceptions are signalling: IEEE_INVALID_FLAG IEEE_DIVIDE_BY_ZERO IEEE_UNDERFLOW_FLAG IEEE_DENORMAL
Note: The following floating-point exceptions are signalling: IEEE_INVALID_FLAG IEEE_DIVIDE_BY_ZERO IEEE_UNDERFLOW_FLAG IEEE_DENORMAL
Note: The following floating-point exceptions are signalling: IEEE_INVALID_FLAG IEEE_DIVIDE_BY_ZERO IEEE_UNDERFLOW_FLAG IEEE_DENORMAL
Note: The following floating-point exceptions are signalling: IEEE_INVALID_FLAG IEEE_DIVIDE_BY_ZERO IEEE_UNDERFLOW_FLAG IEEE_DENORMAL
Note: The following floating-point exceptions are signalling: IEEE_INVALID_FLAG IEEE_DIVIDE_BY_ZERO IEEE_UNDERFLOW_FLAG IEEE_DENORMAL
Note: The following floating-point exceptions are signalling: IEEE_INVALID_FLAG IEEE_DIVIDE_BY_ZERO IEEE_UNDERFLOW_FLAG IEEE_DENORMAL
Note: The following floating-point exceptions are signalling: IEEE_INVALID_FLAG IEEE_DIVIDE_BY_ZERO IEEE_UNDERFLOW_FLAG IEEE_DENORMAL
Note: The following floating-point exceptions are signalling: IEEE_INVALID_FLAG IEEE_DIVIDE_BY_ZERO IEEE_UNDERFLOW_FLAG IEEE_DENORMAL
Note: The following floating-point exceptions are signalling: IEEE_INVALID_FLAG IEEE_DIVIDE_BY_ZERO IEEE_UNDERFLOW_FLAG IEEE_DENORMAL
Note: The following floating-point exceptions are signalling: IEEE_INVALID_FLAG IEEE_DIVIDE_BY_ZERO IEEE_UNDERFLOW_FLAG IEEE_DENORMAL
Note: The following floating-point exceptions are signalling: IEEE_INVALID_FLAG IEEE_DIVIDE_BY_ZERO IEEE_UNDERFLOW_FLAG IEEE_DENORMAL
Note: The following floating-point exceptions are signalling: IEEE_INVALID_FLAG IEEE_DIVIDE_BY_ZERO IEEE_UNDERFLOW_FLAG IEEE_DENORMAL
Note: The following floating-point exceptions are signalling: IEEE_INVALID_FLAG IEEE_DIVIDE_BY_ZERO IEEE_UNDERFLOW_FLAG IEEE_DENORMAL
Note: The following floating-point exceptions are signalling: IEEE_INVALID_FLAG IEEE_DIVIDE_BY_ZERO IEEE_UNDERFLOW_FLAG IEEE_DENORMAL
Note: The following floating-point exceptions are signalling: IEEE_INVALID_FLAG IEEE_DIVIDE_BY_ZERO IEEE_UNDERFLOW_FLAG IEEE_DENORMAL
Note: The following floating-point exceptions are signalling: IEEE_INVALID_FLAG IEEE_DIVIDE_BY_ZERO IEEE_UNDERFLOW_FLAG IEEE_DENORMAL
Note: The following floating-point exceptions are signalling: IEEE_INVALID_FLAG IEEE_DIVIDE_BY_ZERO IEEE_UNDERFLOW_FLAG IEEE_DENORMAL
Note: The following floating-point exceptions are signalling: IEEE_INVALID_FLAG IEEE_DIVIDE_BY_ZERO IEEE_UNDERFLOW_FLAG IEEE_DENORMAL
Note: The following floating-point exceptions are signalling: IEEE_INVALID_FLAG IEEE_DIVIDE_BY_ZERO IEEE_UNDERFLOW_FLAG IEEE_DENORMAL
Note: The following floating-point exceptions are signalling: IEEE_INVALID_FLAG IEEE_DIVIDE_BY_ZERO IEEE_UNDERFLOW_FLAG IEEE_DENORMAL
Note: The following floating-point exceptions are signalling: IEEE_INVALID_FLAG IEEE_DIVIDE_BY_ZERO IEEE_UNDERFLOW_FLAG IEEE_DENORMAL
Note: The following floating-point exceptions are signalling: IEEE_INVALID_FLAG IEEE_DIVIDE_BY_ZERO IEEE_UNDERFLOW_FLAG IEEE_DENORMAL
Note: The following floating-point exceptions are signalling: IEEE_INVALID_FLAG IEEE_DIVIDE_BY_ZERO IEEE_UNDERFLOW_FLAG IEEE_DENORMAL
Note: The following floating-point exceptions are signalling: IEEE_INVALID_FLAG IEEE_DIVIDE_BY_ZERO IEEE_UNDERFLOW_FLAG IEEE_DENORMAL
Note: The following floating-point exceptions are signalling: IEEE_INVALID_FLAG IEEE_DIVIDE_BY_ZERO IEEE_UNDERFLOW_FLAG IEEE_DENORMAL
Note: The following floating-point exceptions are signalling: IEEE_INVALID_FLAG IEEE_DIVIDE_BY_ZERO IEEE_UNDERFLOW_FLAG IEEE_DENORMAL
Note: The following floating-point exceptions are signalling: IEEE_INVALID_FLAG IEEE_DIVIDE_BY_ZERO IEEE_UNDERFLOW_FLAG IEEE_DENORMAL
Note: The following floating-point exceptions are signalling: IEEE_INVALID_FLAG IEEE_DIVIDE_BY_ZERO IEEE_UNDERFLOW_FLAG IEEE_DENORMAL
Note: The following floating-point exceptions are signalling: IEEE_INVALID_FLAG IEEE_DIVIDE_BY_ZERO IEEE_UNDERFLOW_FLAG IEEE_DENORMAL
Note: The following floating-point exceptions are signalling: IEEE_INVALID_FLAG IEEE_DIVIDE_BY_ZERO IEEE_UNDERFLOW_FLAG IEEE_DENORMAL
Note: The following floating-point exceptions are signalling: IEEE_INVALID_FLAG IEEE_DIVIDE_BY_ZERO IEEE_UNDERFLOW_FLAG IEEE_DENORMAL
Note: The following floating-point exceptions are signalling: IEEE_INVALID_FLAG IEEE_DIVIDE_BY_ZERO IEEE_UNDERFLOW_FLAG IEEE_DENORMAL
Note: The following floating-point exceptions are signalling: IEEE_INVALID_FLAG IEEE_DIVIDE_BY_ZERO IEEE_UNDERFLOW_FLAG IEEE_DENORMAL
Note: The following floating-point exceptions are signalling: IEEE_INVALID_FLAG IEEE_DIVIDE_BY_ZERO IEEE_UNDERFLOW_FLAG IEEE_DENORMAL
Note: The following floating-point exceptions are signalling: IEEE_INVALID_FLAG IEEE_DIVIDE_BY_ZERO IEEE_UNDERFLOW_FLAG IEEE_DENORMAL
Note: The following floating-point exceptions are signalling: IEEE_INVALID_FLAG IEEE_DIVIDE_BY_ZERO IEEE_UNDERFLOW_FLAG IEEE_DENORMAL
Note: The following floating-point exceptions are signalling: IEEE_INVALID_FLAG IEEE_DIVIDE_BY_ZERO IEEE_UNDERFLOW_FLAG IEEE_DENORMAL
Note: The following floating-point exceptions are signalling: IEEE_INVALID_FLAG IEEE_DIVIDE_BY_ZERO IEEE_UNDERFLOW_FLAG IEEE_DENORMAL
Note: The following floating-point exceptions are signalling: IEEE_INVALID_FLAG IEEE_DIVIDE_BY_ZERO IEEE_UNDERFLOW_FLAG IEEE_DENORMAL
Note: The following floating-point exceptions are signalling: IEEE_INVALID_FLAG IEEE_DIVIDE_BY_ZERO IEEE_UNDERFLOW_FLAG IEEE_DENORMAL
Note: The following floating-point exceptions are signalling: IEEE_INVALID_FLAG IEEE_DIVIDE_BY_ZERO IEEE_UNDERFLOW_FLAG IEEE_DENORMAL
Note: The following floating-point exceptions are signalling: IEEE_INVALID_FLAG IEEE_DIVIDE_BY_ZERO IEEE_UNDERFLOW_FLAG IEEE_DENORMAL
Note: The following floating-point exceptions are signalling: IEEE_INVALID_FLAG IEEE_DIVIDE_BY_ZERO IEEE_UNDERFLOW_FLAG IEEE_DENORMAL
Note: The following floating-point exceptions are signalling: IEEE_INVALID_FLAG IEEE_DIVIDE_BY_ZERO IEEE_UNDERFLOW_FLAG IEEE_DENORMAL
Note: The following floating-point exceptions are signalling: IEEE_INVALID_FLAG IEEE_DIVIDE_BY_ZERO IEEE_UNDERFLOW_FLAG IEEE_DENORMAL
Note: The following floating-point exceptions are signalling: IEEE_INVALID_FLAG IEEE_DIVIDE_BY_ZERO IEEE_UNDERFLOW_FLAG IEEE_DENORMAL
Note: The following floating-point exceptions are signalling: IEEE_INVALID_FLAG IEEE_DIVIDE_BY_ZERO IEEE_UNDERFLOW_FLAG IEEE_DENORMAL
Note: The following floating-point exceptions are signalling: IEEE_INVALID_FLAG IEEE_DIVIDE_BY_ZERO IEEE_UNDERFLOW_FLAG IEEE_DENORMAL
Note: The following floating-point exceptions are signalling: IEEE_INVALID_FLAG IEEE_DIVIDE_BY_ZERO IEEE_UNDERFLOW_FLAG IEEE_DENORMAL
Note: The following floating-point exceptions are signalling: IEEE_INVALID_FLAG IEEE_DIVIDE_BY_ZERO IEEE_UNDERFLOW_FLAG IEEE_DENORMAL
Note: The following floating-point exceptions are signalling: IEEE_INVALID_FLAG IEEE_DIVIDE_BY_ZERO IEEE_UNDERFLOW_FLAG IEEE_DENORMAL
Note: The following floating-point exceptions are signalling: IEEE_INVALID_FLAG IEEE_DIVIDE_BY_ZERO IEEE_UNDERFLOW_FLAG IEEE_DENORMAL
Note: The following floating-point exceptions are signalling: IEEE_INVALID_FLAG IEEE_DIVIDE_BY_ZERO IEEE_UNDERFLOW_FLAG IEEE_DENORMAL
Note: The following floating-point exceptions are signalling: IEEE_INVALID_FLAG IEEE_DIVIDE_BY_ZERO IEEE_UNDERFLOW_FLAG IEEE_DENORMAL
Note: The following floating-point exceptions are signalling: IEEE_INVALID_FLAG IEEE_DIVIDE_BY_ZERO IEEE_UNDERFLOW_FLAG IEEE_DENORMAL
Note: The following floating-point exceptions are signalling: IEEE_INVALID_FLAG IEEE_DIVIDE_BY_ZERO IEEE_UNDERFLOW_FLAG IEEE_DENORMAL
Note: The following floating-point exceptions are signalling: IEEE_INVALID_FLAG IEEE_DIVIDE_BY_ZERO IEEE_UNDERFLOW_FLAG IEEE_DENORMAL
Note: The following floating-point exceptions are signalling: IEEE_INVALID_FLAG IEEE_DIVIDE_BY_ZERO IEEE_UNDERFLOW_FLAG IEEE_DENORMAL
Note: The following floating-point exceptions are signalling: IEEE_INVALID_FLAG IEEE_DIVIDE_BY_ZERO IEEE_UNDERFLOW_FLAG IEEE_DENORMAL
Note: The following floating-point exceptions are signalling: IEEE_INVALID_FLAG IEEE_DIVIDE_BY_ZERO IEEE_UNDERFLOW_FLAG IEEE_DENORMAL
Note: The following floating-point exceptions are signalling: IEEE_INVALID_FLAG IEEE_DIVIDE_BY_ZERO IEEE_UNDERFLOW_FLAG IEEE_DENORMAL
Note: The following floating-point exceptions are signalling: IEEE_INVALID_FLAG IEEE_DIVIDE_BY_ZERO IEEE_UNDERFLOW_FLAG IEEE_DENORMAL
Note: The following floating-point exceptions are signalling: IEEE_INVALID_FLAG IEEE_DIVIDE_BY_ZERO IEEE_UNDERFLOW_FLAG IEEE_DENORMAL
Note: The following floating-point exceptions are signalling: IEEE_INVALID_FLAG IEEE_DIVIDE_BY_ZERO IEEE_UNDERFLOW_FLAG IEEE_DENORMAL
Note: The following floating-point exceptions are signalling: IEEE_INVALID_FLAG IEEE_DIVIDE_BY_ZERO IEEE_UNDERFLOW_FLAG IEEE_DENORMAL
Note: The following floating-point exceptions are signalling: IEEE_INVALID_FLAG IEEE_DIVIDE_BY_ZERO IEEE_UNDERFLOW_FLAG IEEE_DENORMAL
Note: The following floating-point exceptions are signalling: IEEE_INVALID_FLAG IEEE_DIVIDE_BY_ZERO IEEE_UNDERFLOW_FLAG IEEE_DENORMAL
Note: The following floating-point exceptions are signalling: IEEE_INVALID_FLAG IEEE_DIVIDE_BY_ZERO IEEE_UNDERFLOW_FLAG IEEE_DENORMAL
Note: The following floating-point exceptions are signalling: IEEE_INVALID_FLAG IEEE_DIVIDE_BY_ZERO IEEE_UNDERFLOW_FLAG IEEE_DENORMAL
Note: The following floating-point exceptions are signalling: IEEE_INVALID_FLAG IEEE_DIVIDE_BY_ZERO IEEE_UNDERFLOW_FLAG IEEE_DENORMAL
Note: The following floating-point exceptions are signalling: IEEE_INVALID_FLAG IEEE_DIVIDE_BY_ZERO IEEE_UNDERFLOW_FLAG IEEE_DENORMAL
Note: The following floating-point exceptions are signalling: IEEE_INVALID_FLAG IEEE_DIVIDE_BY_ZERO IEEE_UNDERFLOW_FLAG IEEE_DENORMAL
Note: The following floating-point exceptions are signalling: IEEE_INVALID_FLAG IEEE_DIVIDE_BY_ZERO IEEE_UNDERFLOW_FLAG IEEE_DENORMAL
Note: The following floating-point exceptions are signalling: IEEE_INVALID_FLAG IEEE_DIVIDE_BY_ZERO IEEE_UNDERFLOW_FLAG IEEE_DENORMAL
Note: The following floating-point exceptions are signalling: IEEE_INVALID_FLAG IEEE_DIVIDE_BY_ZERO IEEE_UNDERFLOW_FLAG IEEE_DENORMAL
Note: The following floating-point exceptions are signalling: IEEE_INVALID_FLAG IEEE_DIVIDE_BY_ZERO IEEE_UNDERFLOW_FLAG IEEE_DENORMAL
Note: The following floating-point exceptions are signalling: IEEE_INVALID_FLAG IEEE_DIVIDE_BY_ZERO IEEE_UNDERFLOW_FLAG IEEE_DENORMAL
Note: The following floating-point exceptions are signalling: IEEE_INVALID_FLAG IEEE_DIVIDE_BY_ZERO IEEE_UNDERFLOW_FLAG IEEE_DENORMAL
Note: The following floating-point exceptions are signalling: IEEE_INVALID_FLAG IEEE_DIVIDE_BY_ZERO IEEE_UNDERFLOW_FLAG IEEE_DENORMAL
Note: The following floating-point exceptions are signalling: IEEE_INVALID_FLAG IEEE_DIVIDE_BY_ZERO IEEE_UNDERFLOW_FLAG IEEE_DENORMAL
Note: The following floating-point exceptions are signalling: IEEE_INVALID_FLAG IEEE_DIVIDE_BY_ZERO IEEE_UNDERFLOW_FLAG IEEE_DENORMAL
Note: The following floating-point exceptions are signalling: IEEE_INVALID_FLAG IEEE_DIVIDE_BY_ZERO IEEE_UNDERFLOW_FLAG IEEE_DENORMAL
Note: The following floating-point exceptions are signalling: IEEE_INVALID_FLAG IEEE_DIVIDE_BY_ZERO IEEE_UNDERFLOW_FLAG IEEE_DENORMAL
Note: The following floating-point exceptions are signalling: IEEE_INVALID_FLAG IEEE_DIVIDE_BY_ZERO IEEE_UNDERFLOW_FLAG IEEE_DENORMAL
Note: The following floating-point exceptions are signalling: IEEE_INVALID_FLAG IEEE_DIVIDE_BY_ZERO IEEE_UNDERFLOW_FLAG IEEE_DENORMAL
Note: The following floating-point exceptions are signalling: IEEE_INVALID_FLAG IEEE_DIVIDE_BY_ZERO IEEE_UNDERFLOW_FLAG IEEE_DENORMAL
Note: The following floating-point exceptions are signalling: IEEE_INVALID_FLAG IEEE_DIVIDE_BY_ZERO IEEE_UNDERFLOW_FLAG IEEE_DENORMAL
Note: The following floating-point exceptions are signalling: IEEE_INVALID_FLAG IEEE_DIVIDE_BY_ZERO IEEE_UNDERFLOW_FLAG IEEE_DENORMAL
Note: The following floating-point exceptions are signalling: IEEE_INVALID_FLAG IEEE_DIVIDE_BY_ZERO IEEE_UNDERFLOW_FLAG IEEE_DENORMAL
Note: The following floating-point exceptions are signalling: IEEE_INVALID_FLAG IEEE_DIVIDE_BY_ZERO IEEE_UNDERFLOW_FLAG IEEE_DENORMAL
Note: The following floating-point exceptions are signalling: IEEE_INVALID_FLAG IEEE_DIVIDE_BY_ZERO IEEE_UNDERFLOW_FLAG IEEE_DENORMAL
Note: The following floating-point exceptions are signalling: IEEE_INVALID_FLAG IEEE_DIVIDE_BY_ZERO IEEE_UNDERFLOW_FLAG IEEE_DENORMAL
Note: The following floating-point exceptions are signalling: IEEE_INVALID_FLAG IEEE_DIVIDE_BY_ZERO IEEE_UNDERFLOW_FLAG IEEE_DENORMAL
Note: The following floating-point exceptions are signalling: IEEE_INVALID_FLAG IEEE_DIVIDE_BY_ZERO IEEE_UNDERFLOW_FLAG IEEE_DENORMAL
Note: The following floating-point exceptions are signalling: IEEE_INVALID_FLAG IEEE_DIVIDE_BY_ZERO IEEE_UNDERFLOW_FLAG IEEE_DENORMAL
Note: The following floating-point exceptions are signalling: IEEE_INVALID_FLAG IEEE_DIVIDE_BY_ZERO IEEE_UNDERFLOW_FLAG IEEE_DENORMAL
Note: The following floating-point exceptions are signalling: IEEE_INVALID_FLAG IEEE_DIVIDE_BY_ZERO IEEE_UNDERFLOW_FLAG IEEE_DENORMAL
Note: The following floating-point exceptions are signalling: IEEE_INVALID_FLAG IEEE_DIVIDE_BY_ZERO IEEE_UNDERFLOW_FLAG IEEE_DENORMAL
