 160 160   0   0
  0.1215613E+02  0.1537564E-08  0.1124787E-08  0.1124760E-08  0.5000000E-15
  1.000000000000000E-004
  CAR 
 unknown system                          
     17.05032337    -54.78995882  301      4.89734230      1.00000000
    -54.790  0.0000E+00  0.0000E+00  0.0000E+00  0.0000E+00
    -54.550  0.0000E+00  0.0000E+00  0.0000E+00  0.0000E+00
    -54.311  0.0000E+00  0.0000E+00  0.0000E+00  0.0000E+00
    -54.072  0.0000E+00  0.0000E+00  0.0000E+00  0.0000E+00
    -53.832  0.0000E+00  0.0000E+00  0.0000E+00  0.0000E+00
    -53.593  0.0000E+00  0.0000E+00  0.0000E+00  0.0000E+00
    -53.353  0.0000E+00  0.0000E+00  0.0000E+00  0.0000E+00
    -53.114  0.0000E+00  0.0000E+00  0.0000E+00  0.0000E+00
    -52.874  0.0000E+00  0.0000E+00  0.0000E+00  0.0000E+00
    -52.635  0.0000E+00  0.0000E+00  0.0000E+00  0.0000E+00
    -52.395  0.0000E+00  0.0000E+00  0.0000E+00  0.0000E+00
    -52.156  0.0000E+00  0.0000E+00  0.0000E+00  0.0000E+00
    -51.916  0.0000E+00  0.0000E+00  0.0000E+00  0.0000E+00
    -51.677  0.3895E-03  0.0000E+00  0.9328E-04  0.0000E+00
    -51.437  0.8191E+02  0.0000E+00  0.1961E+02  0.0000E+00
    -51.198  0.5172E+02  0.0000E+00  0.3200E+02  0.0000E+00
    -50.958  0.0000E+00  0.0000E+00  0.3200E+02  0.0000E+00
    -50.719  0.0000E+00  0.0000E+00  0.3200E+02  0.0000E+00
    -50.480  0.5558E-13  0.0000E+00  0.3200E+02  0.0000E+00
    -50.240  0.7745E+01  0.0000E+00  0.3385E+02  0.0000E+00
    -50.001  0.1681E+03  0.0000E+00  0.7411E+02  0.0000E+00
    -49.761  0.9142E+02  0.0000E+00  0.9600E+02  0.0000E+00
    -49.522  0.0000E+00  0.0000E+00  0.9600E+02  0.0000E+00
    -49.282  0.0000E+00  0.0000E+00  0.9600E+02  0.0000E+00
    -49.043  0.0000E+00  0.0000E+00  0.9600E+02  0.0000E+00
    -48.803  0.0000E+00  0.0000E+00  0.9600E+02  0.0000E+00
    -48.564  0.0000E+00  0.0000E+00  0.9600E+02  0.0000E+00
    -48.324  0.0000E+00  0.0000E+00  0.9600E+02  0.0000E+00
    -48.085  0.0000E+00  0.0000E+00  0.9600E+02  0.0000E+00
    -47.845  0.0000E+00  0.0000E+00  0.9600E+02  0.0000E+00
    -47.606  0.0000E+00  0.0000E+00  0.9600E+02  0.0000E+00
    -47.366  0.0000E+00  0.0000E+00  0.9600E+02  0.0000E+00
    -47.127  0.0000E+00  0.0000E+00  0.9600E+02  0.0000E+00
    -46.888  0.0000E+00  0.1959E+00  0.9600E+02  0.4692E-01
    -46.648  0.0000E+00  0.1061E+03  0.9600E+02  0.2544E+02
    -46.409  0.0000E+00  0.1048E+03  0.9600E+02  0.5053E+02
    -46.169  0.0000E+00  0.1896E+03  0.9600E+02  0.9593E+02
    -45.930  0.0000E+00  0.3088E+00  0.9600E+02  0.9600E+02
    -45.690  0.0000E+00  0.0000E+00  0.9600E+02  0.9600E+02
    -45.451  0.0000E+00  0.0000E+00  0.9600E+02  0.9600E+02
    -45.211  0.0000E+00  0.0000E+00  0.9600E+02  0.9600E+02
    -44.972  0.0000E+00  0.0000E+00  0.9600E+02  0.9600E+02
    -44.732  0.0000E+00  0.0000E+00  0.9600E+02  0.9600E+02
    -44.493  0.0000E+00  0.0000E+00  0.9600E+02  0.9600E+02
    -44.253  0.0000E+00  0.0000E+00  0.9600E+02  0.9600E+02
    -44.014  0.0000E+00  0.0000E+00  0.9600E+02  0.9600E+02
    -43.774  0.0000E+00  0.0000E+00  0.9600E+02  0.9600E+02
    -43.535  0.0000E+00  0.0000E+00  0.9600E+02  0.9600E+02
    -43.296  0.0000E+00  0.0000E+00  0.9600E+02  0.9600E+02
    -43.056  0.0000E+00  0.0000E+00  0.9600E+02  0.9600E+02
    -42.817  0.0000E+00  0.0000E+00  0.9600E+02  0.9600E+02
    -42.577  0.0000E+00  0.0000E+00  0.9600E+02  0.9600E+02
    -42.338  0.0000E+00  0.0000E+00  0.9600E+02  0.9600E+02
    -42.098  0.0000E+00  0.0000E+00  0.9600E+02  0.9600E+02
    -41.859  0.0000E+00  0.0000E+00  0.9600E+02  0.9600E+02
    -41.619  0.0000E+00  0.0000E+00  0.9600E+02  0.9600E+02
    -41.380  0.0000E+00  0.0000E+00  0.9600E+02  0.9600E+02
    -41.140  0.0000E+00  0.0000E+00  0.9600E+02  0.9600E+02
    -40.901  0.0000E+00  0.0000E+00  0.9600E+02  0.9600E+02
    -40.661  0.2112E-14  0.4636E-15  0.9600E+02  0.9600E+02
    -40.422  0.3737E+01  0.3288E+01  0.9689E+02  0.9679E+02
    -40.182  0.1800E+03  0.1825E+03  0.1400E+03  0.1405E+03
    -39.943  0.8351E+02  0.8144E+02  0.1600E+03  0.1600E+03
    -39.703  0.0000E+00  0.0000E+00  0.1600E+03  0.1600E+03
    -39.464  0.0000E+00  0.0000E+00  0.1600E+03  0.1600E+03
    -39.225  0.0000E+00  0.0000E+00  0.1600E+03  0.1600E+03
    -38.985  0.0000E+00  0.0000E+00  0.1600E+03  0.1600E+03
    -38.746  0.0000E+00  0.0000E+00  0.1600E+03  0.1600E+03
    -38.506  0.0000E+00  0.0000E+00  0.1600E+03  0.1600E+03
    -38.267  0.0000E+00  0.0000E+00  0.1600E+03  0.1600E+03
    -38.027  0.0000E+00  0.0000E+00  0.1600E+03  0.1600E+03
    -37.788  0.0000E+00  0.0000E+00  0.1600E+03  0.1600E+03
    -37.548  0.0000E+00  0.0000E+00  0.1600E+03  0.1600E+03
    -37.309  0.0000E+00  0.0000E+00  0.1600E+03  0.1600E+03
    -37.069  0.0000E+00  0.0000E+00  0.1600E+03  0.1600E+03
    -36.830  0.0000E+00  0.0000E+00  0.1600E+03  0.1600E+03
    -36.590  0.0000E+00  0.0000E+00  0.1600E+03  0.1600E+03
    -36.351  0.0000E+00  0.0000E+00  0.1600E+03  0.1600E+03
    -36.111  0.0000E+00  0.0000E+00  0.1600E+03  0.1600E+03
    -35.872  0.0000E+00  0.0000E+00  0.1600E+03  0.1600E+03
    -35.633  0.0000E+00  0.0000E+00  0.1600E+03  0.1600E+03
    -35.393  0.0000E+00  0.0000E+00  0.1600E+03  0.1600E+03
    -35.154  0.0000E+00  0.0000E+00  0.1600E+03  0.1600E+03
    -34.914  0.0000E+00  0.0000E+00  0.1600E+03  0.1600E+03
    -34.675  0.0000E+00  0.0000E+00  0.1600E+03  0.1600E+03
    -34.435  0.0000E+00  0.0000E+00  0.1600E+03  0.1600E+03
    -34.196  0.0000E+00  0.0000E+00  0.1600E+03  0.1600E+03
    -33.956  0.0000E+00  0.0000E+00  0.1600E+03  0.1600E+03
    -33.717  0.0000E+00  0.0000E+00  0.1600E+03  0.1600E+03
    -33.477  0.0000E+00  0.0000E+00  0.1600E+03  0.1600E+03
    -33.238  0.0000E+00  0.0000E+00  0.1600E+03  0.1600E+03
    -32.998  0.0000E+00  0.0000E+00  0.1600E+03  0.1600E+03
    -32.759  0.0000E+00  0.0000E+00  0.1600E+03  0.1600E+03
    -32.519  0.0000E+00  0.0000E+00  0.1600E+03  0.1600E+03
    -32.280  0.0000E+00  0.0000E+00  0.1600E+03  0.1600E+03
    -32.041  0.0000E+00  0.0000E+00  0.1600E+03  0.1600E+03
    -31.801  0.0000E+00  0.0000E+00  0.1600E+03  0.1600E+03
    -31.562  0.0000E+00  0.0000E+00  0.1600E+03  0.1600E+03
    -31.322  0.0000E+00  0.0000E+00  0.1600E+03  0.1600E+03
    -31.083  0.0000E+00  0.0000E+00  0.1600E+03  0.1600E+03
    -30.843  0.0000E+00  0.0000E+00  0.1600E+03  0.1600E+03
    -30.604  0.0000E+00  0.0000E+00  0.1600E+03  0.1600E+03
    -30.364  0.0000E+00  0.0000E+00  0.1600E+03  0.1600E+03
    -30.125  0.0000E+00  0.0000E+00  0.1600E+03  0.1600E+03
    -29.885  0.0000E+00  0.0000E+00  0.1600E+03  0.1600E+03
    -29.646  0.0000E+00  0.0000E+00  0.1600E+03  0.1600E+03
    -29.406  0.0000E+00  0.0000E+00  0.1600E+03  0.1600E+03
    -29.167  0.0000E+00  0.0000E+00  0.1600E+03  0.1600E+03
    -28.927  0.0000E+00  0.0000E+00  0.1600E+03  0.1600E+03
    -28.688  0.0000E+00  0.0000E+00  0.1600E+03  0.1600E+03
    -28.449  0.0000E+00  0.0000E+00  0.1600E+03  0.1600E+03
    -28.209  0.0000E+00  0.0000E+00  0.1600E+03  0.1600E+03
    -27.970  0.0000E+00  0.0000E+00  0.1600E+03  0.1600E+03
    -27.730  0.0000E+00  0.0000E+00  0.1600E+03  0.1600E+03
    -27.491  0.0000E+00  0.0000E+00  0.1600E+03  0.1600E+03
    -27.251  0.0000E+00  0.0000E+00  0.1600E+03  0.1600E+03
    -27.012  0.0000E+00  0.0000E+00  0.1600E+03  0.1600E+03
    -26.772  0.0000E+00  0.0000E+00  0.1600E+03  0.1600E+03
    -26.533  0.0000E+00  0.0000E+00  0.1600E+03  0.1600E+03
    -26.293  0.0000E+00  0.0000E+00  0.1600E+03  0.1600E+03
    -26.054  0.0000E+00  0.0000E+00  0.1600E+03  0.1600E+03
    -25.814  0.0000E+00  0.0000E+00  0.1600E+03  0.1600E+03
    -25.575  0.0000E+00  0.0000E+00  0.1600E+03  0.1600E+03
    -25.335  0.0000E+00  0.0000E+00  0.1600E+03  0.1600E+03
    -25.096  0.0000E+00  0.0000E+00  0.1600E+03  0.1600E+03
    -24.857  0.0000E+00  0.0000E+00  0.1600E+03  0.1600E+03
    -24.617  0.0000E+00  0.0000E+00  0.1600E+03  0.1600E+03
    -24.378  0.0000E+00  0.0000E+00  0.1600E+03  0.1600E+03
    -24.138  0.0000E+00  0.0000E+00  0.1600E+03  0.1600E+03
    -23.899  0.0000E+00  0.0000E+00  0.1600E+03  0.1600E+03
    -23.659  0.0000E+00  0.0000E+00  0.1600E+03  0.1600E+03
    -23.420  0.0000E+00  0.0000E+00  0.1600E+03  0.1600E+03
    -23.180  0.0000E+00  0.0000E+00  0.1600E+03  0.1600E+03
    -22.941  0.0000E+00  0.0000E+00  0.1600E+03  0.1600E+03
    -22.701  0.0000E+00  0.0000E+00  0.1600E+03  0.1600E+03
    -22.462  0.0000E+00  0.0000E+00  0.1600E+03  0.1600E+03
    -22.222  0.0000E+00  0.0000E+00  0.1600E+03  0.1600E+03
    -21.983  0.0000E+00  0.0000E+00  0.1600E+03  0.1600E+03
    -21.743  0.0000E+00  0.0000E+00  0.1600E+03  0.1600E+03
    -21.504  0.0000E+00  0.0000E+00  0.1600E+03  0.1600E+03
    -21.264  0.0000E+00  0.0000E+00  0.1600E+03  0.1600E+03
    -21.025  0.0000E+00  0.0000E+00  0.1600E+03  0.1600E+03
    -20.786  0.0000E+00  0.0000E+00  0.1600E+03  0.1600E+03
    -20.546  0.0000E+00  0.0000E+00  0.1600E+03  0.1600E+03
    -20.307  0.0000E+00  0.0000E+00  0.1600E+03  0.1600E+03
    -20.067  0.0000E+00  0.0000E+00  0.1600E+03  0.1600E+03
    -19.828  0.0000E+00  0.0000E+00  0.1600E+03  0.1600E+03
    -19.588  0.0000E+00  0.0000E+00  0.1600E+03  0.1600E+03
    -19.349  0.0000E+00  0.0000E+00  0.1600E+03  0.1600E+03
    -19.109  0.0000E+00  0.0000E+00  0.1600E+03  0.1600E+03
    -18.870  0.0000E+00  0.0000E+00  0.1600E+03  0.1600E+03
    -18.630  0.0000E+00  0.0000E+00  0.1600E+03  0.1600E+03
    -18.391  0.0000E+00  0.0000E+00  0.1600E+03  0.1600E+03
    -18.151  0.0000E+00  0.0000E+00  0.1600E+03  0.1600E+03
    -17.912  0.0000E+00  0.0000E+00  0.1600E+03  0.1600E+03
    -17.672  0.0000E+00  0.0000E+00  0.1600E+03  0.1600E+03
    -17.433  0.0000E+00  0.0000E+00  0.1600E+03  0.1600E+03
    -17.194  0.0000E+00  0.0000E+00  0.1600E+03  0.1600E+03
    -16.954  0.0000E+00  0.0000E+00  0.1600E+03  0.1600E+03
    -16.715  0.0000E+00  0.0000E+00  0.1600E+03  0.1600E+03
    -16.475  0.0000E+00  0.0000E+00  0.1600E+03  0.1600E+03
    -16.236  0.0000E+00  0.0000E+00  0.1600E+03  0.1600E+03
    -15.996  0.0000E+00  0.0000E+00  0.1600E+03  0.1600E+03
    -15.757  0.0000E+00  0.0000E+00  0.1600E+03  0.1600E+03
    -15.517  0.0000E+00  0.0000E+00  0.1600E+03  0.1600E+03
    -15.278  0.0000E+00  0.0000E+00  0.1600E+03  0.1600E+03
    -15.038  0.0000E+00  0.0000E+00  0.1600E+03  0.1600E+03
    -14.799  0.0000E+00  0.0000E+00  0.1600E+03  0.1600E+03
    -14.559  0.0000E+00  0.0000E+00  0.1600E+03  0.1600E+03
    -14.320  0.0000E+00  0.0000E+00  0.1600E+03  0.1600E+03
    -14.080  0.0000E+00  0.0000E+00  0.1600E+03  0.1600E+03
    -13.841  0.0000E+00  0.0000E+00  0.1600E+03  0.1600E+03
    -13.602  0.1982E-01  0.0000E+00  0.1600E+03  0.1600E+03
    -13.362  0.5323E+02  0.2293E-05  0.1728E+03  0.1600E+03
    -13.123  0.7204E+02  0.2928E+02  0.1900E+03  0.1670E+03
    -12.883  0.8340E+01  0.9968E+02  0.1920E+03  0.1909E+03
    -12.644  0.0000E+00  0.4668E+01  0.1920E+03  0.1920E+03
    -12.404  0.0000E+00  0.0000E+00  0.1920E+03  0.1920E+03
    -12.165  0.0000E+00  0.0000E+00  0.1920E+03  0.1920E+03
    -11.925  0.0000E+00  0.0000E+00  0.1920E+03  0.1920E+03
    -11.686  0.0000E+00  0.0000E+00  0.1920E+03  0.1920E+03
    -11.446  0.0000E+00  0.0000E+00  0.1920E+03  0.1920E+03
    -11.207  0.0000E+00  0.0000E+00  0.1920E+03  0.1920E+03
    -10.967  0.0000E+00  0.0000E+00  0.1920E+03  0.1920E+03
    -10.728  0.0000E+00  0.0000E+00  0.1920E+03  0.1920E+03
    -10.488  0.0000E+00  0.0000E+00  0.1920E+03  0.1920E+03
    -10.249  0.0000E+00  0.0000E+00  0.1920E+03  0.1920E+03
    -10.010  0.0000E+00  0.0000E+00  0.1920E+03  0.1920E+03
     -9.770  0.0000E+00  0.0000E+00  0.1920E+03  0.1920E+03
     -9.531  0.0000E+00  0.0000E+00  0.1920E+03  0.1920E+03
     -9.291  0.0000E+00  0.0000E+00  0.1920E+03  0.1920E+03
     -9.052  0.0000E+00  0.0000E+00  0.1920E+03  0.1920E+03
     -8.812  0.0000E+00  0.0000E+00  0.1920E+03  0.1920E+03
     -8.573  0.0000E+00  0.0000E+00  0.1920E+03  0.1920E+03
     -8.333  0.0000E+00  0.0000E+00  0.1920E+03  0.1920E+03
     -8.094  0.0000E+00  0.0000E+00  0.1920E+03  0.1920E+03
     -7.854  0.4945E-10  0.0000E+00  0.1920E+03  0.1920E+03
     -7.615  0.1588E+01  0.4657E-07  0.1924E+03  0.1920E+03
     -7.375  0.4689E+02  0.7785E+01  0.2036E+03  0.1939E+03
     -7.136  0.6531E+02  0.6082E+02  0.2193E+03  0.2084E+03
     -6.896  0.1983E+02  0.5425E+02  0.2240E+03  0.2214E+03
     -6.657  0.9450E-02  0.1077E+02  0.2240E+03  0.2240E+03
     -6.418  0.0000E+00  0.3507E-02  0.2240E+03  0.2240E+03
     -6.178  0.0000E+00  0.0000E+00  0.2240E+03  0.2240E+03
     -5.939  0.0000E+00  0.0000E+00  0.2240E+03  0.2240E+03
     -5.699  0.0000E+00  0.0000E+00  0.2240E+03  0.2240E+03
     -5.460  0.0000E+00  0.0000E+00  0.2240E+03  0.2240E+03
     -5.220  0.0000E+00  0.0000E+00  0.2240E+03  0.2240E+03
     -4.981  0.0000E+00  0.0000E+00  0.2240E+03  0.2240E+03
     -4.741  0.0000E+00  0.0000E+00  0.2240E+03  0.2240E+03
     -4.502  0.0000E+00  0.0000E+00  0.2240E+03  0.2240E+03
     -4.262  0.0000E+00  0.0000E+00  0.2240E+03  0.2240E+03
     -4.023  0.0000E+00  0.0000E+00  0.2240E+03  0.2240E+03
     -3.783  0.0000E+00  0.0000E+00  0.2240E+03  0.2240E+03
     -3.544  0.0000E+00  0.0000E+00  0.2240E+03  0.2240E+03
     -3.304  0.0000E+00  0.0000E+00  0.2240E+03  0.2240E+03
     -3.065  0.0000E+00  0.0000E+00  0.2240E+03  0.2240E+03
     -2.825  0.5409E-15  0.0000E+00  0.2240E+03  0.2240E+03
     -2.586  0.4185E+00  0.0000E+00  0.2241E+03  0.2240E+03
     -2.347  0.3097E+02  0.0000E+00  0.2315E+03  0.2240E+03
     -2.107  0.1162E+02  0.0000E+00  0.2343E+03  0.2240E+03
     -1.868  0.1267E+02  0.0000E+00  0.2373E+03  0.2240E+03
     -1.628  0.1143E+02  0.0000E+00  0.2401E+03  0.2240E+03
     -1.389  0.1573E+02  0.0000E+00  0.2438E+03  0.2240E+03
     -1.149  0.6293E+02  0.2494E-05  0.2589E+03  0.2240E+03
     -0.910  0.7663E+02  0.3458E+01  0.2773E+03  0.2248E+03
     -0.670  0.6740E+02  0.3294E+02  0.2934E+03  0.2327E+03
     -0.431  0.7795E+02  0.1881E+02  0.3121E+03  0.2372E+03
     -0.191  0.1062E+03  0.1908E+02  0.3375E+03  0.2418E+03
      0.048  0.7841E+02  0.1228E+02  0.3563E+03  0.2447E+03
      0.288  0.5336E+02  0.3176E+02  0.3690E+03  0.2523E+03
      0.527  0.4761E+02  0.8149E+02  0.3804E+03  0.2718E+03
      0.767  0.4610E+02  0.6840E+02  0.3915E+03  0.2882E+03
      1.006  0.4681E+02  0.6982E+02  0.4027E+03  0.3050E+03
      1.245  0.7677E+02  0.6321E+02  0.4211E+03  0.3201E+03
      1.485  0.8780E+02  0.2172E+02  0.4421E+03  0.3253E+03
      1.724  0.5805E+02  0.5075E+02  0.4560E+03  0.3374E+03
      1.964  0.3994E+02  0.5160E+02  0.4656E+03  0.3498E+03
      2.203  0.4726E+02  0.3050E+02  0.4769E+03  0.3571E+03
      2.443  0.4157E+02  0.3913E+02  0.4868E+03  0.3665E+03
      2.682  0.5341E+02  0.6480E+02  0.4996E+03  0.3820E+03
      2.922  0.5393E+02  0.7215E+02  0.5125E+03  0.3993E+03
      3.161  0.5650E+02  0.5980E+02  0.5261E+03  0.4136E+03
      3.401  0.5298E+02  0.1609E+02  0.5388E+03  0.4174E+03
      3.640  0.5339E+02  0.3626E+02  0.5515E+03  0.4261E+03
      3.880  0.3983E+02  0.5948E+02  0.5611E+03  0.4404E+03
      4.119  0.3542E+02  0.3183E+02  0.5696E+03  0.4480E+03
      4.359  0.1923E+02  0.4106E-01  0.5742E+03  0.4480E+03
      4.598  0.7336E+01  0.0000E+00  0.5759E+03  0.4480E+03
      4.837  0.3133E+00  0.0000E+00  0.5760E+03  0.4480E+03
      5.077  0.0000E+00  0.0000E+00  0.5760E+03  0.4480E+03
      5.316  0.0000E+00  0.0000E+00  0.5760E+03  0.4480E+03
      5.556  0.0000E+00  0.0000E+00  0.5760E+03  0.4480E+03
      5.795  0.0000E+00  0.0000E+00  0.5760E+03  0.4480E+03
      6.035  0.0000E+00  0.0000E+00  0.5760E+03  0.4480E+03
      6.274  0.0000E+00  0.2061E-15  0.5760E+03  0.4480E+03
      6.514  0.0000E+00  0.7158E-01  0.5760E+03  0.4480E+03
      6.753  0.0000E+00  0.2459E+02  0.5760E+03  0.4539E+03
      6.993  0.8005E-06  0.7775E+02  0.5760E+03  0.4725E+03
      7.232  0.2293E+00  0.6311E+02  0.5761E+03  0.4876E+03
      7.472  0.1961E+00  0.6394E+02  0.5761E+03  0.5029E+03
      7.711  0.1383E+01  0.6304E+02  0.5764E+03  0.5180E+03
      7.951  0.3055E+01  0.9517E+02  0.5772E+03  0.5408E+03
      8.190  0.6578E+01  0.7254E+02  0.5787E+03  0.5582E+03
      8.429  0.9443E+01  0.4911E+02  0.5810E+03  0.5700E+03
      8.669  0.1883E+02  0.2487E+02  0.5855E+03  0.5759E+03
      8.908  0.2338E+02  0.7237E+01  0.5911E+03  0.5777E+03
      9.148  0.3136E+02  0.8614E+01  0.5986E+03  0.5797E+03
      9.387  0.2860E+02  0.1784E+02  0.6055E+03  0.5840E+03
      9.627  0.2973E+02  0.2692E+02  0.6126E+03  0.5904E+03
      9.866  0.2617E+02  0.3196E+02  0.6189E+03  0.5981E+03
     10.106  0.1751E+02  0.3777E+02  0.6230E+03  0.6071E+03
     10.345  0.2602E+02  0.3346E+02  0.6293E+03  0.6151E+03
     10.585  0.3644E+02  0.2857E+02  0.6380E+03  0.6220E+03
     10.824  0.4020E+02  0.3315E+02  0.6476E+03  0.6299E+03
     11.064  0.3303E+02  0.2816E+02  0.6555E+03  0.6367E+03
     11.303  0.4917E+02  0.2602E+02  0.6673E+03  0.6429E+03
     11.543  0.4114E+02  0.2924E+02  0.6772E+03  0.6499E+03
     11.782  0.4151E+02  0.5106E+02  0.6871E+03  0.6621E+03
     12.022  0.3407E+02  0.5027E+02  0.6953E+03  0.6742E+03
     12.261  0.3275E+02  0.5591E+02  0.7031E+03  0.6876E+03
     12.500  0.3251E+02  0.3159E+02  0.7109E+03  0.6951E+03
     12.740  0.3675E+02  0.3266E+02  0.7197E+03  0.7029E+03
     12.979  0.3401E+02  0.3221E+02  0.7278E+03  0.7107E+03
     13.219  0.1565E+02  0.3799E+02  0.7316E+03  0.7197E+03
     13.458  0.1359E+01  0.3250E+02  0.7319E+03  0.7275E+03
     13.698  0.3792E+00  0.1773E+02  0.7320E+03  0.7318E+03
     13.937  0.0000E+00  0.9324E+00  0.7320E+03  0.7320E+03
     14.177  0.0000E+00  0.3373E-05  0.7320E+03  0.7320E+03
     14.416  0.0000E+00  0.0000E+00  0.7320E+03  0.7320E+03
     14.656  0.0000E+00  0.0000E+00  0.7320E+03  0.7320E+03
     14.895  0.0000E+00  0.0000E+00  0.7320E+03  0.7320E+03
     15.135  0.0000E+00  0.0000E+00  0.7320E+03  0.7320E+03
     15.374  0.0000E+00  0.0000E+00  0.7320E+03  0.7320E+03
     15.614  0.0000E+00  0.0000E+00  0.7320E+03  0.7320E+03
     15.853  0.0000E+00  0.0000E+00  0.7320E+03  0.7320E+03
     16.092  0.0000E+00  0.0000E+00  0.7320E+03  0.7320E+03
     16.332  0.0000E+00  0.0000E+00  0.7320E+03  0.7320E+03
     16.571  0.0000E+00  0.0000E+00  0.7320E+03  0.7320E+03
     16.811  0.0000E+00  0.0000E+00  0.7320E+03  0.7320E+03
     17.050  0.0000E+00  0.0000E+00  0.7320E+03  0.7320E+03
