 vasp.5.4.4.18Apr17-6-g9f103f2a35 (build Oct 25 2017 14:42:18) complex          
  
 executed on             LinuxIFC date 2021.06.16  22:22:08
 running on   48 total cores
 distrk:  each k-point on   24 cores,    2 groups
 distr:  one band on NCORES_PER_BAND=   6 cores,    4 groups


--------------------------------------------------------------------------------------------------------


 INCAR:
 POTCAR:    PAW_PBE Li_sv 10Sep2004               
 POTCAR:    PAW_PBE Fe_pv 02Aug2007               
 POTCAR:    PAW_PBE S 06Sep2000                   
 POTCAR:    PAW_PBE O 08Apr2002                   

 ----------------------------------------------------------------------------- 
|                                                                             |
|           W    W    AA    RRRRR   N    N  II  N    N   GGGG   !!!           |
|           W    W   A  A   R    R  NN   N  II  NN   N  G    G  !!!           |
|           W    W  A    A  R    R  N N  N  II  N N  N  G       !!!           |
|           W WW W  AAAAAA  RRRRR   N  N N  II  N  N N  G  GGG   !            |
|           WW  WW  A    A  R   R   N   NN  II  N   NN  G    G                |
|           W    W  A    A  R    R  N    N  II  N    N   GGGG   !!!           |
|                                                                             |
|      You have enabled k-point parallelism (KPAR>1).                         |
|      This developmental code was originally  written by Paul Kent at ORNL,  |
|      and carefully double checked in Vienna.                                |
|      GW as well as linear response parallelism added by Martijn Marsman     |
|      and Georg Kresse.                                                      |
|      Carefully verify results versus KPAR=1.                                |
|      Report problems to Paul Kent and Vienna.                               |
|                                                                             |
 ----------------------------------------------------------------------------- 

 POTCAR:    PAW_PBE Li_sv 10Sep2004               
  local pseudopotential read in
  atomic valenz-charges read in
  non local Contribution for L=           0  read in
    real space projection operators read in
  non local Contribution for L=           0  read in
    real space projection operators read in
  non local Contribution for L=           1  read in
    real space projection operators read in
    PAW grid and wavefunctions read in
 
   number of l-projection  operators is LMAX  =           3
   number of lm-projection operators is LMMAX =           5
 
 POTCAR:    PAW_PBE Fe_pv 02Aug2007               
  local pseudopotential read in
  partial core-charges read in
  partial kinetic energy density read in
  atomic valenz-charges read in
  non local Contribution for L=           1  read in
    real space projection operators read in
  non local Contribution for L=           1  read in
    real space projection operators read in
  non local Contribution for L=           2  read in
    real space projection operators read in
  non local Contribution for L=           2  read in
    real space projection operators read in
  non local Contribution for L=           0  read in
    real space projection operators read in
  non local Contribution for L=           0  read in
    real space projection operators read in
    PAW grid and wavefunctions read in
 
   number of l-projection  operators is LMAX  =           6
   number of lm-projection operators is LMMAX =          18
 
 POTCAR:    PAW_PBE S 06Sep2000                   
  local pseudopotential read in
  partial core-charges read in
  partial kinetic energy density read in
  atomic valenz-charges read in
  non local Contribution for L=           0  read in
    real space projection operators read in
  non local Contribution for L=           0  read in
    real space projection operators read in
  non local Contribution for L=           1  read in
    real space projection operators read in
  non local Contribution for L=           1  read in
    real space projection operators read in
    PAW grid and wavefunctions read in
 
   number of l-projection  operators is LMAX  =           4
   number of lm-projection operators is LMMAX =           8
 
 POTCAR:    PAW_PBE O 08Apr2002                   
  local pseudopotential read in
  partial core-charges read in
  partial kinetic energy density read in
  kinetic energy density of atom read in
  atomic valenz-charges read in
  non local Contribution for L=           0  read in
    real space projection operators read in
  non local Contribution for L=           0  read in
    real space projection operators read in
  non local Contribution for L=           1  read in
    real space projection operators read in
  non local Contribution for L=           1  read in
    real space projection operators read in
    PAW grid and wavefunctions read in
 
   number of l-projection  operators is LMAX  =           4
   number of lm-projection operators is LMMAX =           8
 

 ----------------------------------------------------------------------------- 
|                                                                             |
|  ADVICE TO THIS USER RUNNING 'VASP/VAMP'   (HEAR YOUR MASTER'S VOICE ...):  |
|                                                                             |
|      You have a (more or less) 'large supercell' and for larger cells       |
|      it might be more efficient to use real space projection opertators     |
|      So try LREAL= Auto  in the INCAR   file.                               |
|      Mind:          For very  accurate calculation you might also keep the  |
|      reciprocal projection scheme          (i.e. LREAL=.FALSE.)             |
|                                                                             |
 ----------------------------------------------------------------------------- 

  PAW_PBE Li_sv 10Sep2004               :
 energy of atom  1       EATOM= -202.7858
 kinetic energy error for atom=    0.0072 (will be added to EATOM!!)
  PAW_PBE Fe_pv 02Aug2007               :
 energy of atom  2       EATOM=-2457.4239
 kinetic energy error for atom=    0.0041 (will be added to EATOM!!)
  PAW_PBE S 06Sep2000                   :
 energy of atom  3       EATOM= -276.8230
 kinetic energy error for atom=    0.0008 (will be added to EATOM!!)
  PAW_PBE O 08Apr2002                   :
 energy of atom  4       EATOM= -432.3788
 kinetic energy error for atom=    0.0129 (will be added to EATOM!!)
 
 
 POSCAR: # Compound: Li64Fe32S32O32. Old comment:
  positions in direct lattice
  No initial velocities read in
 exchange correlation table for  LEXCH =        8
   RHO(1)=    0.500       N(1)  =     2000
   RHO(2)=  100.500       N(2)  =     4000
 


--------------------------------------------------------------------------------------------------------


 ion  position               nearest neighbor table
   1  0.125  0.276  0.475- 149 1.96 133 1.97  97 2.54 105 2.54
   2  0.625  0.276  0.475- 150 1.96 134 1.97  98 2.54 106 2.54
   3  0.125  0.776  0.475- 151 1.96 135 1.97  99 2.54 107 2.54
   4  0.625  0.776  0.475- 152 1.96 136 1.97 100 2.54 108 2.54
   5  0.125  0.276  0.975- 145 1.96 129 1.97 101 2.54 109 2.54
   6  0.625  0.276  0.975- 146 1.96 130 1.97 102 2.54 110 2.54
   7  0.125  0.776  0.975- 147 1.96 131 1.97 103 2.54 111 2.54
   8  0.625  0.776  0.975- 148 1.96 132 1.97 104 2.54 112 2.54
   9  0.125  0.474  0.275- 155 1.96 139 1.97 105 2.54  97 2.54
  10  0.625  0.474  0.275- 156 1.96 140 1.97 106 2.54  98 2.54
  11  0.125  0.974  0.275- 153 1.96 137 1.97 107 2.54  99 2.54
  12  0.625  0.974  0.275- 154 1.96 138 1.97 108 2.54 100 2.54
  13  0.125  0.474  0.775- 159 1.96 143 1.97 109 2.54 101 2.54
  14  0.625  0.474  0.775- 160 1.96 144 1.97 110 2.54 102 2.54
  15  0.125  0.974  0.775- 157 1.96 141 1.97 111 2.54 103 2.54
  16  0.625  0.974  0.775- 158 1.96 142 1.97 112 2.54 104 2.54
  17  0.375  0.224  0.025- 145 1.96 130 1.97 113 2.54 121 2.54
  18  0.875  0.224  0.025- 146 1.96 129 1.97 114 2.54 122 2.54
  19  0.375  0.724  0.025- 147 1.96 132 1.97 115 2.54 123 2.54
  20  0.875  0.724  0.025- 148 1.96 131 1.97 116 2.54 124 2.54
  21  0.375  0.224  0.525- 149 1.96 134 1.97 117 2.54 125 2.54
  22  0.875  0.224  0.525- 150 1.96 133 1.97 118 2.54 126 2.54
  23  0.375  0.724  0.525- 151 1.96 136 1.97 119 2.54 127 2.54
  24  0.875  0.724  0.525- 152 1.96 135 1.97 120 2.54 128 2.54
  25  0.375  0.026  0.225- 153 1.96 138 1.97 121 2.54 113 2.54
  26  0.875  0.026  0.225- 154 1.96 137 1.97 122 2.54 114 2.54
  27  0.375  0.526  0.225- 155 1.96 140 1.97 123 2.54 115 2.54
  28  0.875  0.526  0.225- 156 1.96 139 1.97 124 2.54 116 2.54
  29  0.375  0.026  0.725- 157 1.96 142 1.97 125 2.54 117 2.54
  30  0.875  0.026  0.725- 158 1.96 141 1.97 126 2.54 118 2.54
  31  0.375  0.526  0.725- 159 1.96 144 1.97 127 2.54 119 2.54
  32  0.875  0.526  0.725- 160 1.96 143 1.97 128 2.54 120 2.54
  33  0.276  0.375  0.375- 149 2.01 155 2.01 119 2.52 121 2.52
  34  0.776  0.375  0.375- 150 2.01 156 2.01 120 2.52 122 2.52
  35  0.276  0.875  0.375- 151 2.01 153 2.01 117 2.52 123 2.52
  36  0.776  0.875  0.375- 152 2.01 154 2.01 118 2.52 124 2.52
  37  0.276  0.375  0.875- 145 2.01 159 2.01 115 2.52 125 2.52
  38  0.776  0.375  0.875- 146 2.01 160 2.01 116 2.52 126 2.52
  39  0.276  0.875  0.875- 147 2.01 157 2.01 113 2.52 127 2.52
  40  0.776  0.875  0.875- 148 2.01 158 2.01 114 2.52 128 2.52
  41  0.224  0.125  0.125- 145 2.01 153 2.01 103 2.52 105 2.52
  42  0.724  0.125  0.125- 146 2.01 154 2.01 104 2.52 106 2.52
  43  0.224  0.625  0.125- 147 2.01 155 2.01 101 2.52 107 2.52
  44  0.724  0.625  0.125- 148 2.01 156 2.01 102 2.52 108 2.52
  45  0.224  0.125  0.625- 149 2.01 157 2.01  99 2.52 109 2.52
  46  0.724  0.125  0.625- 150 2.01 158 2.01 100 2.52 110 2.52
  47  0.224  0.625  0.625- 151 2.01 159 2.01  97 2.52 111 2.52
  48  0.724  0.625  0.625- 152 2.01 160 2.01  98 2.52 112 2.52
  49  0.500  0.375  0.125- 130 2.00 140 2.00
  50  1.000  0.375  0.125- 129 2.00 139 2.00
  51  0.500  0.875  0.125- 132 2.00 138 2.00
  52  1.000  0.875  0.125- 131 2.00 137 2.00
  53  0.500  0.375  0.625- 134 2.00 144 2.00
  54  1.000  0.375  0.625- 133 2.00 143 2.00
  55  0.500  0.875  0.625- 136 2.00 142 2.00
  56  1.000  0.875  0.625- 135 2.00 141 2.00
  57  0.000  0.125  0.375- 133 2.00 137 2.00
  58  0.500  0.125  0.375- 134 2.00 138 2.00
  59  0.000  0.625  0.375- 135 2.00 139 2.00
  60  0.500  0.625  0.375- 136 2.00 140 2.00
  61  0.000  0.125  0.875- 129 2.00 141 2.00
  62  0.500  0.125  0.875- 130 2.00 142 2.00
  63  0.000  0.625  0.875- 131 2.00 143 2.00
  64  0.500  0.625  0.875- 132 2.00 144 2.00
  65  0.479  0.375  0.375- 134 2.00 140 2.00 119 2.57 121 2.57
  66  0.979  0.375  0.375- 133 2.00 139 2.00 120 2.57 122 2.57
  67  0.479  0.875  0.375- 136 2.00 138 2.00 117 2.57 123 2.57
  68  0.979  0.875  0.375- 135 2.00 137 2.00 118 2.57 124 2.57
  69  0.479  0.375  0.875- 130 2.00 144 2.00 115 2.57 125 2.57
  70  0.979  0.375  0.875- 129 2.00 143 2.00 116 2.57 126 2.57
  71  0.479  0.875  0.875- 132 2.00 142 2.00 113 2.57 127 2.57
  72  0.979  0.875  0.875- 131 2.00 141 2.00 114 2.57 128 2.57
  73  0.021  0.125  0.125- 129 2.00 137 2.00 103 2.57 105 2.57
  74  0.521  0.125  0.125- 130 2.00 138 2.00 104 2.57 106 2.57
  75  0.021  0.625  0.125- 131 2.00 139 2.00 101 2.57 107 2.57
  76  0.521  0.625  0.125- 132 2.00 140 2.00 102 2.57 108 2.57
  77  0.021  0.125  0.625- 133 2.00 141 2.00  99 2.57 109 2.57
  78  0.521  0.125  0.625- 134 2.00 142 2.00 100 2.57 110 2.57
  79  0.021  0.625  0.625- 135 2.00 143 2.00  97 2.57 111 2.57
  80  0.521  0.625  0.625- 136 2.00 144 2.00  98 2.57 112 2.57
  81  0.250  0.374  0.125- 145 2.00 155 2.01 105 2.74 101 2.75 121 2.75 115 2.76
  82  0.750  0.375  0.125- 146 2.00 156 2.00 116 2.75 122 2.75 102 2.75 106 2.75
  83  0.250  0.875  0.125- 147 2.00 153 2.00 113 2.75 123 2.75 103 2.75 107 2.75
  84  0.750  0.875  0.125- 148 2.00 154 2.00 114 2.75 124 2.75 104 2.75 108 2.75
  85  0.250  0.375  0.625- 149 2.00 159 2.00 119 2.75 125 2.75  97 2.75 109 2.75
  86  0.750  0.375  0.625- 150 2.00 160 2.00 120 2.75 126 2.75  98 2.75 110 2.75
  87  0.250  0.875  0.625- 151 2.00 157 2.00 117 2.75 127 2.75  99 2.75 111 2.75
  88  0.750  0.875  0.625- 152 2.00 158 2.00 118 2.75 128 2.75 100 2.75 112 2.75
  89  0.250  0.125  0.375- 149 2.00 153 2.00  99 2.75 105 2.75 117 2.75 121 2.75
  90  0.750  0.125  0.375- 150 2.00 154 2.00 100 2.75 106 2.75 118 2.75 122 2.75
  91  0.250  0.625  0.375- 151 2.00 155 2.00  97 2.75 107 2.75 119 2.75 123 2.75
  92  0.750  0.625  0.375- 152 2.00 156 2.00  98 2.75 108 2.75 120 2.75 124 2.75
  93  0.250  0.125  0.875- 145 2.00 157 2.00 103 2.75 109 2.75 113 2.75 125 2.75
  94  0.750  0.125  0.875- 146 2.00 158 2.00 104 2.75 110 2.75 114 2.75 126 2.75
  95  0.250  0.625  0.875- 147 2.00 159 2.00 101 2.75 111 2.75 115 2.75 127 2.75
  96  0.750  0.625  0.875- 148 2.00 160 2.00 102 2.75 112 2.75 116 2.75 128 2.75
  97  0.125  0.500  0.500-  47 2.52   1 2.54   9 2.54  79 2.57  91 2.75  85 2.75
  98  0.625  0.500  0.500-  48 2.52   2 2.54  10 2.54  80 2.57  92 2.75  86 2.75
  99  0.125  1.000  0.500-  45 2.52   3 2.54  11 2.54  77 2.57  89 2.75  87 2.75
 100  0.625  1.000  0.500-  46 2.52   4 2.54  12 2.54  78 2.57  90 2.75  88 2.75
 101  0.125  0.500  1.000-  43 2.52   5 2.54  13 2.54  75 2.57  81 2.75  95 2.75
 102  0.625  0.500  1.000-  44 2.52   6 2.54  14 2.54  76 2.57  96 2.75  82 2.75
 103  0.125  1.000  1.000-  41 2.52   7 2.54  15 2.54  73 2.57  93 2.75  83 2.75
 104  0.625  1.000  1.000-  42 2.52   8 2.54  16 2.54  74 2.57  94 2.75  84 2.75
 105  0.125  0.250  0.250-  41 2.52   9 2.54   1 2.54  73 2.57  81 2.74  89 2.75
 106  0.625  0.250  0.250-  42 2.52  10 2.54   2 2.54  74 2.57  90 2.75  82 2.75
 107  0.125  0.750  0.250-  43 2.52  11 2.54   3 2.54  75 2.57  91 2.75  83 2.75
 108  0.625  0.750  0.250-  44 2.52  12 2.54   4 2.54  76 2.57  92 2.75  84 2.75
 109  0.125  0.250  0.750-  45 2.52  13 2.54   5 2.54  77 2.57  93 2.75  85 2.75
 110  0.625  0.250  0.750-  46 2.52  14 2.54   6 2.54  78 2.57  94 2.75  86 2.75
 111  0.125  0.750  0.750-  47 2.52  15 2.54   7 2.54  79 2.57  95 2.75  87 2.75
 112  0.625  0.750  0.750-  48 2.52  16 2.54   8 2.54  80 2.57  96 2.75  88 2.75
 113  0.375  0.000  0.000-  39 2.52  17 2.54  25 2.54  71 2.57  83 2.75  93 2.75
 114  0.875  0.000  0.000-  40 2.52  18 2.54  26 2.54  72 2.57  84 2.75  94 2.75
 115  0.375  0.500  0.000-  37 2.52  19 2.54  27 2.54  69 2.57  95 2.75  81 2.76
 116  0.875  0.500  0.000-  38 2.52  20 2.54  28 2.54  70 2.57  82 2.75  96 2.75
 117  0.375  0.000  0.500-  35 2.52  21 2.54  29 2.54  67 2.57  87 2.75  89 2.75
 118  0.875  0.000  0.500-  36 2.52  22 2.54  30 2.54  68 2.57  88 2.75  90 2.75
 119  0.375  0.500  0.500-  33 2.52  23 2.54  31 2.54  65 2.57  85 2.75  91 2.75
 120  0.875  0.500  0.500-  34 2.52  24 2.54  32 2.54  66 2.57  86 2.75  92 2.75
 121  0.375  0.250  0.250-  33 2.52  25 2.54  17 2.54  65 2.57  89 2.75  81 2.75
 122  0.875  0.250  0.250-  34 2.52  26 2.54  18 2.54  66 2.57  82 2.75  90 2.75
 123  0.375  0.750  0.250-  35 2.52  27 2.54  19 2.54  67 2.57  83 2.75  91 2.75
 124  0.875  0.750  0.250-  36 2.52  28 2.54  20 2.54  68 2.57  84 2.75  92 2.75
 125  0.375  0.250  0.750-  37 2.52  29 2.54  21 2.54  69 2.57  85 2.75  93 2.75
 126  0.875  0.250  0.750-  38 2.52  30 2.54  22 2.54  70 2.57  86 2.75  94 2.75
 127  0.375  0.750  0.750-  39 2.52  31 2.54  23 2.54  71 2.57  87 2.75  95 2.75
 128  0.875  0.750  0.750-  40 2.52  32 2.54  24 2.54  72 2.57  88 2.75  96 2.75
 129  0.000  0.250  0.000-   5 1.97  18 1.97  70 2.00  73 2.00  50 2.00  61 2.00
 130  0.500  0.250  0.000-   6 1.97  17 1.97  69 2.00  74 2.00  49 2.00  62 2.00
 131  0.000  0.750  0.000-   7 1.97  20 1.97  72 2.00  75 2.00  52 2.00  63 2.00
 132  0.500  0.750  0.000-   8 1.97  19 1.97  71 2.00  76 2.00  51 2.00  64 2.00
 133  0.000  0.250  0.500-   1 1.97  22 1.97  66 2.00  77 2.00  54 2.00  57 2.00
 134  0.500  0.250  0.500-   2 1.97  21 1.97  65 2.00  78 2.00  53 2.00  58 2.00
 135  0.000  0.750  0.500-   3 1.97  24 1.97  68 2.00  79 2.00  56 2.00  59 2.00
 136  0.500  0.750  0.500-   4 1.97  23 1.97  67 2.00  80 2.00  55 2.00  60 2.00
 137  0.000  0.000  0.250-  11 1.97  26 1.97  68 2.00  73 2.00  52 2.00  57 2.00
 138  0.500  0.000  0.250-  12 1.97  25 1.97  67 2.00  74 2.00  51 2.00  58 2.00
 139  0.000  0.500  0.250-   9 1.97  28 1.97  66 2.00  75 2.00  50 2.00  59 2.00
 140  0.500  0.500  0.250-  10 1.97  27 1.97  65 2.00  76 2.00  49 2.00  60 2.00
 141  0.000  0.000  0.750-  15 1.97  30 1.97  72 2.00  77 2.00  56 2.00  61 2.00
 142  0.500  0.000  0.750-  16 1.97  29 1.97  71 2.00  78 2.00  55 2.00  62 2.00
 143  0.000  0.500  0.750-  13 1.97  32 1.97  70 2.00  79 2.00  54 2.00  63 2.00
 144  0.500  0.500  0.750-  14 1.97  31 1.97  69 2.00  80 2.00  53 2.00  64 2.00
 145  0.250  0.250  0.000-   5 1.96  17 1.96  81 2.00  93 2.00  37 2.01  41 2.01
 146  0.750  0.250  0.000-   6 1.96  18 1.96  82 2.00  94 2.00  38 2.01  42 2.01
 147  0.250  0.750  0.000-   7 1.96  19 1.96  83 2.00  95 2.00  39 2.01  43 2.01
 148  0.750  0.750  0.000-   8 1.96  20 1.96  84 2.00  96 2.00  40 2.01  44 2.01
 149  0.250  0.250  0.500-   1 1.96  21 1.96  85 2.00  89 2.00  33 2.01  45 2.01
 150  0.750  0.250  0.500-   2 1.96  22 1.96  86 2.00  90 2.00  34 2.01  46 2.01
 151  0.250  0.750  0.500-   3 1.96  23 1.96  87 2.00  91 2.00  35 2.01  47 2.01
 152  0.750  0.750  0.500-   4 1.96  24 1.96  88 2.00  92 2.00  36 2.01  48 2.01
 153  0.250  0.000  0.250-  11 1.96  25 1.96  83 2.00  89 2.00  35 2.01  41 2.01
 154  0.750  0.000  0.250-  12 1.96  26 1.96  84 2.00  90 2.00  36 2.01  42 2.01
 155  0.250  0.500  0.250-   9 1.96  27 1.96  91 2.00  81 2.01  33 2.01  43 2.01
 156  0.750  0.500  0.250-  10 1.96  28 1.96  82 2.00  92 2.00  34 2.01  44 2.01
 157  0.250  0.000  0.750-  15 1.96  29 1.96  87 2.00  93 2.00  39 2.01  45 2.01
 158  0.750  0.000  0.750-  16 1.96  30 1.96  88 2.00  94 2.00  40 2.01  46 2.01
 159  0.250  0.500  0.750-  13 1.96  31 1.96  85 2.00  95 2.00  37 2.01  47 2.01
 160  0.750  0.500  0.750-  14 1.96  32 1.96  86 2.00  96 2.00  38 2.01  48 2.01
 
  LATTYP: Found a simple monoclinic cell.
 ALAT       =    16.0245724362
 B/A-ratio  =     0.9595037360
 C/A-ratio  =     1.5788311284
 COS(beta)  =    -0.9500776273
  
  Lattice vectors:
  
 A1 = (   0.0000000000, -11.3322995400, -11.3298680000)
 A2 = ( -15.3756371200,   0.0000000000,   0.0000000000)
 A3 = (   0.0000000000,  22.5798703800,  11.4124580600)


Analysis of symmetry for initial positions (statically):
=====================================================================
 Subroutine PRICEL returns:
 Original cell was already a primitive cell.
 

 Routine SETGRP: Setting up the symmetry group for a 
 simple monoclinic supercell.


 Subroutine GETGRP returns: Found  1 space group operations
 (whereof  1 operations were pure point group operations)
 out of a pool of  4 trial point group operations.


The static configuration has the point symmetry C_1 .


Analysis of symmetry for dynamics (positions and initial velocities):
=====================================================================
 Subroutine PRICEL returns:
 Original cell was already a primitive cell.
 

 Routine SETGRP: Setting up the symmetry group for a 
 simple monoclinic supercell.


 Subroutine GETGRP returns: Found  1 space group operations
 (whereof  1 operations were pure point group operations)
 out of a pool of  4 trial point group operations.


The dynamic configuration has the point symmetry C_1 .


Analysis of structural, dynamic, and magnetic symmetry:
=====================================================================
 Subroutine PRICEL returns:
 Original cell was already a primitive cell.
 

 Routine SETGRP: Setting up the symmetry group for a 
 simple monoclinic supercell.


 Subroutine GETGRP returns: Found  1 space group operations
 (whereof  1 operations were pure point group operations)
 out of a pool of  4 trial point group operations.


The magnetic configuration has the point symmetry C_1 .


 Subroutine INISYM returns: Found  1 space group operations
 (whereof  1 operations are pure point group operations),
 and found     1 'primitive' translations

 
 
 KPOINTS: # No comment                            

Automatic generation of k-mesh.
Space group operators:
 irot       det(A)        alpha          n_x          n_y          n_z        tau_x        tau_y        tau_z
    1     1.000000     0.000001     1.000000     0.000000     0.000000     0.000000     0.000000     0.000000
 
 Subroutine IBZKPT returns following result:
 ===========================================
 
 Found     10 irreducible k-points:
 
 Following reciprocal coordinates:
            Coordinates               Weight
  0.000000  0.000000  0.000000      1.000000
  0.500000  0.000000  0.000000      1.000000
  0.000000  0.333333 -0.000000      2.000000
  0.500000  0.333333 -0.000000      2.000000
  0.000000 -0.000000  0.333333      2.000000
  0.500000 -0.000000  0.333333      2.000000
  0.000000  0.333333  0.333333      2.000000
  0.500000  0.333333  0.333333      2.000000
  0.000000 -0.333333  0.333333      2.000000
  0.500000 -0.333333  0.333333      2.000000
 
 Following cartesian coordinates:
            Coordinates               Weight
  0.000000  0.000000  0.000000      1.000000
  0.032519  0.000000  0.000000      1.000000
  0.000000  0.029638 -0.000223      2.000000
  0.032519  0.029638 -0.000223      2.000000
  0.000000 -0.000218  0.029638      2.000000
  0.032519 -0.000218  0.029638      2.000000
  0.000000  0.029420  0.029415      2.000000
  0.032519  0.029420  0.029415      2.000000
  0.000000 -0.029855  0.029862      2.000000
  0.032519 -0.029855  0.029862      2.000000
 


--------------------------------------------------------------------------------------------------------




 Dimension of arrays:
   k-points           NKPTS =     10   k-points in BZ     NKDIM =     10   number of bands    NBANDS=    732
   number of dos      NEDOS =    301   number of ions     NIONS =    160
   non local maximal  LDIM  =      6   non local SUM 2l+1 LMDIM =     18
   total plane-waves  NPLWV = ******
   max r-space proj   IRMAX =      1   max aug-charges    IRDMAX= 153046
   dimension x,y,z NGX =   128 NGY =   96 NGZ =   96
   dimension x,y,z NGXF=   256 NGYF=  192 NGZF=  192
   support grid    NGXF=   512 NGYF=  384 NGZF=  384
   ions per type =              64  32  32  32
   NGX,Y,Z   is equivalent  to a cutoff of  13.84, 14.19, 14.19 a.u.
   NGXF,Y,Z  is equivalent  to a cutoff of  27.68, 28.38, 28.38 a.u.

 SYSTEM =  unknown system                          
 POSCAR =  # Compound: Li64Fe32S32O32. Old comment:

 Startparameter for this run:
   NWRITE =      1    write-flag & timer
   PREC   = accura    normal or accurate (medium, high low for compatibility)
   ISTART =      0    job   : 0-new  1-cont  2-samecut
   ICHARG =      1    charge: 1-file 2-atom 10-const
   ISPIN  =      2    spin polarized calculation?
   LNONCOLLINEAR =      F non collinear calculations
   LSORBIT =      F    spin-orbit coupling
   INIWAV =      1    electr: 0-lowe 1-rand  2-diag
   LASPH  =      T    aspherical Exc in radial PAW
   METAGGA=      F    non-selfconsistent MetaGGA calc.

 Electronic Relaxation 1
   ENCUT  =  650.0 eV  47.77 Ry    6.91 a.u.  31.96 23.38 23.38*2*pi/ulx,y,z
   ENINI  =  650.0     initial cutoff
   ENAUG  =  628.9 eV  augmentation charge cutoff
   NELM   =    200;   NELMIN=  8; NELMDL=  0     # of ELM steps 
   EDIFF  = 0.1E-07   stopping-criterion for ELM
   LREAL  =      F    real-space projection
   NLSPLINE    = F    spline interpolate recip. space projectors
   LCOMPAT=      F    compatible to vasp.4.4
   GGA_COMPAT  = T    GGA compatible to vasp.4.4-vasp.4.6
   LMAXPAW     = -100 max onsite density
   LMAXMIX     =    4 max onsite mixed and CHGCAR
   VOSKOWN=      0    Vosko Wilk Nusair interpolation
   ROPT   =    0.00000   0.00000   0.00000   0.00000
 Ionic relaxation
   EDIFFG = 0.1E-06   stopping-criterion for IOM
   NSW    =      0    number of steps for IOM
   NBLOCK =      1;   KBLOCK =      1    inner block; outer block 
   IBRION =     -1    ionic relax: 0-MD 1-quasi-New 2-CG
   NFREE  =      0    steps in history (QN), initial steepest desc. (CG)
   ISIF   =      2    stress and relaxation
   IWAVPR =     10    prediction:  0-non 1-charg 2-wave 3-comb
   ISYM   =      2    0-nonsym 1-usesym 2-fastsym
   LCORR  =      T    Harris-Foulkes like correction to forces

   POTIM  = 0.5000    time-step for ionic-motion
   TEIN   =    0.0    initial temperature
   TEBEG  =    0.0;   TEEND  =   0.0 temperature during run
   SMASS  =  -3.00    Nose mass-parameter (am)
   estimated Nose-frequenzy (Omega)   =  0.10E-29 period in steps =****** mass=  -0.540E-26a.u.
   SCALEE = 1.0000    scale energy and forces
   NPACO  =    256;   APACO  = 16.0  distance and # of slots for P.C.
   PSTRESS=    0.0 pullay stress

  Mass of Ions in am
   POMASS =   7.01 55.85 32.07 16.00
  Ionic Valenz
   ZVAL   =   3.00 14.00  6.00  6.00
  Atomic Wigner-Seitz radii
   RWIGS  =  -1.00 -1.00 -1.00 -1.00
  virtual crystal weights 
   VCA    =   1.00  1.00  1.00  1.00
   NELECT =    1024.0000    total number of electrons
   NUPDOWN=      -1.0000    fix difference up-down

 DOS related values:
   EMIN   =  10.00;   EMAX   =-10.00  energy-range for DOS
   EFERMI =   0.00
   ISMEAR =     0;   SIGMA  =   0.05  broadening in eV -4-tet -1-fermi 0-gaus

 Electronic relaxation 2 (details)
   IALGO  =     38    algorithm
   LDIAG  =      T    sub-space diagonalisation (order eigenvalues)
   LSUBROT=      F    optimize rotation matrix (better conditioning)
   TURBO    =      0    0=normal 1=particle mesh
   IRESTART =      0    0=no restart 2=restart with 2 vectors
   NREBOOT  =      0    no. of reboots
   NMIN     =      0    reboot dimension
   EREF     =   0.00    reference energy to select bands
   IMIX   =      4    mixing-type and parameters
     AMIX     =   0.40;   BMIX     =  1.00
     AMIX_MAG =   1.60;   BMIX_MAG =  1.00
     AMIN     =   0.10
     WC   =   100.;   INIMIX=   1;  MIXPRE=   1;  MAXMIX= -45

 Intra band minimization:
   WEIMIN = 0.0000     energy-eigenvalue tresh-hold
   EBREAK =  0.34E-11  absolut break condition
   DEPER  =   0.30     relativ break condition  

   TIME   =   0.40     timestep for ELM

  volume/ion in A,a.u.               =      12.16        82.03
  Fermi-wavevector in a.u.,A,eV,Ry     =   1.321914  2.498054 23.775576  1.747456
  Thomas-Fermi vector in A             =   2.451633
 
 Write flags
   LWAVE        =      F    write WAVECAR
   LDOWNSAMPLE  =      F    k-point downsampling of WAVECAR
   LCHARG       =      T    write CHGCAR
   LVTOT        =      F    write LOCPOT, total local potential
   LVHAR        =      F    write LOCPOT, Hartree potential only
   LELF         =      F    write electronic localiz. function (ELF)
   LORBIT       =      0    0 simple, 1 ext, 2 COOP (PROOUT), +10 PAW based schemes


 Dipole corrections
   LMONO  =      F    monopole corrections only (constant potential shift)
   LDIPOL =      F    correct potential (dipole corrections)
   IDIPOL =      0    1-x, 2-y, 3-z, 4-all directions 
   EPSILON=  1.0000000 bulk dielectric constant

 LDA+U is selected, type is set to LDAUTYPE =  2
   angular momentum for each species LDAUL =    -1    2   -1   -1
   U (eV)           for each species LDAUU =   0.0  4.0  0.0  0.0
   J (eV)           for each species LDAUJ =   0.0  0.0  0.0  0.0
 Exchange correlation treatment:
   GGA     =    PE    GGA type
   LEXCH   =     8    internal setting for exchange type
   VOSKOWN=      0    Vosko Wilk Nusair interpolation
   LHFCALC =     F    Hartree Fock is set to
   LHFONE  =     F    Hartree Fock one center treatment
   AEXX    =    0.0000 exact exchange contribution

 Linear response parameters
   LEPSILON=     F    determine dielectric tensor
   LRPA    =     F    only Hartree local field effects (RPA)
   LNABLA  =     F    use nabla operator in PAW spheres
   LVEL    =     F    velocity operator in full k-point grid
   LINTERFAST=   F  fast interpolation
   KINTER  =     0    interpolate to denser k-point grid
   CSHIFT  =0.1000    complex shift for real part using Kramers Kronig
   OMEGAMAX=  -1.0    maximum frequency
   DEG_THRESHOLD= 0.2000000E-02 threshold for treating states as degnerate
   RTIME   =   -0.100 relaxation time in fs
  (WPLASMAI=    0.000 imaginary part of plasma frequency in eV, 0.658/RTIME)
   DFIELD  = 0.0000000 0.0000000 0.0000000 field for delta impulse in time
 
 Orbital magnetization related:
   ORBITALMAG=     F  switch on orbital magnetization
   LCHIMAG   =     F  perturbation theory with respect to B field
   DQ        =  0.001000  dq finite difference perturbation B field
   LLRAUG    =     F  two centre corrections for induced B field



--------------------------------------------------------------------------------------------------------


 Static calculation
 charge density and potential will be updated during run
 spin polarized calculation
 Variant of blocked Davidson
 Davidson routine will perform the subspace rotation
 perform sub-space diagonalisation
    after iterative eigenvector-optimisation
 modified Broyden-mixing scheme, WC =      100.0
 initial mixing is a Kerker type mixing with AMIX =  0.4000 and BMIX =      1.0000
 Hartree-type preconditioning will be used
 using additional bands          220
 reciprocal scheme for non local part
 use partial core corrections
 calculate Harris-corrections to forces 
   (improved forces if not selfconsistent)
 use gradient corrections 
 use of overlap-Matrix (Vanderbilt PP)
 Gauss-broadening in eV      SIGMA  =   0.05


--------------------------------------------------------------------------------------------------------


  energy-cutoff  :      650.00
  volume of cell :     1944.98
      direct lattice vectors                 reciprocal lattice vectors
    15.375637120  0.000000000  0.000000000     0.065037955  0.000000000  0.000000000
     0.000000000 11.247570840  0.082590060     0.000000000  0.088913005 -0.000669805
     0.000000000  0.084728700 11.247277940     0.000000000 -0.000652898  0.088915320

  length of vectors
    15.375637120 11.247874062 11.247597077     0.065037955  0.088915528  0.088917717


 
 k-points in units of 2pi/SCALE and weight: # No comment                            
   0.00000000  0.00000000  0.00000000       0.056
   0.03251898  0.00000000  0.00000000       0.056
   0.00000000  0.02963767 -0.00022327       0.111
   0.03251898  0.02963767 -0.00022327       0.111
   0.00000000 -0.00021763  0.02963844       0.111
   0.03251898 -0.00021763  0.02963844       0.111
   0.00000000  0.02942004  0.02941517       0.111
   0.03251898  0.02942004  0.02941517       0.111
   0.00000000 -0.02985530  0.02986171       0.111
   0.03251898 -0.02985530  0.02986171       0.111
 
 k-points in reciprocal lattice and weights: # No comment                            
   0.00000000  0.00000000  0.00000000       0.056
   0.50000000  0.00000000  0.00000000       0.056
   0.00000000  0.33333333 -0.00000000       0.111
   0.50000000  0.33333333 -0.00000000       0.111
   0.00000000 -0.00000000  0.33333333       0.111
   0.50000000 -0.00000000  0.33333333       0.111
   0.00000000  0.33333333  0.33333333       0.111
   0.50000000  0.33333333  0.33333333       0.111
   0.00000000 -0.33333333  0.33333333       0.111
   0.50000000 -0.33333333  0.33333333       0.111
 
 position of ions in fractional coordinates (direct lattice) 
   0.12525680  0.27553588  0.47453981
   0.62525680  0.27553588  0.47453981
   0.12525680  0.77553588  0.47453981
   0.62525680  0.77553588  0.47453981
   0.12525680  0.27553588  0.97453981
   0.62525680  0.27553588  0.97453981
   0.12525680  0.77553588  0.97453981
   0.62525680  0.77553588  0.97453981
   0.12525680  0.47446412  0.27546019
   0.62525680  0.47446412  0.27546019
   0.12525680  0.97446412  0.27546019
   0.62525680  0.97446412  0.27546019
   0.12525680  0.47446412  0.77546019
   0.62525680  0.47446412  0.77546019
   0.12525680  0.97446412  0.77546019
   0.62525680  0.97446412  0.77546019
   0.37474320  0.22446412  0.02546019
   0.87474320  0.22446412  0.02546019
   0.37474320  0.72446412  0.02546019
   0.87474320  0.72446412  0.02546019
   0.37474320  0.22446412  0.52546019
   0.87474320  0.22446412  0.52546019
   0.37474320  0.72446412  0.52546019
   0.87474320  0.72446412  0.52546019
   0.37474320  0.02553588  0.22453981
   0.87474320  0.02553588  0.22453981
   0.37474320  0.52553588  0.22453981
   0.87474320  0.52553588  0.22453981
   0.37474320  0.02553588  0.72453981
   0.87474320  0.02553588  0.72453981
   0.37474320  0.52553588  0.72453981
   0.87474320  0.52553588  0.72453981
   0.27600236  0.37500000  0.37500000
   0.77600236  0.37500000  0.37500000
   0.27600236  0.87500000  0.37500000
   0.77600236  0.87500000  0.37500000
   0.27600236  0.37500000  0.87500000
   0.77600236  0.37500000  0.87500000
   0.27600236  0.87500000  0.87500000
   0.77600236  0.87500000  0.87500000
   0.22399764  0.12500000  0.12500000
   0.72399764  0.12500000  0.12500000
   0.22399764  0.62500000  0.12500000
   0.72399764  0.62500000  0.12500000
   0.22399764  0.12500000  0.62500000
   0.72399764  0.12500000  0.62500000
   0.22399764  0.62500000  0.62500000
   0.72399764  0.62500000  0.62500000
   0.49994073  0.37500000  0.12500000
   0.99994073  0.37500000  0.12500000
   0.49994073  0.87500000  0.12500000
   0.99994073  0.87500000  0.12500000
   0.49994073  0.37500000  0.62500000
   0.99994073  0.37500000  0.62500000
   0.49994073  0.87500000  0.62500000
   0.99994073  0.87500000  0.62500000
   0.00005927  0.12500000  0.37500000
   0.50005927  0.12500000  0.37500000
   0.00005927  0.62500000  0.37500000
   0.50005927  0.62500000  0.37500000
   0.00005927  0.12500000  0.87500000
   0.50005927  0.12500000  0.87500000
   0.00005927  0.62500000  0.87500000
   0.50005927  0.62500000  0.87500000
   0.47912905  0.37500000  0.37500000
   0.97912905  0.37500000  0.37500000
   0.47912905  0.87500000  0.37500000
   0.97912905  0.87500000  0.37500000
   0.47912905  0.37500000  0.87500000
   0.97912905  0.37500000  0.87500000
   0.47912905  0.87500000  0.87500000
   0.97912905  0.87500000  0.87500000
   0.02087095  0.12500000  0.12500000
   0.52087095  0.12500000  0.12500000
   0.02087095  0.62500000  0.12500000
   0.52087095  0.62500000  0.12500000
   0.02087095  0.12500000  0.62500000
   0.52087095  0.12500000  0.62500000
   0.02087095  0.62500000  0.62500000
   0.52087095  0.62500000  0.62500000
   0.24950995  0.37447508  0.12500000
   0.75003487  0.37500000  0.12500000
   0.25003487  0.87500000  0.12500000
   0.75003487  0.87500000  0.12500000
   0.25003487  0.37500000  0.62500000
   0.75003487  0.37500000  0.62500000
   0.25003487  0.87500000  0.62500000
   0.75003487  0.87500000  0.62500000
   0.24996513  0.12500000  0.37500000
   0.74996513  0.12500000  0.37500000
   0.24996513  0.62500000  0.37500000
   0.74996513  0.62500000  0.37500000
   0.24996513  0.12500000  0.87500000
   0.74996513  0.12500000  0.87500000
   0.24996513  0.62500000  0.87500000
   0.74996513  0.62500000  0.87500000
   0.12546906  0.49959881  0.49958956
   0.62546906  0.49959881  0.49958956
   0.12546906  0.99959881  0.49958956
   0.62546906  0.99959881  0.49958956
   0.12546906  0.49959881  0.99958956
   0.62546906  0.49959881  0.99958956
   0.12546906  0.99959881  0.99958956
   0.62546906  0.99959881  0.99958956
   0.12546906  0.25040119  0.25041044
   0.62546906  0.25040119  0.25041044
   0.12546906  0.75040119  0.25041044
   0.62546906  0.75040119  0.25041044
   0.12546906  0.25040119  0.75041044
   0.62546906  0.25040119  0.75041044
   0.12546906  0.75040119  0.75041044
   0.62546906  0.75040119  0.75041044
   0.37453094  0.00040119  0.00041044
   0.87453094  0.00040119  0.00041044
   0.37453094  0.50040119  0.00041044
   0.87453094  0.50040119  0.00041044
   0.37453094  0.00040119  0.50041044
   0.87453094  0.00040119  0.50041044
   0.37453094  0.50040119  0.50041044
   0.87453094  0.50040119  0.50041044
   0.37453094  0.24959881  0.24958956
   0.87453094  0.24959881  0.24958956
   0.37453094  0.74959881  0.24958956
   0.87453094  0.74959881  0.24958956
   0.37453094  0.24959881  0.74958956
   0.87453094  0.24959881  0.74958956
   0.37453094  0.74959881  0.74958956
   0.87453094  0.74959881  0.74958956
   0.00000000  0.25000000  0.00000000
   0.50000000  0.25000000  0.00000000
   0.00000000  0.75000000  0.00000000
   0.50000000  0.75000000  0.00000000
   0.00000000  0.25000000  0.50000000
   0.50000000  0.25000000  0.50000000
   0.00000000  0.75000000  0.50000000
   0.50000000  0.75000000  0.50000000
   0.00000000  0.00000000  0.25000000
   0.50000000  0.00000000  0.25000000
   0.00000000  0.50000000  0.25000000
   0.50000000  0.50000000  0.25000000
   0.00000000  0.00000000  0.75000000
   0.50000000  0.00000000  0.75000000
   0.00000000  0.50000000  0.75000000
   0.50000000  0.50000000  0.75000000
   0.25000000  0.25000000  0.00000000
   0.75000000  0.25000000  0.00000000
   0.25000000  0.75000000  0.00000000
   0.75000000  0.75000000  0.00000000
   0.25000000  0.25000000  0.50000000
   0.75000000  0.25000000  0.50000000
   0.25000000  0.75000000  0.50000000
   0.75000000  0.75000000  0.50000000
   0.25000000  0.00000000  0.25000000
   0.75000000  0.00000000  0.25000000
   0.25000000  0.50000000  0.25000000
   0.75000000  0.50000000  0.25000000
   0.25000000  0.00000000  0.75000000
   0.75000000  0.00000000  0.75000000
   0.25000000  0.50000000  0.75000000
   0.75000000  0.50000000  0.75000000
 
 position of ions in cartesian coordinates  (Angst):
   1.92590310  3.13931647  5.36003766
   9.61372166  3.13931647  5.36003766
   1.92590310  8.76310189  5.40133269
   9.61372166  8.76310189  5.40133269
   1.92590310  3.18168082 10.98367663
   9.61372166  3.18168082 10.98367663
   1.92590310  8.80546624 11.02497166
   9.61372166  8.80546624 11.02497166
   1.92590310  5.35990818  3.13736334
   9.61372166  5.35990818  3.13736334
   1.92590310 10.98369360  3.17865837
   9.61372166 10.98369360  3.17865837
   1.92590310  5.40227253  8.76100231
   9.61372166  5.40227253  8.76100231
   1.92590310 11.02605795  8.80229734
   9.61372166 11.02605795  8.80229734
   5.76191546  2.52683330  0.30489634
  13.44973402  2.52683330  0.30489634
   5.76191546  8.15061872  0.34619137
  13.44973402  8.15061872  0.34619137
   5.76191546  2.56919765  5.92853531
  13.44973402  2.56919765  5.92853531
   5.76191546  8.19298307  5.96983034
  13.44973402  8.19298307  5.96983034
   5.76191546  0.30624159  2.52757066
  13.44973402  0.30624159  2.52757066
   5.76191546  5.93002701  2.56886569
  13.44973402  5.93002701  2.56886569
   5.76191546  0.34860594  8.15120963
  13.44973402  0.34860594  8.15120963
   5.76191546  5.97239136  8.19250466
  13.44973402  5.97239136  8.19250466
   4.24371213  4.24961233  4.24870050
  11.93153069  4.24961233  4.24870050
   4.24371213  9.87339775  4.28999553
  11.93153069  9.87339775  4.28999553
   4.24371213  4.29197668  9.87233947
  11.93153069  4.29197668  9.87233947
   4.24371213  9.91576210  9.91363450
  11.93153069  9.91576210  9.91363450
   3.44410643  1.41653744  1.41623350
  11.13192499  1.41653744  1.41623350
   3.44410643  7.04032286  1.45752853
  11.13192499  7.04032286  1.45752853
   3.44410643  1.45890179  7.03987247
  11.13192499  1.45890179  7.03987247
   3.44410643  7.08268721  7.08116750
  11.13192499  7.08268721  7.08116750
   7.68690717  4.22843015  1.43688101
  15.37472573  4.22843015  1.43688101
   7.68690717  9.85221557  1.47817605
  15.37472573  9.85221557  1.47817605
   7.68690717  4.27079450  7.06051999
  15.37472573  4.27079450  7.06051999
   7.68690717  9.89457992  7.10181502
  15.37472573  9.89457992  7.10181502
   0.00091139  1.43771962  4.22805298
   7.68872995  1.43771962  4.22805298
   0.00091139  7.06150504  4.26934801
   7.68872995  7.06150504  4.26934801
   0.00091139  1.48008397  9.85169195
   7.68872995  1.48008397  9.85169195
   0.00091139  7.10386939  9.89298699
   7.68872995  7.10386939  9.89298699
   7.36691433  4.24961233  4.24870050
  15.05473289  4.24961233  4.24870050
   7.36691433  9.87339775  4.28999553
  15.05473289  9.87339775  4.28999553
   7.36691433  4.29197668  9.87233947
  15.05473289  4.29197668  9.87233947
   7.36691433  9.91576210  9.91363450
  15.05473289  9.91576210  9.91363450
   0.32090423  1.41653744  1.41623350
   8.00872279  1.41653744  1.41623350
   0.32090423  7.04032286  1.45752853
   8.00872279  7.04032286  1.45752853
   0.32090423  1.45890179  7.03987247
   8.00872279  1.45890179  7.03987247
   0.32090423  7.08268721  7.08116750
   8.00872279  7.08268721  7.08116750
   3.83637440  4.22252610  1.43683766
  11.53226391  4.22843015  1.43688101
   3.84444535  9.85221557  1.47817605
  11.53226391  9.85221557  1.47817605
   3.84444535  4.27079450  7.06051999
  11.53226391  4.27079450  7.06051999
   3.84444535  9.89457992  7.10181502
  11.53226391  9.89457992  7.10181502
   3.84337321  1.43771962  4.22805298
  11.53119177  1.43771962  4.22805298
   3.84337321  7.06150504  4.26934801
  11.53119177  7.06150504  4.26934801
   3.84337321  1.48008397  9.85169195
  11.53119177  1.48008397  9.85169195
   3.84337321  7.10386939  9.89298699
  11.53119177  7.10386939  9.89298699
   1.92916681  5.66160258  5.66028448
   9.61698537  5.66160258  5.66028448
   1.92916681 11.28538800  5.70157951
   9.61698537 11.28538800  5.70157951
   1.92916681  5.70396693 11.28392345
   9.61698537  5.70396693 11.28392345
   1.92916681 11.32775235 11.32521848
   9.61698537 11.32775235 11.32521848
   1.92916681  2.83762207  2.83711652
   9.61698537  2.83762207  2.83711652
   1.92916681  8.46140749  2.87841155
   9.61698537  8.46140749  2.87841155
   1.92916681  2.87998642  8.46075549
   9.61698537  2.87998642  8.46075549
   1.92916681  8.50377184  8.50205052
   9.61698537  8.50377184  8.50205052
   5.75865175  0.00454719  0.00464952
  13.44647031  0.00454719  0.00464952
   5.75865175  5.62833261  0.04594455
  13.44647031  5.62833261  0.04594455
   5.75865175  0.04691154  5.62828849
  13.44647031  0.04691154  5.62828849
   5.75865175  5.67069696  5.66958352
  13.44647031  5.67069696  5.66958352
   5.75865175  2.82852770  2.82781748
  13.44647031  2.82852770  2.82781748
   5.75865175  8.45231312  2.86911251
  13.44647031  8.45231312  2.86911251
   5.75865175  2.87089205  8.45145645
  13.44647031  2.87089205  8.45145645
   5.75865175  8.49467747  8.49275148
  13.44647031  8.49467747  8.49275148
   0.00000000  2.81189271  0.02064752
   7.68781856  2.81189271  0.02064752
   0.00000000  8.43567813  0.06194255
   7.68781856  8.43567813  0.06194255
   0.00000000  2.85425706  5.64428649
   7.68781856  2.85425706  5.64428649
   0.00000000  8.47804248  5.68558151
   7.68781856  8.47804248  5.68558151
   0.00000000  0.02118218  2.81181949
   7.68781856  0.02118218  2.81181949
   0.00000000  5.64496759  2.85311452
   7.68781856  5.64496759  2.85311452
   0.00000000  0.06354653  8.43545845
   7.68781856  0.06354653  8.43545845
   0.00000000  5.68733194  8.47675348
   7.68781856  5.68733194  8.47675348
   3.84390928  2.81189271  0.02064752
  11.53172784  2.81189271  0.02064752
   3.84390928  8.43567813  0.06194255
  11.53172784  8.43567813  0.06194255
   3.84390928  2.85425706  5.64428649
  11.53172784  2.85425706  5.64428649
   3.84390928  8.47804248  5.68558151
  11.53172784  8.47804248  5.68558151
   3.84390928  0.02118218  2.81181949
  11.53172784  0.02118218  2.81181949
   3.84390928  5.64496759  2.85311452
  11.53172784  5.64496759  2.85311452
   3.84390928  0.06354653  8.43545845
  11.53172784  0.06354653  8.43545845
   3.84390928  5.68733194  8.47675348
  11.53172784  5.68733194  8.47675348
 


--------------------------------------------------------------------------------------------------------


 k-point  1 :   0.0000 0.0000 0.0000  plane waves:   73163
 k-point  2 :   0.5000 0.0000 0.0000  plane waves:   73208
 k-point  3 :   0.0000 0.3333-0.0000  plane waves:   73197
 k-point  4 :   0.5000 0.3333-0.0000  plane waves:   73182
 k-point  5 :   0.0000-0.0000 0.3333  plane waves:   73195
 k-point  6 :   0.5000-0.0000 0.3333  plane waves:   73178
 k-point  7 :   0.0000 0.3333 0.3333  plane waves:   73141
 k-point  8 :   0.5000 0.3333 0.3333  plane waves:   73198
 k-point  9 :   0.0000-0.3333 0.3333  plane waves:   73095
 k-point 10 :   0.5000-0.3333 0.3333  plane waves:   73224

 maximum and minimum number of plane-waves per node :     12268    12150

 maximum number of plane-waves:     73224
 maximum index in each direction: 
   IXMAX=   31   IYMAX=   23   IZMAX=   23
   IXMIN=  -32   IYMIN=  -23   IZMIN=  -23


 parallel 3D FFT for wavefunctions:
    minimum data exchange during FFTs selected (reduces bandwidth)
 parallel 3D FFT for charge:
    minimum data exchange during FFTs selected (reduces bandwidth)


 total amount of memory used by VASP MPI-rank0   985864. kBytes
=======================================================================

   base      :      30000. kBytes
   nonl-proj :     102069. kBytes
   fftplans  :      64934. kBytes
   grid      :      55554. kBytes
   one-center:        839. kBytes
   wavefun   :     732468. kBytes
 
     INWAV:  cpu time    0.0000: real time    0.0000
 Broyden mixing: mesh for mixing (old mesh)
   NGX = 63   NGY = 47   NGZ = 47
  (NGX  =256   NGY  =192   NGZ  =192)
  gives a total of 139167 points

 initial charge density was supplied:
 number of electron    1024.0000024 magnetization     128.0000040
 keeping initial charge density in first step


--------------------------------------------------------------------------------------------------------


 Maximum index for augmentation-charges         8015 (set IRDMAX)


--------------------------------------------------------------------------------------------------------


 First call to EWALD:  gamma=   0.142
 Maximum number of real-space cells 2x 3x 3
 Maximum number of reciprocal cells 3x 3x 3

    FEWALD:  cpu time    0.0383: real time    0.0399


--------------------------------------- Iteration      1(   1)  ---------------------------------------


    POTLOK:  cpu time    0.6818: real time    0.7104
    SETDIJ:  cpu time    1.7002: real time    1.7239
     EDDAV:  cpu time  359.5897: real time  367.8602
       DOS:  cpu time    0.0066: real time    0.0075
    --------------------------------------------
      LOOP:  cpu time  361.9784: real time  370.3021

 eigenvalue-minimisations  : 30712
 total energy-change (2. order) : 0.1347184E+05  (-0.5518320E+05)
 number of electron    1024.0000024 magnetization     128.0000040
 augmentation part     1024.0000024 magnetization     128.0000040

 Free energy of the ion-electron system (eV)
  ---------------------------------------------------
  alpha Z        PSCENC =      2580.95227926
  Ewald energy   TEWEN  =    -67508.66086571
  -Hartree energ DENC   =    -35943.97841699
  -exchange      EXHF   =         0.00000000
  -V(xc)+E(xc)   XCENC  =      4397.38367125
  PAW double counting   =    108731.45464712  -112348.03830957
  entropy T*S    EENTRO =        -0.03609452
  eigenvalues    EBANDS =      -746.52061443
  atomic energy  EATOM  =    114309.28505226
  Solvation  Ediel_sol  =         0.00000000
  ---------------------------------------------------
  free energy    TOTEN  =     13471.84134868 eV

  energy without entropy =    13471.87744320  energy(sigma->0) =    13471.85939594


--------------------------------------------------------------------------------------------------------




--------------------------------------- Iteration      1(   2)  ---------------------------------------


     EDDAV:  cpu time  346.6159: real time  353.8279
       DOS:  cpu time    0.0073: real time    0.0073
    --------------------------------------------
      LOOP:  cpu time  346.6232: real time  353.8352

 eigenvalue-minimisations  : 29280
 total energy-change (2. order) :-0.1205994E+05  (-0.1121277E+05)
 number of electron    1024.0000024 magnetization     128.0000040
 augmentation part     1024.0000024 magnetization     128.0000040

 Free energy of the ion-electron system (eV)
  ---------------------------------------------------
  alpha Z        PSCENC =      2580.95227926
  Ewald energy   TEWEN  =    -67508.66086571
  -Hartree energ DENC   =    -35943.97841699
  -exchange      EXHF   =         0.00000000
  -V(xc)+E(xc)   XCENC  =      4397.38367125
  PAW double counting   =    108731.45464712  -112348.03830957
  entropy T*S    EENTRO =        -0.06522500
  eigenvalues    EBANDS =    -12806.43349227
  atomic energy  EATOM  =    114309.28505226
  Solvation  Ediel_sol  =         0.00000000
  ---------------------------------------------------
  free energy    TOTEN  =      1411.89934035 eV

  energy without entropy =     1411.96456535  energy(sigma->0) =     1411.93195285


--------------------------------------------------------------------------------------------------------




--------------------------------------- Iteration      1(   3)  ---------------------------------------


     EDDAV:  cpu time  381.8112: real time  389.6275
       DOS:  cpu time    0.0017: real time    0.0017
    --------------------------------------------
      LOOP:  cpu time  381.8128: real time  389.6291

 eigenvalue-minimisations  : 32912
 total energy-change (2. order) :-0.1937125E+04  (-0.1738492E+04)
 number of electron    1024.0000024 magnetization     128.0000040
 augmentation part     1024.0000024 magnetization     128.0000040

 Free energy of the ion-electron system (eV)
  ---------------------------------------------------
  alpha Z        PSCENC =      2580.95227926
  Ewald energy   TEWEN  =    -67508.66086571
  -Hartree energ DENC   =    -35943.97841699
  -exchange      EXHF   =         0.00000000
  -V(xc)+E(xc)   XCENC  =      4397.38367125
  PAW double counting   =    108731.45464712  -112348.03830957
  entropy T*S    EENTRO =        -0.00000000
  eigenvalues    EBANDS =    -14743.62329230
  atomic energy  EATOM  =    114309.28505226
  Solvation  Ediel_sol  =         0.00000000
  ---------------------------------------------------
  free energy    TOTEN  =      -525.22523468 eV

  energy without entropy =     -525.22523468  energy(sigma->0) =     -525.22523468


--------------------------------------------------------------------------------------------------------




--------------------------------------- Iteration      1(   4)  ---------------------------------------


     EDDAV:  cpu time  439.0235: real time  448.5638
       DOS:  cpu time    0.0019: real time    0.0019
    --------------------------------------------
      LOOP:  cpu time  439.0254: real time  448.5657

 eigenvalue-minimisations  : 39224
 total energy-change (2. order) :-0.2634369E+03  (-0.2605704E+03)
 number of electron    1024.0000024 magnetization     128.0000040
 augmentation part     1024.0000024 magnetization     128.0000040

 Free energy of the ion-electron system (eV)
  ---------------------------------------------------
  alpha Z        PSCENC =      2580.95227926
  Ewald energy   TEWEN  =    -67508.66086571
  -Hartree energ DENC   =    -35943.97841699
  -exchange      EXHF   =         0.00000000
  -V(xc)+E(xc)   XCENC  =      4397.38367125
  PAW double counting   =    108731.45464712  -112348.03830957
  entropy T*S    EENTRO =        -0.00000000
  eigenvalues    EBANDS =    -15007.06022222
  atomic energy  EATOM  =    114309.28505226
  Solvation  Ediel_sol  =         0.00000000
  ---------------------------------------------------
  free energy    TOTEN  =      -788.66216459 eV

  energy without entropy =     -788.66216459  energy(sigma->0) =     -788.66216459


--------------------------------------------------------------------------------------------------------




--------------------------------------- Iteration      1(   5)  ---------------------------------------


     EDDAV:  cpu time  548.1007: real time  560.3313
       DOS:  cpu time    0.0017: real time    0.0017
    CHARGE:  cpu time    8.3143: real time    8.4941
    MIXING:  cpu time    0.0317: real time    0.0323
    --------------------------------------------
      LOOP:  cpu time  556.4485: real time  568.8595

 eigenvalue-minimisations  : 51416
 total energy-change (2. order) :-0.3189652E+02  (-0.3163993E+02)
 number of electron    1024.0000024 magnetization     128.0000032
 augmentation part      329.1852511 magnetization      84.1843574

 Broyden mixing:
  rms(total) = 0.32620E+00    rms(broyden)= 0.32586E+00
  rms(prec ) = 0.32961E+00
  weight for this iteration     100.00

 Free energy of the ion-electron system (eV)
  ---------------------------------------------------
  alpha Z        PSCENC =      2580.95227926
  Ewald energy   TEWEN  =    -67508.66086571
  -Hartree energ DENC   =    -35943.97841699
  -exchange      EXHF   =         0.00000000
  -V(xc)+E(xc)   XCENC  =      4397.38367125
  PAW double counting   =    108731.45464712  -112348.03830957
  entropy T*S    EENTRO =        -0.00000000
  eigenvalues    EBANDS =    -15038.95673829
  atomic energy  EATOM  =    114309.28505226
  Solvation  Ediel_sol  =         0.00000000
  ---------------------------------------------------
  free energy    TOTEN  =      -820.55868067 eV

  energy without entropy =     -820.55868067  energy(sigma->0) =     -820.55868067


--------------------------------------------------------------------------------------------------------




--------------------------------------- Iteration      1(   6)  ---------------------------------------


    POTLOK:  cpu time    0.6920: real time    0.6931
    SETDIJ:  cpu time    1.6753: real time    1.6906
     EDDAV:  cpu time  448.7506: real time  458.8799
       DOS:  cpu time    0.0021: real time    0.0021
    CHARGE:  cpu time    8.1455: real time    8.5001
    MIXING:  cpu time    0.0288: real time    0.0337
    --------------------------------------------
      LOOP:  cpu time  459.2943: real time  469.7996

 eigenvalue-minimisations  : 40792
 total energy-change (2. order) :-0.1437148E+01  (-0.1481258E+01)
 number of electron    1024.0000024 magnetization     128.0000028
 augmentation part      327.4308925 magnetization      84.3778532

 Broyden mixing:
  rms(total) = 0.13865E+00    rms(broyden)= 0.13834E+00
  rms(prec ) = 0.13936E+00
  weight for this iteration     100.00

 eigenvalues of (default mixing * dielectric matrix)
  average eigenvalue GAMMA=   0.6654
  0.6654

 Free energy of the ion-electron system (eV)
  ---------------------------------------------------
  alpha Z        PSCENC =      2580.95227926
  Ewald energy   TEWEN  =    -67508.66086571
  -Hartree energ DENC   =    -35935.60779472
  -exchange      EXHF   =         0.00000000
  -V(xc)+E(xc)   XCENC  =      4396.13923677
  PAW double counting   =    108539.54819902  -112150.54046065
  entropy T*S    EENTRO =        -0.00000000
  eigenvalues    EBANDS =    -15053.11147510
  atomic energy  EATOM  =    114309.28505226
  Solvation  Ediel_sol  =         0.00000000
  ---------------------------------------------------
  free energy    TOTEN  =      -821.99582889 eV

  energy without entropy =     -821.99582889  energy(sigma->0) =     -821.99582889


--------------------------------------------------------------------------------------------------------




--------------------------------------- Iteration      1(   7)  ---------------------------------------


    POTLOK:  cpu time    0.7234: real time    0.7599
    SETDIJ:  cpu time    1.6542: real time    1.6665
     EDDAV:  cpu time  506.4788: real time  517.8719
       DOS:  cpu time    0.0018: real time    0.0018
    CHARGE:  cpu time    8.3643: real time    8.5498
    MIXING:  cpu time    0.0437: real time    0.0437
    --------------------------------------------
      LOOP:  cpu time  517.2662: real time  528.8935

 eigenvalue-minimisations  : 47000
 total energy-change (2. order) :-0.7104554E-01  (-0.6979691E-01)
 number of electron    1024.0000024 magnetization     128.0000026
 augmentation part      327.1410909 magnetization      84.3041697

 Broyden mixing:
  rms(total) = 0.98464E-01    rms(broyden)= 0.98345E-01
  rms(prec ) = 0.99827E-01
  weight for this iteration     100.00

 eigenvalues of (default mixing * dielectric matrix)
  average eigenvalue GAMMA=   0.5908
  0.5908  0.5908

 Free energy of the ion-electron system (eV)
  ---------------------------------------------------
  alpha Z        PSCENC =      2580.95227926
  Ewald energy   TEWEN  =    -67508.66086571
  -Hartree energ DENC   =    -35938.26627734
  -exchange      EXHF   =         0.00000000
  -V(xc)+E(xc)   XCENC  =      4396.48424046
  PAW double counting   =    108584.10803404  -112196.55259936
  entropy T*S    EENTRO =        -0.00000000
  eigenvalues    EBANDS =    -15049.41673802
  atomic energy  EATOM  =    114309.28505226
  Solvation  Ediel_sol  =         0.00000000
  ---------------------------------------------------
  free energy    TOTEN  =      -822.06687442 eV

  energy without entropy =     -822.06687442  energy(sigma->0) =     -822.06687442


--------------------------------------------------------------------------------------------------------




--------------------------------------- Iteration      1(   8)  ---------------------------------------


    POTLOK:  cpu time    0.6775: real time    0.6873
    SETDIJ:  cpu time    1.6777: real time    1.6900
     EDDAV:  cpu time  486.9326: real time  497.4815
       DOS:  cpu time    0.0018: real time    0.0017
    CHARGE:  cpu time    8.4157: real time    8.6037
    MIXING:  cpu time    0.0324: real time    0.0423
    --------------------------------------------
      LOOP:  cpu time  497.7377: real time  508.5066

 eigenvalue-minimisations  : 44824
 total energy-change (2. order) :-0.1210923E-03  (-0.2768581E-02)
 number of electron    1024.0000024 magnetization     128.0000025
 augmentation part      327.0913581 magnetization      84.2877493

 Broyden mixing:
  rms(total) = 0.85619E-01    rms(broyden)= 0.85609E-01
  rms(prec ) = 0.86945E-01
  weight for this iteration     100.00

 eigenvalues of (default mixing * dielectric matrix)
  average eigenvalue GAMMA=   0.5237
  0.5869  0.5869  0.3972

 Free energy of the ion-electron system (eV)
  ---------------------------------------------------
  alpha Z        PSCENC =      2580.95227926
  Ewald energy   TEWEN  =    -67508.66086571
  -Hartree energ DENC   =    -35939.11788336
  -exchange      EXHF   =         0.00000000
  -V(xc)+E(xc)   XCENC  =      4396.62620101
  PAW double counting   =    108609.86956234  -112223.03740639
  entropy T*S    EENTRO =        -0.00000000
  eigenvalues    EBANDS =    -15047.98393492
  atomic energy  EATOM  =    114309.28505226
  Solvation  Ediel_sol  =         0.00000000
  ---------------------------------------------------
  free energy    TOTEN  =      -822.06699552 eV

  energy without entropy =     -822.06699552  energy(sigma->0) =     -822.06699552


--------------------------------------------------------------------------------------------------------




--------------------------------------- Iteration      1(   9)  ---------------------------------------


    POTLOK:  cpu time    0.6869: real time    0.7143
    SETDIJ:  cpu time    1.6534: real time    1.6802
     EDDAV:  cpu time  521.8620: real time  532.6145
       DOS:  cpu time    0.0023: real time    0.0024
    CHARGE:  cpu time    8.2738: real time    8.5820
    MIXING:  cpu time    0.0402: real time    0.0408
    --------------------------------------------
      LOOP:  cpu time  532.5186: real time  543.6343

 eigenvalue-minimisations  : 48360
 total energy-change (2. order) : 0.1129303E-02  (-0.1692967E-03)
 number of electron    1024.0000024 magnetization     128.0000020
 augmentation part      327.1007975 magnetization      84.2821285

 Broyden mixing:
  rms(total) = 0.77402E-01    rms(broyden)= 0.77401E-01
  rms(prec ) = 0.78583E-01
  weight for this iteration     100.00

 eigenvalues of (default mixing * dielectric matrix)
  average eigenvalue GAMMA=   0.8872
  1.2243  1.2243  0.5502  0.5502

 Free energy of the ion-electron system (eV)
  ---------------------------------------------------
  alpha Z        PSCENC =      2580.95227926
  Ewald energy   TEWEN  =    -67508.66086571
  -Hartree energ DENC   =    -35939.43194415
  -exchange      EXHF   =         0.00000000
  -V(xc)+E(xc)   XCENC  =      4396.69800576
  PAW double counting   =    108619.49859341  -112232.98794521
  entropy T*S    EENTRO =        -0.00000000
  eigenvalues    EBANDS =    -15047.41904183
  atomic energy  EATOM  =    114309.28505226
  Solvation  Ediel_sol  =         0.00000000
  ---------------------------------------------------
  free energy    TOTEN  =      -822.06586621 eV

  energy without entropy =     -822.06586621  energy(sigma->0) =     -822.06586621


--------------------------------------------------------------------------------------------------------




--------------------------------------- Iteration      1(  10)  ---------------------------------------


    POTLOK:  cpu time    0.6679: real time    0.6896
    SETDIJ:  cpu time    1.6949: real time    1.7117
     EDDAV:  cpu time  542.2736: real time  554.1644
       DOS:  cpu time    0.0062: real time    0.0068
    CHARGE:  cpu time    8.2468: real time    8.5778
    MIXING:  cpu time    0.0437: real time    0.0506
    --------------------------------------------
      LOOP:  cpu time  552.9332: real time  565.2009

 eigenvalue-minimisations  : 50848
 total energy-change (2. order) : 0.3312743E-02  (-0.1922162E-03)
 number of electron    1024.0000024 magnetization     128.0000015
 augmentation part      327.1341489 magnetization      84.2793475

 Broyden mixing:
  rms(total) = 0.42856E-01    rms(broyden)= 0.42855E-01
  rms(prec ) = 0.43355E-01
  weight for this iteration     100.00

 eigenvalues of (default mixing * dielectric matrix)
  average eigenvalue GAMMA=   0.9050
  1.4258  1.4258  0.5934  0.5934  0.4867

 Free energy of the ion-electron system (eV)
  ---------------------------------------------------
  alpha Z        PSCENC =      2580.95227926
  Ewald energy   TEWEN  =    -67508.66086571
  -Hartree energ DENC   =    -35941.60158596
  -exchange      EXHF   =         0.00000000
  -V(xc)+E(xc)   XCENC  =      4397.04757840
  PAW double counting   =    108663.81297247  -112278.80569234
  entropy T*S    EENTRO =        -0.00000000
  eigenvalues    EBANDS =    -15044.09229185
  atomic energy  EATOM  =    114309.28505226
  Solvation  Ediel_sol  =         0.00000000
  ---------------------------------------------------
  free energy    TOTEN  =      -822.06255347 eV

  energy without entropy =     -822.06255347  energy(sigma->0) =     -822.06255347


--------------------------------------------------------------------------------------------------------




--------------------------------------- Iteration      1(  11)  ---------------------------------------


    POTLOK:  cpu time    0.7278: real time    0.7282
    SETDIJ:  cpu time    1.6773: real time    1.6777
     EDDAV:  cpu time  523.2348: real time  534.0809
       DOS:  cpu time    0.0017: real time    0.0017
    CHARGE:  cpu time    8.3436: real time    8.5025
    MIXING:  cpu time    0.0269: real time    0.0323
    --------------------------------------------
      LOOP:  cpu time  534.0121: real time  545.0234

 eigenvalue-minimisations  : 48352
 total energy-change (2. order) : 0.9025572E-03  (-0.2300355E-03)
 number of electron    1024.0000024 magnetization     128.0000013
 augmentation part      327.1677196 magnetization      84.2790607

 Broyden mixing:
  rms(total) = 0.14642E-01    rms(broyden)= 0.14638E-01
  rms(prec ) = 0.14682E-01
  weight for this iteration     100.00

 eigenvalues of (default mixing * dielectric matrix)
  average eigenvalue GAMMA=   0.9586
  1.5166  1.5166  0.7875  0.7875  0.6202  0.5233

 Free energy of the ion-electron system (eV)
  ---------------------------------------------------
  alpha Z        PSCENC =      2580.95227926
  Ewald energy   TEWEN  =    -67508.66086571
  -Hartree energ DENC   =    -35943.48329237
  -exchange      EXHF   =         0.00000000
  -V(xc)+E(xc)   XCENC  =      4397.33237124
  PAW double counting   =    108704.79116659  -112321.07253670
  entropy T*S    EENTRO =        -0.00000000
  eigenvalues    EBANDS =    -15041.20582548
  atomic energy  EATOM  =    114309.28505226
  Solvation  Ediel_sol  =         0.00000000
  ---------------------------------------------------
  free energy    TOTEN  =      -822.06165091 eV

  energy without entropy =     -822.06165091  energy(sigma->0) =     -822.06165091


--------------------------------------------------------------------------------------------------------




--------------------------------------- Iteration      1(  12)  ---------------------------------------


    POTLOK:  cpu time    0.6767: real time    0.6809
    SETDIJ:  cpu time    1.6791: real time    1.6948
     EDDAV:  cpu time  467.4155: real time  476.9081
       DOS:  cpu time    0.0021: real time    0.0023
    CHARGE:  cpu time    8.3137: real time    8.4918
    MIXING:  cpu time    0.0412: real time    0.0422
    --------------------------------------------
      LOOP:  cpu time  478.1283: real time  487.8202

 eigenvalue-minimisations  : 42784
 total energy-change (2. order) :-0.4086776E-04  (-0.4373817E-04)
 number of electron    1024.0000024 magnetization     128.0000011
 augmentation part      327.1751764 magnetization      84.2796297

 Broyden mixing:
  rms(total) = 0.78406E-02    rms(broyden)= 0.78398E-02
  rms(prec ) = 0.79840E-02
  weight for this iteration     100.00

 eigenvalues of (default mixing * dielectric matrix)
  average eigenvalue GAMMA=   1.0115
  2.0874  1.1002  1.1002  1.1245  0.6100  0.5290  0.5290

 Free energy of the ion-electron system (eV)
  ---------------------------------------------------
  alpha Z        PSCENC =      2580.95227926
  Ewald energy   TEWEN  =    -67508.66086571
  -Hartree energ DENC   =    -35944.05351647
  -exchange      EXHF   =         0.00000000
  -V(xc)+E(xc)   XCENC  =      4397.42484347
  PAW double counting   =    108722.22210400  -112338.91124138
  entropy T*S    EENTRO =        -0.00000000
  eigenvalues    EBANDS =    -15040.32034719
  atomic energy  EATOM  =    114309.28505226
  Solvation  Ediel_sol  =         0.00000000
  ---------------------------------------------------
  free energy    TOTEN  =      -822.06169178 eV

  energy without entropy =     -822.06169178  energy(sigma->0) =     -822.06169178


--------------------------------------------------------------------------------------------------------




--------------------------------------- Iteration      1(  13)  ---------------------------------------


    POTLOK:  cpu time    0.6816: real time    0.6876
    SETDIJ:  cpu time    1.6504: real time    1.6928
     EDDAV:  cpu time  454.0141: real time  463.4102
       DOS:  cpu time    0.0030: real time    0.0038
    CHARGE:  cpu time    8.4157: real time    8.5386
    MIXING:  cpu time    0.0465: real time    0.0512
    --------------------------------------------
      LOOP:  cpu time  464.8112: real time  474.3842

 eigenvalue-minimisations  : 41208
 total energy-change (2. order) :-0.1062409E-04  (-0.1364404E-04)
 number of electron    1024.0000024 magnetization     128.0000010
 augmentation part      327.1829564 magnetization      84.2788990

 Broyden mixing:
  rms(total) = 0.57673E-02    rms(broyden)= 0.57660E-02
  rms(prec ) = 0.59363E-02
  weight for this iteration     100.00

 eigenvalues of (default mixing * dielectric matrix)
  average eigenvalue GAMMA=   1.1024
  2.3534  1.4834  1.4834  1.0751  0.6753  0.6753  0.5736  0.5001

 Free energy of the ion-electron system (eV)
  ---------------------------------------------------
  alpha Z        PSCENC =      2580.95227926
  Ewald energy   TEWEN  =    -67508.66086571
  -Hartree energ DENC   =    -35944.02783802
  -exchange      EXHF   =         0.00000000
  -V(xc)+E(xc)   XCENC  =      4397.41741524
  PAW double counting   =    108726.24668398  -112342.89487291
  entropy T*S    EENTRO =        -0.00000000
  eigenvalues    EBANDS =    -15040.37955650
  atomic energy  EATOM  =    114309.28505226
  Solvation  Ediel_sol  =         0.00000000
  ---------------------------------------------------
  free energy    TOTEN  =      -822.06170240 eV

  energy without entropy =     -822.06170240  energy(sigma->0) =     -822.06170240


--------------------------------------------------------------------------------------------------------




--------------------------------------- Iteration      1(  14)  ---------------------------------------


    POTLOK:  cpu time    0.6844: real time    0.7066
    SETDIJ:  cpu time    1.6770: real time    1.6960
     EDDAV:  cpu time  428.0053: real time  437.7989
       DOS:  cpu time    0.0051: real time    0.0051
    CHARGE:  cpu time    8.3703: real time    8.5725
    MIXING:  cpu time    0.0310: real time    0.0310
    --------------------------------------------
      LOOP:  cpu time  438.7732: real time  448.8100

 eigenvalue-minimisations  : 37928
 total energy-change (2. order) : 0.7140101E-05  (-0.1278761E-05)
 number of electron    1024.0000024 magnetization     128.0000008
 augmentation part      327.1815571 magnetization      84.2787006

 Broyden mixing:
  rms(total) = 0.26776E-02    rms(broyden)= 0.26768E-02
  rms(prec ) = 0.27732E-02
  weight for this iteration     100.00

 eigenvalues of (default mixing * dielectric matrix)
  average eigenvalue GAMMA=   1.1106
  2.0362  2.0362  1.2941  1.2941  0.7985  0.7985  0.6614  0.5616  0.5148

 Free energy of the ion-electron system (eV)
  ---------------------------------------------------
  alpha Z        PSCENC =      2580.95227926
  Ewald energy   TEWEN  =    -67508.66086571
  -Hartree energ DENC   =    -35943.98577789
  -exchange      EXHF   =         0.00000000
  -V(xc)+E(xc)   XCENC  =      4397.39611530
  PAW double counting   =    108729.32361269  -112345.88951312
  entropy T*S    EENTRO =        -0.00000000
  eigenvalues    EBANDS =    -15040.48259805
  atomic energy  EATOM  =    114309.28505226
  Solvation  Ediel_sol  =         0.00000000
  ---------------------------------------------------
  free energy    TOTEN  =      -822.06169526 eV

  energy without entropy =     -822.06169526  energy(sigma->0) =     -822.06169526


--------------------------------------------------------------------------------------------------------




--------------------------------------- Iteration      1(  15)  ---------------------------------------


    POTLOK:  cpu time    0.6704: real time    0.6710
    SETDIJ:  cpu time    1.6619: real time    1.6649
     EDDAV:  cpu time  416.0473: real time  424.5189
       DOS:  cpu time    0.0018: real time    0.0018
    CHARGE:  cpu time    8.1790: real time    8.5510
    MIXING:  cpu time    0.0335: real time    0.0372
    --------------------------------------------
      LOOP:  cpu time  426.5938: real time  435.4448

 eigenvalue-minimisations  : 37080
 total energy-change (2. order) :-0.7329945E-05  (-0.3003278E-05)
 number of electron    1024.0000024 magnetization     128.0000008
 augmentation part      327.1782283 magnetization      84.2792168

 Broyden mixing:
  rms(total) = 0.91915E-03    rms(broyden)= 0.91693E-03
  rms(prec ) = 0.93318E-03
  weight for this iteration     100.00

 eigenvalues of (default mixing * dielectric matrix)
  average eigenvalue GAMMA=   1.1073
  2.6747  1.6393  1.6393  0.9098  0.9098  0.9506  0.6450  0.6450  0.5068  0.5529

 Free energy of the ion-electron system (eV)
  ---------------------------------------------------
  alpha Z        PSCENC =      2580.95227926
  Ewald energy   TEWEN  =    -67508.66086571
  -Hartree energ DENC   =    -35943.98830246
  -exchange      EXHF   =         0.00000000
  -V(xc)+E(xc)   XCENC  =      4397.38308046
  PAW double counting   =    108730.52324628  -112347.05582519
  entropy T*S    EENTRO =        -0.00000000
  eigenvalues    EBANDS =    -15040.50036748
  atomic energy  EATOM  =    114309.28505226
  Solvation  Ediel_sol  =         0.00000000
  ---------------------------------------------------
  free energy    TOTEN  =      -822.06170259 eV

  energy without entropy =     -822.06170259  energy(sigma->0) =     -822.06170259


--------------------------------------------------------------------------------------------------------




--------------------------------------- Iteration      1(  16)  ---------------------------------------


    POTLOK:  cpu time    0.6641: real time    0.6925
    SETDIJ:  cpu time    1.6745: real time    1.6869
     EDDAV:  cpu time  468.8504: real time  479.4637
       DOS:  cpu time    0.0019: real time    0.0019
    CHARGE:  cpu time    8.2646: real time    8.4874
    MIXING:  cpu time    0.0358: real time    0.0478
    --------------------------------------------
      LOOP:  cpu time  479.4914: real time  490.3802

 eigenvalue-minimisations  : 42760
 total energy-change (2. order) :-0.2241824E-05  (-0.8740922E-06)
 number of electron    1024.0000024 magnetization     128.0000008
 augmentation part      327.1764756 magnetization      84.2793174

 Broyden mixing:
  rms(total) = 0.53864E-03    rms(broyden)= 0.53463E-03
  rms(prec ) = 0.54672E-03
  weight for this iteration     100.00

 eigenvalues of (default mixing * dielectric matrix)
  average eigenvalue GAMMA=   1.1045
  2.7314  1.6279  1.6279  1.0249  1.0249  0.9822  0.7219  0.7219  0.6347  0.5182
  0.5340

 Free energy of the ion-electron system (eV)
  ---------------------------------------------------
  alpha Z        PSCENC =      2580.95227926
  Ewald energy   TEWEN  =    -67508.66086571
  -Hartree energ DENC   =    -35943.99733161
  -exchange      EXHF   =         0.00000000
  -V(xc)+E(xc)   XCENC  =      4397.38474226
  PAW double counting   =    108731.26305011  -112347.81986065
  entropy T*S    EENTRO =        -0.00000000
  eigenvalues    EBANDS =    -15040.46877074
  atomic energy  EATOM  =    114309.28505226
  Solvation  Ediel_sol  =         0.00000000
  ---------------------------------------------------
  free energy    TOTEN  =      -822.06170484 eV

  energy without entropy =     -822.06170484  energy(sigma->0) =     -822.06170484


--------------------------------------------------------------------------------------------------------




--------------------------------------- Iteration      1(  17)  ---------------------------------------


    POTLOK:  cpu time    0.6702: real time    0.6846
    SETDIJ:  cpu time    1.6681: real time    1.6905
     EDDAV:  cpu time  399.7864: real time  407.7216
       DOS:  cpu time    0.0021: real time    0.0021
    CHARGE:  cpu time    8.5032: real time    8.5823
    MIXING:  cpu time    0.0386: real time    0.0401
    --------------------------------------------
      LOOP:  cpu time  410.6685: real time  418.7212

 eigenvalue-minimisations  : 34912
 total energy-change (2. order) :-0.2202418E-05  (-0.2751858E-07)
 number of electron    1024.0000024 magnetization     128.0000007
 augmentation part      327.1764228 magnetization      84.2793742

 Broyden mixing:
  rms(total) = 0.32388E-03    rms(broyden)= 0.31807E-03
  rms(prec ) = 0.32753E-03
  weight for this iteration     100.00

 eigenvalues of (default mixing * dielectric matrix)
  average eigenvalue GAMMA=   1.1455
  2.4503  2.4503  1.5513  1.5513  0.9241  0.9241  0.7825  0.7825  0.6489  0.6489
  0.5265  0.5059

 Free energy of the ion-electron system (eV)
  ---------------------------------------------------
  alpha Z        PSCENC =      2580.95227926
  Ewald energy   TEWEN  =    -67508.66086571
  -Hartree energ DENC   =    -35943.97372377
  -exchange      EXHF   =         0.00000000
  -V(xc)+E(xc)   XCENC  =      4397.38173117
  PAW double counting   =    108731.34304276  -112347.89948870
  entropy T*S    EENTRO =        -0.00000000
  eigenvalues    EBANDS =    -15040.48973430
  atomic energy  EATOM  =    114309.28505226
  Solvation  Ediel_sol  =         0.00000000
  ---------------------------------------------------
  free energy    TOTEN  =      -822.06170704 eV

  energy without entropy =     -822.06170704  energy(sigma->0) =     -822.06170704


--------------------------------------------------------------------------------------------------------




--------------------------------------- Iteration      1(  18)  ---------------------------------------


    POTLOK:  cpu time    0.6673: real time    0.6831
    SETDIJ:  cpu time    1.7171: real time    1.7237
     EDDAV:  cpu time  451.9820: real time  461.5046
       DOS:  cpu time    0.0020: real time    0.0021
    CHARGE:  cpu time    8.6245: real time    8.6268
    MIXING:  cpu time    0.0401: real time    0.0402
    --------------------------------------------
      LOOP:  cpu time  463.0330: real time  472.5805

 eigenvalue-minimisations  : 40728
 total energy-change (2. order) :-0.1377863E-05  (-0.2128589E-07)
 number of electron    1024.0000024 magnetization     128.0000007
 augmentation part      327.1761998 magnetization      84.2793700

 Broyden mixing:
  rms(total) = 0.16840E-03    rms(broyden)= 0.15701E-03
  rms(prec ) = 0.16094E-03
  weight for this iteration     100.00

 eigenvalues of (default mixing * dielectric matrix)
  average eigenvalue GAMMA=   1.1611
  2.5981  2.1190  2.1190  1.2840  1.2840  0.9331  0.9331  0.7971  0.6718  0.6718
  0.6402  0.5084  0.5349

 Free energy of the ion-electron system (eV)
  ---------------------------------------------------
  alpha Z        PSCENC =      2580.95227926
  Ewald energy   TEWEN  =    -67508.66086571
  -Hartree energ DENC   =    -35943.97340460
  -exchange      EXHF   =         0.00000000
  -V(xc)+E(xc)   XCENC  =      4397.38130651
  PAW double counting   =    108731.34202698  -112347.90872509
  entropy T*S    EENTRO =        -0.00000000
  eigenvalues    EBANDS =    -15040.47937801
  atomic energy  EATOM  =    114309.28505226
  Solvation  Ediel_sol  =         0.00000000
  ---------------------------------------------------
  free energy    TOTEN  =      -822.06170842 eV

  energy without entropy =     -822.06170842  energy(sigma->0) =     -822.06170842


--------------------------------------------------------------------------------------------------------




--------------------------------------- Iteration      1(  19)  ---------------------------------------


    POTLOK:  cpu time    0.6769: real time    0.6787
    SETDIJ:  cpu time    1.7001: real time    1.7165
     EDDAV:  cpu time  358.6318: real time  367.0083
       DOS:  cpu time    0.0019: real time    0.0021
    CHARGE:  cpu time    8.2598: real time    8.5698
    MIXING:  cpu time    0.0568: real time    0.0605
    --------------------------------------------
      LOOP:  cpu time  369.3273: real time  378.0359

 eigenvalue-minimisations  : 30504
 total energy-change (2. order) :-0.3256719E-07  (-0.4974890E-07)
 number of electron    1024.0000024 magnetization     128.0000007
 augmentation part      327.1760582 magnetization      84.2793929

 Broyden mixing:
  rms(total) = 0.11265E-03    rms(broyden)= 0.94808E-04
  rms(prec ) = 0.97867E-04
  weight for this iteration     100.00
  WARNING: grid for Broyden might be to small

 eigenvalues of (default mixing * dielectric matrix)
  average eigenvalue GAMMA=   1.1196
  2.5186  2.2993  1.5359  1.5359  1.3286  0.9521  0.9521  0.8528  0.6902  0.6902
  0.6936  0.5105  0.5341  0.5801

 Free energy of the ion-electron system (eV)
  ---------------------------------------------------
  alpha Z        PSCENC =      2580.95227926
  Ewald energy   TEWEN  =    -67508.66086571
  -Hartree energ DENC   =    -35943.98644549
  -exchange      EXHF   =         0.00000000
  -V(xc)+E(xc)   XCENC  =      4397.38357883
  PAW double counting   =    108731.51098242  -112348.09337797
[...]
   0.106E+00 -.138E+00 -.722E-01   -.107E+00 0.141E+00 0.731E-01   0.245E-02 -.559E-02 -.845E-03   0.362E-04 0.468E-05 0.564E-05
   -.644E-02 -.154E-02 0.102E-01   0.487E-02 0.241E-02 -.972E-02   0.227E-02 -.134E-02 -.528E-03   -.301E-04 -.158E-05 0.281E-05
   0.613E-01 0.865E-01 -.333E-01   -.637E-01 -.912E-01 0.332E-01   0.331E-02 0.703E-02 -.265E-03   -.363E-04 -.116E-04 -.387E-05
   0.415E-01 0.229E-02 -.541E-01   -.449E-01 -.133E-02 0.584E-01   0.465E-02 -.996E-03 -.638E-02   0.206E-04 -.221E-05 -.787E-05
   0.135E-01 -.413E-01 0.344E-01   -.142E-01 0.415E-01 -.357E-01   0.111E-02 -.622E-03 0.205E-02   -.311E-04 0.427E-05 0.781E-05
   -.242E-02 0.376E-02 -.837E-02   0.252E-02 -.429E-02 0.818E-02   -.950E-04 0.789E-03 0.191E-03   -.361E-04 -.457E-05 0.666E-05
   0.198E-01 0.349E-01 0.227E-01   -.206E-01 -.354E-01 -.230E-01   0.997E-03 0.710E-03 0.265E-03   0.294E-05 0.695E-05 0.696E-05
   0.612E-01 0.869E-01 -.335E-01   -.639E-01 -.917E-01 0.334E-01   0.394E-02 0.714E-02 -.462E-03   0.852E-05 -.942E-05 -.829E-05
   -.611E-02 -.187E-02 0.102E-01   0.463E-02 0.271E-02 -.974E-02   0.207E-02 -.124E-02 -.634E-03   -.916E-05 0.275E-05 -.761E-05
   0.105E+00 -.138E+00 -.721E-01   -.107E+00 0.142E+00 0.732E-01   0.231E-02 -.510E-02 -.131E-02   -.219E-04 -.822E-06 -.351E-05
   0.248E+00 0.562E-01 0.121E+00   -.252E+00 -.566E-01 -.125E+00   0.595E-02 0.287E-03 0.437E-02   0.678E-05 -.160E-04 -.944E-05
   0.197E-01 0.349E-01 0.228E-01   -.205E-01 -.355E-01 -.231E-01   0.108E-02 0.787E-03 0.232E-03   -.151E-04 0.108E-04 0.925E-05
   -.236E-02 0.370E-02 -.840E-02   0.238E-02 -.415E-02 0.818E-02   -.574E-04 0.676E-03 0.259E-03   0.408E-04 -.148E-04 0.205E-07
   0.134E-01 -.413E-01 0.345E-01   -.139E-01 0.416E-01 -.357E-01   0.698E-03 -.626E-03 0.188E-02   0.133E-04 0.539E-05 0.794E-05
   0.415E-01 0.230E-02 -.539E-01   -.451E-01 -.147E-02 0.582E-01   0.510E-02 -.684E-03 -.642E-02   0.318E-04 0.872E-05 0.139E-04
   -.116E+01 0.431E+00 0.125E+01   0.122E+01 -.472E+00 -.133E+01   -.683E-01 0.238E-01 0.720E-01   -.335E-04 0.148E-04 -.155E-04
   0.855E-01 -.833E-02 0.117E-02   -.874E-01 0.885E-02 -.147E-02   0.268E-02 -.729E-03 0.381E-03   -.532E-04 -.867E-05 0.810E-05
   -.123E+00 0.183E+00 -.600E-01   0.127E+00 -.187E+00 0.612E-01   -.599E-02 0.506E-02 -.146E-02   0.712E-04 0.767E-05 -.778E-05
   0.580E-01 0.842E-02 -.126E-02   -.596E-01 -.887E-02 0.126E-02   0.225E-02 0.621E-03 0.921E-04   0.804E-05 0.233E-04 -.257E-04
   -.123E+00 -.469E-01 -.582E-01   0.128E+00 0.481E-01 0.593E-01   -.630E-02 -.176E-02 -.176E-02   0.467E-05 0.240E-04 -.249E-04
   0.581E-01 -.621E-02 -.948E-03   -.597E-01 0.641E-02 0.119E-02   0.225E-02 -.336E-03 -.373E-03   0.111E-04 0.208E-05 -.313E-05
   -.623E-01 0.452E-01 0.241E-01   0.642E-01 -.468E-01 -.253E-01   -.270E-02 0.279E-02 0.222E-02   0.373E-04 0.171E-04 -.147E-04
   0.442E-01 0.629E-02 0.937E-03   -.456E-01 -.640E-02 -.104E-02   0.186E-02 0.173E-03 0.170E-03   0.867E-05 -.275E-05 0.384E-05
   -.123E+00 0.183E+00 -.602E-01   0.128E+00 -.187E+00 0.615E-01   -.636E-02 0.502E-02 -.139E-02   -.214E-04 -.171E-04 0.197E-04
   0.581E-01 0.837E-02 -.122E-02   -.597E-01 -.889E-02 0.130E-02   0.222E-02 0.741E-03 -.384E-04   0.232E-04 0.228E-04 -.204E-04
   -.115E+01 0.442E+00 0.125E+01   0.121E+01 -.484E+00 -.133E+01   -.670E-01 0.244E-01 0.725E-01   0.135E-04 -.381E-04 0.338E-04
   0.853E-01 -.844E-02 0.120E-02   -.873E-01 0.887E-02 -.141E-02   0.266E-02 -.574E-03 0.230E-03   0.198E-04 -.214E-04 0.202E-04
   -.623E-01 0.453E-01 0.240E-01   0.644E-01 -.467E-01 -.254E-01   -.283E-02 0.257E-02 0.242E-02   -.126E-04 -.162E-04 0.187E-04
   0.443E-01 0.623E-02 0.103E-02   -.456E-01 -.640E-02 -.107E-02   0.185E-02 0.276E-03 0.668E-04   0.392E-06 -.810E-05 0.883E-05
   -.123E+00 -.464E-01 -.588E-01   0.128E+00 0.476E-01 0.599E-01   -.603E-02 -.183E-02 -.168E-02   -.196E-04 -.666E-05 0.549E-05
   0.580E-01 -.630E-02 -.824E-03   -.597E-01 0.642E-02 0.114E-02   0.225E-02 -.208E-03 -.499E-03   -.225E-04 -.365E-06 0.344E-05
 -----------------------------------------------------------------------------------------------
   0.343E-01 -.190E+00 -.215E+00   -.308E-12 0.363E-13 0.116E-12   -.344E-01 0.190E+00 0.215E+00   0.445E-04 -.419E-04 0.154E-04
 
 
 POSITION                                       TOTAL-FORCE (eV/Angst)
 -----------------------------------------------------------------------------------
      1.92590      3.13932      5.36004         0.000670      0.000631      0.001773
      9.61372      3.13932      5.36004        -0.000197      0.000008     -0.000069
      1.92590      8.76310      5.40133         0.000300     -0.000388     -0.000253
      9.61372      8.76310      5.40133        -0.000187     -0.000113     -0.000116
      1.92590      3.18168     10.98368        -0.007206     -0.002880     -0.007252
      9.61372      3.18168     10.98368        -0.000399      0.000121     -0.000072
      1.92590      8.80547     11.02497         0.000475      0.000151      0.000011
      9.61372      8.80547     11.02497        -0.000326     -0.000193     -0.000015
      1.92590      5.35991      3.13736         0.000507      0.004561      0.003269
      9.61372      5.35991      3.13736        -0.000421      0.000147     -0.000024
      1.92590     10.98369      3.17866         0.000267     -0.001460      0.000176
      9.61372     10.98369      3.17866        -0.000250     -0.000017      0.000038
      1.92590      5.40227      8.76100         0.000253      0.000158     -0.000614
      9.61372      5.40227      8.76100        -0.000453      0.000110      0.000183
      1.92590     11.02606      8.80230         0.000017     -0.000119     -0.000118
      9.61372     11.02606      8.80230        -0.000097      0.000015      0.000083
      5.76192      2.52683      0.30490         0.001389      0.003944      0.002056
     13.44973      2.52683      0.30490        -0.000502      0.000097     -0.000064
      5.76192      8.15062      0.34619         0.000304     -0.001902     -0.000072
     13.44973      8.15062      0.34619        -0.000272      0.000031      0.000061
      5.76192      2.56920      5.92854         0.000254      0.000100     -0.000470
     13.44973      2.56920      5.92854        -0.000425      0.000026      0.000144
      5.76192      8.19298      5.96983         0.000013     -0.000084     -0.000014
     13.44973      8.19298      5.96983        -0.000095      0.000078      0.000069
      5.76192      0.30624      2.52757         0.000603      0.000485      0.000392
     13.44973      0.30624      2.52757        -0.000397     -0.000214     -0.000046
      5.76192      5.93003      2.56887        -0.008011     -0.006442     -0.005307
     13.44973      5.93003      2.56887        -0.000340      0.000056     -0.000098
      5.76192      0.34861      8.15121         0.000286     -0.000212     -0.000287
     13.44973      0.34861      8.15121        -0.000209     -0.000113     -0.000067
      5.76192      5.97239      8.19250         0.000471     -0.000058      0.001134
     13.44973      5.97239      8.19250        -0.000169     -0.000023     -0.000038
      4.24371      4.24961      4.24870         0.002077      0.002776     -0.001818
     11.93153      4.24961      4.24870        -0.000379      0.000173      0.000107
      4.24371      9.87340      4.29000         0.000553     -0.000498     -0.000006
     11.93153      9.87340      4.29000        -0.000246     -0.000092     -0.000030
      4.24371      4.29198      9.87234         0.002721      0.003194      0.000846
     11.93153      4.29198      9.87234        -0.000345      0.000134      0.000055
      4.24371      9.91576      9.91363         0.000506     -0.000521     -0.000025
     11.93153      9.91576      9.91363        -0.000257     -0.000108     -0.000057
      3.44411      1.41654      1.41623         0.001052     -0.008375      0.000925
     11.13192      1.41654      1.41623        -0.000476     -0.000026     -0.000042
      3.44411      7.04032      1.45753         0.003500     -0.005684      0.001357
     11.13192      7.04032      1.45753        -0.000496     -0.000079     -0.000081
      3.44411      1.45890      7.03987         0.000411     -0.000040     -0.000140
     11.13192      1.45890      7.03987        -0.000366      0.000011      0.000035
      3.44411      7.08269      7.08117         0.000399     -0.000059     -0.000165
     11.13192      7.08269      7.08117        -0.000386     -0.000015      0.000017
      7.68691      4.22843      1.43688        -0.001540      0.000730     -0.000514
     15.37473      4.22843      1.43688        -0.001541      0.000772     -0.000506
      7.68691      9.85222      1.47818         0.000053     -0.000354      0.000197
     15.37473      9.85222      1.47818         0.000045     -0.000397      0.000207
      7.68691      4.27079      7.06052         0.000044      0.000467      0.000044
     15.37473      4.27079      7.06052         0.000054      0.000475      0.000008
      7.68691      9.89458      7.10182        -0.000069     -0.000170      0.000012
     15.37473      9.89458      7.10182        -0.000070     -0.000181      0.000019
      0.00091      1.43772      4.22805        -0.001818     -0.001273      0.001061
      7.68873      1.43772      4.22805        -0.000768      0.000198     -0.000394
      0.00091      7.06151      4.26935         0.000106      0.000177      0.000141
      7.68873      7.06151      4.26935        -0.000315     -0.000177     -0.000213
      0.00091      1.48008      9.85169        -0.000324     -0.000164     -0.000243
      7.68873      1.48008      9.85169         0.000097      0.000205      0.000127
      0.00091      7.10387      9.89299        -0.000746      0.000152     -0.000409
      7.68873      7.10387      9.89299        -0.001795     -0.001272      0.001032
      7.36691      4.24961      4.24870        -0.001005      0.000479     -0.000867
     15.05473      4.24961      4.24870        -0.001817      0.002025      0.001122
      7.36691      9.87340      4.29000        -0.000323     -0.000232     -0.000440
     15.05473      9.87340      4.29000         0.000091     -0.000899      0.000365
      7.36691      4.29198      9.87234        -0.002227      0.003141      0.001778
     15.05473      4.29198      9.87234        -0.000471      0.000819     -0.000624
      7.36691      9.91576      9.91363         0.000229     -0.000953      0.000148
     15.05473      9.91576      9.91363        -0.000319     -0.000193     -0.000392
      0.32090      1.41654      1.41623        -0.002708     -0.001759     -0.001748
      8.00872      1.41654      1.41623        -0.000641      0.000561      0.000225
      0.32090      7.04032      1.45753        -0.000816      0.000894      0.000910
      8.00872      7.04032      1.45753        -0.001922     -0.001181     -0.000989
      0.32090      1.45890      7.03987        -0.000410     -0.000701      0.000445
      8.00872      1.45890      7.03987         0.000010      0.000056     -0.000239
      0.32090      7.08269      7.08117         0.000036     -0.000114     -0.000277
      8.00872      7.08269      7.08117        -0.000516     -0.000703      0.000467
      3.83637      4.22253      1.43684         0.028684      0.059848      0.037910
     11.53226      4.22843      1.43688        -0.001011      0.000459     -0.000303
      3.84445      9.85222      1.47818         0.000755     -0.001379     -0.000013
     11.53226      9.85222      1.47818        -0.000696     -0.000256      0.000041
      3.84445      4.27079      7.06052         0.000755      0.000983     -0.000033
     11.53226      4.27079      7.06052        -0.000696      0.000177      0.000038
      3.84445      9.89458      7.10182         0.000980     -0.000956     -0.000524
     11.53226      9.89458      7.10182        -0.000598     -0.000148      0.000068
      3.84337      1.43772      4.22805         0.003098     -0.001046      0.001411
     11.53119      1.43772      4.22805        -0.000649     -0.000125      0.000126
      3.84337      7.06151      4.26935         0.000401     -0.005073     -0.004862
     11.53119      7.06151      4.26935        -0.000591      0.000018     -0.000056
      3.84337      1.48008      9.85169         0.000449     -0.005007     -0.004924
     11.53119      1.48008      9.85169        -0.000589      0.000022     -0.000061
      3.84337      7.10387      9.89299         0.003033     -0.001134      0.001322
     11.53119      7.10387      9.89299        -0.000648     -0.000124      0.000127
      1.92917      5.66160      5.66028        -0.001497     -0.000752      0.000593
      9.61699      5.66160      5.66028         0.000691     -0.000057     -0.000074
      1.92917     11.28539      5.70158        -0.000467      0.000988     -0.000567
      9.61699     11.28539      5.70158         0.000381      0.000068      0.000036
      1.92917      5.70397     11.28392        -0.001977     -0.003674     -0.000186
      9.61699      5.70397     11.28392         0.001516     -0.000060      0.000074
      1.92917     11.32775     11.32522         0.000121      0.001714      0.000509
      9.61699     11.32775     11.32522         0.000464      0.000031     -0.000095
      1.92917      2.83762      2.83712         0.000125     -0.000907     -0.001994
      9.61699      2.83762      2.83712         0.000659     -0.000148      0.000145
      1.92917      8.46141      2.87841        -0.001448      0.001152     -0.000318
      9.61699      8.46141      2.87841         0.000720      0.000217      0.000187
      1.92917      2.87999      8.46076         0.000278     -0.000102      0.001224
      9.61699      2.87999      8.46076         0.000533     -0.000293     -0.000147
      1.92917      8.50377      8.50205        -0.000513      0.000069      0.000432
      9.61699      8.50377      8.50205         0.000503      0.000247     -0.000071
      5.75865      0.00455      0.00465        -0.001388      0.001073     -0.000186
     13.44647      0.00455      0.00465         0.000792      0.000187      0.000175
      5.75865      5.62833      0.04594         0.000321     -0.001457     -0.002569
     13.44647      5.62833      0.04594         0.000654     -0.000204      0.000109
      5.75865      0.04691      5.62829        -0.000506      0.000037      0.000407
     13.44647      0.04691      5.62829         0.000537      0.000216     -0.000111
      5.75865      5.67070      5.66958         0.000261     -0.000176      0.001135
     13.44647      5.67070      5.66958         0.000525     -0.000327     -0.000191
      5.75865      2.82853      2.82782        -0.001925     -0.003407      0.000331
     13.44647      2.82853      2.82782         0.001569     -0.000133      0.000020
      5.75865      8.45231      2.86911         0.000225      0.001704      0.000456
     13.44647      8.45231      2.86911         0.000483      0.000113     -0.000061
      5.75865      2.87089      8.45146        -0.001531     -0.000999      0.000570
     13.44647      2.87089      8.45146         0.000711     -0.000044     -0.000008
      5.75865      8.49468      8.49275        -0.000424      0.001029     -0.000511
     13.44647      8.49468      8.49275         0.000398      0.000107      0.000069
      0.00000      2.81189      0.02065         0.001634     -0.000313      0.001544
      7.68782      2.81189      0.02065         0.000756     -0.001786      0.000088
      0.00000      8.43568      0.06194         0.000670     -0.000465     -0.000071
      7.68782      8.43568      0.06194         0.000823      0.002269     -0.000419
      0.00000      2.85426      5.64429         0.001240     -0.000038     -0.002031
      7.68782      2.85426      5.64429         0.000359     -0.000337      0.000763
      0.00000      8.47804      5.68558        -0.000030      0.000262      0.000002
      7.68782      8.47804      5.68558         0.000260      0.000207      0.000034
      0.00000      0.02118      2.81182         0.001208      0.002363     -0.000555
      7.68782      0.02118      2.81182         0.000582     -0.000407     -0.000155
      0.00000      5.64497      2.85311         0.000570     -0.001496     -0.000187
      7.68782      5.64497      2.85311         0.001436     -0.000059      0.001266
      0.00000      0.06355      8.43546         0.000303      0.000259     -0.000003
      7.68782      0.06355      8.43546         0.000005      0.000213      0.000035
      0.00000      5.68733      8.47675         0.000158     -0.000302      0.000641
      7.68782      5.68733      8.47675         0.001517      0.000147     -0.002065
      3.84391      2.81189      0.02065        -0.007246     -0.017420     -0.012725
     11.53173      2.81189      0.02065         0.000705     -0.000219      0.000089
      3.84391      8.43568      0.06194        -0.001584      0.001501     -0.000184
     11.53173      8.43568      0.06194         0.000603      0.000202      0.000069
      3.84391      2.85426      5.64429        -0.001670     -0.000615     -0.000687
     11.53173      2.85426      5.64429         0.000602     -0.000133     -0.000136
      3.84391      8.47804      5.68558        -0.000715      0.001195      0.001022
     11.53173      8.47804      5.68558         0.000504      0.000057      0.000072
      3.84391      0.02118      2.81182        -0.001698      0.001447     -0.000119
     11.53173      0.02118      2.81182         0.000590      0.000241      0.000020
      3.84391      5.64497      2.85311        -0.007230     -0.017243     -0.012154
     11.53173      5.64497      2.85311         0.000713     -0.000167      0.000038
      3.84391      0.06355      8.43546        -0.000752      0.001113      0.001097
     11.53173      0.06355      8.43546         0.000500      0.000094      0.000033
      3.84391      5.68733      8.47675        -0.001607     -0.000677     -0.000621
     11.53173      5.68733      8.47675         0.000596     -0.000086     -0.000176
 -----------------------------------------------------------------------------------
    total drift:                               -0.000025      0.000025     -0.000018


--------------------------------------------------------------------------------------------------------



  FREE ENERGIE OF THE ION-ELECTRON SYSTEM (eV)
  ---------------------------------------------------
  free  energy   TOTEN  =      -822.06170875 eV

  energy  without entropy=     -822.06170875  energy(sigma->0) =     -822.06170875
 


--------------------------------------------------------------------------------------------------------


    POTLOK:  cpu time    2.3546: real time    2.3913


--------------------------------------------------------------------------------------------------------


     LOOP+:  cpu time 9997.1079: real time10206.8143
    4ORBIT:  cpu time    0.0000: real time    0.0000

 total amount of memory used by VASP MPI-rank0   985864. kBytes
=======================================================================

   base      :      30000. kBytes
   nonl-proj :     102069. kBytes
   fftplans  :      64934. kBytes
   grid      :      55554. kBytes
   one-center:        839. kBytes
   wavefun   :     732468. kBytes
 
  
  
 General timing and accounting informations for this job:
 ========================================================
  
                  Total CPU time used (sec):    10144.102
                            User time (sec):    10079.730
                          System time (sec):       64.371
                         Elapsed time (sec):    10356.875
  
                   Maximum memory used (kb):     1176620.
                   Average memory used (kb):           0.
  
                          Minor page faults:       845499
                          Major page faults:           40
                 Voluntary context switches:        62966
