   24   24   60    2
  0.1288815E+02  0.7552664E-09  0.4085978E-09  0.1040109E-08  0.5000000E-15
   1.0000000000000000E-004
  CAR 
 unknown system                          
    168     16    120

  0.1262379E-14  0.1262379E-14  0.1262379E-14  0.3333333E-01
    1      -56.376532    -49.733450   1.000000   1.000000
    2      -56.376315    -49.732860   1.000000   1.000000
    3      -56.336264    -49.687001   1.000000   1.000000
    4      -56.336223    -49.686741   1.000000   1.000000
    5      -56.192401    -49.685554   1.000000   1.000000
    6      -56.192353    -49.685021   1.000000   1.000000
    7      -54.919009    -49.622153   1.000000   1.000000
    8      -54.918636    -49.621722   1.000000   1.000000
    9      -54.819688    -49.616911   1.000000   1.000000
   10      -54.819629    -49.616886   1.000000   1.000000
   11      -54.785196    -49.608918   1.000000   1.000000
   12      -54.784747    -49.608480   1.000000   1.000000
   13      -54.783824    -49.514844   1.000000   1.000000
   14      -54.783614    -49.514528   1.000000   1.000000
   15      -54.469717    -49.337351   1.000000   1.000000
   16      -54.469674    -49.337069   1.000000   1.000000
   17      -54.302679    -49.143956   1.000000   1.000000
   18      -54.302651    -49.143922   1.000000   1.000000
   19      -43.880165    -43.872457   1.000000   1.000000
   20      -43.876581    -43.868975   1.000000   1.000000
   21      -43.612885    -43.614181   1.000000   1.000000
   22      -43.608279    -43.609575   1.000000   1.000000
   23      -43.325303    -43.330164   1.000000   1.000000
   24      -43.323314    -43.328178   1.000000   1.000000
   25      -43.271226    -43.272173   1.000000   1.000000
   26      -43.270730    -43.271683   1.000000   1.000000
   27      -16.330769    -15.837394   1.000000   1.000000
   28      -16.324342    -15.830056   1.000000   1.000000
   29      -15.158905    -14.922237   1.000000   1.000000
   30      -15.154475    -14.917597   1.000000   1.000000
   31       -9.691596     -9.374441   1.000000   1.000000
   32       -9.190968     -8.941180   1.000000   1.000000
   33       -9.097262     -8.763713   1.000000   1.000000
   34       -9.011870     -8.751720   1.000000   1.000000
   35       -8.975414     -8.645022   1.000000   1.000000
   36       -8.804550     -8.488712   1.000000   1.000000
   37       -2.347547     -1.321988   1.000000   1.000000
   38       -2.094972     -1.001653   1.000000   1.000000
   39       -1.919306     -0.791601   1.000000   1.000000
   40       -1.878116     -0.714573   1.000000   1.000000
   41       -1.801946     -0.556094   1.000000   1.000000
   42       -1.748646     -0.491097   1.000000   1.000000
   43       -1.704750     -0.259146   1.000000   1.000000
   44       -1.558172     -0.145739   1.000000   1.000000
   45       -1.307981     -0.115821   1.000000   1.000000
   46       -1.163597      0.100284   1.000000   1.000000
   47       -1.107408      0.237446   1.000000   1.000000
   48       -1.082240      0.338114   1.000000   1.000000
   49       -1.051869      0.404468   1.000000   1.000000
   50       -1.042311      0.408751   1.000000   1.000000
   51       -0.909825      0.421950   1.000000   1.000000
   52       -0.906547      1.177401   1.000000   1.000000
   53       -0.804965      1.691531   1.000000   1.000000
   54       -0.651992      1.794765   1.000000   1.000000
   55       -0.608359      1.918842   1.000000   1.000000
   56       -0.576334      2.029441   1.000000   1.000000
   57       -0.557744      2.085646   1.000000   1.000000
   58       -0.546853      2.184153   1.000000   1.000000
   59       -0.502717      2.248245   1.000000   1.000000
   60       -0.499787      2.292326   1.000000   1.000000
   61       -0.358967      2.375722   1.000000   1.000000
   62       -0.249882      2.390758   1.000000   1.000000
   63       -0.238816      2.681220   1.000000   1.000000
   64       -0.059109      3.168862   1.000000   1.000000
   65        0.061110      3.180550   1.000000   1.000000
   66        0.094642      3.231255   1.000000   1.000000
   67        0.097422      3.317658   1.000000   1.000000
   68        0.191404      3.468231   1.000000   1.000000
   69        0.239519      3.669133   1.000000   1.000000
   70        0.482245      3.733949   1.000000   1.000000
   71        0.596388      3.799388   1.000000   1.000000
   72        0.613568      3.990458   1.000000   1.000000
   73        0.701413      6.521636   1.000000   0.000000
   74        0.754049      6.982256   1.000000   0.000000
   75        0.925988      7.135626   1.000000   0.000000
   76        0.938526      7.214651   1.000000   0.000000
   77        1.000306      7.279800   1.000000   0.000000
   78        1.095509      7.513643   1.000000   0.000000
   79        1.258774      7.525948   1.000000   0.000000
   80        1.521051      7.534705   1.000000   0.000000
   81        1.725028      7.580769   1.000000   0.000000
   82        1.906405      7.990110   1.000000   0.000000
   83        2.095708      8.003628   1.000000   0.000000
   84        2.217375      8.048357   1.000000   0.000000
   85        2.542181      8.050056   1.000000   0.000000
   86        2.731085      8.220603   1.000000   0.000000
   87        2.822088      8.338193   1.000000   0.000000
   88        3.066038      8.410193   1.000000   0.000000
   89        3.073724      8.458453   1.000000   0.000000
   90        3.093485      8.585926   1.000000   0.000000
   91        3.156793      8.817438   1.000000   0.000000
   92        3.264972      8.956667   1.000000   0.000000
   93        3.413517      8.979513   1.000000   0.000000
   94        3.530622      9.101144   1.000000   0.000000
   95        3.728250      9.176421   1.000000   0.000000
   96        4.193475      9.401164   1.000000   0.000000
   97        8.041005      9.531638   0.000000   0.000000
   98        8.330408      9.674042   0.000000   0.000000
   99        9.083158      9.817088   0.000000   0.000000
  100        9.156798     10.147221   0.000000   0.000000
  101        9.351516     10.416049   0.000000   0.000000
  102        9.922616     10.491491   0.000000   0.000000
  103       10.118523     10.552066   0.000000   0.000000
  104       10.343691     11.221797   0.000000   0.000000
  105       10.609085     11.307518   0.000000   0.000000
  106       11.111149     11.648311   0.000000   0.000000
  107       11.255119     11.867279   0.000000   0.000000
  108       11.337211     11.975421   0.000000   0.000000
  109       11.362185     12.162981   0.000000   0.000000
  110       11.507990     12.298433   0.000000   0.000000
  111       11.683694     12.361801   0.000000   0.000000
  112       11.974694     12.762837   0.000000   0.000000
  113       12.538865     13.328382   0.000000   0.000000
  114       12.695270     13.476448   0.000000   0.000000
  115       12.808204     13.576621   0.000000   0.000000
  116       12.852059     13.677579   0.000000   0.000000
  117       13.148456     13.683258   0.000000   0.000000
  118       13.587699     14.265447   0.000000   0.000000
  119       14.296276     14.713276   0.000000   0.000000
  120       14.739510     14.986072   0.000000   0.000000

  0.3333333E+00  0.1259989E-14  0.1262395E-14  0.6666667E-01
    1      -56.376538    -49.733462   1.000000   1.000000
    2      -56.376324    -49.732860   1.000000   1.000000
    3      -56.336252    -49.686997   1.000000   1.000000
    4      -56.336234    -49.686751   1.000000   1.000000
    5      -56.192399    -49.685544   1.000000   1.000000
    6      -56.192371    -49.685022   1.000000   1.000000
    7      -54.919012    -49.622061   1.000000   1.000000
    8      -54.918640    -49.621774   1.000000   1.000000
    9      -54.819678    -49.616909   1.000000   1.000000
   10      -54.819646    -49.616890   1.000000   1.000000
   11      -54.785192    -49.608869   1.000000   1.000000
   12      -54.784767    -49.608534   1.000000   1.000000
   13      -54.783814    -49.514795   1.000000   1.000000
   14      -54.783632    -49.514605   1.000000   1.000000
   15      -54.469714    -49.337301   1.000000   1.000000
   16      -54.469692    -49.337140   1.000000   1.000000
   17      -54.302671    -49.143952   1.000000   1.000000
   18      -54.302659    -49.143934   1.000000   1.000000
   19      -43.880173    -43.872465   1.000000   1.000000
   20      -43.876602    -43.868996   1.000000   1.000000
   21      -43.612503    -43.613798   1.000000   1.000000
   22      -43.608700    -43.609996   1.000000   1.000000
   23      -43.325322    -43.330183   1.000000   1.000000
   24      -43.323328    -43.328192   1.000000   1.000000
   25      -43.271257    -43.272203   1.000000   1.000000
   26      -43.270747    -43.271699   1.000000   1.000000
   27      -16.329094    -15.835413   1.000000   1.000000
   28      -16.325390    -15.831252   1.000000   1.000000
   29      -15.158054    -14.921394   1.000000   1.000000
   30      -15.155844    -14.919076   1.000000   1.000000
   31       -9.590518     -9.275891   1.000000   1.000000
   32       -9.265661     -8.976045   1.000000   1.000000
   33       -9.100466     -8.838797   1.000000   1.000000
   34       -9.019648     -8.707116   1.000000   1.000000
   35       -8.982556     -8.671615   1.000000   1.000000
   36       -8.853001     -8.535996   1.000000   1.000000
   37       -2.322021     -1.112257   1.000000   1.000000
   38       -2.123830     -0.864056   1.000000   1.000000
   39       -1.869072     -0.689702   1.000000   1.000000
   40       -1.803578     -0.648428   1.000000   1.000000
   41       -1.789593     -0.561883   1.000000   1.000000
   42       -1.707159     -0.511377   1.000000   1.000000
   43       -1.562506     -0.371981   1.000000   1.000000
   44       -1.480008     -0.218759   1.000000   1.000000
   45       -1.334031      0.145600   1.000000   1.000000
   46       -1.218303      0.183146   1.000000   1.000000
   47       -1.192460      0.305783   1.000000   1.000000
   48       -1.131661      0.329736   1.000000   1.000000
   49       -1.107779      0.335595   1.000000   1.000000
   50       -0.909027      0.549769   1.000000   1.000000
   51       -0.844052      0.694021   1.000000   1.000000
   52       -0.809387      0.837670   1.000000   1.000000
   53       -0.716342      1.315233   1.000000   1.000000
   54       -0.707257      1.620586   1.000000   1.000000
   55       -0.677771      1.921466   1.000000   1.000000
   56       -0.621389      1.937331   1.000000   1.000000
   57       -0.617334      2.063866   1.000000   1.000000
   58       -0.506019      2.094426   1.000000   1.000000
   59       -0.489070      2.271894   1.000000   1.000000
   60       -0.475013      2.283169   1.000000   1.000000
   61       -0.323963      2.416681   1.000000   1.000000
   62       -0.218193      2.441839   1.000000   1.000000
   63       -0.096414      2.567724   1.000000   1.000000
   64       -0.068893      2.661482   1.000000   1.000000
   65       -0.032026      2.869094   1.000000   1.000000
   66        0.141530      2.963623   1.000000   1.000000
   67        0.194600      3.449407   1.000000   1.000000
   68        0.213451      3.539530   1.000000   1.000000
   69        0.234417      3.752696   1.000000   1.000000
   70        0.372356      3.842158   1.000000   1.000000
   71        0.486242      3.869001   1.000000   1.000000
   72        0.623782      3.981103   1.000000   1.000000
   73        0.655072      6.696296   1.000000   0.000000
   74        0.724718      7.146622   1.000000   0.000000
   75        0.872298      7.196782   1.000000   0.000000
   76        0.919123      7.239669   1.000000   0.000000
   77        1.005597      7.421429   1.000000   0.000000
   78        1.059573      7.449939   1.000000   0.000000
   79        1.358468      7.554128   1.000000   0.000000
   80        1.513234      7.602616   1.000000   0.000000
   81        1.783623      7.723569   1.000000   0.000000
   82        1.966225      7.734714   1.000000   0.000000
   83        2.118728      7.807212   1.000000   0.000000
   84        2.328458      8.000280   1.000000   0.000000
   85        2.414304      8.097796   1.000000   0.000000
   86        2.616396      8.216196   1.000000   0.000000
   87        2.678851      8.384332   1.000000   0.000000
   88        2.744328      8.406852   1.000000   0.000000
   89        2.810001      8.569516   1.000000   0.000000
   90        2.921470      8.648460   1.000000   0.000000
   91        2.984721      8.811755   1.000000   0.000000
   92        3.220323      9.037589   1.000000   0.000000
   93        3.540933      9.040251   1.000000   0.000000
   94        3.657301      9.126751   1.000000   0.000000
   95        3.692124      9.219073   1.000000   0.000000
   96        3.857990      9.541874   1.000000   0.000000
   97        8.666825      9.640164   0.000000   0.000000
   98        9.017652      9.711898   0.000000   0.000000
   99        9.219017      9.965076   0.000000   0.000000
  100        9.425722     10.218831   0.000000   0.000000
  101        9.748947     10.269518   0.000000   0.000000
  102       10.091315     10.580572   0.000000   0.000000
  103       10.195065     10.820628   0.000000   0.000000
  104       10.445152     11.338281   0.000000   0.000000
  105       10.616773     11.613862   0.000000   0.000000
  106       10.821408     11.908113   0.000000   0.000000
  107       11.357391     12.133841   0.000000   0.000000
  108       11.652682     12.359799   0.000000   0.000000
  109       11.911985     12.488918   0.000000   0.000000
  110       11.970215     12.601684   0.000000   0.000000
  111       11.996209     12.689524   0.000000   0.000000
  112       12.137270     12.784120   0.000000   0.000000
  113       12.201727     13.111881   0.000000   0.000000
  114       12.600659     13.346693   0.000000   0.000000
  115       12.838828     13.576682   0.000000   0.000000
  116       13.040330     13.695957   0.000000   0.000000
  117       13.604661     14.288761   0.000000   0.000000
  118       13.793442     14.333181   0.000000   0.000000
  119       13.833350     14.504406   0.000000   0.000000
  120       14.053049     14.741129   0.000000   0.000000

  0.1262698E-14  0.2000000E+00  0.1262643E-14  0.6666667E-01
    1      -56.377631    -49.733677   1.000000   1.000000
    2      -56.377456    -49.733185   1.000000   1.000000
    3      -56.335402    -49.687054   1.000000   1.000000
    4      -56.335372    -49.686832   1.000000   1.000000
    5      -56.192440    -49.685531   1.000000   1.000000
    6      -56.192394    -49.685043   1.000000   1.000000
    7      -54.919380    -49.621971   1.000000   1.000000
    8      -54.919076    -49.621545   1.000000   1.000000
    9      -54.819676    -49.616700   1.000000   1.000000
   10      -54.819625    -49.616642   1.000000   1.000000
   11      -54.785066    -49.608360   1.000000   1.000000
   12      -54.784667    -49.607909   1.000000   1.000000
   13      -54.783667    -49.514673   1.000000   1.000000
   14      -54.783531    -49.514340   1.000000   1.000000
   15      -54.469745    -49.337274   1.000000   1.000000
   16      -54.469706    -49.337003   1.000000   1.000000
   17      -54.303005    -49.143773   1.000000   1.000000
   18      -54.302979    -49.143750   1.000000   1.000000
   19      -43.879707    -43.872001   1.000000   1.000000
   20      -43.876837    -43.869213   1.000000   1.000000
   21      -43.612822    -43.614112   1.000000   1.000000
   22      -43.608105    -43.609394   1.000000   1.000000
   23      -43.325217    -43.330073   1.000000   1.000000
   24      -43.323162    -43.328019   1.000000   1.000000
   25      -43.271113    -43.272052   1.000000   1.000000
   26      -43.270618    -43.271563   1.000000   1.000000
   27      -16.252845    -15.763965   1.000000   1.000000
   28      -16.247757    -15.758125   1.000000   1.000000
   29      -15.075940    -14.847428   1.000000   1.000000
   30      -15.072984    -14.844437   1.000000   1.000000
   31       -9.610874     -9.299884   1.000000   1.000000
   32       -9.177534     -8.906516   1.000000   1.000000
   33       -9.047918     -8.733496   1.000000   1.000000
   34       -8.960632     -8.691613   1.000000   1.000000
   35       -8.919911     -8.588268   1.000000   1.000000
   36       -8.746481     -8.426478   1.000000   1.000000
   37       -2.643625     -1.455879   1.000000   1.000000
   38       -2.613951     -1.260830   1.000000   1.000000
   39       -2.322015     -1.203318   1.000000   1.000000
   40       -2.217688     -1.038521   1.000000   1.000000
   41       -1.941776     -0.890000   1.000000   1.000000
   42       -1.922895     -0.649623   1.000000   1.000000
   43       -1.844053     -0.553867   1.000000   1.000000
   44       -1.602013     -0.401036   1.000000   1.000000
   45       -1.573797     -0.052618   1.000000   1.000000
   46       -1.387610      0.032364   1.000000   1.000000
   47       -1.313157      0.177721   1.000000   1.000000
   48       -1.295475      0.193564   1.000000   1.000000
   49       -1.214072      0.278333   1.000000   1.000000
   50       -1.171881      0.438348   1.000000   1.000000
   51       -1.136141      0.567862   1.000000   1.000000
   52       -1.034958      0.772867   1.000000   1.000000
   53       -1.028767      1.073868   1.000000   1.000000
   54       -0.959863      1.368012   1.000000   1.000000
   55       -0.891893      1.498369   1.000000   1.000000
   56       -0.814868      1.784736   1.000000   1.000000
   57       -0.762141      1.868312   1.000000   1.000000
   58       -0.713911      2.078292   1.000000   1.000000
   59       -0.581203      2.153499   1.000000   1.000000
   60       -0.555884      2.261310   1.000000   1.000000
   61       -0.454858      2.326895   1.000000   1.000000
   62       -0.405131      2.448339   1.000000   1.000000
   63       -0.252921      2.586370   1.000000   1.000000
   64       -0.200361      2.637385   1.000000   1.000000
   65       -0.096673      2.953572   1.000000   1.000000
   66       -0.034484      3.044370   1.000000   1.000000
   67        0.092723      3.371116   1.000000   1.000000
   68        0.153721      3.447648   1.000000   1.000000
   69        0.544840      3.665479   1.000000   1.000000
   70        0.586375      3.812791   1.000000   1.000000
   71        0.639449      4.168941   1.000000   1.000000
   72        0.889576      4.187483   1.000000   1.000000
   73        0.944609      6.886806   1.000000   0.000000
   74        0.989329      7.070119   1.000000   0.000000
   75        1.074902      7.217454   1.000000   0.000000
   76        1.104018      7.423269   1.000000   0.000000
   77        1.106995      7.494209   1.000000   0.000000
   78        1.538591      7.539333   1.000000   0.000000
   79        1.606538      7.632346   1.000000   0.000000
   80        1.792493      7.756266   1.000000   0.000000
   81        1.959251      7.838455   1.000000   0.000000
   82        2.114254      7.871423   1.000000   0.000000
   83        2.138262      7.904799   1.000000   0.000000
   84        2.333442      8.121505   1.000000   0.000000
   85        2.369589      8.278404   1.000000   0.000000
   86        2.714757      8.308424   1.000000   0.000000
   87        2.773097      8.348792   1.000000   0.000000
   88        2.838993      8.516845   1.000000   0.000000
   89        2.983499      8.616488   1.000000   0.000000
   90        3.040255      8.664033   1.000000   0.000000
   91        3.146554      8.902971   1.000000   0.000000
   92        3.335126      8.956236   1.000000   0.000000
   93        3.454196      9.048057   1.000000   0.000000
   94        3.666088      9.099313   1.000000   0.000000
   95        3.888199      9.694828   1.000000   0.000000
   96        4.258862      9.997102   1.000000   0.000000
   97        8.831465     10.262996   0.000000   0.000000
   98        9.006136     10.517121   0.000000   0.000000
   99        9.621149     10.720173   0.000000   0.000000
  100        9.827774     10.775615   0.000000   0.000000
  101        9.921085     10.860964   0.000000   0.000000
  102       10.238302     10.998248   0.000000   0.000000
  103       10.341477     11.053590   0.000000   0.000000
  104       10.609094     11.185834   0.000000   0.000000
  105       10.731748     11.339619   0.000000   0.000000
  106       11.169162     11.709670   0.000000   0.000000
  107       11.522585     11.824832   0.000000   0.000000
  108       11.596306     12.231361   0.000000   0.000000
  109       11.738083     12.452420   0.000000   0.000000
  110       11.808194     12.685342   0.000000   0.000000
  111       12.100268     12.772800   0.000000   0.000000
  112       12.340439     13.094220   0.000000   0.000000
  113       12.479040     13.204417   0.000000   0.000000
  114       12.562153     13.249189   0.000000   0.000000
  115       12.603321     13.467115   0.000000   0.000000
  116       12.995432     13.527891   0.000000   0.000000
  117       13.335989     13.916730   0.000000   0.000000
  118       13.519695     13.977720   0.000000   0.000000
  119       13.602721     14.103565   0.000000   0.000000
  120       14.032683     14.308638   0.000000   0.000000

  0.3333333E+00  0.2000000E+00  0.1262830E-14  0.6666667E-01
    1      -56.377624    -49.733679   1.000000   1.000000
    2      -56.377461    -49.733185   1.000000   1.000000
    3      -56.335396    -49.687046   1.000000   1.000000
    4      -56.335377    -49.686831   1.000000   1.000000
    5      -56.192431    -49.685536   1.000000   1.000000
    6      -56.192405    -49.685044   1.000000   1.000000
    7      -54.919379    -49.621874   1.000000   1.000000
    8      -54.919078    -49.621596   1.000000   1.000000
    9      -54.819666    -49.616685   1.000000   1.000000
   10      -54.819638    -49.616660   1.000000   1.000000
   11      -54.785063    -49.608301   1.000000   1.000000
   12      -54.784683    -49.607969   1.000000   1.000000
   13      -54.783654    -49.514621   1.000000   1.000000
   14      -54.783547    -49.514415   1.000000   1.000000
   15      -54.469742    -49.337226   1.000000   1.000000
   16      -54.469717    -49.337070   1.000000   1.000000
   17      -54.303000    -49.143770   1.000000   1.000000
   18      -54.302985    -49.143756   1.000000   1.000000
   19      -43.879714    -43.872007   1.000000   1.000000
   20      -43.876831    -43.869206   1.000000   1.000000
   21      -43.612413    -43.613703   1.000000   1.000000
   22      -43.608523    -43.609812   1.000000   1.000000
   23      -43.325226    -43.330082   1.000000   1.000000
   24      -43.323150    -43.328007   1.000000   1.000000
   25      -43.271118    -43.272057   1.000000   1.000000
   26      -43.270621    -43.271566   1.000000   1.000000
   27      -16.251095    -15.761882   1.000000   1.000000
   28      -16.248734    -15.759214   1.000000   1.000000
   29      -15.075613    -14.847185   1.000000   1.000000
   30      -15.074061    -14.845617   1.000000   1.000000
   31       -9.496216     -9.186259   1.000000   1.000000
   32       -9.222672     -8.935489   1.000000   1.000000
   33       -9.097420     -8.809267   1.000000   1.000000
   34       -8.950969     -8.637336   1.000000   1.000000
   35       -8.901295     -8.599142   1.000000   1.000000
   36       -8.837812     -8.524072   1.000000   1.000000
   37       -2.650277     -1.389147   1.000000   1.000000
   38       -2.604763     -1.235981   1.000000   1.000000
   39       -2.334153     -1.058694   1.000000   1.000000
   40       -2.214581     -0.889958   1.000000   1.000000
   41       -1.952934     -0.711859   1.000000   1.000000
   42       -1.918328     -0.601712   1.000000   1.000000
   43       -1.575922     -0.525476   1.000000   1.000000
   44       -1.509038     -0.462513   1.000000   1.000000
   45       -1.443422     -0.179356   1.000000   1.000000
   46       -1.397808     -0.028333   1.000000   1.000000
   47       -1.334435      0.112420   1.000000   1.000000
   48       -1.312840      0.300116   1.000000   1.000000
   49       -1.278426      0.358712   1.000000   1.000000
   50       -1.160456      0.575226   1.000000   1.000000
   51       -1.135274      0.731210   1.000000   1.000000
   52       -1.090367      0.927001   1.000000   1.000000
   53       -1.018147      1.092407   1.000000   1.000000
   54       -0.880135      1.325946   1.000000   1.000000
   55       -0.856650      1.356359   1.000000   1.000000
   56       -0.826696      1.551105   1.000000   1.000000
   57       -0.768107      1.755972   1.000000   1.000000
   58       -0.694911      1.815426   1.000000   1.000000
   59       -0.670519      1.931658   1.000000   1.000000
   60       -0.596302      2.052522   1.000000   1.000000
   61       -0.538272      2.284367   1.000000   1.000000
   62       -0.462589      2.391436   1.000000   1.000000
   63       -0.202652      2.505389   1.000000   1.000000
   64       -0.117718      2.549820   1.000000   1.000000
   65        0.004601      2.616328   1.000000   1.000000
   66        0.087015      2.868772   1.000000   1.000000
   67        0.236078      3.564682   1.000000   1.000000
   68        0.324496      3.640608   1.000000   1.000000
   69        0.431560      3.706736   1.000000   1.000000
   70        0.564922      3.817997   1.000000   1.000000
   71        0.641142      4.134825   1.000000   1.000000
   72        0.680837      4.198338   1.000000   1.000000
   73        0.722060      6.956516   1.000000   0.000000
   74        0.941193      7.154290   1.000000   0.000000
   75        1.006874      7.396759   1.000000   0.000000
   76        1.018987      7.498215   1.000000   0.000000
   77        1.249681      7.555850   1.000000   0.000000
   78        1.530649      7.656386   1.000000   0.000000
   79        1.671006      7.725016   1.000000   0.000000
   80        1.818183      7.738057   1.000000   0.000000
   81        1.930646      7.840824   1.000000   0.000000
   82        2.088726      7.876125   1.000000   0.000000
   83        2.136133      7.973722   1.000000   0.000000
   84        2.310698      8.063230   1.000000   0.000000
   85        2.382278      8.169178   1.000000   0.000000
   86        2.479546      8.358033   1.000000   0.000000
   87        2.574497      8.441896   1.000000   0.000000
   88        2.739888      8.461467   1.000000   0.000000
   89        2.910968      8.533705   1.000000   0.000000
   90        3.083589      8.611343   1.000000   0.000000
   91        3.109846      8.802035   1.000000   0.000000
   92        3.252991      8.947686   1.000000   0.000000
   93        3.541707      9.182888   1.000000   0.000000
   94        3.644641      9.300368   1.000000   0.000000
   95        3.797037      9.552014   1.000000   0.000000
   96        3.970067     10.014663   1.000000   0.000000
   97        9.409659     10.423705   0.000000   0.000000
   98        9.593611     10.770497   0.000000   0.000000
   99        9.990379     10.839793   0.000000   0.000000
  100       10.237708     11.088852   0.000000   0.000000
  101       10.342550     11.166578   0.000000   0.000000
  102       10.499978     11.196039   0.000000   0.000000
  103       10.769595     11.330906   0.000000   0.000000
  104       10.921346     11.395133   0.000000   0.000000
  105       10.957230     11.660302   0.000000   0.000000
  106       11.331500     11.876850   0.000000   0.000000
  107       11.531606     12.172778   0.000000   0.000000
  108       11.600392     12.228658   0.000000   0.000000
  109       11.700913     12.412562   0.000000   0.000000
  110       11.950451     12.515067   0.000000   0.000000
  111       11.996400     12.868455   0.000000   0.000000
  112       12.145638     13.014709   0.000000   0.000000
  113       12.349146     13.046195   0.000000   0.000000
  114       12.397939     13.159221   0.000000   0.000000
  115       12.556175     13.357794   0.000000   0.000000
  116       12.765954     13.406228   0.000000   0.000000
  117       12.943200     13.487457   0.000000   0.000000
  118       13.087886     13.766213   0.000000   0.000000
  119       13.213811     14.054115   0.000000   0.000000
  120       13.479130     14.315294   0.000000   0.000000

 -0.3333333E+00  0.2000000E+00  0.1261848E-14  0.6666667E-01
    1      -56.377624    -49.733675   1.000000   1.000000
    2      -56.377455    -49.733179   1.000000   1.000000
    3      -56.335390    -49.687045   1.000000   1.000000
    4      -56.335378    -49.686826   1.000000   1.000000
    5      -56.192426    -49.685528   1.000000   1.000000
    6      -56.192400    -49.685042   1.000000   1.000000
    7      -54.919374    -49.621886   1.000000   1.000000
    8      -54.919076    -49.621576   1.000000   1.000000
    9      -54.819663    -49.616686   1.000000   1.000000
   10      -54.819633    -49.616649   1.000000   1.000000
   11      -54.785057    -49.608303   1.000000   1.000000
   12      -54.784676    -49.607955   1.000000   1.000000
   13      -54.783657    -49.514612   1.000000   1.000000
   14      -54.783535    -49.514414   1.000000   1.000000
   15      -54.469735    -49.337218   1.000000   1.000000
   16      -54.469713    -49.337068   1.000000   1.000000
   17      -54.302997    -49.143766   1.000000   1.000000
   18      -54.302981    -49.143753   1.000000   1.000000
   19      -43.879710    -43.872003   1.000000   1.000000
   20      -43.876829    -43.869204   1.000000   1.000000
   21      -43.612411    -43.613701   1.000000   1.000000
   22      -43.608519    -43.609808   1.000000   1.000000
   23      -43.325222    -43.330078   1.000000   1.000000
   24      -43.323147    -43.328004   1.000000   1.000000
   25      -43.271113    -43.272052   1.000000   1.000000
   26      -43.270620    -43.271565   1.000000   1.000000
   27      -16.251638    -15.762484   1.000000   1.000000
   28      -16.248196    -15.758617   1.000000   1.000000