 vasp.6.2.0 18Jan21 (build Feb  9 2021 11:43:09) complex                         
 executed on       CrayXC_GCC_OMP date 2021.04.30  02:59:04
 running  576 mpi-ranks, with    1 threads/rank
 distrk:  each k-point on   32 cores,   18 groups
 distr:  one band on NCORE=   8 cores,    4 groups


--------------------------------------------------------------------------------------------------------


 INCAR:
   AEXX = 0.25
   ALGO = all
   EDIFF = 2.4e-05
   EDIFFG = -0.03
   ENCUT = 520
   GGA = pe
   HFSCREEN = 0.207
   IBRION = 2
   ISIF = 3
   ISMEAR = 0
   ISPIN = 2
   KPAR = 18
   LASPH = .TRUE.
   LHFCALC = .TRUE.
   LMAXFOCK = 4
   LORBIT = 11
   LREAL = .FALSE.
   LVHAR = .TRUE.
   LWAVE = .TRUE.
   MAGMOM = 0.6 0.6 0.6 0.6 0.6 0.6 0.6 0.6 5 5 5 5 5 5 0.6 0.6 0.6 0.6 0.6 0.6 0.6 0.6 0.6 0.6
   NCORE = 8
   NEDOS = 2000
   NELM = 200
   NELMIN = 4
   NSW = 60
   NWRITE = 1
   PREC = accurate
   PRECFOCK = fast
   SIGMA = 0.05
   TIME = 0.3

 POTCAR:    PAW_PBE Li_sv 10Sep2004               
 POTCAR:    PAW_PBE Fe_pv 02Aug2007               
 POTCAR:    PAW_PBE S 06Sep2000                   
 POTCAR:    PAW_PBE O 08Apr2002                   
 POTCAR:    PAW_PBE Li_sv 10Sep2004               
  local pseudopotential read in
  atomic valenz-charges read in
  non local Contribution for L=           0  read in
    real space projection operators read in
  non local Contribution for L=           0  read in
    real space projection operators read in
  non local Contribution for L=           1  read in
    real space projection operators read in
    PAW grid and wavefunctions read in

   number of l-projection  operators is LMAX  =           3
   number of lm-projection operators is LMMAX =           5

 POTCAR:    PAW_PBE Fe_pv 02Aug2007               
  local pseudopotential read in
  partial core-charges read in
  partial kinetic energy density read in
  atomic valenz-charges read in
  non local Contribution for L=           1  read in
    real space projection operators read in
  non local Contribution for L=           1  read in
    real space projection operators read in
  non local Contribution for L=           2  read in
    real space projection operators read in
  non local Contribution for L=           2  read in
    real space projection operators read in
  non local Contribution for L=           0  read in
    real space projection operators read in
  non local Contribution for L=           0  read in
    real space projection operators read in
    PAW grid and wavefunctions read in

   number of l-projection  operators is LMAX  =           6
   number of lm-projection operators is LMMAX =          18

 POTCAR:    PAW_PBE S 06Sep2000                   
  local pseudopotential read in
  partial core-charges read in
  partial kinetic energy density read in
  atomic valenz-charges read in
  non local Contribution for L=           0  read in
    real space projection operators read in
  non local Contribution for L=           0  read in
    real space projection operators read in
  non local Contribution for L=           1  read in
    real space projection operators read in
  non local Contribution for L=           1  read in
    real space projection operators read in
    PAW grid and wavefunctions read in

   number of l-projection  operators is LMAX  =           4
   number of lm-projection operators is LMMAX =           8

 POTCAR:    PAW_PBE O 08Apr2002                   
  local pseudopotential read in
  partial core-charges read in
  partial kinetic energy density read in
  kinetic energy density of atom read in
  atomic valenz-charges read in
  non local Contribution for L=           0  read in
    real space projection operators read in
  non local Contribution for L=           0  read in
    real space projection operators read in
  non local Contribution for L=           1  read in
    real space projection operators read in
  non local Contribution for L=           1  read in
    real space projection operators read in
    PAW grid and wavefunctions read in

   number of l-projection  operators is LMAX  =           4
   number of lm-projection operators is LMMAX =           8

 -----------------------------------------------------------------------------
|                                                                             |
|               ----> ADVICE to this user running VASP <----                  |
|                                                                             |
|     You have a (more or less) 'large supercell' and for larger cells it     |
|     might be more efficient to use real-space projection operators.         |
|     Therefore, try LREAL= Auto in the INCAR file.                           |
|     Mind: For very accurate calculation, you might also keep the            |
|     reciprocal projection scheme (i.e. LREAL=.FALSE.).                      |
|                                                                             |
 -----------------------------------------------------------------------------

  PAW_PBE Li_sv 10Sep2004               :
 energy of atom  1       EATOM= -202.7858
 kinetic energy error for atom=    0.0130 (will be added to EATOM!!)
  PAW_PBE Fe_pv 02Aug2007               :
 energy of atom  2       EATOM=-2457.4239
 kinetic energy error for atom=    0.0062 (will be added to EATOM!!)
  PAW_PBE S 06Sep2000                   :
 energy of atom  3       EATOM= -276.8230
 kinetic energy error for atom=    0.0016 (will be added to EATOM!!)
  PAW_PBE O 08Apr2002                   :
 energy of atom  4       EATOM= -432.3788
 kinetic energy error for atom=    0.0208 (will be added to EATOM!!)


 POSCAR: # Compound: Li8Fe6S6O4. Old comment: Fe6
  positions in direct lattice
  No initial velocities read in
 exchange correlation table for  LEXCH =        8
   RHO(1)=    0.500       N(1)  =     2000
   RHO(2)=  100.500       N(2)  =     4000



--------------------------------------------------------------------------------------------------------


 ion  position               nearest neighbor table
   1  0.954  0.003  0.006-  23 1.92  22 2.02  16 2.55  16 2.55
   2  0.546  0.997  0.994-  21 1.92  24 2.02  16 2.55  16 2.55
   3  0.360  0.805  0.611-  21 1.99  17 2.46  19 2.63  19 2.63
   4  0.140  0.195  0.389-  23 1.99  19 2.46  17 2.63  17 2.63
   5  0.217  0.921  0.842-  21 1.87  22 1.97  15 2.58  15 2.58
   6  0.686  0.888  0.776-  21 1.86  22 1.97  20 2.50  20 2.50
   7  0.283  0.079  0.158-  23 1.87  24 1.97  15 2.58  15 2.58
   8  0.814  0.112  0.224-  23 1.86  24 1.97  18 2.50  18 2.50
   9  0.931  0.802  0.603-  22 2.06  18 2.38  19 2.60  19 2.60
  10  0.569  0.198  0.397-  24 2.06  20 2.38  17 2.60  17 2.60
  11  0.447  0.400  0.801-  21 2.04  21 2.04  19 2.58  20 2.61  15 2.73  16 2.77
  12  0.955  0.407  0.815-  22 2.04  22 2.04  19 2.57  20 2.58  15 2.64  16 2.66
  13  0.053  0.600  0.199-  23 2.04  23 2.04  17 2.58  18 2.61  15 2.73  16 2.77
  14  0.545  0.593  0.185-  24 2.04  24 2.04  17 2.57  18 2.58  15 2.64  16 2.66
  15  0.250  0.500  0.000-   5 2.58   7 2.58   7 2.58   5 2.58  14 2.64  12 2.64  11 2.73  13 2.73

  16  0.750  0.500  0.000-   1 2.55   2 2.55   1 2.55   2 2.55  14 2.66  12 2.66  11 2.77  13 2.77

  17  0.352  0.684  0.369-   3 2.46  14 2.57  13 2.58  10 2.60  10 2.60   4 2.63   4 2.63
  18  0.832  0.684  0.368-   9 2.38   8 2.50   8 2.50  14 2.58  13 2.61
  19  0.148  0.316  0.631-   4 2.46  12 2.57  11 2.58   9 2.60   9 2.60   3 2.63   3 2.63
  20  0.668  0.316  0.632-  10 2.38   6 2.50   6 2.50  12 2.58  11 2.61
  21  0.451  0.903  0.806-   6 1.86   5 1.87   2 1.92   3 1.99  11 2.04  11 2.04
  22  0.952  0.904  0.807-   5 1.97   6 1.97   1 2.02  12 2.04  12 2.04   9 2.06
  23  0.049  0.097  0.194-   8 1.86   7 1.87   1 1.92   4 1.99  13 2.04  13 2.04
  24  0.548  0.096  0.193-   7 1.97   8 1.97   2 2.02  14 2.04  14 2.04  10 2.06

  LATTYP: Found a base centered monoclinic cell.
 ALAT       =    20.3969499036
 B/A-ratio  =     0.2003229663
 C/A-ratio  =     0.3702840108
 COS(beta)  =    -0.1846098530
  
  Lattice vectors:
  
 A1 = (  -0.1459047400,   3.8598194700,   9.6572874000)
 A2 = (  -0.0086435800,  -0.1557585400,  10.3999211000)
 A3 = (   7.4290102400,   0.0022238100,  -1.3610810900)


Analysis of symmetry for initial positions (statically):
=====================================================================
 Subroutine PRICEL returns:
 Original cell was already a primitive cell.
 

 Routine SETGRP: Setting up the symmetry group for a 
 base centered monoclinic supercell.


 Subroutine GETGRP returns: Found  4 space group operations
 (whereof  2 operations were pure point group operations)
 out of a pool of  4 trial point group operations.


The static configuration has the point symmetry C_1h.
 The point group associated with its full space group is C_2h.


Analysis of symmetry for dynamics (positions and initial velocities):
=====================================================================
 Subroutine PRICEL returns:
 Original cell was already a primitive cell.
 

 Routine SETGRP: Setting up the symmetry group for a 
 base centered monoclinic supercell.


 Subroutine GETGRP returns: Found  4 space group operations
 (whereof  2 operations were pure point group operations)
 out of a pool of  4 trial point group operations.


The dynamic configuration has the point symmetry C_1h.
 The point group associated with its full space group is C_2h.


Analysis of structural, dynamic, and magnetic symmetry:
=====================================================================
 Subroutine PRICEL returns:
 Original cell was already a primitive cell.
 

 Routine SETGRP: Setting up the symmetry group for a 
 base centered monoclinic supercell.


 Subroutine GETGRP returns: Found  4 space group operations
 (whereof  2 operations were pure point group operations)
 out of a pool of  4 trial point group operations.


The overall configuration has the point symmetry C_1h.
 The point group associated with its full space group is C_2h.


 Subroutine INISYM returns: Found  4 space group operations
 (whereof  2 operations are pure point group operations),
 and found     1 'primitive' translations


----------------------------------------------------------------------------------------

                                     Primitive cell                                     

  volume of cell :     309.3156

  direct lattice vectors                    reciprocal lattice vectors
     7.429010240  0.002223810 -1.361081090     0.134639268  0.004635797  0.000181331
    -0.137261160  4.015578010 -0.742633700     0.000610614  0.249742855  0.003740880
    -0.008643580 -0.155758540 10.399921100     0.017664406  0.018440251  0.096445435

  length of vectors
     7.552664419  4.085977508 10.401091016     0.134719174  0.249771617  0.099768712

  position of ions in fractional coordinates (direct lattice)
     0.953718230  0.002765520  0.005531040
     0.546281770  0.997234480  0.994468960
     0.360493760  0.805275890  0.610551770
     0.139506240  0.194724110  0.389448230
     0.217080810  0.921193170  0.842386360
     0.686474760  0.887873490  0.775746980
     0.282919190  0.078806830  0.157613640
     0.813525240  0.112126510  0.224253020
     0.931284060  0.801507150  0.603014310
     0.568715940  0.198492850  0.396985690
     0.446740440  0.400494900  0.800989790
     0.955374040  0.407264170  0.814528340
     0.053259560  0.599505100  0.199010210
     0.544625960  0.592735830  0.185471660
     0.250000000  0.500000000  1.000000000
     0.750000000  0.500000000  1.000000000
     0.352001450  0.684324700  0.368649410
     0.832094990  0.683866840  0.367733680
     0.147998550  0.315675300  0.631350590
     0.667905010  0.316133160  0.632266320
     0.450535970  0.903129360  0.806258710
     0.952173790  0.903684140  0.807368270
     0.049464030  0.096870640  0.193741290
     0.547826210  0.096315860  0.192631730

  ion indices of the primitive-cell ions
   primitive index   ion index
                 1           1
                 2           2
                 3           3
                 4           4
                 5           5
                 6           6
                 7           7
                 8           8
                 9           9
                10          10
                11          11
                12          12
                13          13
                14          14
                15          15
                16          16
                17          17
                18          18
                19          19
                20          20
                21          21
                22          22
                23          23
                24          24

----------------------------------------------------------------------------------------



 KPOINTS: # No comment                            

Automatic generation of k-mesh.
 Grid dimensions read from file:
 generate k-points for:    3    5    2

 Generating k-lattice:

  Cartesian coordinates                     Fractional coordinates (reciprocal lattice)
     0.044879756  0.001545266  0.000060444     0.333333333 -0.000000000 -0.000000000
     0.000122123  0.049948571  0.000748176    -0.000000000  0.200000000 -0.000000000
     0.008832203  0.009220126  0.048222717    -0.000000000  0.000000000  0.500000000

  Length of vectors
     0.044906391  0.049954323  0.049884356

  Shift w.r.t. Gamma in fractional coordinates (k-lattice)
     0.000000000  0.000000000  0.000000000

 -----------------------------------------------------------------------------
|                                                                             |
|           W    W    AA    RRRRR   N    N  II  N    N   GGGG   !!!           |
|           W    W   A  A   R    R  NN   N  II  NN   N  G    G  !!!           |
|           W    W  A    A  R    R  N N  N  II  N N  N  G       !!!           |
|           W WW W  AAAAAA  RRRRR   N  N N  II  N  N N  G  GGG   !            |
|           WW  WW  A    A  R   R   N   NN  II  N   NN  G    G                |
|           W    W  A    A  R    R  N    N  II  N    N   GGGG   !!!           |
|                                                                             |
|     Your reciprocal lattice and k-lattice belong to different lattice       |
|     classes:                                                                |
|                                                                             |
|        The reciprocal lattice is base-centered monoclinic,                  |
|        whereas your k-lattice is triclinic.                                 |
|                                                                             |
|     Results are often still useful ...                                      |
|                                                                             |
 -----------------------------------------------------------------------------

 WARNING: IBZKPT: internal override: KBLOWUP is changed to .FALSE.
      ... skipping the blow-up phase ...

 
 Subroutine IBZKPT returns following result:
 ===========================================
 
 Found     16 irreducible k-points:
 
 Following reciprocal coordinates:
            Coordinates               Weight
  0.000000  0.000000  0.000000      1.000000
  0.333333  0.000000  0.000000      2.000000
  0.000000  0.200000  0.000000      2.000000
  0.333333  0.200000  0.000000      2.000000
 -0.333333  0.200000  0.000000      2.000000
  0.000000  0.400000  0.000000      2.000000
  0.333333  0.400000  0.000000      2.000000
 -0.333333  0.400000  0.000000      2.000000
  0.000000  0.000000  0.500000      1.000000
  0.333333  0.000000  0.500000      2.000000
  0.000000  0.200000  0.500000      2.000000
  0.333333  0.200000  0.500000      2.000000
 -0.333333  0.200000  0.500000      2.000000
  0.000000  0.400000  0.500000      2.000000
  0.333333  0.400000  0.500000      2.000000
 -0.333333  0.400000  0.500000      2.000000
 
 Following cartesian coordinates:
            Coordinates               Weight
  0.000000  0.000000  0.000000      1.000000
  0.044880  0.001545  0.000060      2.000000
  0.000122  0.049949  0.000748      2.000000
  0.045002  0.051494  0.000809      2.000000
 -0.044758  0.048403  0.000688      2.000000
  0.000244  0.099897  0.001496      2.000000
  0.045124  0.101442  0.001557      2.000000
 -0.044636  0.098352  0.001436      2.000000
  0.008832  0.009220  0.048223      1.000000
  0.053712  0.010765  0.048283      2.000000
  0.008954  0.059169  0.048971      2.000000
  0.053834  0.060714  0.049031      2.000000
 -0.035925  0.057623  0.048910      2.000000
  0.009076  0.109117  0.049719      2.000000
  0.053956  0.110663  0.049780      2.000000
 -0.035803  0.107572  0.049659      2.000000
 
 WARNING: full set of k-points will be restricted to regular points only.

 
 Subroutine IBZKPT_HF returns following result:
 ==============================================
 
 Found     30 k-points in 1st BZ
 the following     30 k-points will be used (e.g. in the exchange kernel)
 Following reciprocal coordinates:   # in IRBZ
  0.000000  0.000000  0.000000    0.03333333   1 t-inv F
  0.333333  0.000000  0.000000    0.03333333   2 t-inv F
  0.000000  0.200000  0.000000    0.03333333   3 t-inv F
  0.333333  0.200000  0.000000    0.03333333   4 t-inv F
 -0.333333  0.200000  0.000000    0.03333333   5 t-inv F
  0.000000  0.400000  0.000000    0.03333333   6 t-inv F
  0.333333  0.400000  0.000000    0.03333333   7 t-inv F
 -0.333333  0.400000  0.000000    0.03333333   8 t-inv F
  0.000000  0.000000  0.500000    0.03333333   9 t-inv F
  0.333333  0.000000  0.500000    0.03333333  10 t-inv F
  0.000000  0.200000  0.500000    0.03333333  11 t-inv F
  0.333333  0.200000  0.500000    0.03333333  12 t-inv F
 -0.333333  0.200000  0.500000    0.03333333  13 t-inv F
  0.000000  0.400000  0.500000    0.03333333  14 t-inv F
  0.333333  0.400000  0.500000    0.03333333  15 t-inv F
 -0.333333  0.400000  0.500000    0.03333333  16 t-inv F
 -0.333333 -0.000000 -0.000000    0.03333333   2 t-inv F
 -0.000000 -0.200000 -0.000000    0.03333333   3 t-inv F
 -0.333333 -0.200000 -0.000000    0.03333333   4 t-inv F
  0.333333 -0.200000 -0.000000    0.03333333   5 t-inv F
 -0.000000 -0.400000 -0.000000    0.03333333   6 t-inv F
 -0.333333 -0.400000 -0.000000    0.03333333   7 t-inv F
  0.333333 -0.400000 -0.000000    0.03333333   8 t-inv F
 -0.333333 -0.000000 -0.500000    0.03333333  10 t-inv F
 -0.000000 -0.200000 -0.500000    0.03333333  11 t-inv F
 -0.333333 -0.200000 -0.500000    0.03333333  12 t-inv F
  0.333333 -0.200000 -0.500000    0.03333333  13 t-inv F
 -0.000000 -0.400000 -0.500000    0.03333333  14 t-inv F
 -0.333333 -0.400000 -0.500000    0.03333333  15 t-inv F
  0.333333 -0.400000 -0.500000    0.03333333  16 t-inv F


--------------------------------------------------------------------------------------------------------




 Dimension of arrays:
   k-points           NKPTS =     16   k-points in BZ     NKDIM =     30   number of bands    NBANDS=    120
   number of dos      NEDOS =   2000   number of ions     NIONS =     24
   non local maximal  LDIM  =      6   non local SUM 2l+1 LMDIM =     18
   total plane-waves  NPLWV = 134400
   max r-space proj   IRMAX =      1   max aug-charges    IRDMAX=  13887
   dimension x,y,z NGX =    56 NGY =   30 NGZ =   80
   dimension x,y,z NGXF=   112 NGYF=   60 NGZF=  160
   support grid    NGXF=   112 NGYF=   60 NGZF=  160
   ions per type =               8   6   6   4
   NGX,Y,Z   is equivalent  to a cutoff of  12.33, 12.21, 12.79 a.u.
   NGXF,Y,Z  is equivalent  to a cutoff of  24.65, 24.41, 25.57 a.u.

 SYSTEM =  unknown system                          
 POSCAR =  # Compound: Li8Fe6S6O4. Old comment: Fe6

 Startparameter for this run:
   NWRITE =      1    write-flag & timer
   PREC   = accura    normal or accurate (medium, high low for compatibility)
   ISTART =      1    job   : 0-new  1-cont  2-samecut
   ICHARG =      0    charge: 1-file 2-atom 10-const
   ISPIN  =      2    spin polarized calculation?
   LNONCOLLINEAR =      F non collinear calculations
   LSORBIT =      F    spin-orbit coupling
   INIWAV =      1    electr: 0-lowe 1-rand  2-diag
   LASPH  =      T    aspherical Exc in radial PAW
   METAGGA=      F    non-selfconsistent MetaGGA calc.

 Electronic Relaxation 1
   ENCUT  =  520.0 eV  38.22 Ry    6.18 a.u.  14.04  7.60 19.34*2*pi/ulx,y,z
   ENINI  =  520.0     initial cutoff
   ENAUG  =  628.9 eV  augmentation charge cutoff
   NELM   =    200;   NELMIN=  4; NELMDL=  0     # of ELM steps 
   EDIFF  = 0.2E-04   stopping-criterion for ELM
   LREAL  =      F    real-space projection
   NLSPLINE    = F    spline interpolate recip. space projectors
   LCOMPAT=      F    compatible to vasp.4.4
   GGA_COMPAT  = T    GGA compatible to vasp.4.4-vasp.4.6
   LMAXPAW     = -100 max onsite density
   LMAXMIX     =    2 max onsite mixed and CHGCAR
   VOSKOWN=      0    Vosko Wilk Nusair interpolation
   ROPT   =    0.00000   0.00000   0.00000   0.00000
 Ionic relaxation
   EDIFFG = -.3E-01   stopping-criterion for IOM
   NSW    =     60    number of steps for IOM
   NBLOCK =      1;   KBLOCK =     60    inner block; outer block 
   IBRION =      2    ionic relax: 0-MD 1-quasi-New 2-CG
   NFREE  =      1    steps in history (QN), initial steepest desc. (CG)
   ISIF   =      3    stress and relaxation
   IWAVPR =     11    prediction:  0-non 1-charg 2-wave 3-comb
   ISYM   =      3    0-nonsym 1-usesym 2-fastsym
   LCORR  =      T    Harris-Foulkes like correction to forces

   POTIM  = 0.5000    time-step for ionic-motion
   TEIN   =    0.0    initial temperature
   TEBEG  =    0.0;   TEEND  =   0.0 temperature during run
   SMASS  =  -3.00    Nose mass-parameter (am)
   estimated Nose-frequenzy (Omega)   =  0.10E-29 period in steps = 0.13E+47 mass=  -0.130E-26a.u.
   SCALEE = 1.0000    scale energy and forces
   NPACO  =    256;   APACO  = 16.0  distance and # of slots for P.C.
   PSTRESS=    0.0 pullay stress

  Mass of Ions in am
   POMASS =   7.01 55.85 32.07 16.00
  Ionic Valenz
   ZVAL   =   3.00 14.00  6.00  6.00
  Atomic Wigner-Seitz radii
   RWIGS  =  -1.00 -1.00 -1.00 -1.00
  virtual crystal weights 
   VCA    =   1.00  1.00  1.00  1.00
   NELECT =     168.0000    total number of electrons
   NUPDOWN=      -1.0000    fix difference up-down

 DOS related values:
   EMIN   =  10.00;   EMAX   =-10.00  energy-range for DOS
   EFERMI =   0.00
   ISMEAR =     0;   SIGMA  =   0.05  broadening in eV -4-tet -1-fermi 0-gaus

 Electronic relaxation 2 (details)
   IALGO  =     58    algorithm
   LDIAG  =      T    sub-space diagonalisation (order eigenvalues)
   LSUBROT=      F    optimize rotation matrix (better conditioning)
   TURBO    =      0    0=normal 1=particle mesh
   IRESTART =      0    0=no restart 2=restart with 2 vectors
   NREBOOT  =      0    no. of reboots
   NMIN     =      0    reboot dimension
   EREF     =   0.00    reference energy to select bands
   IMIX   =      4    mixing-type and parameters
     AMIX     =   0.40;   BMIX     =  1.00
     AMIX_MAG =   1.60;   BMIX_MAG =  1.00
     AMIN     =   0.10
     WC   =   100.;   INIMIX=   1;  MIXPRE=   1;  MAXMIX= -45

 Intra band minimization:
   WEIMIN = 0.0010     energy-eigenvalue tresh-hold
   EBREAK =  0.50E-07  absolut break condition
   DEPER  =   0.30     relativ break condition  

   TIME   =   0.30     timestep for ELM

  volume/ion in A,a.u.               =      12.89        86.97
  Fermi-wavevector in a.u.,A,eV,Ry     =   1.335705  2.524117 24.274273  1.784109
  Thomas-Fermi vector in A             =   2.464389

 Write flags
   LWAVE        =      T    write WAVECAR
   LDOWNSAMPLE  =      F    k-point downsampling of WAVECAR
   LCHARG       =      T    write CHGCAR
   LVTOT        =      F    write LOCPOT, total local potential
   LVHAR        =      T    write LOCPOT, Hartree potential only
   LELF         =      F    write electronic localiz. function (ELF)
   LORBIT       =     11    0 simple, 1 ext, 2 COOP (PROOUT), +10 PAW based schemes


 Dipole corrections
   LMONO  =      F    monopole corrections only (constant potential shift)
   LDIPOL =      F    correct potential (dipole corrections)
   IDIPOL =      0    1-x, 2-y, 3-z, 4-all directions 
   EPSILON=  1.0000000 bulk dielectric constant

 Exchange correlation treatment:
   GGA     =    PE    GGA type
   LEXCH   =     8    internal setting for exchange type
   VOSKOWN=      0    Vosko Wilk Nusair interpolation
   EXXOEP  =     0    0=HF, 1=EXX-LHF (local Hartree Fock) 2=EXX OEP
   LHFCALC =     T    Hartree Fock is set to
   LSYMGRAD=     F    symmetrize gradient (conserves proper symmetry)
   PRECFOCK=fast      Normal, Fast or Accurate (Low or Medium for compatibility)
   LRHFCALC=     F    long range Hartree Fock
   LRSCOR  =     F    long range correlation only (use DFT for short range part)
   LTHOMAS =     F    Thomas Fermi screening in HF
   LMODELHF=     F    short range full HF, long range fraction AEXX
   LFOCKACE=     T    use Adeptively-Compressed-Exchange operator
   ENCUT4O =  -1.0   cutoff for four orbital integrals eV
   LMAXFOCK=     4    L truncation for augmentation on plane wave grid
   LMAXFOCKAE=  -1    L truncation for all-electron charge restoration on plane wave grid
   NMAXFOCKAE=   1    number of basis functions for all-electron charge restoration
   LFOCKAEDFT=     F  apply the AE augmentation even for DFT
   NKREDX  =     1    reduce k-point grid by
   NKREDY  =     1    reduce k-point grid by
   NKREDZ  =     1    reduce k-point grid by
   SHIFTRED=     F    shift reduced grid of Gamma
   HFKIDENT=     F    idential grid for each k-point
   ODDONLY =     F    use only odd q-grid points
   EVENONLY=     F    use only even q-grid points
   HFALPHA =   -1.0000 decay constant for conv. correction
   MCALPHA =    0.0000 extent of test-charge in conv. correction in multipole expansion
   AEXX    =    0.2500 exact exchange contribution
   HFSCREEN=    0.2070 screening length (either q_TF or 0.3 A-1)
   HFSCREENC=   0.2070 screening length for correlation (either q_TF or 0.3 A-1)
   HFRCUT  =    0.0000 spherical cutoff for potential kernel
   ALDAX   =    0.7500 LDA exchange part
   AGGAX   =    0.7500 GGA exchange part
   ALDAC   =    1.0000 LDA correlation
   AGGAC   =    1.0000 GGA correlation
   ENCUTFOCK=  -1.0 apply spherical cutoff to Coloumb kernel
   NBANDSGWLOW=     1    first orbital included in HF term
   NBLOCK_FOCK=    64    blocking factor in FOCK_ACC
 Linear response parameters
   LEPSILON=     F    determine dielectric tensor
   LRPA    =     F    only Hartree local field effects (RPA)
   LNABLA  =     F    use nabla operator in PAW spheres
   LVEL    =     F    velocity operator in full k-point grid
   LINTERFAST=   F  fast interpolation
   KINTER  =     0    interpolate to denser k-point grid
   CSHIFT  =0.1000    complex shift for real part using Kramers Kronig
   OMEGAMAX=  -1.0    maximum frequency
   DEG_THRESHOLD= 0.2000000E-02 threshold for treating states as degnerate
   RTIME   =   -0.100 relaxation time in fs
  (WPLASMAI=    0.000 imaginary part of plasma frequency in eV, 0.658/RTIME)
   DFIELD  = 0.0000000 0.0000000 0.0000000 field for delta impulse in time

 Orbital magnetization related:
   ORBITALMAG=     F  switch on orbital magnetization
   LCHIMAG   =     F  perturbation theory with respect to B field
   DQ        =  0.001000  dq finite difference perturbation B field
   LLRAUG    =     F  two centre corrections for induced B field



--------------------------------------------------------------------------------------------------------


 conjugate gradient relaxation of ions
 charge density and potential will be updated during run
 spin polarized calculation
 Conjugate gradient for all bands (Freysoldt, et al. PRB 79, 241103 (2009))
 preconditioned conjugated gradient                                        
 perform sub-space diagonalisation
    before iterative eigenvector-optimisation
 modified Broyden-mixing scheme, WC =      100.0
 initial mixing is a Kerker type mixing with AMIX =  0.4000 and BMIX =      1.0000
 Hartree-type preconditioning will be used
 using additional bands           36
 reciprocal scheme for non local part
 use partial core corrections
 no Harris-corrections to forces 
 use gradient corrections 
 use of overlap-Matrix (Vanderbilt PP)
 Gauss-broadening in eV      SIGMA  =   0.05


--------------------------------------------------------------------------------------------------------


  energy-cutoff  :      520.00
  volume of cell :      309.32
      direct lattice vectors                 reciprocal lattice vectors
     7.429010240  0.002223810 -1.361081090     0.134639268  0.004635797  0.000181331
    -0.137261160  4.015578010 -0.742633700     0.000610614  0.249742855  0.003740880
    -0.008643580 -0.155758540 10.399921100     0.017664406  0.018440251  0.096445435

  length of vectors
     7.552664419  4.085977508 10.401091016     0.134719174  0.249771617  0.099768712



 old parameters found on file WAVECAR:
  energy-cutoff  :      520.00
  volume of cell :      318.42
      direct lattice vectors                 reciprocal lattice vectors
     7.615002200 -0.000382580 -1.409551320     0.131438893  0.004611696  0.000642539
    -0.135825820  3.973587060 -0.734867970     0.000486783  0.252152117  0.002561372
    -0.047829120 -0.107102600 10.552714270     0.017590506  0.018175318  0.095026544

  length of vectors


 k-points in units of 2pi/SCALE and weight: # No comment                            
   0.00000000  0.00000000  0.00000000       0.033
   0.04487976  0.00154527  0.00006044       0.067
   0.00012212  0.04994857  0.00074818       0.067
   0.04500188  0.05149384  0.00080862       0.067
  -0.04475763  0.04840331  0.00068773       0.067
   0.00024425  0.09989714  0.00149635       0.067
   0.04512400  0.10144241  0.00155680       0.067
  -0.04463551  0.09835188  0.00143591       0.067
   0.00883220  0.00922013  0.04822272       0.033
   0.05371196  0.01076539  0.04828316       0.067
   0.00895433  0.05916870  0.04897089       0.067
   0.05383408  0.06071396  0.04903134       0.067
  -0.03592543  0.05762343  0.04891045       0.067
   0.00907645  0.10911727  0.04971907       0.067
   0.05395620  0.11066253  0.04977951       0.067
  -0.03580331  0.10757200  0.04965863       0.067

 k-points in reciprocal lattice and weights: # No comment                            
   0.00000000  0.00000000  0.00000000       0.033
   0.33333333  0.00000000  0.00000000       0.067
   0.00000000  0.20000000  0.00000000       0.067
   0.33333333  0.20000000  0.00000000       0.067
  -0.33333333  0.20000000  0.00000000       0.067
   0.00000000  0.40000000  0.00000000       0.067
   0.33333333  0.40000000  0.00000000       0.067
  -0.33333333  0.40000000  0.00000000       0.067
   0.00000000  0.00000000  0.50000000       0.033
   0.33333333  0.00000000  0.50000000       0.067
   0.00000000  0.20000000  0.50000000       0.067
   0.33333333  0.20000000  0.50000000       0.067
  -0.33333333  0.20000000  0.50000000       0.067
   0.00000000  0.40000000  0.50000000       0.067
   0.33333333  0.40000000  0.50000000       0.067
  -0.33333333  0.40000000  0.50000000       0.067

 position of ions in fractional coordinates (direct lattice) 
   0.95371823  0.00276552  0.00553104
   0.54628177  0.99723448  0.99446896
   0.36049376  0.80527589  0.61055177
   0.13950624  0.19472411  0.38944823
   0.21708081  0.92119317  0.84238636
   0.68647476  0.88787349  0.77574698
   0.28291919  0.07880683  0.15761364
   0.81352524  0.11212651  0.22425302
   0.93128406  0.80150715  0.60301431
   0.56871594  0.19849285  0.39698569
   0.44674044  0.40049490  0.80098979
   0.95537404  0.40726417  0.81452834
   0.05325956  0.59950510  0.19901021
   0.54462596  0.59273583  0.18547166
   0.25000000  0.50000000  0.00000000
   0.75000000  0.50000000  0.00000000
   0.35200145  0.68432470  0.36864941
   0.83209499  0.68386684  0.36773368
   0.14799855  0.31567530  0.63135059
   0.66790501  0.31613316  0.63226632
   0.45053597  0.90312936  0.80625871
   0.95217379  0.90368414  0.80736827
   0.04946403  0.09687064  0.19374129
   0.54782621  0.09631586  0.19263173

 position of ions in cartesian coordinates  (Angst):
   7.08475509  0.01236454 -1.24261924
   3.91285553  3.85079064  8.85828500
   2.56230138  3.13935117  5.26100398
   1.00629900  0.72158020  3.71574287
   1.47897028  3.56839691  7.78117800
   4.97125225  3.44602263  6.47399480
   2.08963010  0.29253446  1.19556885
   6.02635837  0.41713255  1.14167097
   6.80329081  3.12666086  4.40852190
   4.19431981  0.73649433  3.20714386
   3.25694349  1.48445098  7.42475964
   7.03454153  1.51065587  6.86824083
   0.31165689  2.37648040  1.55198721
   3.96306909  2.35249931  0.74742493
   1.78862198  2.00834496 -0.71158712
   5.50312710  2.00945686 -1.39212767
   2.51790472  2.69132171  2.84661968
   6.08459531  2.69069340  2.18398994
   1.05069566  1.16960967  6.13012718
   4.91301531  1.17246178  5.43167582
   3.21610279  3.50200663  7.10111668
   6.94268955  3.50517711  6.42947427
   0.35249759  0.35892475  1.87563017
   4.05492107  0.35797807  1.18619149



--------------------------------------------------------------------------------------------------------


 k-point   1 :   0.0000 0.0000 0.0000  plane waves:    8309
 k-point   2 :   0.3333 0.0000 0.0000  plane waves:    8346
 k-point   3 :   0.0000 0.2000 0.0000  plane waves:    8334
 k-point   4 :   0.3333 0.2000 0.0000  plane waves:    8340
 k-point   5 :  -0.3333 0.2000 0.0000  plane waves:    8347
 k-point   6 :   0.0000 0.4000 0.0000  plane waves:    8310
 k-point   7 :   0.3333 0.4000 0.0000  plane waves:    8307
 k-point   8 :  -0.3333 0.4000 0.0000  plane waves:    8307
 k-point   9 :   0.0000 0.0000 0.5000  plane waves:    8358
 k-point  10 :   0.3333 0.0000 0.5000  plane waves:    8342
 k-point  11 :   0.0000 0.2000 0.5000  plane waves:    8333
 k-point  12 :   0.3333 0.2000 0.5000  plane waves:    8336
 k-point  13 :  -0.3333 0.2000 0.5000  plane waves:    8347
 k-point  14 :   0.0000 0.4000 0.5000  plane waves:    8308
 k-point  15 :   0.3333 0.4000 0.5000  plane waves:    8306
 k-point  16 :  -0.3333 0.4000 0.5000  plane waves:    8312

 maximum and minimum number of plane-waves per node :      1069      992

 maximum number of plane-waves:      8358
 maximum index in each direction: 
   IXMAX=   14   IYMAX=    7   IZMAX=   19
   IXMIN=  -14   IYMIN=   -7   IZMIN=  -19


 parallel 3D FFT for wavefunctions:
    minimum data exchange during FFTs selected (reduces bandwidth)
 parallel 3D FFT for charge:
    minimum data exchange during FFTs selected (reduces bandwidth)


 FFT grid for exact exchange (Hartree Fock) 
  NGX = 30; NGY = 16; NGZ = 42


 Radii for the augmentation spheres in the non-local exchange
 for species   1 augmentation radius   0.956 (default was   0.708)
       energy cutoff for augmentation   2080.0
 for species   2 augmentation radius   1.283 (default was   0.950)
       energy cutoff for augmentation   2080.0
 for species   3 augmentation radius   1.309 (default was   0.970)
       energy cutoff for augmentation   2080.0
 for species   4 augmentation radius   0.974 (default was   0.722)
       energy cutoff for augmentation   2080.0

 real space projection operators:
  total allocation   :       1133.91 KBytes
  max/ min on nodes  :        164.73         97.71

 Maximum index for augmentation-charges in exchange          104
  SETUP_FOCK is finished

 total amount of memory used by VASP MPI-rank0    99347. kBytes
=======================================================================

   base      :      30000. kBytes
   nonl-proj :      10368. kBytes
   fftplans  :       1922. kBytes
   grid      :       5075. kBytes
   one-center:         93. kBytes
   HF        :        194. kBytes
   nonlr-proj:        455. kBytes
   wavefun   :      51240. kBytes

     INWAV:  cpu time    6.5645: real time    6.6840
 Broyden mixing: mesh for mixing (old mesh)
   NGX = 29   NGY = 15   NGZ = 39
  (NGX  =112   NGY  = 60   NGZ  =160)
  gives a total of  16965 points

 charge density for first step will be calculated from the start-wavefunctions


--------------------------------------------------------------------------------------------------------


 Maximum index for augmentation-charges          898 (set IRDMAX)


--------------------------------------------------------------------------------------------------------


 initial charge from wavefunction
 First call to EWALD:  gamma=   0.262
 Maximum number of real-space cells 3x 4x 2
 Maximum number of reciprocal cells 3x 2x 4

    FEWALD:  cpu time    0.0017: real time    0.0017


--------------------------------------- Iteration      1(   1)  ---------------------------------------


    POTLOK:  cpu time    0.2962: real time    0.2963
    SETDIJ:  cpu time    2.0109: real time    2.0111
    TRIAL :  cpu time   55.7537: real time   55.7717
    CORREC:  cpu time   57.8329: real time   57.8546
    CHARGE:  cpu time    0.0473: real time    0.0473
    --------------------------------------------
      LOOP:  cpu time  115.9784: real time  116.0189

 eigenvalue-minimisations  :     0
 total energy-change (2. order) :-0.9542186E+02  (-0.3825474E+02)
 number of electron     168.0000055 magnetization      24.0000011
 augmentation part       56.9465985 magnetization      16.0990315

 Free energy of the ion-electron system (eV)
  ---------------------------------------------------
  alpha Z        PSCENC =       457.40635457
  Ewald energy   TEWEN  =    -11469.60978221
  -Hartree energ DENC   =     -6545.51366556
  -exchange      EXHF   =       480.07447384
  -V(xc)+E(xc)   XCENC  =       545.89545384
  PAW double counting   =     25867.08255424   -26453.77632168
  entropy T*S    EENTRO =        -0.00000000
  eigenvalues    EBANDS =     -2676.00005283
  atomic energy  EATOM  =     19699.01912348
  ---------------------------------------------------
  free energy    TOTEN  =       -95.42186231 eV

  energy without entropy =      -95.42186231  energy(sigma->0) =      -95.42186231
  exchange ACFDT corr.  =        -0.00000000  see jH, gK, PRB 81, 115126


--------------------------------------------------------------------------------------------------------




--------------------------------------- Iteration      1(   2)  ---------------------------------------


    POTLOK:  cpu time    0.2866: real time    0.2866
    SETDIJ:  cpu time    2.0091: real time    2.0098
    TRIAL :  cpu time   55.3622: real time   55.3832
    CORREC:  cpu time   57.8892: real time   57.9102
    CHARGE:  cpu time    0.0469: real time    0.0469
    --------------------------------------------
      LOOP:  cpu time  115.6072: real time  115.6656

 eigenvalue-minimisations  :     0
 total energy-change (2. order) :-0.3839980E+02  (-0.2559294E+02)
 number of electron     168.0000054 magnetization      24.0000010
 augmentation part       56.5330894 magnetization      15.9853800

 Free energy of the ion-electron system (eV)
  ---------------------------------------------------
  alpha Z        PSCENC =       457.40635457
  Ewald energy   TEWEN  =    -11469.60978221
  -Hartree energ DENC   =     -6601.59419480
  -exchange      EXHF   =       483.93595747
  -V(xc)+E(xc)   XCENC  =       547.36104962
  PAW double counting   =     22850.16015038   -23449.01944261
  entropy T*S    EENTRO =        -0.00000000
  eigenvalues    EBANDS =     -2651.48088088
  atomic energy  EATOM  =     19699.01912348
  ---------------------------------------------------
  free energy    TOTEN  =      -133.82166499 eV

  energy without entropy =     -133.82166499  energy(sigma->0) =     -133.82166499
  exchange ACFDT corr.  =        -0.00000000  see jH, gK, PRB 81, 115126


--------------------------------------------------------------------------------------------------------




--------------------------------------- Iteration      1(   3)  ---------------------------------------


    POTLOK:  cpu time    0.2872: real time    0.2873
    SETDIJ:  cpu time    2.0117: real time    2.0121
    TRIAL :  cpu time   55.6030: real time   55.6242
    CORREC:  cpu time   57.8801: real time   57.9021
    CHARGE:  cpu time    0.0468: real time    0.0472
    --------------------------------------------
      LOOP:  cpu time  115.8543: real time  115.8986

 eigenvalue-minimisations  :     0
 total energy-change (2. order) :-0.2547050E+02  (-0.9081524E+01)
 number of electron     168.0000054 magnetization      24.0000010
 augmentation part       56.5552409 magnetization      15.9835389

 Free energy of the ion-electron system (eV)
  ---------------------------------------------------
  alpha Z        PSCENC =       457.40635457
  Ewald energy   TEWEN  =    -11469.60978221
  -Hartree energ DENC   =     -6540.52559856
  -exchange      EXHF   =       484.54460501
  -V(xc)+E(xc)   XCENC  =       545.26204408
  PAW double counting   =     20871.32294927   -21454.47419545
  entropy T*S    EENTRO =        -0.00000000
  eigenvalues    EBANDS =     -2752.23766517
  atomic energy  EATOM  =     19699.01912348
  ---------------------------------------------------
  free energy    TOTEN  =      -159.29216499 eV

  energy without entropy =     -159.29216499  energy(sigma->0) =     -159.29216499
  exchange ACFDT corr.  =        -0.00000000  see jH, gK, PRB 81, 115126


--------------------------------------------------------------------------------------------------------




--------------------------------------- Iteration      1(   4)  ---------------------------------------


    POTLOK:  cpu time    0.2864: real time    0.2864
    SETDIJ:  cpu time    2.0133: real time    2.0137
    TRIAL :  cpu time   55.6070: real time   55.6282
    CORREC:  cpu time   57.8417: real time   57.8651
    CHARGE:  cpu time    0.0470: real time    0.0470
    --------------------------------------------
      LOOP:  cpu time  115.8199: real time  115.8652

 eigenvalue-minimisations  :     0
 total energy-change (2. order) :-0.9097481E+01  (-0.4979168E+01)
 number of electron     168.0000054 magnetization      24.0000010
 augmentation part       56.6703556 magnetization      16.0019528

 Free energy of the ion-electron system (eV)
  ---------------------------------------------------
  alpha Z        PSCENC =       457.40635457
  Ewald energy   TEWEN  =    -11469.60978221
  -Hartree energ DENC   =     -6558.15936493
  -exchange      EXHF   =       485.95289695
  -V(xc)+E(xc)   XCENC  =       545.95743801
  PAW double counting   =     20457.15912203   -21040.28174446
  entropy T*S    EENTRO =        -0.00000000
  eigenvalues    EBANDS =     -2745.83368983
  atomic energy  EATOM  =     19699.01912348
  ---------------------------------------------------
  free energy    TOTEN  =      -168.38964640 eV

  energy without entropy =     -168.38964640  energy(sigma->0) =     -168.38964640
  exchange ACFDT corr.  =        -0.00000000  see jH, gK, PRB 81, 115126


--------------------------------------------------------------------------------------------------------




--------------------------------------- Iteration      1(   5)  ---------------------------------------


    POTLOK:  cpu time    0.2864: real time    0.2868
    SETDIJ:  cpu time    2.0102: real time    2.0112
    TRIAL :  cpu time   55.4275: real time   55.4482
    CORREC:  cpu time   57.9633: real time   57.9862
    CHARGE:  cpu time    0.0473: real time    0.0473
    --------------------------------------------
      LOOP:  cpu time  115.7581: real time  115.8033

 eigenvalue-minimisations  :     0
 total energy-change (2. order) :-0.5017120E+01  (-0.2378689E+01)
 number of electron     168.0000054 magnetization      24.0000010
 augmentation part       56.5079808 magnetization      16.0024139

 Free energy of the ion-electron system (eV)
  ---------------------------------------------------
  alpha Z        PSCENC =       457.40635457
  Ewald energy   TEWEN  =    -11469.60978221
  -Hartree energ DENC   =     -6588.35407647
  -exchange      EXHF   =       487.14168190
  -V(xc)+E(xc)   XCENC  =       546.94898562
  PAW double counting   =     20318.04164098   -20905.07851044
  entropy T*S    EENTRO =        -0.00000000
  eigenvalues    EBANDS =     -2718.92218357
  atomic energy  EATOM  =     19699.01912348
  ---------------------------------------------------
  free energy    TOTEN  =      -173.40676614 eV

  energy without entropy =     -173.40676614  energy(sigma->0) =     -173.40676614
  exchange ACFDT corr.  =        -0.00000000  see jH, gK, PRB 81, 115126


--------------------------------------------------------------------------------------------------------




--------------------------------------- Iteration      1(   6)  ---------------------------------------


    POTLOK:  cpu time    0.2864: real time    0.2869
    SETDIJ:  cpu time    2.0106: real time    2.0111
    TRIAL :  cpu time   55.4550: real time   55.4760
    CORREC:  cpu time   57.9746: real time   57.9971
    CHARGE:  cpu time    0.0475: real time    0.0475
    --------------------------------------------
      LOOP:  cpu time  115.8010: real time  115.8457

 eigenvalue-minimisations  :     0
 total energy-change (2. order) :-0.2393120E+01  (-0.9248103E+00)
 number of electron     168.0000054 magnetization      24.0000010
 augmentation part       56.4595798 magnetization      16.0128486

 Free energy of the ion-electron system (eV)
  ---------------------------------------------------
  alpha Z        PSCENC =       457.40635457
  Ewald energy   TEWEN  =    -11469.60978221
  -Hartree energ DENC   =     -6572.24886254
  -exchange      EXHF   =       486.86871501
  -V(xc)+E(xc)   XCENC  =       546.43649103
  PAW double counting   =     20165.28196518   -20749.65503803
  entropy T*S    EENTRO =        -0.00000000
  eigenvalues    EBANDS =     -2739.29885291
  atomic energy  EATOM  =     19699.01912348
  ---------------------------------------------------
  free energy    TOTEN  =      -175.79988642 eV

  energy without entropy =     -175.79988642  energy(sigma->0) =     -175.79988642
  exchange ACFDT corr.  =        -0.00000000  see jH, gK, PRB 81, 115126


--------------------------------------------------------------------------------------------------------




--------------------------------------- Iteration      1(   7)  ---------------------------------------


    POTLOK:  cpu time    0.2886: real time    0.2886
    SETDIJ:  cpu time    1.8877: real time    1.8884
    TRIAL :  cpu time   55.4399: real time   55.4611
    CORREC:  cpu time   57.6774: real time   57.7005
    CHARGE:  cpu time    0.0471: real time    0.0471
    --------------------------------------------
      LOOP:  cpu time  115.3504: real time  115.4105

 eigenvalue-minimisations  :     0
 total energy-change (2. order) :-0.9294065E+00  (-0.3212414E+00)
 number of electron     168.0000054 magnetization      24.0000010
 augmentation part       56.4545892 magnetization      16.0172747

 Free energy of the ion-electron system (eV)
  ---------------------------------------------------
  alpha Z        PSCENC =       457.40635457
  Ewald energy   TEWEN  =    -11469.60978221
  -Hartree energ DENC   =     -6569.50982314
  -exchange      EXHF   =       486.76396489
  -V(xc)+E(xc)   XCENC  =       546.33370315
  PAW double counting   =     20114.69854998   -20699.07774655
  entropy T*S    EENTRO =        -0.00000000
  eigenvalues    EBANDS =     -2742.75363705
  atomic energy  EATOM  =     19699.01912348
  ---------------------------------------------------
  free energy    TOTEN  =      -176.72929289 eV

  energy without entropy =     -176.72929289  energy(sigma->0) =     -176.72929289
  exchange ACFDT corr.  =        -0.00000000  see jH, gK, PRB 81, 115126


--------------------------------------------------------------------------------------------------------




--------------------------------------- Iteration      1(   8)  ---------------------------------------


    POTLOK:  cpu time    0.2862: real time    0.2867
    SETDIJ:  cpu time    2.0084: real time    2.0088
    TRIAL :  cpu time   55.5409: real time   55.5634
    CORREC:  cpu time   57.8649: real time   57.8873
    CHARGE:  cpu time    0.0473: real time    0.0473
    --------------------------------------------
      LOOP:  cpu time  115.7792: real time  115.8253

 eigenvalue-minimisations  :     0
 total energy-change (2. order) :-0.3232985E+00  (-0.1012737E+00)
 number of electron     168.0000054 magnetization      24.0000010
 augmentation part       56.4239307 magnetization      16.0183236

 Free energy of the ion-electron system (eV)
  ---------------------------------------------------
  alpha Z        PSCENC =       457.40635457
  Ewald energy   TEWEN  =    -11469.60978221
  -Hartree energ DENC   =     -6572.27542502
  -exchange      EXHF   =       486.84696917
  -V(xc)+E(xc)   XCENC  =       546.43129507
  PAW double counting   =     20122.51195512   -20707.49876798
  entropy T*S    EENTRO =        -0.00000000
  eigenvalues    EBANDS =     -2739.88431358
  atomic energy  EATOM  =     19699.01912348
  ---------------------------------------------------
  free energy    TOTEN  =      -177.05259139 eV

  energy without entropy =     -177.05259139  energy(sigma->0) =     -177.05259139
  exchange ACFDT corr.  =        -0.00000000  see jH, gK, PRB 81, 115126


--------------------------------------------------------------------------------------------------------




--------------------------------------- Iteration      1(   9)  ---------------------------------------


    POTLOK:  cpu time    0.2870: real time    0.2875
    SETDIJ:  cpu time    1.8917: real time    1.8920
    TRIAL :  cpu time   55.6060: real time   55.6286
    CORREC:  cpu time   57.9328: real time   57.9562
    CHARGE:  cpu time    0.0470: real time    0.0470
    --------------------------------------------
      LOOP:  cpu time  115.8102: real time  115.8573

 eigenvalue-minimisations  :     0
 total energy-change (2. order) :-0.1023981E+00  (-0.4182260E-01)
 number of electron     168.0000054 magnetization      24.0000010
 augmentation part       56.4120752 magnetization      16.0234021

 Free energy of the ion-electron system (eV)
  ---------------------------------------------------
  alpha Z        PSCENC =       457.40635457
  Ewald energy   TEWEN  =    -11469.60978221
  -Hartree energ DENC   =     -6569.82397876
  -exchange      EXHF   =       486.83383948
  -V(xc)+E(xc)   XCENC  =       546.38655222
  PAW double counting   =     20127.24282643   -20712.08033251
  entropy T*S    EENTRO =        -0.00000000
  eigenvalues    EBANDS =     -2742.52959217
  atomic energy  EATOM  =     19699.01912348
  ---------------------------------------------------
  free energy    TOTEN  =      -177.15498948 eV

  energy without entropy =     -177.15498948  energy(sigma->0) =     -177.15498948
  exchange ACFDT corr.  =        -0.00000000  see jH, gK, PRB 81, 115126


--------------------------------------------------------------------------------------------------------




--------------------------------------- Iteration      1(  10)  ---------------------------------------


    POTLOK:  cpu time    0.2863: real time    0.2863
    SETDIJ:  cpu time    2.0114: real time    2.0121
    TRIAL :  cpu time   55.7047: real time   55.7257
    CORREC:  cpu time   57.8750: real time   57.8988
    CHARGE:  cpu time    0.0508: real time    0.0508
    --------------------------------------------
      LOOP:  cpu time  115.9527: real time  115.9987

 eigenvalue-minimisations  :     0
 total energy-change (2. order) :-0.4281027E-01  (-0.2005331E-01)
 number of electron     168.0000054 magnetization      24.0000010
 augmentation part       56.3996876 magnetization      16.0265890

 Free energy of the ion-electron system (eV)
  ---------------------------------------------------
  alpha Z        PSCENC =       457.40635457
  Ewald energy   TEWEN  =    -11469.60978221
  -Hartree energ DENC   =     -6570.28908081
  -exchange      EXHF   =       486.89116674
  -V(xc)+E(xc)   XCENC  =       546.43179221
  PAW double counting   =     20137.50482714   -20722.61248865
  entropy T*S    EENTRO =        -0.00000000
  eigenvalues    EBANDS =     -2741.93971221
  atomic energy  EATOM  =     19699.01912348
  ---------------------------------------------------
  free energy    TOTEN  =      -177.19779976 eV

  energy without entropy =     -177.19779976  energy(sigma->0) =     -177.19779976
  exchange ACFDT corr.  =        -0.00000000  see jH, gK, PRB 81, 115126


--------------------------------------------------------------------------------------------------------




--------------------------------------- Iteration      1(  11)  ---------------------------------------


    POTLOK:  cpu time    0.2869: real time    0.2869
    SETDIJ:  cpu time    2.0134: real time    2.0141
    TRIAL :  cpu time   55.4774: real time   55.4981
    CORREC:  cpu time   57.7542: real time   57.7764
    CHARGE:  cpu time    0.0473: real time    0.0473
    --------------------------------------------
      LOOP:  cpu time  115.6043: real time  115.6483

 eigenvalue-minimisations  :     0
 total energy-change (2. order) :-0.2071718E-01  (-0.9400475E-02)
 number of electron     168.0000054 magnetization      24.0000010
 augmentation part       56.3894161 magnetization      16.0277556

 Free energy of the ion-electron system (eV)
  ---------------------------------------------------
  alpha Z        PSCENC =       457.40635457
  Ewald energy   TEWEN  =    -11469.60978221
  -Hartree energ DENC   =     -6570.70709688
  -exchange      EXHF   =       486.95289208
  -V(xc)+E(xc)   XCENC  =       546.47205153
  PAW double counting   =     20146.07011401   -20731.19271463
  entropy T*S    EENTRO =        -0.00000000
  eigenvalues    EBANDS =     -2741.62945889
  atomic energy  EATOM  =     19699.01912348
  ---------------------------------------------------
  free energy    TOTEN  =      -177.21851694 eV

  energy without entropy =     -177.21851694  energy(sigma->0) =     -177.21851694
  exchange ACFDT corr.  =        -0.00000000  see jH, gK, PRB 81, 115126


--------------------------------------------------------------------------------------------------------




--------------------------------------- Iteration      1(  12)  ---------------------------------------


    POTLOK:  cpu time    0.2865: real time    0.2866
    SETDIJ:  cpu time    2.0098: real time    2.0106
    TRIAL :  cpu time   55.5370: real time   55.5601
    CORREC:  cpu time   57.9036: real time   57.9268
    CHARGE:  cpu time    0.0472: real time    0.0472
    --------------------------------------------
      LOOP:  cpu time  115.7969: real time  115.8611

 eigenvalue-minimisations  :     0
 total energy-change (2. order) :-0.9682931E-02  (-0.3492212E-02)
 number of electron     168.0000054 magnetization      24.0000010
 augmentation part       56.3863338 magnetization      16.0275657

 Free energy of the ion-electron system (eV)
  ---------------------------------------------------
  alpha Z        PSCENC =       457.40635457
  Ewald energy   TEWEN  =    -11469.60978221
  -Hartree energ DENC   =     -6570.41396391
  -exchange      EXHF   =       486.96050202
  -V(xc)+E(xc)   XCENC  =       546.47094597
  PAW double counting   =     20150.10199248   -20735.22226258
  entropy T*S    EENTRO =        -0.00000000
  eigenvalues    EBANDS =     -2741.94110968
  atomic energy  EATOM  =     19699.01912348
  ---------------------------------------------------
  free energy    TOTEN  =      -177.22819987 eV

  energy without entropy =     -177.22819987  energy(sigma->0) =     -177.22819987
  exchange ACFDT corr.  =        -0.00000000  see jH, gK, PRB 81, 115126


--------------------------------------------------------------------------------------------------------




--------------------------------------- Iteration      1(  13)  ---------------------------------------


    POTLOK:  cpu time    0.2933: real time    0.2933
    SETDIJ:  cpu time    2.0089: real time    2.0094
    TRIAL :  cpu time   55.5886: real time   55.6110
    CORREC:  cpu time   57.7847: real time   57.8068
    CHARGE:  cpu time    0.0496: real time    0.0496
    --------------------------------------------
      LOOP:  cpu time  115.7546: real time  115.8001

 eigenvalue-minimisations  :     0
 total energy-change (2. order) :-0.3536216E-02  (-0.1360953E-02)
 number of electron     168.0000054 magnetization      24.0000010
 augmentation part       56.3837507 magnetization      16.0264907

 Free energy of the ion-electron system (eV)
  ---------------------------------------------------
  alpha Z        PSCENC =       457.40635457
  Ewald energy   TEWEN  =    -11469.60978221
  -Hartree energ DENC   =     -6570.64229163
  -exchange      EXHF   =       486.97137759
  -V(xc)+E(xc)   XCENC  =       546.48154684
  PAW double counting   =     20150.12993220   -20735.31019004
  entropy T*S    EENTRO =        -0.00000000
  eigenvalues    EBANDS =     -2741.67780688
  atomic energy  EATOM  =     19699.01912348
  ---------------------------------------------------
  free energy    TOTEN  =      -177.23173609 eV

  energy without entropy =     -177.23173609  energy(sigma->0) =     -177.23173609
  exchange ACFDT corr.  =        -0.00000000  see jH, gK, PRB 81, 115126


--------------------------------------------------------------------------------------------------------




--------------------------------------- Iteration      1(  14)  ---------------------------------------


    POTLOK:  cpu time    0.2866: real time    0.2870
    SETDIJ:  cpu time    2.0127: real time    2.0133
    TRIAL :  cpu time   55.5866: real time   55.6090
    CORREC:  cpu time   57.9229: real time   57.9460
    CHARGE:  cpu time    0.0478: real time    0.0478
    --------------------------------------------
      LOOP:  cpu time  115.8832: real time  115.9299

 eigenvalue-minimisations  :     0
 total energy-change (2. order) :-0.1338084E-02  (-0.8204573E-03)
 number of electron     168.0000054 magnetization      24.0000010
 augmentation part       56.3818894 magnetization      16.0254095

 Free energy of the ion-electron system (eV)
  ---------------------------------------------------
  alpha Z        PSCENC =       457.40635457
  Ewald energy   TEWEN  =    -11469.60978221
  -Hartree energ DENC   =     -6570.76396719
  -exchange      EXHF   =       486.98176230
  -V(xc)+E(xc)   XCENC  =       546.48945379
  PAW double counting   =     20148.67935554   -20733.85683879
  entropy T*S    EENTRO =        -0.00000000
  eigenvalues    EBANDS =     -2741.57853566
  atomic energy  EATOM  =     19699.01912348
  ---------------------------------------------------
  free energy    TOTEN  =      -177.23307417 eV

  energy without entropy =     -177.23307417  energy(sigma->0) =     -177.23307417
  exchange ACFDT corr.  =        -0.00000000  see jH, gK, PRB 81, 115126


--------------------------------------------------------------------------------------------------------




--------------------------------------- Iteration      1(  15)  ---------------------------------------


    POTLOK:  cpu time    0.2874: real time    0.2878
    SETDIJ:  cpu time    2.0113: real time    2.0119
    TRIAL :  cpu time   55.6162: real time   55.6379
    CORREC:  cpu time   57.8857: real time   57.9085
    CHARGE:  cpu time    0.0469: real time    0.0469
    --------------------------------------------
      LOOP:  cpu time  115.8777: real time  115.9234

 eigenvalue-minimisations  :     0
 total energy-change (2. order) :-0.7193268E-03  (-0.5740957E-03)
 number of electron     168.0000054 magnetization      24.0000010
 augmentation part       56.3805265 magnetization      16.0243712

 Free energy of the ion-electron system (eV)
  ---------------------------------------------------
  alpha Z        PSCENC =       457.40635457
  Ewald energy   TEWEN  =    -11469.60978221
  -Hartree energ DENC   =     -6570.84941825
  -exchange      EXHF   =       486.98367717
  -V(xc)+E(xc)   XCENC  =       546.49209375
  PAW double counting   =     20148.33956674   -20733.52623004
  entropy T*S    EENTRO =        -0.00000000
  eigenvalues    EBANDS =     -2741.48917872
  atomic energy  EATOM  =     19699.01912348
  ---------------------------------------------------
  free energy    TOTEN  =      -177.23379350 eV

  energy without entropy =     -177.23379350  energy(sigma->0) =     -177.23379350
  exchange ACFDT corr.  =        -0.00000000  see jH, gK, PRB 81, 115126


--------------------------------------------------------------------------------------------------------




--------------------------------------- Iteration      1(  16)  ---------------------------------------


    POTLOK:  cpu time    0.2868: real time    0.2873
    SETDIJ:  cpu time    2.0114: real time    2.0119
    TRIAL :  cpu time   55.7218: real time   55.7440
    CORREC:  cpu time   57.8914: real time   57.9146
    CHARGE:  cpu time    0.0469: real time    0.0469
    --------------------------------------------
      LOOP:  cpu time  115.9834: real time  116.0300

 eigenvalue-minimisations  :     0
 total energy-change (2. order) :-0.3604021E-03  (-0.3470550E-03)
 number of electron     168.0000054 magnetization      24.0000010
 augmentation part       56.3802304 magnetization      16.0242854

 Free energy of the ion-electron system (eV)
  ---------------------------------------------------
  alpha Z        PSCENC =       457.40635457
  Ewald energy   TEWEN  =    -11469.60978221
  -Hartree energ DENC   =     -6570.93031703
  -exchange      EXHF   =       486.98098900
  -V(xc)+E(xc)   XCENC  =       546.49266586
  PAW double counting   =     20148.90057461   -20734.10917002
  entropy T*S    EENTRO =        -0.00000000
  eigenvalues    EBANDS =     -2741.38459216
  atomic energy  EATOM  =     19699.01912348
  ---------------------------------------------------
  free energy    TOTEN  =      -177.23415390 eV

  energy without entropy =     -177.23415390  energy(sigma->0) =     -177.23415390
  exchange ACFDT corr.  =        -0.00000000  see jH, gK, PRB 81, 115126


--------------------------------------------------------------------------------------------------------




--------------------------------------- Iteration      1(  17)  ---------------------------------------


    POTLOK:  cpu time    0.2861: real time    0.2865
    SETDIJ:  cpu time    2.0111: real time    2.0115
    TRIAL :  cpu time   55.5845: real time   55.6063
    CORREC:  cpu time   57.9458: real time   57.9680
    CHARGE:  cpu time    0.0494: real time    0.0494
    --------------------------------------------
      LOOP:  cpu time  115.8849: real time  115.9464

 eigenvalue-minimisations  :     0
 total energy-change (2. order) :-0.3466991E-03  (-0.1573076E-03)
 number of electron     168.0000054 magnetization      24.0000010
 augmentation part       56.3804805 magnetization      16.0243681

 Free energy of the ion-electron system (eV)
  ---------------------------------------------------
  alpha Z        PSCENC =       457.40635457
  Ewald energy   TEWEN  =    -11469.60978221
  -Hartree energ DENC   =     -6570.88981709
  -exchange      EXHF   =       486.98248566
  -V(xc)+E(xc)   XCENC  =       546.49284162
  PAW double counting   =     20148.37344350   -20733.56317647
  entropy T*S    EENTRO =        -0.00000000
  eigenvalues    EBANDS =     -2741.44597366
  atomic energy  EATOM  =     19699.01912348
  ---------------------------------------------------
  free energy    TOTEN  =      -177.23450060 eV

  energy without entropy =     -177.23450060  energy(sigma->0) =     -177.23450060
  exchange ACFDT corr.  =        -0.00000000  see jH, gK, PRB 81, 115126


--------------------------------------------------------------------------------------------------------




--------------------------------------- Iteration      1(  18)  ---------------------------------------


    POTLOK:  cpu time    0.2857: real time    0.2864
    SETDIJ:  cpu time    2.0117: real time    2.0122
    TRIAL :  cpu time   55.9961: real time   56.0174
    CORREC:  cpu time   58.0962: real time   58.1181
    CHARGE:  cpu time    0.0469: real time    0.0473
    --------------------------------------------
      LOOP:  cpu time  116.4617: real time  116.5068

 eigenvalue-minimisations  :     0
 total energy-change (2. order) :-0.1581537E-03  (-0.5069629E-04)
 number of electron     168.0000054 magnetization      24.0000010
 augmentation part       56.3807967 magnetization      16.0244584

 Free energy of the ion-electron system (eV)
  ---------------------------------------------------
  alpha Z        PSCENC =       457.40635457
  Ewald energy   TEWEN  =    -11469.60978221
  -Hartree energ DENC   =     -6570.87822079
  -exchange      EXHF   =       486.98180066
  -V(xc)+E(xc)   XCENC  =       546.49245631
  PAW double counting   =     20148.19348095   -20733.38444934
  entropy T*S    EENTRO =        -0.00000000
  eigenvalues    EBANDS =     -2741.45542238
  atomic energy  EATOM  =     19699.01912348
  ---------------------------------------------------
  free energy    TOTEN  =      -177.23465875 eV

  energy without entropy =     -177.23465875  energy(sigma->0) =     -177.23465875
  exchange ACFDT corr.  =        -0.00000000  see jH, gK, PRB 81, 115126


--------------------------------------------------------------------------------------------------------




--------------------------------------- Iteration      1(  19)  ---------------------------------------


    POTLOK:  cpu time    0.2869: real time    0.2869
    SETDIJ:  cpu time    2.0174: real time    2.0180
    TRIAL :  cpu time   55.6586: real time   55.6798
    CORREC:  cpu time   57.7789: real time   57.8020
    CHARGE:  cpu time    0.0467: real time    0.0468
    --------------------------------------------
      LOOP:  cpu time  115.8135: real time  115.8587

 eigenvalue-minimisations  :     0
 total energy-change (2. order) :-0.5183687E-04  (-0.2311553E-04)
 number of electron     168.0000054 magnetization      24.0000010
 augmentation part       56.3809031 magnetization      16.0244300

 Free energy of the ion-electron system (eV)
  ---------------------------------------------------
  alpha Z        PSCENC =       457.40635457
  Ewald energy   TEWEN  =    -11469.60978221
  -Hartree energ DENC   =     -6570.85958414
  -exchange      EXHF   =       486.97963255
  -V(xc)+E(xc)   XCENC  =       546.49107968
  PAW double counting   =     20148.28751952   -20733.48519125
  entropy T*S    EENTRO =        -0.00000000
  eigenvalues    EBANDS =     -2741.46386278
  atomic energy  EATOM  =     19699.01912348
  ---------------------------------------------------
  free energy    TOTEN  =      -177.23471059 eV

  energy without entropy =     -177.23471059  energy(sigma->0) =     -177.23471059
  exchange ACFDT corr.  =        -0.00000000  see jH, gK, PRB 81, 115126


--------------------------------------------------------------------------------------------------------




--------------------------------------- Iteration      1(  20)  ---------------------------------------


    POTLOK:  cpu time    0.2904: real time    0.2904
    SETDIJ:  cpu time    2.0097: real time    2.0103
    TRIAL :  cpu time   55.7121: real time   55.7350
    CORREC:  cpu time   57.8389: real time   57.8625
    EDDIAG:  cpu time   55.4767: real time   55.4982
    CHARGE:  cpu time    0.0599: real time    0.0599
    --------------------------------------------
      LOOP:  cpu time  171.3974: real time  171.4828

 eigenvalue-minimisations  :     0
 total energy-change (2. order) :-0.2360675E-04  (-0.1123162E-04)
 number of electron     168.0000054 magnetization      24.0000010
 augmentation part       56.3810477 magnetization      16.0243936

 Free energy of the ion-electron system (eV)
  ---------------------------------------------------
  alpha Z        PSCENC =       457.40635457
  Ewald energy   TEWEN  =    -11469.60978221
  -Hartree energ DENC   =     -6570.83977247
  -exchange      EXHF   =       486.97910608
  -V(xc)+E(xc)   XCENC  =       546.49059483
  PAW double counting   =     20148.23233267   -20733.42554496
  entropy T*S    EENTRO =        -0.00000000
  eigenvalues    EBANDS =     -2741.48734544
  atomic energy  EATOM  =     19699.01912348
  ---------------------------------------------------
  free energy    TOTEN  =      -177.23473420 eV

  energy without entropy =     -177.23473420  energy(sigma->0) =     -177.23473420
  exchange ACFDT corr.  =        -0.00000000  see jH, gK, PRB 81, 115126


--------------------------------------------------------------------------------------------------------


  average scaling for gradient   0.6233


 average (electrostatic) potential at core
  the test charge radii are     0.7079  0.9500  0.9698  0.7215
  (the norm of the test charge is              1.0000)
       1 -53.3833       2 -53.3833       3 -53.6512       4 -53.6512       5 -53.0859
       6 -53.0290       7 -53.0859       8 -53.0290       9 -71.6988      10 -71.6988
      11 -71.3163      12 -71.6259      13 -71.3163      14 -71.6259      15 -82.1083
      16 -82.0740      17 -82.0940      18 -82.1165      19 -82.0940      20 -82.1165
      21 -62.9127      22 -63.9569      23 -62.9127      24 -63.9569



 E-fermi :   4.9670     XC(G=0):  -8.5611     alpha+bet :-12.6767

 Fermi energy:         4.9669845276

 spin component 1

 k-point     1 :       0.0000    0.0000    0.0000
  band No.  band energies     occupation 
      1     -56.3615      1.00000
      2     -56.3613      1.00000
      3     -56.3199      1.00000
      4     -56.3199      1.00000
      5     -56.1732      1.00000
      6     -56.1731      1.00000
      7     -54.9003      1.00000
      8     -54.8999      1.00000
      9     -54.8056      1.00000
     10     -54.8056      1.00000
     11     -54.7721      1.00000
     12     -54.7715      1.00000
     13     -54.7679      1.00000
     14     -54.7679      1.00000
     15     -54.4509      1.00000
     16     -54.4509      1.00000
     17     -54.2823      1.00000
     18     -54.2823      1.00000
     19     -43.8639      1.00000
     20     -43.8602      1.00000
     21     -43.6053      1.00000
     22     -43.6007      1.00000
     23     -43.3101      1.00000
     24     -43.3081      1.00000
     25     -43.2569      1.00000
     26     -43.2564      1.00000
     27     -16.3368      1.00000
     28     -16.3304      1.00000
     29     -15.1516      1.00000
     30     -15.1472      1.00000
     31      -9.6825      1.00000
     32      -9.1797      1.00000
     33      -9.0887      1.00000
     34      -9.0057      1.00000
     35      -8.9651      1.00000
     36      -8.7960      1.00000
     37      -2.3454      1.00000
     38      -2.0912      1.00000
     39      -1.9111      1.00000
     40      -1.8758      1.00000
     41      -1.8001      1.00000
     42      -1.7402      1.00000
     43      -1.6946      1.00000
     44      -1.5551      1.00000
     45      -1.3019      1.00000
     46      -1.1496      1.00000
     47      -1.0963      1.00000
     48      -1.0703      1.00000
     49      -1.0399      1.00000
     50      -1.0326      1.00000
     51      -0.8954      1.00000
     52      -0.8906      1.00000
     53      -0.7985      1.00000
     54      -0.6375      1.00000
     55      -0.5921      1.00000
     56      -0.5612      1.00000
     57      -0.5402      1.00000
     58      -0.5285      1.00000
     59      -0.4861      1.00000
     60      -0.4813      1.00000
     61      -0.3454      1.00000
     62      -0.2337      1.00000
     63      -0.2270      1.00000
     64      -0.0428      1.00000
     65       0.0783      1.00000
     66       0.1063      1.00000
     67       0.1068      1.00000
     68       0.2021      1.00000
     69       0.2511      1.00000
     70       0.5011      1.00000
     71       0.6085      1.00000
     72       0.6243      1.00000
     73       0.7117      1.00000
     74       0.7675      1.00000
     75       0.9440      1.00000
     76       0.9548      1.00000
     77       1.0161      1.00000
     78       1.1121      1.00000
     79       1.2750      1.00000
     80       1.5393      1.00000
     81       1.7400      1.00000
     82       1.9221      1.00000
     83       2.1168      1.00000
     84       2.2327      1.00000
     85       2.5571      1.00000
     86       2.7435      1.00000
     87       2.8406      1.00000
     88       3.0788      1.00000
     89       3.0857      1.00000
     90       3.1038      1.00000
     91       3.1681      1.00000
     92       3.2778      1.00000
     93       3.4334      1.00000
     94       3.5453      1.00000
     95       3.7439      1.00000
     96       4.2044      1.00000
     97       8.0654      0.00000
     98       8.3546      0.00000
     99       9.1016      0.00000
    100       9.1755      0.00000
    101       9.3707      0.00000
    102       9.9439      0.00000
    103      10.1383      0.00000
    104      10.3622      0.00000
    105      10.6282      0.00000
    106      11.1280      0.00000
    107      11.2751      0.00000
    108      11.3599      0.00000
    109      11.3810      0.00000
    110      11.5331      0.00000
    111      11.7009      0.00000
    112      11.9924      0.00000
    113      12.5532      0.00000
    114      12.7218      0.00000
    115      12.8321      0.00000
    116      12.8592      0.00000
    117      13.1763      0.00000
    118      13.6151      0.00000
    119      14.3257      0.00000
    120      14.7614      0.00000

 k-point     2 :       0.3333    0.0000    0.0000
  band No.  band energies     occupation 
      1     -56.3615      1.00000
      2     -56.3613      1.00000
      3     -56.3199      1.00000
      4     -56.3199      1.00000
      5     -56.1732      1.00000
      6     -56.1732      1.00000
      7     -54.9003      1.00000
      8     -54.8999      1.00000
      9     -54.8056      1.00000
     10     -54.8056      1.00000
     11     -54.7721      1.00000
     12     -54.7716      1.00000
     13     -54.7679      1.00000
     14     -54.7679      1.00000
     15     -54.4509      1.00000
     16     -54.4509      1.00000
     17     -54.2823      1.00000
     18     -54.2823      1.00000
     19     -43.8639      1.00000
     20     -43.8602      1.00000
     21     -43.6049      1.00000
     22     -43.6011      1.00000
     23     -43.3101      1.00000
     24     -43.3081      1.00000
     25     -43.2569      1.00000
     26     -43.2564      1.00000
     27     -16.3352      1.00000
     28     -16.3315      1.00000
     29     -15.1508      1.00000
     30     -15.1485      1.00000
     31      -9.5816      1.00000
     32      -9.2557      1.00000
     33      -9.0917      1.00000
     34      -9.0099      1.00000
     35      -8.9741      1.00000
     36      -8.8448      1.00000
     37      -2.3193      1.00000
     38      -2.1196      1.00000
     39      -1.8668      1.00000
     40      -1.8017      1.00000
     41      -1.7851      1.00000
     42      -1.7008      1.00000
     43      -1.5529      1.00000
     44      -1.4716      1.00000
     45      -1.3235      1.00000
     46      -1.2052      1.00000
     47      -1.1841      1.00000
     48      -1.1203      1.00000
     49      -1.0962      1.00000
     50      -0.8979      1.00000
     51      -0.8282      1.00000
     52      -0.7963      1.00000
     53      -0.7011      1.00000
     54      -0.6967      1.00000
     55      -0.6631      1.00000
     56      -0.6059      1.00000
     57      -0.6011      1.00000
     58      -0.4905      1.00000
     59      -0.4711      1.00000
     60      -0.4572      1.00000
     61      -0.3105      1.00000
     62      -0.2014      1.00000
     63      -0.0881      1.00000
     64      -0.0542      1.00000
     65      -0.0159      1.00000
     66       0.1553      1.00000
     67       0.2059      1.00000
     68       0.2251      1.00000
     69       0.2480      1.00000
     70       0.3890      1.00000
     71       0.4987      1.00000
     72       0.6343      1.00000
     73       0.6679      1.00000
     74       0.7364      1.00000
     75       0.8883      1.00000
     76       0.9341      1.00000
     77       1.0208      1.00000
     78       1.0751      1.00000
     79       1.3735      1.00000
     80       1.5305      1.00000
     81       1.8009      1.00000
     82       1.9777      1.00000
     83       2.1395      1.00000
     84       2.3455      1.00000
     85       2.4285      1.00000
     86       2.6328      1.00000
     87       2.6932      1.00000
     88       2.7558      1.00000
     89       2.8290      1.00000
     90       2.9352      1.00000
     91       2.9957      1.00000
     92       3.2401      1.00000
     93       3.5543      1.00000
     94       3.6733      1.00000
     95       3.7045      1.00000
     96       3.8744      1.00000
     97       8.6886      0.00000
     98       9.0411      0.00000
     99       9.2392      0.00000
    100       9.4480      0.00000
    101       9.7697      0.00000
    102      10.1087      0.00000
    103      10.2160      0.00000
    104      10.4673      0.00000
    105      10.6385      0.00000
    106      10.8442      0.00000
    107      11.3681      0.00000
    108      11.6723      0.00000
    109      11.9309      0.00000
    110      11.9813      0.00000
    111      12.0210      0.00000
    112      12.1521      0.00000
    113      12.2175      0.00000
    114      12.6179      0.00000
    115      12.8584      0.00000
    116      13.0652      0.00000
    117      13.6267      0.00000
    118      13.8166      0.00000
    119      13.8733      0.00000
    120      14.0834      0.00000

 k-point     3 :       0.0000    0.2000    0.0000
  band No.  band energies     occupation 
      1     -56.3626      1.00000
      2     -56.3624      1.00000
      3     -56.3191      1.00000
      4     -56.3190      1.00000
      5     -56.1732      1.00000
      6     -56.1732      1.00000
      7     -54.9007      1.00000
      8     -54.9004      1.00000
      9     -54.8056      1.00000
     10     -54.8056      1.00000
     11     -54.7721      1.00000
     12     -54.7716      1.00000
     13     -54.7677      1.00000
     14     -54.7677      1.00000
     15     -54.4510      1.00000
     16     -54.4509      1.00000
     17     -54.2826      1.00000
     18     -54.2826      1.00000
     19     -43.8635      1.00000
     20     -43.8605      1.00000
     21     -43.6052      1.00000
     22     -43.6005      1.00000
     23     -43.3100      1.00000
     24     -43.3079      1.00000
     25     -43.2568      1.00000
     26     -43.2563      1.00000
     27     -16.2581      1.00000
     28     -16.2530      1.00000
     29     -15.0677      1.00000
     30     -15.0647      1.00000
     31      -9.6014      1.00000
     32      -9.1667      1.00000
     33      -9.0372      1.00000
     34      -8.9536      1.00000
     35      -8.9101      1.00000
     36      -8.7373      1.00000
     37      -2.6461      1.00000
     38      -2.6161      1.00000
     39      -2.3198      1.00000
     40      -2.2156      1.00000
     41      -1.9371      1.00000
     42      -1.9202      1.00000
     43      -1.8350      1.00000
     44      -1.5924      1.00000
     45      -1.5637      1.00000
     46      -1.3749      1.00000
     47      -1.3006      1.00000
     48      -1.2822      1.00000
     49      -1.2040      1.00000
     50      -1.1593      1.00000
     51      -1.1248      1.00000
     52      -1.0231      1.00000
     53      -1.0178      1.00000
     54      -0.9483      1.00000
     55      -0.8785      1.00000
     56      -0.7993      1.00000
     57      -0.7484      1.00000
     58      -0.6996      1.00000
     59      -0.5678      1.00000
[...]
      7     -49.6216      1.00000
      8     -49.6213      1.00000
      9     -49.6163      1.00000
     10     -49.6163      1.00000
     11     -49.6074      1.00000
     12     -49.6071      1.00000
     13     -49.5143      1.00000
     14     -49.5141      1.00000
     15     -49.3371      1.00000
     16     -49.3370      1.00000
     17     -49.1435      1.00000
     18     -49.1435      1.00000
     19     -43.8709      1.00000
     20     -43.8698      1.00000
     21     -43.6135      1.00000
     22     -43.6095      1.00000
     23     -43.3299      1.00000
     24     -43.3277      1.00000
     25     -43.2718      1.00000
     26     -43.2713      1.00000
     27     -15.6388      1.00000
     28     -15.6381      1.00000
     29     -14.7224      1.00000
     30     -14.7223      1.00000
     31      -9.0130      1.00000
     32      -8.9010      1.00000
     33      -8.7495      1.00000
     34      -8.5749      1.00000
     35      -8.5118      1.00000
     36      -8.4221      1.00000
     37      -2.0918      1.00000
     38      -1.8458      1.00000
     39      -1.4606      1.00000
     40      -1.3048      1.00000
     41      -1.1211      1.00000
     42      -1.0370      1.00000
     43      -0.8079      1.00000
     44      -0.6641      1.00000
     45      -0.3749      1.00000
     46      -0.2096      1.00000
     47       0.0025      1.00000
     48       0.0917      1.00000
     49       0.4170      1.00000
     50       0.5244      1.00000
     51       0.7090      1.00000
     52       0.7449      1.00000
     53       0.8840      1.00000
     54       0.9724      1.00000
     55       1.1304      1.00000
     56       1.2652      1.00000
     57       1.5084      1.00000
     58       1.6239      1.00000
     59       1.7023      1.00000
     60       1.7729      1.00000
     61       1.9571      1.00000
     62       2.0278      1.00000
     63       2.1349      1.00000
     64       2.2022      1.00000
     65       2.4858      1.00000
     66       2.6575      1.00000
     67       3.5113      1.00000
     68       3.5415      1.00000
     69       3.7042      1.00000
     70       3.8228      1.00000
     71       4.6703      1.00000
     72       4.6912      1.00000
     73       7.2256      0.00000
     74       7.3363      0.00000
     75       7.5409      0.00000
     76       7.5792      0.00000
     77       7.6182      0.00000
     78       7.7569      0.00000
     79       7.8364      0.00000
     80       7.8944      0.00000
     81       8.0728      0.00000
     82       8.2351      0.00000
     83       8.2617      0.00000
     84       8.3540      0.00000
     85       8.3846      0.00000
     86       8.4851      0.00000
     87       8.6151      0.00000
     88       8.6489      0.00000
     89       8.6850      0.00000
     90       8.7804      0.00000
     91       8.8579      0.00000
     92       8.9135      0.00000
     93       9.4918      0.00000
     94       9.6498      0.00000
     95       9.6760      0.00000
     96      10.1960      0.00000
     97      10.3763      0.00000
     98      10.8218      0.00000
     99      10.8657      0.00000
    100      11.0564      0.00000
    101      11.3518      0.00000
    102      11.6205      0.00000
    103      11.6590      0.00000
    104      11.9862      0.00000
    105      12.2588      0.00000
    106      12.5418      0.00000
    107      12.8482      0.00000
    108      12.8615      0.00000
    109      13.1510      0.00000
    110      13.1819      0.00000
    111      13.3426      0.00000
    112      13.4362      0.00000
    113      13.5539      0.00000
    114      13.6221      0.00000
    115      13.8554      0.00000
    116      13.9657      0.00000
    117      14.1597      0.00000
    118      14.2815      0.00000
    119      14.4795      0.00000
    120      14.6403      0.00000


--------------------------------------------------------------------------------------------------------


 soft charge-density along one line, spin component           1
         0         1         2         3         4         5         6         7         8         9
 total charge-density along one line

 soft charge-density along one line, spin component           2
         0         1         2         3         4         5         6         7         8         9
 total charge-density along one line

 pseudopotential strength for first ion, spin component:           1
-35.032   4.784   0.000   0.002   0.000
  4.784 -11.383   0.002   0.012   0.001
  0.000   0.002   0.031  -0.002  -0.000
  0.002   0.012  -0.002   0.023  -0.003
  0.000   0.001  -0.000  -0.003   0.032
 pseudopotential strength for first ion, spin component:           2
-35.032   4.784   0.000   0.002   0.000
  4.784 -11.383   0.002   0.012   0.001
  0.000   0.002   0.030  -0.002  -0.000
  0.002   0.012  -0.002   0.023  -0.003
  0.000   0.001  -0.000  -0.003   0.031
 total augmentation occupancy for first ion, spin component:           1
  1.999  -0.027  -0.001  -0.007  -0.001
 -0.027   0.724   0.005   0.026   0.001
 -0.001   0.005   0.025   0.005   0.001
 -0.007   0.026   0.005   0.047   0.008
 -0.001   0.001   0.001   0.008   0.023
 total augmentation occupancy for first ion, spin component:           2
 -0.000  -0.000  -0.000  -0.000  -0.000
 -0.000  -0.004  -0.000  -0.001  -0.001
 -0.000  -0.000  -0.000   0.000   0.000
 -0.000  -0.001   0.000   0.000  -0.000
 -0.000  -0.001   0.000  -0.000   0.000


------------------------ aborting loop because EDIFF is reached ----------------------------------------





 total charge

# of ion       s       p       d       tot
------------------------------------------
    1        2.022   0.068   0.000   2.090
    2        2.022   0.068   0.000   2.090
    3        2.015   0.054   0.000   2.069
    4        2.015   0.054   0.000   2.069
    5        2.025   0.075   0.000   2.100
    6        2.027   0.078   0.000   2.105
    7        2.025   0.075   0.000   2.100
    8        2.027   0.078   0.000   2.105
    9        0.239   6.214   5.890  12.343
   10        0.239   6.214   5.890  12.343
   11        0.242   6.232   5.903  12.376
   12        0.238   6.238   5.914  12.390
   13        0.242   6.232   5.903  12.376
   14        0.238   6.238   5.914  12.390
   15        1.308   2.463   0.000   3.770
   16        1.307   2.462   0.000   3.769
   17        1.308   2.462   0.000   3.770
   18        1.310   2.468   0.000   3.778
   19        1.308   2.462   0.000   3.770
   20        1.310   2.468   0.000   3.778
   21        1.550   3.546   0.000   5.095
   22        1.556   3.530   0.000   5.086
   23        1.550   3.546   0.000   5.095
   24        1.556   3.530   0.000   5.086
--------------------------------------------------
tot         31.677  66.853  35.412 133.942



 magnetization (x)

# of ion       s       p       d       tot
------------------------------------------
    1       -0.000  -0.000   0.000  -0.000
    2       -0.000  -0.000   0.000  -0.000
    3        0.001   0.002   0.000   0.003
    4        0.001   0.002   0.000   0.003
    5       -0.001  -0.001   0.000  -0.002
    6       -0.000  -0.000   0.000  -0.000
    7       -0.001  -0.001   0.000  -0.002
    8       -0.000  -0.000   0.000  -0.000
    9        0.031   0.022   3.573   3.625
   10        0.031   0.022   3.573   3.625
   11        0.032   0.025   3.572   3.629
   12        0.030   0.024   3.586   3.639
   13        0.032   0.025   3.572   3.629
   14        0.030   0.024   3.586   3.639
   15        0.018   0.084   0.000   0.102
   16        0.017   0.079   0.000   0.096
   17        0.019   0.107   0.000   0.125
   18        0.019   0.107   0.000   0.126
   19        0.019   0.107   0.000   0.125
   20        0.019   0.107   0.000   0.126
   21        0.009   0.061   0.000   0.070
   22        0.015   0.149   0.000   0.164
   23        0.009   0.061   0.000   0.070
   24        0.015   0.149   0.000   0.164
--------------------------------------------------
tot          0.342   1.154  21.461  22.957

    FORLOC:  cpu time    0.0038: real time    0.0038
    FORHF :  cpu time  102.4756: real time  102.5103
    FORNL :  cpu time    0.1218: real time    0.1220
    STRESS:  cpu time    0.3490: real time    0.3495
    FORCOR:  cpu time    0.2860: real time    0.2860
    OFIELD:  cpu time    0.0005: real time    0.0005

  FORCE on cell =-STRESS in cart. coord.  units (eV):
  Direction    XX          YY          ZZ          XY          YZ          ZX
  --------------------------------------------------------------------------------------
  Alpha Z   456.74369   456.74369   456.74369
  Ewald   -4646.68080 -2429.72635 -4390.76465   -46.15658  -369.68953   173.11023
  Hartree  1621.82319  3326.06479  1622.67797   -38.43927  -322.20730   118.83593
  E(xc)    -682.37057  -681.57434  -681.73507    -0.00974    -0.02767     0.09220
  Local     302.28672 -3563.64605   136.99772    84.42816   699.10830  -283.59548
  n-local   593.49151   603.44771   593.50488    -0.11095    -1.85564     1.36112
  augment   854.08183   826.38754   797.59223    -0.13491    -5.68465    -5.14249
  Kinetic  2210.86961  2160.07054  2152.07710     0.38585    -1.76261    -6.94516
  Fock     -710.39291  -698.09555  -687.28550     0.05709     2.14711     2.30080
  -------------------------------------------------------------------------------------
  Total      -0.14701    -0.32876    -0.19161     0.00905     0.02683     0.01904
  in kB      -0.76035    -1.70042    -0.99106     0.04679     0.13879     0.09850
  external pressure =       -1.15 kB  Pullay stress =        0.00 kB


 VOLUME and BASIS-vectors are now :
 -----------------------------------------------------------------------------
  energy-cutoff  :      520.00
  volume of cell :      309.76
      direct lattice vectors                 reciprocal lattice vectors
     7.428201262  0.002089941 -1.361655422     0.134655598  0.004637939  0.000189896
    -0.137438720  4.020772535 -0.743594366     0.000623737  0.249429827  0.003785496
    -0.009233696 -0.157862021 10.403196895     0.017669408  0.018435668  0.096419731

  length of vectors
     7.551972182  4.091263100 10.404398652     0.134735580  0.249459331  0.099743904


 FORCES acting on ions:
    Electron-Ion                     Ewald-Force                    Non-Local-Force
 -----------------------------------------------------------------------------------------------
   0.192E+02 -.715E+00 -.740E+01   -.191E+02 0.937E+00 0.860E+01   -.919E-01 -.228E+00 -.121E+01
   -.192E+02 0.715E+00 0.740E+01   0.191E+02 -.937E+00 -.860E+01   0.919E-01 0.228E+00 0.121E+01
   0.225E+02 0.180E+02 0.930E+02   -.224E+02 -.178E+02 -.919E+02   -.140E+00 -.224E+00 -.119E+01
   -.225E+02 -.180E+02 -.930E+02   0.224E+02 0.178E+02 0.919E+02   0.140E+00 0.224E+00 0.119E+01
   -.175E+02 -.470E+01 -.222E+02   0.187E+02 0.465E+01 0.217E+02   -.123E+01 0.598E-01 0.551E+00
   0.292E+02 0.389E+01 0.157E+02   -.305E+02 -.392E+01 -.156E+02   0.133E+01 0.238E-01 -.117E+00
   0.175E+02 0.470E+01 0.222E+02   -.187E+02 -.465E+01 -.217E+02   0.123E+01 -.598E-01 -.551E+00
   -.292E+02 -.389E+01 -.157E+02   0.305E+02 0.392E+01 0.156E+02   -.133E+01 -.238E-01 0.117E+00
   -.385E+02 0.753E+02 0.414E+03   0.401E+02 -.753E+02 -.415E+03   -.142E+01 0.204E-01 0.372E+00
   0.385E+02 -.753E+02 -.414E+03   -.401E+02 0.753E+02 0.415E+03   0.142E+01 -.204E-01 -.372E+00
   0.170E+02 0.250E+02 0.132E+03   -.178E+02 -.253E+02 -.134E+03   0.672E+00 0.275E+00 0.136E+01
   -.416E+01 -.208E+02 -.112E+03   0.428E+01 0.205E+02 0.110E+03   -.113E+00 0.238E+00 0.131E+01
   -.170E+02 -.250E+02 -.132E+03   0.178E+02 0.253E+02 0.134E+03   -.672E+00 -.275E+00 -.136E+01
   0.416E+01 0.208E+02 0.112E+03   -.428E+01 -.205E+02 -.110E+03   0.113E+00 -.238E+00 -.131E+01
   0.494E-05 -.115E-05 0.137E-05   0.355E-13 -.711E-14 -.711E-14   0.273E-22 0.159E-20 -.114E-22
   0.442E-05 0.171E-05 -.148E-05   -.249E-13 -.711E-14 -.782E-13   -.167E-22 0.656E-22 0.138E-20
   0.931E+02 -.353E+02 -.208E+03   -.936E+02 0.355E+02 0.209E+03   0.510E+00 -.148E+00 -.897E+00
   -.105E+03 -.127E+02 -.492E+02   0.106E+03 0.127E+02 0.492E+02   -.290E+00 -.127E-01 -.152E-01
   -.931E+02 0.353E+02 0.208E+03   0.936E+02 -.355E+02 -.209E+03   -.510E+00 0.148E+00 0.897E+00
   0.105E+03 0.127E+02 0.492E+02   -.106E+03 -.127E+02 -.492E+02   0.290E+00 0.127E-01 0.152E-01
   0.440E+01 0.915E+01 0.487E+02   -.440E+01 -.920E+01 -.489E+02   0.818E-02 0.441E-01 0.237E+00
   -.436E+01 -.217E+02 -.117E+03   0.462E+01 0.225E+02 0.121E+03   -.231E+00 -.676E+00 -.361E+01
   -.440E+01 -.915E+01 -.487E+02   0.440E+01 0.920E+01 0.489E+02   -.818E-02 -.441E-01 -.237E+00
   0.436E+01 0.217E+02 0.117E+03   -.462E+01 -.225E+02 -.121E+03   0.231E+00 0.676E+00 0.361E+01
 -----------------------------------------------------------------------------------------------
   0.340E-04 -.810E-06 -.587E-06   -.568E-13 -.213E-13 -.114E-12   -.250E-15 0.000E+00 0.444E-15


 POSITION                                       TOTAL-FORCE (eV/Angst)
 -----------------------------------------------------------------------------------
      7.08420      0.01198     -1.24461        -0.006652     -0.000839     -0.003306
      3.91143      3.85407      8.86173         0.006652      0.000839      0.003306
      2.56361      3.14355      5.26892         0.001060      0.001441      0.007593
      1.00381      0.72041      3.70985        -0.001060     -0.001441     -0.007593
      1.47785      3.57188      7.78569        -0.006018      0.001920      0.011494
      4.96954      3.44881      6.47486        -0.001209      0.000121      0.000876
      2.08958      0.29207      1.19308         0.006018     -0.001920     -0.011494
      6.02608      0.41723      1.14226         0.001209     -0.000121     -0.000876
      6.80272      3.12899      4.40666         0.014840      0.004739      0.022884
      4.19291      0.73706      3.21046        -0.014840     -0.004739     -0.022884
      3.25208      1.48479      7.42750        -0.013004      0.001566      0.010872
      7.03217      1.51095      6.87029        -0.010497     -0.001680     -0.007144
      0.31535      2.37916      1.55128         0.013004     -0.001566     -0.010872
      3.96346      2.35509      0.74683         0.010497      0.001680      0.007144
      1.78833      2.01091     -0.71221        -0.000000      0.000000     -0.000000
      5.50243      2.01195     -1.39304        -0.000000      0.000000     -0.000000
      2.51892      2.69419      2.84739         0.004650      0.000538      0.002051
      6.08591      2.69359      2.18485         0.006328     -0.003870     -0.022095
      1.04851      1.16977      6.13139        -0.004650     -0.000538     -0.002051
      4.90972      1.17246      5.43227        -0.006328      0.003870      0.022095
      3.21492      3.50546      7.10548        -0.003182      0.000280      0.002103
      6.94093      3.50814      6.43128        -0.005967     -0.003742     -0.019130
      0.35251      0.35849      1.87329         0.003182     -0.000280     -0.002103
      4.05470      0.35790      1.18584         0.005967      0.003742      0.019130
 -----------------------------------------------------------------------------------
    total drift:                                0.000034     -0.000001     -0.000001


--------------------------------------------------------------------------------------------------------



  FREE ENERGIE OF THE ION-ELECTRON SYSTEM (eV)
  ---------------------------------------------------
  free  energy   TOTEN  =      -177.23538530 eV

  energy  without entropy=     -177.23538530  energy(sigma->0) =     -177.23538530

 d Force = 0.4708241E-03[ 0.173E-03, 0.769E-03]  d Energy = 0.3380816E-03 0.133E-03
 d Force = 0.9487923E+00[ 0.938E+00, 0.960E+00]  d Ewald  =-0.1855577E+01 0.280E+01


--------------------------------------------------------------------------------------------------------


    POTLOK:  cpu time    2.3103: real time    2.3118


--------------------------------------------------------------------------------------------------------




--------------------------------------------------------------------------------------------------------


  
 reached required accuracy - stopping structural energy minimisation
 writing wavefunctions
     LOOP+:  cpu time 1211.9811: real time 1212.6614
    4ORBIT:  cpu time    0.0000: real time    0.0000



 total charge

# of ion       s       p       d       tot
------------------------------------------
    1        2.022   0.068   0.000   2.090
    2        2.022   0.068   0.000   2.090
    3        2.015   0.054   0.000   2.069
    4        2.015   0.054   0.000   2.069
    5        2.025   0.075   0.000   2.100
    6        2.027   0.078   0.000   2.105
    7        2.025   0.075   0.000   2.100
    8        2.027   0.078   0.000   2.105
    9        0.239   6.214   5.890  12.343
   10        0.239   6.214   5.890  12.343
   11        0.242   6.232   5.903  12.376
   12        0.238   6.238   5.914  12.390
   13        0.242   6.232   5.903  12.376
   14        0.238   6.238   5.914  12.390
   15        1.308   2.463   0.000   3.770
   16        1.307   2.462   0.000   3.769
   17        1.308   2.462   0.000   3.770
   18        1.310   2.468   0.000   3.778
   19        1.308   2.462   0.000   3.770
   20        1.310   2.468   0.000   3.778
   21        1.550   3.546   0.000   5.095
   22        1.556   3.530   0.000   5.086
   23        1.550   3.546   0.000   5.095
   24        1.556   3.530   0.000   5.086
--------------------------------------------------
tot         31.677  66.853  35.412 133.942



 magnetization (x)

# of ion       s       p       d       tot
------------------------------------------
    1       -0.000  -0.000   0.000  -0.000
    2       -0.000  -0.000   0.000  -0.000
    3        0.001   0.002   0.000   0.003
    4        0.001   0.002   0.000   0.003
    5       -0.001  -0.001   0.000  -0.002
    6       -0.000  -0.000   0.000  -0.000
    7       -0.001  -0.001   0.000  -0.002
    8       -0.000  -0.000   0.000  -0.000
    9        0.031   0.022   3.573   3.625
   10        0.031   0.022   3.573   3.625
   11        0.032   0.025   3.572   3.629
   12        0.030   0.024   3.586   3.639
   13        0.032   0.025   3.572   3.629
   14        0.030   0.024   3.586   3.639
   15        0.018   0.084   0.000   0.102
   16        0.017   0.079   0.000   0.096
   17        0.019   0.107   0.000   0.125
   18        0.019   0.107   0.000   0.126
   19        0.019   0.107   0.000   0.125
   20        0.019   0.107   0.000   0.126
   21        0.009   0.061   0.000   0.070
   22        0.015   0.149   0.000   0.164
   23        0.009   0.061   0.000   0.070
   24        0.015   0.149   0.000   0.164
--------------------------------------------------
tot          0.342   1.154  21.461  22.957


 total amount of memory used by VASP MPI-rank0   114177. kBytes
=======================================================================

   base      :      30000. kBytes
   nonl-proj :      10368. kBytes
   fftplans  :       1922. kBytes
   grid      :       5075. kBytes
   one-center:         93. kBytes
   HF        :        194. kBytes
   nonlr-proj:       7502. kBytes
   wavefun   :      51240. kBytes
   fock_wrk  :       7783. kBytes

  
  
 General timing and accounting informations for this job:
 ========================================================
  
                  Total CPU time used (sec):     4810.968
                            User time (sec):     4770.871
                          System time (sec):       40.097
                         Elapsed time (sec):     4823.711
  
                   Maximum memory used (kb):      328868.
                   Average memory used (kb):          N/A
  
                          Minor page faults:        66014
                          Major page faults:            1
                 Voluntary context switches:         7205
