  88  88   0   0
  0.1431748E+02  0.1111223E-08  0.1111745E-08  0.1056954E-08  0.5000000E-15
  1.000000000000000E-004
  CAR 
 unknown system                          
     17.91121018    -54.34121299  301      5.20682577      1.00000000
    -54.341  0.0000E+00  0.0000E+00  0.0000E+00  0.0000E+00
    -54.100  0.0000E+00  0.0000E+00  0.0000E+00  0.0000E+00
    -53.860  0.0000E+00  0.0000E+00  0.0000E+00  0.0000E+00
    -53.619  0.0000E+00  0.0000E+00  0.0000E+00  0.0000E+00
    -53.378  0.0000E+00  0.0000E+00  0.0000E+00  0.0000E+00
    -53.137  0.0000E+00  0.0000E+00  0.0000E+00  0.0000E+00
    -52.896  0.0000E+00  0.0000E+00  0.0000E+00  0.0000E+00
    -52.655  0.0000E+00  0.0000E+00  0.0000E+00  0.0000E+00
    -52.414  0.0000E+00  0.0000E+00  0.0000E+00  0.0000E+00
    -52.174  0.0000E+00  0.0000E+00  0.0000E+00  0.0000E+00
    -51.933  0.0000E+00  0.0000E+00  0.0000E+00  0.0000E+00
    -51.692  0.0000E+00  0.0000E+00  0.0000E+00  0.0000E+00
    -51.451  0.0000E+00  0.0000E+00  0.0000E+00  0.0000E+00
    -51.210  0.3820E-03  0.0000E+00  0.9199E-04  0.0000E+00
    -50.969  0.1309E+03  0.0000E+00  0.3152E+02  0.0000E+00
    -50.729  0.2001E+01  0.0000E+00  0.3200E+02  0.0000E+00
    -50.488  0.0000E+00  0.0000E+00  0.3200E+02  0.0000E+00
    -50.247  0.0000E+00  0.0000E+00  0.3200E+02  0.0000E+00
    -50.006  0.0000E+00  0.0000E+00  0.3200E+02  0.0000E+00
    -49.765  0.1873E+01  0.0000E+00  0.3245E+02  0.0000E+00
    -49.524  0.2365E+03  0.0000E+00  0.8941E+02  0.0000E+00
    -49.284  0.2738E+02  0.0000E+00  0.9600E+02  0.0000E+00
    -49.043  0.0000E+00  0.0000E+00  0.9600E+02  0.0000E+00
    -48.802  0.0000E+00  0.0000E+00  0.9600E+02  0.0000E+00
    -48.561  0.0000E+00  0.0000E+00  0.9600E+02  0.0000E+00
    -48.320  0.0000E+00  0.0000E+00  0.9600E+02  0.0000E+00
    -48.079  0.0000E+00  0.0000E+00  0.9600E+02  0.0000E+00
    -47.838  0.0000E+00  0.0000E+00  0.9600E+02  0.0000E+00
    -47.598  0.0000E+00  0.0000E+00  0.9600E+02  0.0000E+00
    -47.357  0.0000E+00  0.0000E+00  0.9600E+02  0.0000E+00
    -47.116  0.0000E+00  0.0000E+00  0.9600E+02  0.0000E+00
    -46.875  0.0000E+00  0.0000E+00  0.9600E+02  0.0000E+00
    -46.634  0.0000E+00  0.0000E+00  0.9600E+02  0.0000E+00
    -46.393  0.0000E+00  0.3925E+00  0.9600E+02  0.9454E-01
    -46.153  0.0000E+00  0.1324E+03  0.9600E+02  0.3199E+02
    -45.912  0.0000E+00  0.6034E+02  0.9600E+02  0.4652E+02
    -45.671  0.0000E+00  0.2054E+03  0.9600E+02  0.9600E+02
    -45.430  0.0000E+00  0.0000E+00  0.9600E+02  0.9600E+02
    -45.189  0.0000E+00  0.0000E+00  0.9600E+02  0.9600E+02
    -44.948  0.0000E+00  0.0000E+00  0.9600E+02  0.9600E+02
    -44.708  0.0000E+00  0.0000E+00  0.9600E+02  0.9600E+02
    -44.467  0.0000E+00  0.0000E+00  0.9600E+02  0.9600E+02
    -44.226  0.0000E+00  0.0000E+00  0.9600E+02  0.9600E+02
    -43.985  0.0000E+00  0.0000E+00  0.9600E+02  0.9600E+02
    -43.744  0.0000E+00  0.0000E+00  0.9600E+02  0.9600E+02
    -43.503  0.0000E+00  0.0000E+00  0.9600E+02  0.9600E+02
    -43.263  0.0000E+00  0.0000E+00  0.9600E+02  0.9600E+02
    -43.022  0.0000E+00  0.0000E+00  0.9600E+02  0.9600E+02
    -42.781  0.0000E+00  0.0000E+00  0.9600E+02  0.9600E+02
    -42.540  0.0000E+00  0.0000E+00  0.9600E+02  0.9600E+02
    -42.299  0.0000E+00  0.0000E+00  0.9600E+02  0.9600E+02
    -42.058  0.0000E+00  0.0000E+00  0.9600E+02  0.9600E+02
    -41.817  0.0000E+00  0.0000E+00  0.9600E+02  0.9600E+02
    -41.577  0.0000E+00  0.0000E+00  0.9600E+02  0.9600E+02
    -41.336  0.0000E+00  0.0000E+00  0.9600E+02  0.9600E+02
    -41.095  0.0000E+00  0.0000E+00  0.9600E+02  0.9600E+02
    -40.854  0.0000E+00  0.0000E+00  0.9600E+02  0.9600E+02
    -40.613  0.0000E+00  0.0000E+00  0.9600E+02  0.9600E+02
    -40.372  0.0000E+00  0.0000E+00  0.9600E+02  0.9600E+02
    -40.132  0.1451E-11  0.9251E-12  0.9600E+02  0.9600E+02
    -39.891  0.1511E+02  0.1397E+02  0.9964E+02  0.9936E+02
    -39.650  0.5132E+02  0.5247E+02  0.1120E+03  0.1120E+03
    -39.409  0.0000E+00  0.0000E+00  0.1120E+03  0.1120E+03
    -39.168  0.0000E+00  0.0000E+00  0.1120E+03  0.1120E+03
    -38.927  0.0000E+00  0.0000E+00  0.1120E+03  0.1120E+03
    -38.687  0.0000E+00  0.0000E+00  0.1120E+03  0.1120E+03
    -38.446  0.0000E+00  0.0000E+00  0.1120E+03  0.1120E+03
    -38.205  0.0000E+00  0.0000E+00  0.1120E+03  0.1120E+03
    -37.964  0.0000E+00  0.0000E+00  0.1120E+03  0.1120E+03
    -37.723  0.0000E+00  0.0000E+00  0.1120E+03  0.1120E+03
    -37.482  0.0000E+00  0.0000E+00  0.1120E+03  0.1120E+03
    -37.241  0.0000E+00  0.0000E+00  0.1120E+03  0.1120E+03
    -37.001  0.0000E+00  0.0000E+00  0.1120E+03  0.1120E+03
    -36.760  0.0000E+00  0.0000E+00  0.1120E+03  0.1120E+03
    -36.519  0.0000E+00  0.0000E+00  0.1120E+03  0.1120E+03
    -36.278  0.0000E+00  0.0000E+00  0.1120E+03  0.1120E+03
    -36.037  0.0000E+00  0.0000E+00  0.1120E+03  0.1120E+03
    -35.796  0.0000E+00  0.0000E+00  0.1120E+03  0.1120E+03
    -35.556  0.0000E+00  0.0000E+00  0.1120E+03  0.1120E+03
    -35.315  0.0000E+00  0.0000E+00  0.1120E+03  0.1120E+03
    -35.074  0.0000E+00  0.0000E+00  0.1120E+03  0.1120E+03
    -34.833  0.0000E+00  0.0000E+00  0.1120E+03  0.1120E+03
    -34.592  0.0000E+00  0.0000E+00  0.1120E+03  0.1120E+03
    -34.351  0.0000E+00  0.0000E+00  0.1120E+03  0.1120E+03
    -34.111  0.0000E+00  0.0000E+00  0.1120E+03  0.1120E+03
    -33.870  0.0000E+00  0.0000E+00  0.1120E+03  0.1120E+03
    -33.629  0.0000E+00  0.0000E+00  0.1120E+03  0.1120E+03
    -33.388  0.0000E+00  0.0000E+00  0.1120E+03  0.1120E+03
    -33.147  0.0000E+00  0.0000E+00  0.1120E+03  0.1120E+03
    -32.906  0.0000E+00  0.0000E+00  0.1120E+03  0.1120E+03
    -32.665  0.0000E+00  0.0000E+00  0.1120E+03  0.1120E+03
    -32.425  0.0000E+00  0.0000E+00  0.1120E+03  0.1120E+03
    -32.184  0.0000E+00  0.0000E+00  0.1120E+03  0.1120E+03
    -31.943  0.0000E+00  0.0000E+00  0.1120E+03  0.1120E+03
    -31.702  0.0000E+00  0.0000E+00  0.1120E+03  0.1120E+03
    -31.461  0.0000E+00  0.0000E+00  0.1120E+03  0.1120E+03
    -31.220  0.0000E+00  0.0000E+00  0.1120E+03  0.1120E+03
    -30.980  0.0000E+00  0.0000E+00  0.1120E+03  0.1120E+03
    -30.739  0.0000E+00  0.0000E+00  0.1120E+03  0.1120E+03
    -30.498  0.0000E+00  0.0000E+00  0.1120E+03  0.1120E+03
    -30.257  0.0000E+00  0.0000E+00  0.1120E+03  0.1120E+03
    -30.016  0.0000E+00  0.0000E+00  0.1120E+03  0.1120E+03
    -29.775  0.0000E+00  0.0000E+00  0.1120E+03  0.1120E+03
    -29.535  0.0000E+00  0.0000E+00  0.1120E+03  0.1120E+03
    -29.294  0.0000E+00  0.0000E+00  0.1120E+03  0.1120E+03
    -29.053  0.0000E+00  0.0000E+00  0.1120E+03  0.1120E+03
    -28.812  0.0000E+00  0.0000E+00  0.1120E+03  0.1120E+03
    -28.571  0.0000E+00  0.0000E+00  0.1120E+03  0.1120E+03
    -28.330  0.0000E+00  0.0000E+00  0.1120E+03  0.1120E+03
    -28.089  0.0000E+00  0.0000E+00  0.1120E+03  0.1120E+03
    -27.849  0.0000E+00  0.0000E+00  0.1120E+03  0.1120E+03
    -27.608  0.0000E+00  0.0000E+00  0.1120E+03  0.1120E+03
    -27.367  0.0000E+00  0.0000E+00  0.1120E+03  0.1120E+03
    -27.126  0.0000E+00  0.0000E+00  0.1120E+03  0.1120E+03
    -26.885  0.0000E+00  0.0000E+00  0.1120E+03  0.1120E+03
    -26.644  0.0000E+00  0.0000E+00  0.1120E+03  0.1120E+03
    -26.404  0.0000E+00  0.0000E+00  0.1120E+03  0.1120E+03
    -26.163  0.0000E+00  0.0000E+00  0.1120E+03  0.1120E+03
    -25.922  0.0000E+00  0.0000E+00  0.1120E+03  0.1120E+03
    -25.681  0.0000E+00  0.0000E+00  0.1120E+03  0.1120E+03
    -25.440  0.0000E+00  0.0000E+00  0.1120E+03  0.1120E+03
    -25.199  0.0000E+00  0.0000E+00  0.1120E+03  0.1120E+03
    -24.959  0.0000E+00  0.0000E+00  0.1120E+03  0.1120E+03
    -24.718  0.0000E+00  0.0000E+00  0.1120E+03  0.1120E+03
    -24.477  0.0000E+00  0.0000E+00  0.1120E+03  0.1120E+03
    -24.236  0.0000E+00  0.0000E+00  0.1120E+03  0.1120E+03
    -23.995  0.0000E+00  0.0000E+00  0.1120E+03  0.1120E+03
    -23.754  0.0000E+00  0.0000E+00  0.1120E+03  0.1120E+03
    -23.514  0.0000E+00  0.0000E+00  0.1120E+03  0.1120E+03
    -23.273  0.0000E+00  0.0000E+00  0.1120E+03  0.1120E+03
    -23.032  0.0000E+00  0.0000E+00  0.1120E+03  0.1120E+03
    -22.791  0.0000E+00  0.0000E+00  0.1120E+03  0.1120E+03
    -22.550  0.0000E+00  0.0000E+00  0.1120E+03  0.1120E+03
    -22.309  0.0000E+00  0.0000E+00  0.1120E+03  0.1120E+03
    -22.068  0.0000E+00  0.0000E+00  0.1120E+03  0.1120E+03
    -21.828  0.0000E+00  0.0000E+00  0.1120E+03  0.1120E+03
    -21.587  0.0000E+00  0.0000E+00  0.1120E+03  0.1120E+03
    -21.346  0.0000E+00  0.0000E+00  0.1120E+03  0.1120E+03
    -21.105  0.0000E+00  0.0000E+00  0.1120E+03  0.1120E+03
    -20.864  0.0000E+00  0.0000E+00  0.1120E+03  0.1120E+03
    -20.623  0.0000E+00  0.0000E+00  0.1120E+03  0.1120E+03
    -20.383  0.0000E+00  0.0000E+00  0.1120E+03  0.1120E+03
    -20.142  0.0000E+00  0.0000E+00  0.1120E+03  0.1120E+03
    -19.901  0.0000E+00  0.0000E+00  0.1120E+03  0.1120E+03
    -19.660  0.0000E+00  0.0000E+00  0.1120E+03  0.1120E+03
    -19.419  0.0000E+00  0.0000E+00  0.1120E+03  0.1120E+03
    -19.178  0.0000E+00  0.0000E+00  0.1120E+03  0.1120E+03
    -18.938  0.0000E+00  0.0000E+00  0.1120E+03  0.1120E+03
    -18.697  0.0000E+00  0.0000E+00  0.1120E+03  0.1120E+03
    -18.456  0.0000E+00  0.0000E+00  0.1120E+03  0.1120E+03
    -18.215  0.0000E+00  0.0000E+00  0.1120E+03  0.1120E+03
    -17.974  0.0000E+00  0.0000E+00  0.1120E+03  0.1120E+03
    -17.733  0.0000E+00  0.0000E+00  0.1120E+03  0.1120E+03
    -17.492  0.0000E+00  0.0000E+00  0.1120E+03  0.1120E+03
    -17.252  0.0000E+00  0.0000E+00  0.1120E+03  0.1120E+03
    -17.011  0.0000E+00  0.0000E+00  0.1120E+03  0.1120E+03
    -16.770  0.0000E+00  0.0000E+00  0.1120E+03  0.1120E+03
    -16.529  0.0000E+00  0.0000E+00  0.1120E+03  0.1120E+03
    -16.288  0.0000E+00  0.0000E+00  0.1120E+03  0.1120E+03
    -16.047  0.0000E+00  0.0000E+00  0.1120E+03  0.1120E+03
    -15.807  0.0000E+00  0.0000E+00  0.1120E+03  0.1120E+03
    -15.566  0.0000E+00  0.0000E+00  0.1120E+03  0.1120E+03
    -15.325  0.0000E+00  0.0000E+00  0.1120E+03  0.1120E+03
    -15.084  0.0000E+00  0.0000E+00  0.1120E+03  0.1120E+03
    -14.843  0.0000E+00  0.0000E+00  0.1120E+03  0.1120E+03
    -14.602  0.0000E+00  0.0000E+00  0.1120E+03  0.1120E+03
    -14.362  0.0000E+00  0.0000E+00  0.1120E+03  0.1120E+03
    -14.121  0.0000E+00  0.0000E+00  0.1120E+03  0.1120E+03
    -13.880  0.0000E+00  0.0000E+00  0.1120E+03  0.1120E+03
    -13.639  0.0000E+00  0.0000E+00  0.1120E+03  0.1120E+03
    -13.398  0.8490E-06  0.0000E+00  0.1120E+03  0.1120E+03
    -13.157  0.1933E+02  0.0000E+00  0.1167E+03  0.1120E+03
    -12.916  0.4575E+02  0.9486E-02  0.1277E+03  0.1120E+03
    -12.676  0.1355E+01  0.4275E+02  0.1280E+03  0.1223E+03
    -12.435  0.0000E+00  0.2368E+02  0.1280E+03  0.1280E+03
    -12.194  0.0000E+00  0.0000E+00  0.1280E+03  0.1280E+03
    -11.953  0.0000E+00  0.0000E+00  0.1280E+03  0.1280E+03
    -11.712  0.0000E+00  0.0000E+00  0.1280E+03  0.1280E+03
    -11.471  0.0000E+00  0.0000E+00  0.1280E+03  0.1280E+03
    -11.231  0.0000E+00  0.0000E+00  0.1280E+03  0.1280E+03
    -10.990  0.0000E+00  0.0000E+00  0.1280E+03  0.1280E+03
    -10.749  0.0000E+00  0.0000E+00  0.1280E+03  0.1280E+03
    -10.508  0.0000E+00  0.0000E+00  0.1280E+03  0.1280E+03
    -10.267  0.0000E+00  0.0000E+00  0.1280E+03  0.1280E+03
    -10.026  0.0000E+00  0.0000E+00  0.1280E+03  0.1280E+03
     -9.786  0.0000E+00  0.0000E+00  0.1280E+03  0.1280E+03
     -9.545  0.0000E+00  0.0000E+00  0.1280E+03  0.1280E+03
     -9.304  0.0000E+00  0.0000E+00  0.1280E+03  0.1280E+03
     -9.063  0.0000E+00  0.0000E+00  0.1280E+03  0.1280E+03
     -8.822  0.0000E+00  0.0000E+00  0.1280E+03  0.1280E+03
     -8.581  0.0000E+00  0.0000E+00  0.1280E+03  0.1280E+03
     -8.341  0.0000E+00  0.0000E+00  0.1280E+03  0.1280E+03
     -8.100  0.0000E+00  0.0000E+00  0.1280E+03  0.1280E+03
     -7.859  0.1443E-09  0.0000E+00  0.1280E+03  0.1280E+03
     -7.618  0.6460E+00  0.2685E-10  0.1282E+03  0.1280E+03
     -7.377  0.1286E+02  0.5751E+00  0.1313E+03  0.1281E+03
     -7.136  0.3028E+02  0.1413E+02  0.1385E+03  0.1315E+03
     -6.895  0.3473E+02  0.2946E+02  0.1469E+03  0.1386E+03
     -6.655  0.2113E+02  0.2662E+02  0.1520E+03  0.1450E+03
     -6.414  0.1265E-04  0.2883E+02  0.1520E+03  0.1520E+03
     -6.173  0.0000E+00  0.4307E-01  0.1520E+03  0.1520E+03
     -5.932  0.0000E+00  0.0000E+00  0.1520E+03  0.1520E+03
     -5.691  0.0000E+00  0.0000E+00  0.1520E+03  0.1520E+03
     -5.450  0.0000E+00  0.0000E+00  0.1520E+03  0.1520E+03
     -5.210  0.0000E+00  0.0000E+00  0.1520E+03  0.1520E+03
     -4.969  0.0000E+00  0.0000E+00  0.1520E+03  0.1520E+03
     -4.728  0.0000E+00  0.0000E+00  0.1520E+03  0.1520E+03
     -4.487  0.0000E+00  0.0000E+00  0.1520E+03  0.1520E+03
     -4.246  0.0000E+00  0.0000E+00  0.1520E+03  0.1520E+03
     -4.005  0.0000E+00  0.0000E+00  0.1520E+03  0.1520E+03
     -3.765  0.0000E+00  0.0000E+00  0.1520E+03  0.1520E+03
     -3.524  0.0000E+00  0.0000E+00  0.1520E+03  0.1520E+03
     -3.283  0.0000E+00  0.0000E+00  0.1520E+03  0.1520E+03
     -3.042  0.0000E+00  0.0000E+00  0.1520E+03  0.1520E+03
     -2.801  0.0000E+00  0.0000E+00  0.1520E+03  0.1520E+03
     -2.560  0.0000E+00  0.0000E+00  0.1520E+03  0.1520E+03
     -2.319  0.0000E+00  0.0000E+00  0.1520E+03  0.1520E+03
     -2.079  0.3404E-04  0.0000E+00  0.1520E+03  0.1520E+03
     -1.838  0.1623E+02  0.0000E+00  0.1559E+03  0.1520E+03
     -1.597  0.1945E+02  0.0000E+00  0.1606E+03  0.1520E+03
     -1.356  0.1475E+02  0.0000E+00  0.1641E+03  0.1520E+03
     -1.115  0.1722E+02  0.0000E+00  0.1683E+03  0.1520E+03
     -0.874  0.4619E+02  0.0000E+00  0.1794E+03  0.1520E+03
     -0.634  0.5913E+02  0.1379E-05  0.1937E+03  0.1520E+03
     -0.393  0.3880E+02  0.4369E+01  0.2030E+03  0.1531E+03
     -0.152  0.6831E+02  0.2032E+02  0.2195E+03  0.1579E+03
      0.089  0.7361E+02  0.1226E+02  0.2372E+03  0.1609E+03
      0.330  0.7758E+02  0.1869E+02  0.2559E+03  0.1654E+03
      0.571  0.6999E+02  0.2962E+02  0.2727E+03  0.1725E+03
      0.811  0.5498E+02  0.3926E+02  0.2860E+03  0.1820E+03
      1.052  0.3632E+02  0.3728E+02  0.2947E+03  0.1910E+03
      1.293  0.3070E+02  0.3103E+02  0.3021E+03  0.1984E+03
      1.534  0.4503E+02  0.2085E+02  0.3130E+03  0.2035E+03
      1.775  0.4264E+02  0.2887E+02  0.3232E+03  0.2104E+03
      2.016  0.6909E+02  0.3714E+02  0.3399E+03  0.2194E+03
      2.257  0.5717E+02  0.2733E+02  0.3536E+03  0.2259E+03
      2.497  0.2696E+02  0.2706E+02  0.3601E+03  0.2325E+03
      2.738  0.4276E+02  0.3113E+02  0.3704E+03  0.2400E+03
      2.979  0.2963E+02  0.4454E+02  0.3776E+03  0.2507E+03
      3.220  0.8705E+01  0.4549E+02  0.3797E+03  0.2616E+03
      3.461  0.2830E+02  0.3166E+02  0.3865E+03  0.2693E+03
      3.702  0.2699E+02  0.1226E+02  0.3930E+03  0.2722E+03
      3.942  0.3104E+02  0.1809E+02  0.4004E+03  0.2766E+03
      4.183  0.3591E+02  0.5227E+02  0.4091E+03  0.2892E+03
      4.424  0.3642E+02  0.4524E+02  0.4179E+03  0.3001E+03
      4.665  0.3012E+02  0.1638E+02  0.4251E+03  0.3040E+03
      4.906  0.2568E+02  0.3617E-02  0.4313E+03  0.3040E+03
      5.147  0.2900E+01  0.0000E+00  0.4320E+03  0.3040E+03
      5.387  0.0000E+00  0.0000E+00  0.4320E+03  0.3040E+03
      5.628  0.0000E+00  0.0000E+00  0.4320E+03  0.3040E+03
      5.869  0.0000E+00  0.0000E+00  0.4320E+03  0.3040E+03
      6.110  0.0000E+00  0.7648E-09  0.4320E+03  0.3040E+03
      6.351  0.0000E+00  0.4257E+00  0.4320E+03  0.3041E+03
      6.592  0.0000E+00  0.4210E+01  0.4320E+03  0.3051E+03
      6.833  0.0000E+00  0.7984E+01  0.4320E+03  0.3070E+03
      7.073  0.1605E-14  0.1969E+02  0.4320E+03  0.3118E+03
      7.314  0.3114E-01  0.4441E+02  0.4320E+03  0.3225E+03
      7.555  0.1226E+00  0.5366E+02  0.4320E+03  0.3354E+03
      7.796  0.2694E+00  0.6308E+02  0.4321E+03  0.3506E+03
      8.037  0.7172E+00  0.6617E+02  0.4323E+03  0.3665E+03
      8.278  0.2189E+01  0.7032E+02  0.4328E+03  0.3835E+03
      8.518  0.2652E+01  0.5877E+02  0.4334E+03  0.3976E+03
      8.759  0.8949E+01  0.5880E+02  0.4356E+03  0.4118E+03
      9.000  0.1257E+02  0.4742E+02  0.4386E+03  0.4232E+03
      9.241  0.1314E+02  0.2950E+02  0.4418E+03  0.4303E+03
      9.482  0.1809E+02  0.8717E+01  0.4461E+03  0.4324E+03
      9.723  0.1618E+02  0.3115E+01  0.4500E+03  0.4332E+03
      9.963  0.1573E+02  0.8414E+01  0.4538E+03  0.4352E+03
     10.204  0.2249E+02  0.1879E+02  0.4592E+03  0.4397E+03
     10.445  0.1486E+02  0.1795E+02  0.4628E+03  0.4440E+03
     10.686  0.1528E+02  0.1724E+02  0.4665E+03  0.4482E+03
     10.927  0.1328E+02  0.2758E+02  0.4697E+03  0.4548E+03
     11.168  0.2067E+02  0.1895E+02  0.4747E+03  0.4594E+03
     11.408  0.2494E+02  0.2406E+02  0.4807E+03  0.4652E+03
     11.649  0.2708E+02  0.1460E+02  0.4872E+03  0.4687E+03
     11.890  0.2486E+02  0.1386E+02  0.4932E+03  0.4720E+03
     12.131  0.3328E+02  0.1620E+02  0.5012E+03  0.4759E+03
     12.372  0.1985E+02  0.3706E+02  0.5060E+03  0.4849E+03
     12.613  0.2308E+02  0.3252E+02  0.5115E+03  0.4927E+03
     12.854  0.2149E+02  0.2958E+02  0.5167E+03  0.4998E+03
     13.094  0.2011E+02  0.2022E+02  0.5216E+03  0.5047E+03
     13.335  0.2422E+02  0.2237E+02  0.5274E+03  0.5101E+03
     13.576  0.2403E+02  0.2725E+02  0.5332E+03  0.5166E+03
     13.817  0.1338E+02  0.2371E+02  0.5364E+03  0.5224E+03
     14.058  0.6596E+01  0.2623E+02  0.5380E+03  0.5287E+03
     14.299  0.2698E-02  0.1921E+02  0.5380E+03  0.5333E+03
     14.539  0.0000E+00  0.1638E+02  0.5380E+03  0.5372E+03
     14.780  0.0000E+00  0.3155E+01  0.5380E+03  0.5380E+03
     15.021  0.0000E+00  0.2242E-05  0.5380E+03  0.5380E+03
     15.262  0.0000E+00  0.0000E+00  0.5380E+03  0.5380E+03
     15.503  0.0000E+00  0.0000E+00  0.5380E+03  0.5380E+03
     15.744  0.0000E+00  0.0000E+00  0.5380E+03  0.5380E+03
     15.984  0.0000E+00  0.0000E+00  0.5380E+03  0.5380E+03
     16.225  0.0000E+00  0.0000E+00  0.5380E+03  0.5380E+03
     16.466  0.0000E+00  0.0000E+00  0.5380E+03  0.5380E+03
     16.707  0.0000E+00  0.0000E+00  0.5380E+03  0.5380E+03
     16.948  0.0000E+00  0.0000E+00  0.5380E+03  0.5380E+03
     17.189  0.0000E+00  0.0000E+00  0.5380E+03  0.5380E+03
     17.430  0.0000E+00  0.0000E+00  0.5380E+03  0.5380E+03
     17.670  0.0000E+00  0.0000E+00  0.5380E+03  0.5380E+03
     17.911  0.0000E+00  0.0000E+00  0.5380E+03  0.5380E+03
