 vasp.5.4.4.18Apr17-6-g9f103f2a35 (build Oct 25 2017 14:42:18) complex          
  
 executed on             LinuxIFC date 2021.06.02  18:47:28
 running on   24 total cores
 distrk:  each k-point on   12 cores,    2 groups
 distr:  one band on NCORES_PER_BAND=   6 cores,    2 groups


--------------------------------------------------------------------------------------------------------


 INCAR:
 POTCAR:    PAW_PBE Li_sv 10Sep2004               
 POTCAR:    PAW_PBE O 08Apr2002                   
 POTCAR:    PAW_PBE S 06Sep2000                   
 POTCAR:    PAW_PBE Fe_pv 02Aug2007               

 ----------------------------------------------------------------------------- 
|                                                                             |
|           W    W    AA    RRRRR   N    N  II  N    N   GGGG   !!!           |
|           W    W   A  A   R    R  NN   N  II  NN   N  G    G  !!!           |
|           W    W  A    A  R    R  N N  N  II  N N  N  G       !!!           |
|           W WW W  AAAAAA  RRRRR   N  N N  II  N  N N  G  GGG   !            |
|           WW  WW  A    A  R   R   N   NN  II  N   NN  G    G                |
|           W    W  A    A  R    R  N    N  II  N    N   GGGG   !!!           |
|                                                                             |
|      You have enabled k-point parallelism (KPAR>1).                         |
|      This developmental code was originally  written by Paul Kent at ORNL,  |
|      and carefully double checked in Vienna.                                |
|      GW as well as linear response parallelism added by Martijn Marsman     |
|      and Georg Kresse.                                                      |
|      Carefully verify results versus KPAR=1.                                |
|      Report problems to Paul Kent and Vienna.                               |
|                                                                             |
 ----------------------------------------------------------------------------- 

 POTCAR:    PAW_PBE Li_sv 10Sep2004               
  local pseudopotential read in
  atomic valenz-charges read in
  non local Contribution for L=           0  read in
    real space projection operators read in
  non local Contribution for L=           0  read in
    real space projection operators read in
  non local Contribution for L=           1  read in
    real space projection operators read in
    PAW grid and wavefunctions read in
 
   number of l-projection  operators is LMAX  =           3
   number of lm-projection operators is LMMAX =           5
 
 POTCAR:    PAW_PBE O 08Apr2002                   
  local pseudopotential read in
  partial core-charges read in
  partial kinetic energy density read in
  kinetic energy density of atom read in
  atomic valenz-charges read in
  non local Contribution for L=           0  read in
    real space projection operators read in
  non local Contribution for L=           0  read in
    real space projection operators read in
  non local Contribution for L=           1  read in
    real space projection operators read in
  non local Contribution for L=           1  read in
    real space projection operators read in
    PAW grid and wavefunctions read in
 
   number of l-projection  operators is LMAX  =           4
   number of lm-projection operators is LMMAX =           8
 
 POTCAR:    PAW_PBE S 06Sep2000                   
  local pseudopotential read in
  partial core-charges read in
  partial kinetic energy density read in
  atomic valenz-charges read in
  non local Contribution for L=           0  read in
    real space projection operators read in
  non local Contribution for L=           0  read in
    real space projection operators read in
  non local Contribution for L=           1  read in
    real space projection operators read in
  non local Contribution for L=           1  read in
    real space projection operators read in
    PAW grid and wavefunctions read in
 
   number of l-projection  operators is LMAX  =           4
   number of lm-projection operators is LMMAX =           8
 
 POTCAR:    PAW_PBE Fe_pv 02Aug2007               
  local pseudopotential read in
  partial core-charges read in
  partial kinetic energy density read in
  atomic valenz-charges read in
  non local Contribution for L=           1  read in
    real space projection operators read in
  non local Contribution for L=           1  read in
    real space projection operators read in
  non local Contribution for L=           2  read in
    real space projection operators read in
  non local Contribution for L=           2  read in
    real space projection operators read in
  non local Contribution for L=           0  read in
    real space projection operators read in
  non local Contribution for L=           0  read in
    real space projection operators read in
    PAW grid and wavefunctions read in
 
   number of l-projection  operators is LMAX  =           6
   number of lm-projection operators is LMMAX =          18
 

 ----------------------------------------------------------------------------- 
|                                                                             |
|  ADVICE TO THIS USER RUNNING 'VASP/VAMP'   (HEAR YOUR MASTER'S VOICE ...):  |
|                                                                             |
|      You have a (more or less) 'large supercell' and for larger cells       |
|      it might be more efficient to use real space projection opertators     |
|      So try LREAL= Auto  in the INCAR   file.                               |
|      Mind:          For very  accurate calculation you might also keep the  |
|      reciprocal projection scheme          (i.e. LREAL=.FALSE.)             |
|                                                                             |
 ----------------------------------------------------------------------------- 

  PAW_PBE Li_sv 10Sep2004               :
 energy of atom  1       EATOM= -202.7858
 kinetic energy error for atom=    0.0072 (will be added to EATOM!!)
  PAW_PBE O 08Apr2002                   :
 energy of atom  2       EATOM= -432.3788
 kinetic energy error for atom=    0.0129 (will be added to EATOM!!)
  PAW_PBE S 06Sep2000                   :
 energy of atom  3       EATOM= -276.8230
 kinetic energy error for atom=    0.0008 (will be added to EATOM!!)
  PAW_PBE Fe_pv 02Aug2007               :
 energy of atom  4       EATOM=-2457.4239
 kinetic energy error for atom=    0.0041 (will be added to EATOM!!)
 
 
 POSCAR: # Compound: Li16O16S24Fe32. Old comment:
  positions in direct lattice
  No initial velocities read in
 exchange correlation table for  LEXCH =        8
   RHO(1)=    0.500       N(1)  =     2000
   RHO(2)=  100.500       N(2)  =     4000
 


--------------------------------------------------------------------------------------------------------


 ion  position               nearest neighbor table
   1  0.289  0.469  0.156-  27 2.00  29 2.00  55 2.53  49 2.53
   2  0.789  0.469  0.156-  28 2.00  30 2.00  56 2.53  50 2.53
   3  0.289  0.969  0.156-  25 2.00  31 2.00  53 2.53  51 2.53
   4  0.789  0.969  0.156-  26 2.00  32 2.00  54 2.53  52 2.53
   5  0.046  0.219  0.186-  30 1.98  25 1.98
   6  0.546  0.219  0.186-  29 1.98  26 1.98
   7  0.046  0.719  0.186-  32 1.98  27 1.98
   8  0.546  0.719  0.186-  31 1.98  28 1.98
   9  0.454  0.469  0.814-  20 1.98  21 1.98
  10  0.954  0.469  0.814-  19 1.98  22 1.98
  11  0.454  0.969  0.814-  18 1.98  23 1.98
  12  0.954  0.969  0.814-  17 1.98  24 1.98
  13  0.211  0.219  0.844-  21 2.00  17 2.00  49 2.53  53 2.53
  14  0.711  0.219  0.844-  22 2.00  18 2.00  50 2.53  54 2.53
  15  0.211  0.719  0.844-  23 2.00  19 2.00  51 2.53  55 2.53
  16  0.711  0.719  0.844-  24 2.00  20 2.00  52 2.53  56 2.53
  17  0.077  0.095  0.803-  12 1.98  13 2.00  57 2.01  83 2.01  86 2.01
  18  0.577  0.095  0.803-  11 1.98  14 2.00  58 2.01  84 2.01  85 2.01
  19  0.077  0.595  0.803-  10 1.98  15 2.00  59 2.01  81 2.01  88 2.01
  20  0.577  0.595  0.803-   9 1.98  16 2.00  60 2.01  82 2.01  87 2.01
  21  0.325  0.343  0.803-   9 1.98  13 2.00  81 2.01  85 2.01  61 2.02
  22  0.825  0.343  0.803-  10 1.98  14 2.00  62 2.01  82 2.01  86 2.01
  23  0.325  0.843  0.803-  11 1.98  15 2.00  63 2.01  83 2.01  87 2.01
  24  0.825  0.843  0.803-  12 1.98  16 2.00  64 2.01  84 2.01  88 2.01
  25  0.175  0.093  0.197-   5 1.98   3 2.00  65 2.01  77 2.01  75 2.01
  26  0.675  0.093  0.197-   6 1.98   4 2.00  66 2.01  78 2.01  76 2.01
  27  0.175  0.593  0.197-   7 1.98   1 2.00  67 2.01  79 2.01  73 2.01
  28  0.675  0.593  0.197-   8 1.98   2 2.00  68 2.01  80 2.01  74 2.01
  29  0.423  0.345  0.197-   6 1.98   1 2.00  69 2.01  77 2.01  74 2.01
  30  0.923  0.345  0.197-   5 1.98   2 2.00  70 2.01  78 2.01  73 2.01
  31  0.423  0.845  0.197-   8 1.98   3 2.00  71 2.01  79 2.01  76 2.01
  32  0.923  0.845  0.197-   7 1.98   4 2.00  72 2.01  80 2.01  75 2.01
  33  0.219  0.345  0.371-  61 2.40  67 2.65  69 2.65
  34  0.719  0.345  0.371-  62 2.41  68 2.65  70 2.65
  35  0.219  0.845  0.371-  63 2.41  65 2.65  71 2.65
  36  0.719  0.845  0.371-  64 2.41  66 2.65  72 2.65
  37  0.467  0.093  0.371-  58 2.41  71 2.65  65 2.65
  38  0.967  0.093  0.371-  57 2.41  72 2.65  66 2.65
  39  0.467  0.593  0.371-  60 2.41  69 2.65  67 2.65
  40  0.967  0.593  0.371-  59 2.41  70 2.65  68 2.65
  41  0.033  0.343  0.629-  70 2.41  57 2.65  61 2.65
  42  0.533  0.343  0.629-  69 2.41  58 2.65  62 2.65
  43  0.033  0.843  0.629-  72 2.41  59 2.65  63 2.65
  44  0.533  0.843  0.629-  71 2.41  60 2.65  64 2.65
  45  0.281  0.095  0.629-  65 2.41  61 2.65  57 2.65
  46  0.781  0.095  0.629-  66 2.41  62 2.65  58 2.65
  47  0.281  0.595  0.629-  67 2.41  63 2.65  59 2.65
  48  0.781  0.595  0.629-  68 2.41  64 2.65  60 2.65
  49  0.124  0.344  0.000-  73 2.51  86 2.51  81 2.52  77 2.52  13 2.53   1 2.53
  50  0.624  0.344  0.000-  74 2.51  85 2.51  82 2.52  78 2.52  14 2.53   2 2.53
  51  0.124  0.844  0.000-  75 2.51  88 2.51  83 2.52  79 2.52  15 2.53   3 2.53
  52  0.624  0.844  0.000-  76 2.51  87 2.51  84 2.52  80 2.52  16 2.53   4 2.53
  53  0.376  0.094  1.000-  85 2.51  76 2.51  77 2.52  83 2.52   3 2.53  13 2.53
  54  0.876  0.094  1.000-  86 2.51  75 2.51  78 2.52  84 2.52   4 2.53  14 2.53
  55  0.376  0.594  1.000-  87 2.51  74 2.51  79 2.52  81 2.52   1 2.53  15 2.53
  56  0.876  0.594  1.000-  88 2.51  73 2.51  80 2.52  82 2.52   2 2.53  16 2.53
  57  0.038  0.106  0.606-  17 2.01  38 2.41  41 2.65  45 2.65
  58  0.538  0.106  0.606-  18 2.01  37 2.41  42 2.65  46 2.65
  59  0.038  0.606  0.606-  19 2.01  40 2.41  43 2.65  47 2.65
  60  0.538  0.606  0.606-  20 2.01  39 2.41  44 2.65  48 2.65
  61  0.265  0.332  0.605-  21 2.02  33 2.40  45 2.65  41 2.65
  62  0.765  0.332  0.606-  22 2.01  34 2.41  46 2.65  42 2.65
  63  0.265  0.832  0.606-  23 2.01  35 2.41  47 2.65  43 2.65
  64  0.765  0.832  0.606-  24 2.01  36 2.41  48 2.65  44 2.65
  65  0.235  0.082  0.394-  25 2.01  45 2.41  35 2.65  37 2.65
  66  0.735  0.082  0.394-  26 2.01  46 2.41  36 2.65  38 2.65
  67  0.235  0.582  0.394-  27 2.01  47 2.41  33 2.65  39 2.65
  68  0.735  0.582  0.394-  28 2.01  48 2.41  34 2.65  40 2.65
  69  0.462  0.356  0.394-  29 2.01  42 2.41  39 2.65  33 2.65
  70  0.962  0.356  0.394-  30 2.01  41 2.41  40 2.65  34 2.65
  71  0.462  0.856  0.394-  31 2.01  44 2.41  37 2.65  35 2.65
  72  0.962  0.856  0.394-  32 2.01  43 2.41  38 2.65  36 2.65
  73  0.038  0.469  0.154-  30 2.01  27 2.01  49 2.51  56 2.51
  74  0.538  0.469  0.154-  29 2.01  28 2.01  50 2.51  55 2.51
  75  0.038  0.969  0.154-  32 2.01  25 2.01  51 2.51  54 2.51
  76  0.538  0.969  0.154-  31 2.01  26 2.01  52 2.51  53 2.51
  77  0.289  0.219  0.154-  25 2.01  29 2.01  53 2.52  49 2.52
  78  0.789  0.219  0.154-  26 2.01  30 2.01  54 2.52  50 2.52
  79  0.289  0.719  0.154-  27 2.01  31 2.01  55 2.52  51 2.52
  80  0.789  0.719  0.154-  28 2.01  32 2.01  56 2.52  52 2.52
  81  0.211  0.469  0.846-  21 2.01  19 2.01  49 2.52  55 2.52
  82  0.711  0.469  0.846-  22 2.01  20 2.01  50 2.52  56 2.52
  83  0.211  0.969  0.846-  23 2.01  17 2.01  51 2.52  53 2.52
  84  0.711  0.969  0.846-  24 2.01  18 2.01  52 2.52  54 2.52
  85  0.462  0.219  0.846-  18 2.01  21 2.01  53 2.51  50 2.51
  86  0.962  0.219  0.846-  17 2.01  22 2.01  54 2.51  49 2.51
  87  0.462  0.719  0.846-  20 2.01  23 2.01  55 2.51  52 2.51
  88  0.962  0.719  0.846-  19 2.01  24 2.01  56 2.51  51 2.51
 

IMPORTANT INFORMATION: All symmetrisations will be switched off!
NOSYMM: (Re-)initialisation of all symmetry stuff for point group C_1.

 
 
 KPOINTS: # No comment                            

Automatic generation of k-mesh.
Space group operators:
 irot       det(A)        alpha          n_x          n_y          n_z        tau_x        tau_y        tau_z
    1     1.000000     0.000000     1.000000     0.000000     0.000000     0.000000     0.000000     0.000000
 
 Subroutine IBZKPT returns following result:
 ===========================================
 
 Found     14 irreducible k-points:
 
 Following reciprocal coordinates:
            Coordinates               Weight
  0.000000  0.000000  0.000000      1.000000
  0.333333  0.000000  0.000000      2.000000
  0.000000  0.333333  0.000000      2.000000
  0.333333  0.333333  0.000000      2.000000
 -0.333333  0.333333 -0.000000      2.000000
  0.000000  0.000000  0.333333      2.000000
  0.333333  0.000000  0.333333      2.000000
 -0.333333  0.000000  0.333333      2.000000
  0.000000  0.333333  0.333333      2.000000
  0.333333  0.333333  0.333333      2.000000
 -0.333333  0.333333  0.333333      2.000000
  0.000000 -0.333333  0.333333      2.000000
  0.333333 -0.333333  0.333333      2.000000
 -0.333333 -0.333333  0.333333      2.000000
 
 Following cartesian coordinates:
            Coordinates               Weight
  0.000000  0.000000  0.000000      1.000000
  0.029997  0.000000  0.008162      2.000000
  0.000000  0.029983  0.000000      2.000000
  0.029997  0.029983  0.008162      2.000000
 -0.029997  0.029983 -0.008162      2.000000
  0.000001  0.000000  0.032684      2.000000
  0.029998  0.000000  0.040846      2.000000
 -0.029996  0.000000  0.024522      2.000000
  0.000001  0.029983  0.032684      2.000000
  0.029998  0.029983  0.040846      2.000000
 -0.029996  0.029983  0.024522      2.000000
  0.000001 -0.029983  0.032684      2.000000
  0.029998 -0.029983  0.040846      2.000000
 -0.029996 -0.029983  0.024522      2.000000
 


--------------------------------------------------------------------------------------------------------




 Dimension of arrays:
   k-points           NKPTS =     14   k-points in BZ     NKDIM =     14   number of bands    NBANDS=    538
   number of dos      NEDOS =    301   number of ions     NIONS =     88
   non local maximal  LDIM  =      6   non local SUM 2l+1 LMDIM =     18
   total plane-waves  NPLWV = 829440
   max r-space proj   IRMAX =      1   max aug-charges    IRDMAX= 166102
   dimension x,y,z NGX =    96 NGY =   96 NGZ =   90
   dimension x,y,z NGXF=   192 NGYF=  192 NGZF=  180
   support grid    NGXF=   384 NGYF=  384 NGZF=  360
   ions per type =              16  16  24  32
   NGX,Y,Z   is equivalent  to a cutoff of  14.36, 14.36, 14.16 a.u.
   NGXF,Y,Z  is equivalent  to a cutoff of  28.72, 28.71, 28.31 a.u.

 SYSTEM =  unknown system                          
 POSCAR =  # Compound: Li16O16S24Fe32. Old comment:

 Startparameter for this run:
   NWRITE =      1    write-flag & timer
   PREC   = accura    normal or accurate (medium, high low for compatibility)
   ISTART =      0    job   : 0-new  1-cont  2-samecut
   ICHARG =      1    charge: 1-file 2-atom 10-const
   ISPIN  =      2    spin polarized calculation?
   LNONCOLLINEAR =      F non collinear calculations
   LSORBIT =      F    spin-orbit coupling
   INIWAV =      1    electr: 0-lowe 1-rand  2-diag
   LASPH  =      T    aspherical Exc in radial PAW
   METAGGA=      F    non-selfconsistent MetaGGA calc.

 Electronic Relaxation 1
   ENCUT  =  650.0 eV  47.77 Ry    6.91 a.u.  23.10 23.11 21.97*2*pi/ulx,y,z
   ENINI  =  650.0     initial cutoff
   ENAUG  =  628.9 eV  augmentation charge cutoff
   NELM   =    200;   NELMIN=  8; NELMDL=  0     # of ELM steps 
   EDIFF  = 0.1E-05   stopping-criterion for ELM
   LREAL  =      F    real-space projection
   NLSPLINE    = F    spline interpolate recip. space projectors
   LCOMPAT=      F    compatible to vasp.4.4
   GGA_COMPAT  = T    GGA compatible to vasp.4.4-vasp.4.6
   LMAXPAW     = -100 max onsite density
   LMAXMIX     =    4 max onsite mixed and CHGCAR
   VOSKOWN=      0    Vosko Wilk Nusair interpolation
   ROPT   =    0.00000   0.00000   0.00000   0.00000
 Ionic relaxation
   EDIFFG = 0.1E-04   stopping-criterion for IOM
   NSW    =      0    number of steps for IOM
   NBLOCK =      1;   KBLOCK =      1    inner block; outer block 
   IBRION =     -1    ionic relax: 0-MD 1-quasi-New 2-CG
   NFREE  =      0    steps in history (QN), initial steepest desc. (CG)
   ISIF   =      2    stress and relaxation
   IWAVPR =     10    prediction:  0-non 1-charg 2-wave 3-comb
   ISYM   =      0    0-nonsym 1-usesym 2-fastsym
   LCORR  =      T    Harris-Foulkes like correction to forces

   POTIM  = 0.5000    time-step for ionic-motion
   TEIN   =    0.0    initial temperature
   TEBEG  =    0.0;   TEEND  =   0.0 temperature during run
   SMASS  =  -3.00    Nose mass-parameter (am)
   estimated Nose-frequenzy (Omega)   =  0.10E-29 period in steps =****** mass=  -0.282E-26a.u.
   SCALEE = 1.0000    scale energy and forces
   NPACO  =    256;   APACO  = 16.0  distance and # of slots for P.C.
   PSTRESS=    0.0 pullay stress

  Mass of Ions in am
   POMASS =   7.01 16.00 32.07 55.85
  Ionic Valenz
   ZVAL   =   3.00  6.00  6.00 14.00
  Atomic Wigner-Seitz radii
   RWIGS  =  -1.00 -1.00 -1.00 -1.00
  virtual crystal weights 
   VCA    =   1.00  1.00  1.00  1.00
   NELECT =     736.0000    total number of electrons
   NUPDOWN=      -1.0000    fix difference up-down

 DOS related values:
   EMIN   =  10.00;   EMAX   =-10.00  energy-range for DOS
   EFERMI =   0.00
   ISMEAR =     0;   SIGMA  =   0.05  broadening in eV -4-tet -1-fermi 0-gaus

 Electronic relaxation 2 (details)
   IALGO  =     38    algorithm
   LDIAG  =      T    sub-space diagonalisation (order eigenvalues)
   LSUBROT=      F    optimize rotation matrix (better conditioning)
   TURBO    =      0    0=normal 1=particle mesh
   IRESTART =      0    0=no restart 2=restart with 2 vectors
   NREBOOT  =      0    no. of reboots
   NMIN     =      0    reboot dimension
   EREF     =   0.00    reference energy to select bands
   IMIX   =      4    mixing-type and parameters
     AMIX     =   0.40;   BMIX     =  1.00
     AMIX_MAG =   1.60;   BMIX_MAG =  1.00
     AMIN     =   0.10
     WC   =   100.;   INIMIX=   1;  MIXPRE=   1;  MAXMIX= -45

 Intra band minimization:
   WEIMIN = 0.0000     energy-eigenvalue tresh-hold
   EBREAK =  0.46E-09  absolut break condition
   DEPER  =   0.30     relativ break condition  

   TIME   =   0.40     timestep for ELM

  volume/ion in A,a.u.               =      14.32        96.62
  Fermi-wavevector in a.u.,A,eV,Ry     =   1.368520  2.586127 25.481613  1.872846
  Thomas-Fermi vector in A             =   2.494476
 
 Write flags
   LWAVE        =      F    write WAVECAR
   LDOWNSAMPLE  =      F    k-point downsampling of WAVECAR
   LCHARG       =      T    write CHGCAR
   LVTOT        =      F    write LOCPOT, total local potential
   LVHAR        =      F    write LOCPOT, Hartree potential only
   LELF         =      F    write electronic localiz. function (ELF)
   LORBIT       =      0    0 simple, 1 ext, 2 COOP (PROOUT), +10 PAW based schemes


 Dipole corrections
   LMONO  =      F    monopole corrections only (constant potential shift)
   LDIPOL =      F    correct potential (dipole corrections)
   IDIPOL =      0    1-x, 2-y, 3-z, 4-all directions 
   EPSILON=  1.0000000 bulk dielectric constant

 LDA+U is selected, type is set to LDAUTYPE =  2
   angular momentum for each species LDAUL =    -1   -1   -1    2
   U (eV)           for each species LDAUU =   0.0  0.0  0.0  4.0
   J (eV)           for each species LDAUJ =   0.0  0.0  0.0  0.0
 Exchange correlation treatment:
   GGA     =    PE    GGA type
   LEXCH   =     8    internal setting for exchange type
   VOSKOWN=      0    Vosko Wilk Nusair interpolation
   LHFCALC =     F    Hartree Fock is set to
   LHFONE  =     F    Hartree Fock one center treatment
   AEXX    =    0.0000 exact exchange contribution

 Linear response parameters
   LEPSILON=     F    determine dielectric tensor
   LRPA    =     F    only Hartree local field effects (RPA)
   LNABLA  =     F    use nabla operator in PAW spheres
   LVEL    =     F    velocity operator in full k-point grid
   LINTERFAST=   F  fast interpolation
   KINTER  =     0    interpolate to denser k-point grid
   CSHIFT  =0.1000    complex shift for real part using Kramers Kronig
   OMEGAMAX=  -1.0    maximum frequency
   DEG_THRESHOLD= 0.2000000E-02 threshold for treating states as degnerate
   RTIME   =   -0.100 relaxation time in fs
  (WPLASMAI=    0.000 imaginary part of plasma frequency in eV, 0.658/RTIME)
   DFIELD  = 0.0000000 0.0000000 0.0000000 field for delta impulse in time
 
 Orbital magnetization related:
   ORBITALMAG=     F  switch on orbital magnetization
   LCHIMAG   =     F  perturbation theory with respect to B field
   DQ        =  0.001000  dq finite difference perturbation B field
   LLRAUG    =     F  two centre corrections for induced B field



--------------------------------------------------------------------------------------------------------


 Static calculation
 charge density and potential will be updated during run
 spin polarized calculation
 Variant of blocked Davidson
 Davidson routine will perform the subspace rotation
 perform sub-space diagonalisation
    after iterative eigenvector-optimisation
 modified Broyden-mixing scheme, WC =      100.0
 initial mixing is a Kerker type mixing with AMIX =  0.4000 and BMIX =      1.0000
 Hartree-type preconditioning will be used
 using additional bands          170
 reciprocal scheme for non local part
 use partial core corrections
 calculate Harris-corrections to forces 
   (improved forces if not selfconsistent)
 use gradient corrections 
 use of overlap-Matrix (Vanderbilt PP)
 Gauss-broadening in eV      SIGMA  =   0.05


--------------------------------------------------------------------------------------------------------


  energy-cutoff  :      650.00
  volume of cell :     1259.94
      direct lattice vectors                 reciprocal lattice vectors
    11.112233740  0.000000000 -0.000290340     0.089991547  0.000000000  0.024487024
     0.000000000 11.117451940  0.000000000     0.000000000  0.089948669  0.000000000
    -2.775108980  0.000000000 10.198722210     0.000002562  0.000000000  0.098052196

  length of vectors
    11.112233744 11.117451940 10.569539468     0.093263567  0.089948669  0.098052196


 
 k-points in units of 2pi/SCALE and weight: # No comment                            
   0.00000000  0.00000000  0.00000000       0.037
   0.02999718  0.00000000  0.00816234       0.074
   0.00000000  0.02998289  0.00000000       0.074
   0.02999718  0.02998289  0.00816234       0.074
  -0.02999718  0.02998289 -0.00816234       0.074
   0.00000085  0.00000000  0.03268407       0.074
   0.02999804  0.00000000  0.04084641       0.074
  -0.02999633  0.00000000  0.02452172       0.074
   0.00000085  0.02998289  0.03268407       0.074
   0.02999804  0.02998289  0.04084641       0.074
  -0.02999633  0.02998289  0.02452172       0.074
   0.00000085 -0.02998289  0.03268407       0.074
   0.02999804 -0.02998289  0.04084641       0.074
  -0.02999633 -0.02998289  0.02452172       0.074
 
 k-points in reciprocal lattice and weights: # No comment                            
   0.00000000  0.00000000  0.00000000       0.037
   0.33333333  0.00000000  0.00000000       0.074
   0.00000000  0.33333333  0.00000000       0.074
   0.33333333  0.33333333  0.00000000       0.074
  -0.33333333  0.33333333 -0.00000000       0.074
   0.00000000  0.00000000  0.33333333       0.074
   0.33333333  0.00000000  0.33333333       0.074
  -0.33333333  0.00000000  0.33333333       0.074
   0.00000000  0.33333333  0.33333333       0.074
   0.33333333  0.33333333  0.33333333       0.074
  -0.33333333  0.33333333  0.33333333       0.074
   0.00000000 -0.33333333  0.33333333       0.074
   0.33333333 -0.33333333  0.33333333       0.074
  -0.33333333 -0.33333333  0.33333333       0.074
 
 position of ions in fractional coordinates (direct lattice) 
   0.28894969  0.46933910  0.15583616
   0.78894969  0.46933910  0.15583616
   0.28894969  0.96933910  0.15583616
   0.78894969  0.96933910  0.15583616
   0.04646972  0.21934976  0.18586770
   0.54646972  0.21934976  0.18586770
   0.04646972  0.71934976  0.18586770
   0.54646972  0.71934976  0.18586770
   0.45353028  0.46934976  0.81413230
   0.95353028  0.46934976  0.81413230
   0.45353028  0.96934976  0.81413230
   0.95353028  0.96934976  0.81413230
   0.21105031  0.21933910  0.84416384
   0.71105031  0.21933910  0.84416384
   0.21105031  0.71933910  0.84416384
   0.71105031  0.71933910  0.84416384
   0.07654971  0.09530995  0.80250593
   0.57654971  0.09530995  0.80250593
   0.07654971  0.59530995  0.80250593
   0.57654971  0.59530995  0.80250593
   0.32470466  0.34338175  0.80250383
   0.82470466  0.34338175  0.80250383
   0.32470466  0.84338175  0.80250383
   0.82470466  0.84338175  0.80250383
   0.17529534  0.09338175  0.19749617
   0.67529534  0.09338175  0.19749617
   0.17529534  0.59338175  0.19749617
   0.67529534  0.59338175  0.19749617
   0.42345029  0.34530995  0.19749407
   0.92345029  0.34530995  0.19749407
   0.42345029  0.84530995  0.19749407
   0.92345029  0.84530995  0.19749407
   0.21868463  0.34523395  0.37102476
   0.71868463  0.34523395  0.37102476
   0.21868463  0.84523395  0.37102476
   0.71868463  0.84523395  0.37102476
   0.46681660  0.09344897  0.37102399
   0.96681660  0.09344897  0.37102399
   0.46681660  0.59344897  0.37102399
   0.96681660  0.59344897  0.37102399
   0.03318340  0.34344897  0.62897601
   0.53318340  0.34344897  0.62897601
   0.03318340  0.84344897  0.62897601
   0.53318340  0.84344897  0.62897601
   0.28131537  0.09523395  0.62897524
   0.78131537  0.09523395  0.62897524
   0.28131537  0.59523395  0.62897524
   0.78131537  0.59523395  0.62897524
   0.12439279  0.34434306  0.00000412
   0.62439279  0.34434306  0.00000412
   0.12439279  0.84434306  0.00000412
   0.62439279  0.84434306  0.00000412
   0.37560721  0.09434306  0.99999588
   0.87560721  0.09434306  0.99999588
   0.37560721  0.59434306  0.99999588
   0.87560721  0.59434306  0.99999588
   0.03824426  0.10634799  0.60632306
   0.53824426  0.10634799  0.60632306
   0.03824426  0.60634799  0.60632306
   0.53824426  0.60634799  0.60632306
   0.26492712  0.33232651  0.60538151
   0.76492712  0.33232651  0.60632763
   0.26492712  0.83232651  0.60632763
   0.76492712  0.83232651  0.60632763
   0.23507288  0.08232651  0.39367237
   0.73507288  0.08232651  0.39367237
   0.23507288  0.58232651  0.39367237
   0.73507288  0.58232651  0.39367237
   0.46175574  0.35634799  0.39367694
   0.96175574  0.35634799  0.39367694
   0.46175574  0.85634799  0.39367694
   0.96175574  0.85634799  0.39367694
   0.03848398  0.46936404  0.15397331
   0.53848398  0.46936404  0.15397331
   0.03848398  0.96936404  0.15397331
   0.53848398  0.96936404  0.15397331
   0.28861657  0.21935690  0.15447525
   0.78861657  0.21935690  0.15447525
   0.28861657  0.71935690  0.15447525
   0.78861657  0.71935690  0.15447525
   0.21138343  0.46935690  0.84552475
   0.71138343  0.46935690  0.84552475
   0.21138343  0.96935690  0.84552475
   0.71138343  0.96935690  0.84552475
   0.46151602  0.21936404  0.84602669
   0.96151602  0.21936404  0.84602669
   0.46151602  0.71936404  0.84602669
   0.96151602  0.71936404  0.84602669
 
 position of ions in cartesian coordinates  (Angst):
   2.77841422  5.21785483  1.58924581
   8.33453109  5.21785483  1.58910064
   2.77841422 10.77658080  1.58924581
   8.33453109 10.77658080  1.58910064
   0.00057921  2.43861041  1.89559955
   5.55669608  2.43861041  1.89545438
   0.00057921  7.99733638  1.89559955
   5.55669608  7.99733638  1.89545438
   2.78042868  5.21797340  8.30297749
   8.33654555  5.21797340  8.30283232
   2.78042868 10.77669937  8.30297749
   8.33654555 10.77669937  8.30283232
   0.00259367  2.43849185  8.60933123
   5.55871054  2.43849185  8.60918606
   0.00259367  7.99721782  8.60933123
   5.55871054  7.99721782  8.60918606
  -1.37640314  1.05960384  8.18451283
   4.17971373  1.05960384  8.18436766
  -1.37640314  6.61832981  8.18451283
   4.17971373  6.61832981  8.18436766
   1.38115855  3.81753010  8.18441936
   6.93727542  3.81753010  8.18427419
   1.38115855  9.37625607  8.18441936
   6.93727542  9.37625607  8.18427419
   1.39984934  1.03816712  2.01415768
   6.95596621  1.03816712  2.01401251
   1.39984934  6.59689309  2.01415768
   6.95596621  6.59689309  2.01401251
   4.15741103  3.83896683  2.01406421
   9.71352790  3.83896683  2.01391904
   4.15741103  9.39769280  2.01406421
   9.71352790  9.39769280  2.01391904
   1.40044058  3.83812185  3.78391497
   6.95655745  3.83812185  3.78376980
   1.40044058  9.39684782  3.78391497
   6.95655745  9.39684782  3.78376980
   4.15774317  1.03891443  3.78383507
   9.71386004  1.03891443  3.78368990
   4.15774317  6.59764040  3.78383507
   9.71386004  6.59764040  3.78368990
  -1.37673528  3.81827742  6.41474197
   4.17938159  3.81827742  6.41459680
  -1.37673528  9.37700339  6.41474197
   4.17938159  9.37700339  6.41459680
   1.38056731  1.05875886  6.41466207
   6.93668418  1.05875886  6.41451690
   1.38056731  6.61748483  6.41466207
   6.93668418  6.61748483  6.41451690
   1.38227032  3.82821742  0.00000590
   6.93838719  3.82821742 -0.00013927
   1.38227032  9.38694339  0.00000590
   6.93838719  9.38694339 -0.00013927
   1.39873757  1.04885444 10.19857114
   6.95485444  1.04885444 10.19842597
   1.39873757  6.60758041 10.19857114
   6.95485444  6.60758041 10.19842597
  -1.25763347  1.18231867  6.18370935
   4.29848340  1.18231867  6.18356418
  -1.25763347  6.74104464  6.18370935
   4.29848340  6.74104464  6.18356418
   1.26393246  3.69462400  6.17404098
   6.81742376  3.69462400  6.18354498
   1.26130689  9.25334997  6.18369015
   6.81742376  9.25334997  6.18354498
   1.51970100  0.91526102  4.01488689
   7.07581787  0.91526102  4.01474172
   1.51970100  6.47398699  4.01488689
   7.07581787  6.47398699  4.01474172
   4.03864136  3.96168165  4.01486769
   9.59475823  3.96168165  4.01472252
   4.03864136  9.52040762  4.01486769
   9.59475823  9.52040762  4.01472252
   0.00035027  5.21813216  1.57031984
   5.55646714  5.21813216  1.57017467
   0.00035027 10.77685813  1.57031984
   5.55646714 10.77685813  1.57017467
   2.77848919  2.43868979  1.57536637
   8.33460606  2.43868979  1.57522120
   2.77848919  7.99741576  1.57536637
   8.33460606  7.99741576  1.57522120
   0.00251870  5.21805278  8.62321067
   5.55863557  5.21805278  8.62306550
   0.00251870 10.77677875  8.62321067
   5.55863557 10.77677875  8.62306550
   2.78065762  2.43876917  8.62825720
   8.33677449  2.43876917  8.62811203
   2.78065762  7.99749514  8.62825720
   8.33677449  7.99749514  8.62811203
 


--------------------------------------------------------------------------------------------------------


 k-point  1 :   0.0000 0.0000 0.0000  plane waves:   47369
 k-point  2 :   0.3333 0.0000 0.0000  plane waves:   47373
 k-point  3 :   0.0000 0.3333 0.0000  plane waves:   47370
 k-point  4 :   0.3333 0.3333 0.0000  plane waves:   47404
 k-point  5 :  -0.3333 0.3333-0.0000  plane waves:   47404
 k-point  6 :   0.0000 0.0000 0.3333  plane waves:   47419
 k-point  7 :   0.3333 0.0000 0.3333  plane waves:   47399
 k-point  8 :  -0.3333 0.0000 0.3333  plane waves:   47417
 k-point  9 :   0.0000 0.3333 0.3333  plane waves:   47409
 k-point 10 :   0.3333 0.3333 0.3333  plane waves:   47422
 k-point 11 :  -0.3333 0.3333 0.3333  plane waves:   47440
 k-point 12 :   0.0000-0.3333 0.3333  plane waves:   47409
 k-point 13 :   0.3333-0.3333 0.3333  plane waves:   47422
 k-point 14 :  -0.3333-0.3333 0.3333  plane waves:   47440

 maximum and minimum number of plane-waves per node :      7942     7858

 maximum number of plane-waves:     47440
 maximum index in each direction: 
   IXMAX=   23   IYMAX=   23   IZMAX=   21
   IXMIN=  -23   IYMIN=  -23   IZMIN=  -22


 parallel 3D FFT for wavefunctions:
    minimum data exchange during FFTs selected (reduces bandwidth)
 parallel 3D FFT for charge:
    minimum data exchange during FFTs selected (reduces bandwidth)


 total amount of memory used by VASP MPI-rank0  1233264. kBytes
=======================================================================

   base      :      30000. kBytes
   nonl-proj :      75226. kBytes
   fftplans  :      85054. kBytes
   grid      :      64684. kBytes
   one-center:        466. kBytes
   wavefun   :     977834. kBytes
 
     INWAV:  cpu time    0.0000: real time    0.0000
 Broyden mixing: mesh for mixing (old mesh)
   NGX = 47   NGY = 47   NGZ = 43
  (NGX  =192   NGY  =192   NGZ  =180)
  gives a total of  94987 points

 initial charge density was supplied:
 number of electron     736.0000016 magnetization     127.9999885
 keeping initial charge density in first step


--------------------------------------------------------------------------------------------------------


 Maximum index for augmentation-charges        13229 (set IRDMAX)


--------------------------------------------------------------------------------------------------------


 First call to EWALD:  gamma=   0.164
 Maximum number of real-space cells 3x 3x 3
 Maximum number of reciprocal cells 3x 3x 3

    FEWALD:  cpu time    0.0050: real time    0.0050


--------------------------------------- Iteration      1(   1)  ---------------------------------------


    POTLOK:  cpu time    1.0429: real time    1.0712
    SETDIJ:  cpu time    2.2777: real time    2.3001
     EDDAV:  cpu time  309.5485: real time  312.8199
       DOS:  cpu time    0.0086: real time    0.0087
    --------------------------------------------
      LOOP:  cpu time  312.8778: real time  316.1999

 eigenvalue-minimisations  : 30944
 total energy-change (2. order) : 0.1040957E+05  (-0.4118852E+05)
 number of electron     736.0000016 magnetization     127.9999885
 augmentation part      736.0000016 magnetization     127.9999885

 Free energy of the ion-electron system (eV)
  ---------------------------------------------------
  alpha Z        PSCENC =      2314.49656628
  Ewald energy   TEWEN  =    -57724.81561720
  -Hartree energ DENC   =    -30347.16685598
  -exchange      EXHF   =         0.00000000
  -V(xc)+E(xc)   XCENC  =      3229.29538760
  PAW double counting   =     92679.89207989   -95535.38516353
  entropy T*S    EENTRO =        -0.01852223
  eigenvalues    EBANDS =       349.79132840
  atomic energy  EATOM  =     95443.47970955
  Solvation  Ediel_sol  =         0.00000000
  ---------------------------------------------------
  free energy    TOTEN  =     10409.56891277 eV

  energy without entropy =    10409.58743500  energy(sigma->0) =    10409.57817389


--------------------------------------------------------------------------------------------------------




--------------------------------------- Iteration      1(   2)  ---------------------------------------


     EDDAV:  cpu time  304.2111: real time  306.7713
       DOS:  cpu time    0.0084: real time    0.0084
    --------------------------------------------
      LOOP:  cpu time  304.2195: real time  306.7797

 eigenvalue-minimisations  : 30128
 total energy-change (2. order) :-0.9232087E+04  (-0.8658377E+04)
 number of electron     736.0000016 magnetization     127.9999885
 augmentation part      736.0000016 magnetization     127.9999885

 Free energy of the ion-electron system (eV)
  ---------------------------------------------------
  alpha Z        PSCENC =      2314.49656628
  Ewald energy   TEWEN  =    -57724.81561720
  -Hartree energ DENC   =    -30347.16685598
  -exchange      EXHF   =         0.00000000
  -V(xc)+E(xc)   XCENC  =      3229.29538760
  PAW double counting   =     92679.89207989   -95535.38516353
  entropy T*S    EENTRO =        -0.06581917
  eigenvalues    EBANDS =     -8882.24840425
  atomic energy  EATOM  =     95443.47970955
  Solvation  Ediel_sol  =         0.00000000
  ---------------------------------------------------
  free energy    TOTEN  =      1177.48188318 eV

  energy without entropy =     1177.54770235  energy(sigma->0) =     1177.51479276


--------------------------------------------------------------------------------------------------------




--------------------------------------- Iteration      1(   3)  ---------------------------------------


     EDDAV:  cpu time  321.0703: real time  323.9768
       DOS:  cpu time    0.0024: real time    0.0024
    --------------------------------------------
      LOOP:  cpu time  321.0727: real time  323.9793

 eigenvalue-minimisations  : 32368
 total energy-change (2. order) :-0.1485587E+04  (-0.1278903E+04)
 number of electron     736.0000016 magnetization     127.9999885
 augmentation part      736.0000016 magnetization     127.9999885

 Free energy of the ion-electron system (eV)
  ---------------------------------------------------
  alpha Z        PSCENC =      2314.49656628
  Ewald energy   TEWEN  =    -57724.81561720
  -Hartree energ DENC   =    -30347.16685598
  -exchange      EXHF   =         0.00000000
  -V(xc)+E(xc)   XCENC  =      3229.29538760
  PAW double counting   =     92679.89207989   -95535.38516353
  entropy T*S    EENTRO =        -0.00000000
  eigenvalues    EBANDS =    -10367.90149531
  atomic energy  EATOM  =     95443.47970955
  Solvation  Ediel_sol  =         0.00000000
  ---------------------------------------------------
  free energy    TOTEN  =      -308.10538871 eV

  energy without entropy =     -308.10538871  energy(sigma->0) =     -308.10538871


--------------------------------------------------------------------------------------------------------




--------------------------------------- Iteration      1(   4)  ---------------------------------------


     EDDAV:  cpu time  343.6349: real time  346.8673
       DOS:  cpu time    0.0025: real time    0.0025
    --------------------------------------------
      LOOP:  cpu time  343.6373: real time  346.8698

 eigenvalue-minimisations  : 35040
 total energy-change (2. order) :-0.1681934E+03  (-0.1654346E+03)
 number of electron     736.0000016 magnetization     127.9999885
 augmentation part      736.0000016 magnetization     127.9999885

 Free energy of the ion-electron system (eV)
  ---------------------------------------------------
  alpha Z        PSCENC =      2314.49656628
  Ewald energy   TEWEN  =    -57724.81561720
  -Hartree energ DENC   =    -30347.16685598
  -exchange      EXHF   =         0.00000000
  -V(xc)+E(xc)   XCENC  =      3229.29538760
  PAW double counting   =     92679.89207989   -95535.38516353
  entropy T*S    EENTRO =        -0.00000000
  eigenvalues    EBANDS =    -10536.09485286
  atomic energy  EATOM  =     95443.47970955
  Solvation  Ediel_sol  =         0.00000000
  ---------------------------------------------------
  free energy    TOTEN  =      -476.29874626 eV

  energy without entropy =     -476.29874626  energy(sigma->0) =     -476.29874626


--------------------------------------------------------------------------------------------------------




--------------------------------------- Iteration      1(   5)  ---------------------------------------


     EDDAV:  cpu time  453.2494: real time  457.2587
       DOS:  cpu time    0.0030: real time    0.0030
    CHARGE:  cpu time    9.3145: real time    9.3581
    MIXING:  cpu time    0.0262: real time    0.0262
    --------------------------------------------
      LOOP:  cpu time  462.5931: real time  466.6460

 eigenvalue-minimisations  : 49792
 total energy-change (2. order) :-0.1243165E+02  (-0.1230862E+02)
 number of electron     736.0000016 magnetization     127.9999932
 augmentation part      278.4629725 magnetization      84.1322993

 Broyden mixing:
  rms(total) = 0.21533E+00    rms(broyden)= 0.21516E+00
  rms(prec ) = 0.21868E+00
  weight for this iteration     100.00

 Free energy of the ion-electron system (eV)
  ---------------------------------------------------
  alpha Z        PSCENC =      2314.49656628
  Ewald energy   TEWEN  =    -57724.81561720
  -Hartree energ DENC   =    -30347.16685598
  -exchange      EXHF   =         0.00000000
  -V(xc)+E(xc)   XCENC  =      3229.29538760
  PAW double counting   =     92679.89207989   -95535.38516353
  entropy T*S    EENTRO =        -0.00000000
  eigenvalues    EBANDS =    -10548.52650333
  atomic energy  EATOM  =     95443.47970955
  Solvation  Ediel_sol  =         0.00000000
  ---------------------------------------------------
  free energy    TOTEN  =      -488.73039673 eV

  energy without entropy =     -488.73039673  energy(sigma->0) =     -488.73039673


--------------------------------------------------------------------------------------------------------




--------------------------------------- Iteration      1(   6)  ---------------------------------------


    POTLOK:  cpu time    1.0486: real time    1.0510
    SETDIJ:  cpu time    2.2969: real time    2.3050
     EDDAV:  cpu time  400.5878: real time  404.1459
       DOS:  cpu time    0.0025: real time    0.0025
    CHARGE:  cpu time    9.2203: real time    9.3284
    MIXING:  cpu time    0.0359: real time    0.0381
    --------------------------------------------
      LOOP:  cpu time  413.1921: real time  416.8709

 eigenvalue-minimisations  : 42456
 total energy-change (2. order) :-0.4691713E+00  (-0.4806557E+00)
 number of electron     736.0000016 magnetization     127.9999951
 augmentation part      277.9595799 magnetization      84.1616556

 Broyden mixing:
  rms(total) = 0.10609E+00    rms(broyden)= 0.10593E+00
  rms(prec ) = 0.10679E+00
  weight for this iteration     100.00

 eigenvalues of (default mixing * dielectric matrix)
  average eigenvalue GAMMA=   0.6631
  0.6631

 Free energy of the ion-electron system (eV)
  ---------------------------------------------------
  alpha Z        PSCENC =      2314.49656628
  Ewald energy   TEWEN  =    -57724.81561720
  -Hartree energ DENC   =    -30345.33851603
  -exchange      EXHF   =         0.00000000
  -V(xc)+E(xc)   XCENC  =      3228.99265703
  PAW double counting   =     92522.85012439   -95376.68898977
  entropy T*S    EENTRO =        -0.00000000
  eigenvalues    EBANDS =    -10552.17550232
  atomic energy  EATOM  =     95443.47970955
  Solvation  Ediel_sol  =         0.00000000
  ---------------------------------------------------
  free energy    TOTEN  =      -489.19956807 eV

  energy without entropy =     -489.19956807  energy(sigma->0) =     -489.19956807


--------------------------------------------------------------------------------------------------------




--------------------------------------- Iteration      1(   7)  ---------------------------------------


    POTLOK:  cpu time    1.0423: real time    1.0538
    SETDIJ:  cpu time    2.2723: real time    2.3018
     EDDAV:  cpu time  421.1561: real time  425.2525
       DOS:  cpu time    0.0026: real time    0.0026
    CHARGE:  cpu time    9.1975: real time    9.3150
    MIXING:  cpu time    0.0301: real time    0.0301
    --------------------------------------------
      LOOP:  cpu time  433.7009: real time  437.9558

 eigenvalue-minimisations  : 45568
 total energy-change (2. order) :-0.1724873E-01  (-0.1761955E-01)
 number of electron     736.0000016 magnetization     127.9999959
 augmentation part      277.8792524 magnetization      84.1537201

 Broyden mixing:
  rms(total) = 0.59831E-01    rms(broyden)= 0.59790E-01
  rms(prec ) = 0.61263E-01
  weight for this iteration     100.00

 eigenvalues of (default mixing * dielectric matrix)
  average eigenvalue GAMMA=   0.5658
  0.5658  0.5658

 Free energy of the ion-electron system (eV)
  ---------------------------------------------------
  alpha Z        PSCENC =      2314.49656628
  Ewald energy   TEWEN  =    -57724.81561720
  -Hartree energ DENC   =    -30346.26557218
  -exchange      EXHF   =         0.00000000
  -V(xc)+E(xc)   XCENC  =      3229.07765419
  PAW double counting   =     92580.16359265   -95434.57084869
  entropy T*S    EENTRO =        -0.00000000
  eigenvalues    EBANDS =    -10550.78230139
  atomic energy  EATOM  =     95443.47970955
  Solvation  Ediel_sol  =         0.00000000
  ---------------------------------------------------
  free energy    TOTEN  =      -489.21681680 eV

  energy without entropy =     -489.21681680  energy(sigma->0) =     -489.21681680


--------------------------------------------------------------------------------------------------------




--------------------------------------- Iteration      1(   8)  ---------------------------------------


    POTLOK:  cpu time    1.0295: real time    1.0533
    SETDIJ:  cpu time    2.2589: real time    2.3023
     EDDAV:  cpu time  400.3113: real time  403.9921
       DOS:  cpu time    0.0026: real time    0.0027
    CHARGE:  cpu time    9.2847: real time    9.3604
    MIXING:  cpu time    0.0304: real time    0.0305
    --------------------------------------------
      LOOP:  cpu time  412.9175: real time  416.7413

 eigenvalue-minimisations  : 42856
 total energy-change (2. order) : 0.4506810E-03  (-0.3771920E-03)
 number of electron     736.0000016 magnetization     127.9999966
 augmentation part      277.8706509 magnetization      84.1560088

 Broyden mixing:
  rms(total) = 0.53336E-01    rms(broyden)= 0.53332E-01
  rms(prec ) = 0.54602E-01
  weight for this iteration     100.00

 eigenvalues of (default mixing * dielectric matrix)
  average eigenvalue GAMMA=   0.5977
  0.6409  0.6409  0.5113

 Free energy of the ion-electron system (eV)
  ---------------------------------------------------
  alpha Z        PSCENC =      2314.49656628
  Ewald energy   TEWEN  =    -57724.81561720
  -Hartree energ DENC   =    -30346.24152555
  -exchange      EXHF   =         0.00000000
  -V(xc)+E(xc)   XCENC  =      3229.10664046
  PAW double counting   =     92593.90141411   -95448.44623328
  entropy T*S    EENTRO =        -0.00000000
  eigenvalues    EBANDS =    -10550.69732049
  atomic energy  EATOM  =     95443.47970955
  Solvation  Ediel_sol  =         0.00000000
  ---------------------------------------------------
  free energy    TOTEN  =      -489.21636612 eV

  energy without entropy =     -489.21636612  energy(sigma->0) =     -489.21636612


--------------------------------------------------------------------------------------------------------




--------------------------------------- Iteration      1(   9)  ---------------------------------------


    POTLOK:  cpu time    1.0493: real time    1.0520
    SETDIJ:  cpu time    2.3043: real time    2.3057
     EDDAV:  cpu time  444.0036: real time  447.8751
       DOS:  cpu time    0.0027: real time    0.0027
    CHARGE:  cpu time    9.0620: real time    9.2687
    MIXING:  cpu time    0.0321: real time    0.0321
    --------------------------------------------
      LOOP:  cpu time  456.4540: real time  460.5363

 eigenvalue-minimisations  : 48392
 total energy-change (2. order) : 0.6661662E-03  (-0.2220274E-04)
 number of electron     736.0000016 magnetization     127.9999996
 augmentation part      277.8731790 magnetization      84.1563105

 Broyden mixing:
  rms(total) = 0.43286E-01    rms(broyden)= 0.43286E-01
  rms(prec ) = 0.44257E-01
  weight for this iteration     100.00

 eigenvalues of (default mixing * dielectric matrix)
  average eigenvalue GAMMA=   1.0881
  1.8246  1.2533  0.6373  0.6373

 Free energy of the ion-electron system (eV)
  ---------------------------------------------------
  alpha Z        PSCENC =      2314.49656628
  Ewald energy   TEWEN  =    -57724.81561720
  -Hartree energ DENC   =    -30346.36837474
  -exchange      EXHF   =         0.00000000
  -V(xc)+E(xc)   XCENC  =      3229.14510453
  PAW double counting   =     92607.43120062   -95462.15816045
  entropy T*S    EENTRO =        -0.00000000
  eigenvalues    EBANDS =    -10550.42612854
  atomic energy  EATOM  =     95443.47970955
  Solvation  Ediel_sol  =         0.00000000
  ---------------------------------------------------
  free energy    TOTEN  =      -489.21569996 eV

  energy without entropy =     -489.21569996  energy(sigma->0) =     -489.21569996


--------------------------------------------------------------------------------------------------------




--------------------------------------- Iteration      1(  10)  ---------------------------------------


    POTLOK:  cpu time    1.0478: real time    1.0498
    SETDIJ:  cpu time    2.2832: real time    2.2967
     EDDAV:  cpu time  440.0277: real time  444.1860
       DOS:  cpu time    0.0029: real time    0.0030
    CHARGE:  cpu time    9.1764: real time    9.2956
    MIXING:  cpu time    0.0409: real time    0.0461
    --------------------------------------------
      LOOP:  cpu time  452.5788: real time  456.8772

 eigenvalue-minimisations  : 48000
 total energy-change (2. order) : 0.9440757E-03  (-0.1885858E-03)
 number of electron     736.0000016 magnetization     128.0000003
 augmentation part      277.8911061 magnetization      84.1580809

 Broyden mixing:
  rms(total) = 0.89847E-02    rms(broyden)= 0.89811E-02
  rms(prec ) = 0.90158E-02
  weight for this iteration     100.00

 eigenvalues of (default mixing * dielectric matrix)
  average eigenvalue GAMMA=   1.0500
  2.4653  0.9557  0.6472  0.6472  0.5349

 Free energy of the ion-electron system (eV)
  ---------------------------------------------------
  alpha Z        PSCENC =      2314.49656628
  Ewald energy   TEWEN  =    -57724.81561720
  -Hartree energ DENC   =    -30347.10112138
  -exchange      EXHF   =         0.00000000
  -V(xc)+E(xc)   XCENC  =      3229.29383043
  PAW double counting   =     92661.07576106   -95516.50825546
  entropy T*S    EENTRO =        -0.00000000
  eigenvalues    EBANDS =    -10549.13562915
  atomic energy  EATOM  =     95443.47970955
  Solvation  Ediel_sol  =         0.00000000
  ---------------------------------------------------
  free energy    TOTEN  =      -489.21475588 eV

  energy without entropy =     -489.21475588  energy(sigma->0) =     -489.21475588


--------------------------------------------------------------------------------------------------------




--------------------------------------- Iteration      1(  11)  ---------------------------------------


    POTLOK:  cpu time    1.0436: real time    1.0506
    SETDIJ:  cpu time    2.3208: real time    2.3436
     EDDAV:  cpu time  358.6752: real time  361.3790
       DOS:  cpu time    0.0033: real time    0.0034
    CHARGE:  cpu time    9.1728: real time    9.3443
    MIXING:  cpu time    0.0300: real time    0.0312
    --------------------------------------------
      LOOP:  cpu time  371.2457: real time  374.1520

 eigenvalue-minimisations  : 37232
 total energy-change (2. order) :-0.7446404E-04  (-0.4817033E-04)
 number of electron     736.0000016 magnetization     128.0000004
 augmentation part      277.8938299 magnetization      84.1579399

 Broyden mixing:
  rms(total) = 0.62729E-02    rms(broyden)= 0.62708E-02
  rms(prec ) = 0.65865E-02
  weight for this iteration     100.00

 eigenvalues of (default mixing * dielectric matrix)
  average eigenvalue GAMMA=   1.0223
  2.5558  0.7355  0.7355  0.8876  0.6097  0.6097

 Free energy of the ion-electron system (eV)
  ---------------------------------------------------
  alpha Z        PSCENC =      2314.49656628
  Ewald energy   TEWEN  =    -57724.81561720
  -Hartree energ DENC   =    -30347.23472002
  -exchange      EXHF   =         0.00000000
  -V(xc)+E(xc)   XCENC  =      3229.31736668
  PAW double counting   =     92674.13904126   -95529.69841618
  entropy T*S    EENTRO =        -0.00000000
  eigenvalues    EBANDS =    -10548.89876071
  atomic energy  EATOM  =     95443.47970955
  Solvation  Ediel_sol  =         0.00000000
  ---------------------------------------------------
  free energy    TOTEN  =      -489.21483035 eV

  energy without entropy =     -489.21483035  energy(sigma->0) =     -489.21483035


--------------------------------------------------------------------------------------------------------




--------------------------------------- Iteration      1(  12)  ---------------------------------------


    POTLOK:  cpu time    1.0442: real time    1.0569
    SETDIJ:  cpu time    2.2599: real time    2.2907
     EDDAV:  cpu time  383.7400: real time  387.2592
       DOS:  cpu time    0.0025: real time    0.0025
    CHARGE:  cpu time    9.1593: real time    9.3142
    MIXING:  cpu time    0.0326: real time    0.0326
    --------------------------------------------
      LOOP:  cpu time  396.2385: real time  399.9560

 eigenvalue-minimisations  : 40592
 total energy-change (2. order) : 0.8385628E-05  (-0.5582845E-05)
 number of electron     736.0000016 magnetization     128.0000004
 augmentation part      277.8960264 magnetization      84.1578345

 Broyden mixing:
  rms(total) = 0.53411E-02    rms(broyden)= 0.53395E-02
  rms(prec ) = 0.56161E-02
  weight for this iteration     100.00

 eigenvalues of (default mixing * dielectric matrix)
  average eigenvalue GAMMA=   1.1501
  2.4936  1.4037  1.4037  0.9023  0.6578  0.6578  0.5317

 Free energy of the ion-electron system (eV)
  ---------------------------------------------------
  alpha Z        PSCENC =      2314.49656628
  Ewald energy   TEWEN  =    -57724.81561720
  -Hartree energ DENC   =    -30347.22341615
  -exchange      EXHF   =         0.00000000
  -V(xc)+E(xc)   XCENC  =      3229.31254418
  PAW double counting   =     92675.62302553   -95531.16471633
  entropy T*S    EENTRO =        -0.00000000
  eigenvalues    EBANDS =    -10548.92291782
  atomic energy  EATOM  =     95443.47970955
  Solvation  Ediel_sol  =         0.00000000
  ---------------------------------------------------
  free energy    TOTEN  =      -489.21482196 eV

  energy without entropy =     -489.21482196  energy(sigma->0) =     -489.21482196


--------------------------------------------------------------------------------------------------------




--------------------------------------- Iteration      1(  13)  ---------------------------------------


    POTLOK:  cpu time    1.0480: real time    1.0490
    SETDIJ:  cpu time    2.2940: real time    2.3052
     EDDAV:  cpu time  363.7034: real time  366.9499
       DOS:  cpu time    0.0027: real time    0.0027
    CHARGE:  cpu time    9.1916: real time    9.3097
    MIXING:  cpu time    0.0355: real time    0.0358
    --------------------------------------------
      LOOP:  cpu time  376.2753: real time  379.6523

 eigenvalue-minimisations  : 37952
 total energy-change (2. order) : 0.1499167E-04  (-0.2943650E-05)
 number of electron     736.0000016 magnetization     128.0000005
 augmentation part      277.8940533 magnetization      84.1575771

 Broyden mixing:
  rms(total) = 0.13498E-02    rms(broyden)= 0.13452E-02
  rms(prec ) = 0.13784E-02
  weight for this iteration     100.00

 eigenvalues of (default mixing * dielectric matrix)
  average eigenvalue GAMMA=   1.1914
  2.6633  2.1023  1.0881  1.0881  0.7180  0.7180  0.5769  0.5769

 Free energy of the ion-electron system (eV)
  ---------------------------------------------------
  alpha Z        PSCENC =      2314.49656628
  Ewald energy   TEWEN  =    -57724.81561720
  -Hartree energ DENC   =    -30347.15769303
  -exchange      EXHF   =         0.00000000
  -V(xc)+E(xc)   XCENC  =      3229.29313506
  PAW double counting   =     92676.75087958   -95532.22076129
  entropy T*S    EENTRO =        -0.00000000
  eigenvalues    EBANDS =    -10549.04102591
  atomic energy  EATOM  =     95443.47970955
  Solvation  Ediel_sol  =         0.00000000
  ---------------------------------------------------
  free energy    TOTEN  =      -489.21480697 eV

  energy without entropy =     -489.21480697  energy(sigma->0) =     -489.21480697


--------------------------------------------------------------------------------------------------------




--------------------------------------- Iteration      1(  14)  ---------------------------------------


    POTLOK:  cpu time    1.0325: real time    1.0504
    SETDIJ:  cpu time    2.3036: real time    2.3221
     EDDAV:  cpu time  324.6356: real time  327.4339
       DOS:  cpu time    0.0024: real time    0.0024
    CHARGE:  cpu time    9.3288: real time    9.3806
    MIXING:  cpu time    0.0431: real time    0.0431
    --------------------------------------------
      LOOP:  cpu time  337.3460: real time  340.2325

 eigenvalue-minimisations  : 32536
 total energy-change (2. order) :-0.4729751E-05  (-0.2279228E-05)
 number of electron     736.0000016 magnetization     128.0000005
 augmentation part      277.8924750 magnetization      84.1574421

 Broyden mixing:
  rms(total) = 0.93662E-03    rms(broyden)= 0.92988E-03
  rms(prec ) = 0.97187E-03
  weight for this iteration     100.00

 eigenvalues of (default mixing * dielectric matrix)
  average eigenvalue GAMMA=   1.1310
  2.8655  1.5491  1.5491  0.9484  0.7532  0.7532  0.6215  0.6215  0.5175

 Free energy of the ion-electron system (eV)
  ---------------------------------------------------
  alpha Z        PSCENC =      2314.49656628
  Ewald energy   TEWEN  =    -57724.81561720
  -Hartree energ DENC   =    -30347.16525521
  -exchange      EXHF   =         0.00000000
  -V(xc)+E(xc)   XCENC  =      3229.29025119
  PAW double counting   =     92678.25548649   -95533.72288851
  entropy T*S    EENTRO =        -0.00000000
  eigenvalues    EBANDS =    -10549.03306429
  atomic energy  EATOM  =     95443.47970955
  Solvation  Ediel_sol  =         0.00000000
  ---------------------------------------------------
  free energy    TOTEN  =      -489.21481170 eV

  energy without entropy =     -489.21481170  energy(sigma->0) =     -489.21481170


--------------------------------------------------------------------------------------------------------




--------------------------------------- Iteration      1(  15)  ---------------------------------------


    POTLOK:  cpu time    1.0460: real time    1.0469
    SETDIJ:  cpu time    2.2926: real time    2.2953
     EDDAV:  cpu time  262.3273: real time  264.8021
       DOS:  cpu time    0.0026: real time    0.0026
    CHARGE:  cpu time    9.3008: real time    9.3923
    MIXING:  cpu time    0.0442: real time    0.0447
    --------------------------------------------
      LOOP:  cpu time  275.0136: real time  277.5839

 eigenvalue-minimisations  : 24560
 total energy-change (2. order) : 0.2218032E-05  (-0.2081746E-06)
 number of electron     736.0000016 magnetization     128.0000005
 augmentation part      277.8923919 magnetization      84.1575447

 Broyden mixing:
  rms(total) = 0.49917E-03    rms(broyden)= 0.48674E-03
  rms(prec ) = 0.50247E-03
  weight for this iteration     100.00

 eigenvalues of (default mixing * dielectric matrix)
  average eigenvalue GAMMA=   1.1253
  2.7870  1.4626  1.4626  1.3542  0.8382  0.8382  0.6829  0.6829  0.5721  0.5721

 Free energy of the ion-electron system (eV)
  ---------------------------------------------------
  alpha Z        PSCENC =      2314.49656628
  Ewald energy   TEWEN  =    -57724.81561720
  -Hartree energ DENC   =    -30347.17389735
  -exchange      EXHF   =         0.00000000
  -V(xc)+E(xc)   XCENC  =      3229.29331763
  PAW double counting   =     92678.81163089   -95534.29552935
  entropy T*S    EENTRO =        -0.00000000
  eigenvalues    EBANDS =    -10549.01098991
  atomic energy  EATOM  =     95443.47970955
  Solvation  Ediel_sol  =         0.00000000
  ---------------------------------------------------
  free energy    TOTEN  =      -489.21480948 eV

  energy without entropy =     -489.21480948  energy(sigma->0) =     -489.21480948


--------------------------------------------------------------------------------------------------------




--------------------------------------- Iteration      1(  16)  ---------------------------------------


    POTLOK:  cpu time    1.0427: real time    1.0496
    SETDIJ:  cpu time    2.2870: real time    2.2899
     EDDAV:  cpu time  219.4474: real time  221.3825
       DOS:  cpu time    0.0039: real time    0.0039
    --------------------------------------------
      LOOP:  cpu time  222.7809: real time  224.7258

 eigenvalue-minimisations  : 18936
 total energy-change (2. order) :-0.7599883E-06  (-0.5137122E-07)
 number of electron     736.0000016 magnetization     128.0000005
 augmentation part      277.8923919 magnetization      84.1575447

 Free energy of the ion-electron system (eV)
  ---------------------------------------------------
  alpha Z        PSCENC =      2314.49656628
  Ewald energy   TEWEN  =    -57724.81561720
  -Hartree energ DENC   =    -30347.16870136
  -exchange      EXHF   =         0.00000000
  -V(xc)+E(xc)   XCENC  =      3229.29231597
  PAW double counting   =     92679.02436274   -95534.50779543
  entropy T*S    EENTRO =        -0.00000000
  eigenvalues    EBANDS =    -10549.01565077
  atomic energy  EATOM  =     95443.47970955
  Solvation  Ediel_sol  =         0.00000000
  ---------------------------------------------------
  free energy    TOTEN  =      -489.21481024 eV

  energy without entropy =     -489.21481024  energy(sigma->0) =     -489.21481024


--------------------------------------------------------------------------------------------------------




 average (electrostatic) potential at core
  the test charge radii are     0.7079  0.7215  0.9698  0.9500
  (the norm of the test charge is              1.0000)
       1 -58.9502       2 -58.9488       3 -58.9489       4 -58.9489       5 -58.9499
       6 -58.9478       7 -58.9484       8 -58.9476       9 -58.9422      10 -58.9475
      11 -58.9475      12 -58.9476      13 -58.9424      14 -58.9485      15 -58.9484
      16 -58.9487      17 -69.8156      18 -69.8154      19 -69.8151      20 -69.8161
      21 -69.7971      22 -69.8164      23 -69.8164      24 -69.8162      25 -69.8177
      26 -69.8163      27 -69.8180      28 -69.8164      29 -69.8176      30 -69.8175
      31 -69.8163      32 -69.8165      33 -85.5902      34 -85.5798      35 -85.5800
      36 -85.5800      37 -85.5807      38 -85.5803      39 -85.5808      40 -85.5805
      41 -85.5771      42 -85.5811      43 -85.5798      44 -85.5798      45 -85.5791
      46 -85.5797      47 -85.5794      48 -85.5798      49 -85.6385      50 -85.6377
      51 -85.6388      52 -85.6387      53 -85.6377      54 -85.6388      55 -85.6376
      56 -85.6390      57 -78.5735      58 -78.5742      59 -78.5737      60 -78.5743
      61 -78.5784      62 -78.5737      63 -78.5737      64 -78.5740      65 -78.5753
      66 -78.5743      67 -78.5764      68 -78.5744      69 -78.5768      70 -78.5748
      71 -78.5745      72 -78.5744      73 -78.5837      74 -78.5818      75 -78.5823
      76 -78.5818      77 -78.5929      78 -78.5915      79 -78.5917      80 -78.5917
      81 -78.5863      82 -78.5915      83 -78.5914      84 -78.5913      85 -78.5771
      86 -78.5818      87 -78.5817      88 -78.5817
 
 
 
 E-fermi :   5.2068     XC(G=0): -10.4850     alpha+bet :-11.8156


 spin component 1

 k-point     1 :       0.0000    0.0000    0.0000
  band No.  band energies     occupation 
      1     -51.0570      1.00000
      2     -51.0561      1.00000
      3     -51.0557      1.00000
      4     -51.0545      1.00000
      5     -51.0544      1.00000
      6     -51.0543      1.00000
      7     -51.0542      1.00000
      8     -51.0538      1.00000
      9     -51.0536      1.00000
     10     -51.0530      1.00000
     11     -51.0527      1.00000
     12     -51.0525      1.00000
     13     -51.0523      1.00000
     14     -51.0519      1.00000
     15     -51.0513      1.00000
     16     -51.0505      1.00000
     17     -51.0454      1.00000
     18     -51.0445      1.00000
     19     -51.0442      1.00000
     20     -51.0441      1.00000
     21     -51.0441      1.00000
     22     -51.0438      1.00000
     23     -51.0437      1.00000
     24     -51.0409      1.00000
     25     -51.0398      1.00000
     26     -51.0395      1.00000
     27     -51.0395      1.00000
     28     -51.0392      1.00000
     29     -51.0392      1.00000
     30     -51.0392      1.00000
     31     -51.0389      1.00000
     32     -51.0345      1.00000
     33     -49.7032      1.00000
     34     -49.7017      1.00000
     35     -49.7017      1.00000
     36     -49.7016      1.00000
     37     -49.7016      1.00000
     38     -49.7014      1.00000
     39     -49.7013      1.00000
     40     -49.6960      1.00000
     41     -49.6957      1.00000
     42     -49.6944      1.00000
     43     -49.6939      1.00000
     44     -49.6939      1.00000
     45     -49.6938      1.00000
     46     -49.6938      1.00000
     47     -49.6937      1.00000
     48     -49.6888      1.00000
     49     -49.6005      1.00000
     50     -49.5995      1.00000
     51     -49.5991      1.00000
     52     -49.5983      1.00000
     53     -49.5980      1.00000
     54     -49.5977      1.00000
     55     -49.5975      1.00000
     56     -49.5971      1.00000
     57     -49.5969      1.00000
     58     -49.5967      1.00000
     59     -49.5964      1.00000
     60     -49.5962      1.00000
     61     -49.5961      1.00000
     62     -49.5960      1.00000
     63     -49.5959      1.00000
     64     -49.5956      1.00000
     65     -49.5696      1.00000
     66     -49.5685      1.00000
     67     -49.5672      1.00000
     68     -49.5671      1.00000
     69     -49.5667      1.00000
     70     -49.5664      1.00000
     71     -49.5661      1.00000
     72     -49.5657      1.00000
     73     -49.5653      1.00000
     74     -49.5649      1.00000
     75     -49.5647      1.00000
     76     -49.5644      1.00000
     77     -49.5643      1.00000
     78     -49.5643      1.00000
     79     -49.5641      1.00000
     80     -49.5638      1.00000
     81     -49.5553      1.00000
     82     -49.5543      1.00000
     83     -49.5542      1.00000
     84     -49.5541      1.00000
     85     -49.5540      1.00000
     86     -49.5539      1.00000
     87     -49.5539      1.00000
     88     -49.5499      1.00000
     89     -49.5410      1.00000
     90     -49.5398      1.00000
     91     -49.5393      1.00000
     92     -49.5392      1.00000
     93     -49.5392      1.00000
     94     -49.5392      1.00000
     95     -49.5391      1.00000
     96     -49.5353      1.00000
     97     -39.8669      1.00000
     98     -39.8665      1.00000
     99     -39.8655      1.00000
    100     -39.8652      1.00000
    101     -39.8651      1.00000
    102     -39.8650      1.00000
    103     -39.8650      1.00000
    104     -39.8649      1.00000
    105     -39.8647      1.00000
    106     -39.8645      1.00000
    107     -39.8644      1.00000
    108     -39.8644      1.00000
    109     -39.8643      1.00000
    110     -39.8640      1.00000
    111     -39.8592      1.00000
    112     -39.8585      1.00000
    113     -13.2255      1.00000
    114     -13.2218      1.00000
    115     -13.2088      1.00000
    116     -13.1819      1.00000
    117     -13.1007      1.00000
    118     -13.0991      1.00000
    119     -13.0967      1.00000
    120     -13.0923      1.00000
    121     -13.0847      1.00000
    122     -13.0801      1.00000
    123     -13.0786      1.00000
    124     -13.0707      1.00000
    125     -12.9869      1.00000
    126     -12.9751      1.00000
    127     -12.9426      1.00000
    128     -12.9368      1.00000
    129      -7.6462      1.00000
    130      -7.4066      1.00000
    131      -7.3268      1.00000
    132      -7.3259      1.00000
    133      -7.3095      1.00000
    134      -7.3089      1.00000
    135      -7.3084      1.00000
    136      -7.3077      1.00000
    137      -7.1697      1.00000
    138      -7.1586      1.00000
    139      -7.1248      1.00000
    140      -7.1237      1.00000
    141      -7.0364      1.00000
    142      -7.0230      1.00000
    143      -7.0043      1.00000
    144      -7.0020      1.00000
    145      -6.9427      1.00000
    146      -6.9408      1.00000
    147      -6.8892      1.00000
    148      -6.8874      1.00000
    149      -6.8656      1.00000
    150      -6.8634      1.00000
    151      -6.8355      1.00000
    152      -6.8045      1.00000
    153      -1.9362      1.00000
    154      -1.9330      1.00000
    155      -1.9095      1.00000
    156      -1.8922      1.00000
    157      -1.6658      1.00000
    158      -1.6653      1.00000
    159      -1.6571      1.00000
    160      -1.6562      1.00000
    161      -1.5986      1.00000
    162      -1.5969      1.00000
    163      -1.5853      1.00000
    164      -1.5844      1.00000
    165      -1.2978      1.00000
    166      -1.1747      1.00000
    167      -1.1736      1.00000
    168      -1.1134      1.00000
    169      -1.1120      1.00000
    170      -1.1065      1.00000
    171      -1.0486      1.00000
    172      -0.9802      1.00000
    173      -0.9634      1.00000
    174      -0.9590      1.00000
    175      -0.9580      1.00000
    176      -0.9565      1.00000
    177      -0.9473      1.00000
    178      -0.9444      1.00000
    179      -0.9217      1.00000
    180      -0.8718      1.00000
    181      -0.8684      1.00000
    182      -0.8031      1.00000
    183      -0.8028      1.00000
    184      -0.8005      1.00000
    185      -0.7753      1.00000
    186      -0.7739      1.00000
    187      -0.7732      1.00000
    188      -0.7601      1.00000
    189      -0.7163      1.00000
    190      -0.7155      1.00000
    191      -0.7061      1.00000
    192      -0.7037      1.00000
    193      -0.6996      1.00000
    194      -0.6983      1.00000
    195      -0.6097      1.00000
    196      -0.6082      1.00000
    197      -0.5611      1.00000
    198      -0.5609      1.00000
    199      -0.5492      1.00000
    200      -0.5474      1.00000
    201      -0.4084      1.00000
    202      -0.4081      1.00000
    203      -0.3573      1.00000
    204      -0.3482      1.00000
    205      -0.3295      1.00000
    206      -0.3290      1.00000
    207      -0.2991      1.00000
    208      -0.2983      1.00000
    209      -0.2810      1.00000
    210      -0.2696      1.00000
    211      -0.2626      1.00000
    212      -0.2560      1.00000
    213      -0.2544      1.00000
    214      -0.2090      1.00000
    215      -0.2089      1.00000
    216      -0.1885      1.00000
    217      -0.1868      1.00000
    218      -0.1860      1.00000
    219      -0.1759      1.00000
    220      -0.1580      1.00000
    221      -0.1257      1.00000
    222      -0.1252      1.00000
    223      -0.1092      1.00000
    224      -0.0714      1.00000
    225      -0.0701      1.00000
    226      -0.0611      1.00000
    227      -0.0440      1.00000
    228      -0.0183      1.00000
    229      -0.0177      1.00000
    230      -0.0113      1.00000
    231       0.0013      1.00000
    232       0.0017      1.00000
    233       0.0462      1.00000
    234       0.0491      1.00000
    235       0.0497      1.00000
    236       0.0911      1.00000
    237       0.0936      1.00000
    238       0.1176      1.00000
    239       0.1184      1.00000
    240       0.1582      1.00000
    241       0.1621      1.00000
    242       0.1770      1.00000
    243       0.1790      1.00000
    244       0.1821      1.00000
    245       0.1824      1.00000
    246       0.1853      1.00000
    247       0.1886      1.00000
    248       0.1938      1.00000
    249       0.1945      1.00000
    250       0.2009      1.00000
    251       0.2011      1.00000
    252       0.2389      1.00000
    253       0.2508      1.00000
    254       0.2564      1.00000
    255       0.2568      1.00000
    256       0.2763      1.00000
    257       0.3367      1.00000
    258       0.3468      1.00000
    259       0.3588      1.00000
    260       0.3592      1.00000
    261       0.3601      1.00000
    262       0.3607      1.00000
    263       0.3884      1.00000
    264       0.4019      1.00000
    265       0.4525      1.00000
    266       0.4526      1.00000
    267       0.5790      1.00000
    268       0.5790      1.00000
    269       0.5846      1.00000
    270       0.6018      1.00000
    271       0.6018      1.00000
    272       0.6065      1.00000
    273       0.6073      1.00000
    274       0.6403      1.00000
    275       0.6515      1.00000
    276       0.6517      1.00000
    277       0.6624      1.00000
    278       0.6627      1.00000
    279       0.6653      1.00000
    280       0.6727      1.00000
    281       0.6745      1.00000
    282       0.6747      1.00000
    283       0.6966      1.00000
    284       0.7227      1.00000
    285       0.7829      1.00000
    286       0.8194      1.00000
    287       0.8293      1.00000
    288       0.8316      1.00000
    289       0.8321      1.00000
    290       0.8611      1.00000
    291       0.8615      1.00000
    292       0.9084      1.00000
    293       0.9400      1.00000
    294       0.9482      1.00000
    295       0.9488      1.00000
    296       0.9830      1.00000
    297       1.0255      1.00000
    298       1.0703      1.00000
    299       1.2691      1.00000
    300       1.2981      1.00000
    301       1.2982      1.00000
    302       1.3115      1.00000
    303       1.3324      1.00000
    304       1.3334      1.00000
    305       1.3378      1.00000
    306       1.3843      1.00000
    307       1.4050      1.00000
    308       1.4283      1.00000
    309       1.4669      1.00000
    310       1.4677      1.00000
    311       1.4681      1.00000
    312       1.4809      1.00000
    313       1.5107      1.00000
    314       1.5110      1.00000
    315       1.5406      1.00000
    316       1.5614      1.00000
    317       1.5769      1.00000
    318       1.6461      1.00000
    319       1.6556      1.00000
    320       1.7558      1.00000
    321       1.7560      1.00000
    322       1.7628      1.00000
    323       1.7781      1.00000
    324       1.8027      1.00000
    325       1.8035      1.00000
    326       1.8113      1.00000
    327       1.8228      1.00000
    328       1.8362      1.00000
    329       1.8369      1.00000
    330       1.8460      1.00000
    331       1.8472      1.00000
    332       1.8787      1.00000
    333       1.8899      1.00000
    334       1.9470      1.00000
    335       1.9931      1.00000
    336       1.9940      1.00000
    337       2.0059      1.00000
    338       2.0065      1.00000
    339       2.0097      1.00000
    340       2.0184      1.00000
    341       2.0196      1.00000
    342       2.0203      1.00000
    343       2.0389      1.00000
    344       2.0458      1.00000
    345       2.0467      1.00000
    346       2.0571      1.00000
    347       2.0681      1.00000
    348       2.0687      1.00000
    349       2.0915      1.00000
    350       2.1129      1.00000
    351       2.1902      1.00000
    352       2.1924      1.00000
    353       2.2472      1.00000
    354       2.2475      1.00000
    355       2.2708      1.00000
    356       2.2733      1.00000
    357       2.2851      1.00000
    358       2.4282      1.00000
    359       2.4662      1.00000
    360       2.4668      1.00000
    361       2.4777      1.00000
    362       2.5037      1.00000
    363       2.5276      1.00000
    364       2.5546      1.00000
    365       2.5924      1.00000
    366       2.6269      1.00000
    367       2.6275      1.00000
    368       2.6561      1.00000
    369       2.7379      1.00000
    370       2.7390      1.00000
    371       2.7604      1.00000
    372       2.7628      1.00000
    373       2.8335      1.00000
    374       2.8726      1.00000
    375       2.9260      1.00000
    376       2.9340      1.00000
    377       2.9347      1.00000
    378       2.9684      1.00000
    379       3.0269      1.00000
    380       3.0276      1.00000
    381       3.0622      1.00000
    382       3.0970      1.00000
    383       3.3081      1.00000
    384       3.3105      1.00000
    385       3.3482      1.00000
    386       3.3751      1.00000
    387       3.4216      1.00000
    388       3.4219      1.00000
    389       3.4396      1.00000
    390       3.4582      1.00000
    391       3.4589      1.00000
    392       3.5319      1.00000
    393       3.7475      1.00000
    394       3.8083      1.00000
    395       3.8095      1.00000
    396       3.8152      1.00000
    397       3.8156      1.00000
    398       3.8827      1.00000
    399       3.8829      1.00000
    400       3.9324      1.00000
    401       3.9354      1.00000
    402       3.9405      1.00000
    403       3.9410      1.00000
    404       4.0394      1.00000
    405       4.0396      1.00000
    406       4.0703      1.00000
    407       4.1387      1.00000
    408       4.1490      1.00000
    409       4.1512      1.00000
    410       4.3151      1.00000
    411       4.3183      1.00000
    412       4.3382      1.00000
    413       4.3587      1.00000
    414       4.3589      1.00000
    415       4.4285      1.00000
    416       4.4447      1.00000
    417       4.4464      1.00000
    418       4.4530      1.00000
    419       4.4558      1.00000
    420       4.4560      1.00000
    421       4.6349      1.00000
    422       4.6365      1.00000
    423       4.7317      1.00000
    424       4.7320      1.00000
    425       4.7634      1.00000
    426       4.7636      1.00000
    427       4.7684      1.00000
    428       4.7690      1.00000
    429       4.8102      1.00000
    430       4.8523      1.00000
    431       4.8534      1.00000
    432       4.8567      1.00000
    433       7.3436      0.00000
    434       8.1283      0.00000
    435       8.4446      0.00000
    436       8.6419      0.00000
    437       8.6433      0.00000
    438       8.8578      0.00000
    439       9.0845      0.00000
    440       9.0847      0.00000
    441       9.2613      0.00000
    442       9.2736      0.00000
    443       9.2881      0.00000
    444       9.2892      0.00000
    445       9.7266      0.00000
    446       9.7714      0.00000
    447       9.7725      0.00000
    448       9.7902      0.00000
    449       9.8545      0.00000
    450       9.8554      0.00000
    451       9.8596      0.00000
    452       9.8793      0.00000
    453       9.8897      0.00000
    454      10.0602      0.00000
    455      10.0828      0.00000
    456      10.1358      0.00000
    457      10.1362      0.00000
    458      10.3061      0.00000
    459      10.3065      0.00000
    460      10.4161      0.00000
    461      10.5263      0.00000
    462      10.5705      0.00000
    463      10.5719      0.00000
    464      10.5723      0.00000
    465      10.5774      0.00000
    466      10.5783      0.00000
    467      10.6755      0.00000
    468      10.9757      0.00000
    469      11.0191      0.00000
    470      11.0197      0.00000
    471      11.0401      0.00000
    472      11.0405      0.00000
    473      11.0768      0.00000
    474      11.1281      0.00000
    475      11.1782      0.00000
[...]
   -.682E-01 0.300E-01 -.259E+02   0.695E-01 -.292E-01 0.257E+02   -.705E-03 -.806E-03 0.251E+00   -.536E-05 0.111E-04 0.180E-04
   0.263E-01 -.350E-01 -.259E+02   -.256E-01 0.363E-01 0.257E+02   -.439E-03 -.862E-03 0.250E+00   -.160E-04 -.480E-05 0.147E-06
   -.193E-01 -.135E-01 -.259E+02   0.198E-01 0.143E-01 0.257E+02   -.361E-03 -.785E-03 0.251E+00   0.117E-05 0.996E-05 0.256E-05
   -.177E+00 -.215E+00 -.418E+02   0.189E+00 0.228E+00 0.418E+02   -.763E-02 -.823E-02 0.145E-01   0.385E-05 0.843E-05 -.721E-04
   0.265E-01 0.404E-02 -.421E+02   -.269E-01 -.334E-02 0.421E+02   0.244E-04 -.920E-03 0.105E-01   0.836E-05 0.107E-04 -.333E-04
   -.487E-02 0.545E-01 -.420E+02   0.481E-02 -.544E-01 0.420E+02   -.946E-04 -.584E-03 0.107E-01   -.152E-04 -.538E-05 -.290E-04
   0.105E-01 0.187E-01 -.421E+02   -.104E-01 -.174E-01 0.421E+02   -.166E-03 -.123E-02 0.110E-01   -.320E-05 -.129E-04 -.278E-04
   0.157E+02 0.148E+02 -.126E+03   -.161E+02 -.151E+02 0.131E+03   0.384E+00 0.377E+00 -.463E+01   -.353E-04 0.779E-04 0.200E-04
   0.160E+02 0.149E+02 -.126E+03   -.164E+02 -.152E+02 0.131E+03   0.391E+00 0.377E+00 -.463E+01   -.259E-04 0.361E-04 0.732E-04
   0.158E+02 0.151E+02 -.126E+03   -.162E+02 -.154E+02 0.131E+03   0.382E+00 0.385E+00 -.463E+01   -.118E-03 0.668E-04 0.111E-03
   0.160E+02 0.150E+02 -.126E+03   -.163E+02 -.154E+02 0.131E+03   0.389E+00 0.381E+00 -.463E+01   -.590E-04 0.447E-04 0.504E-05
   -.153E+02 -.146E+02 -.123E+03   0.157E+02 0.150E+02 0.128E+03   -.359E+00 -.366E+00 -.448E+01   -.883E-04 -.986E-04 0.848E-04
   -.160E+02 -.149E+02 -.126E+03   0.164E+02 0.153E+02 0.131E+03   -.392E+00 -.379E+00 -.463E+01   0.488E-05 -.251E-04 0.179E-04
   -.159E+02 -.149E+02 -.126E+03   0.163E+02 0.153E+02 0.131E+03   -.389E+00 -.379E+00 -.463E+01   0.139E-04 -.329E-04 -.723E-05
   -.159E+02 -.149E+02 -.126E+03   0.163E+02 0.153E+02 0.131E+03   -.389E+00 -.380E+00 -.463E+01   0.914E-05 -.670E-04 0.592E-04
   0.159E+02 -.148E+02 0.126E+03   -.163E+02 0.152E+02 -.131E+03   0.389E+00 -.372E+00 0.463E+01   -.373E-04 0.493E-04 0.293E-04
   0.159E+02 -.149E+02 0.126E+03   -.163E+02 0.153E+02 -.131E+03   0.390E+00 -.380E+00 0.463E+01   -.490E-04 -.381E-04 -.273E-04
   0.159E+02 -.150E+02 0.126E+03   -.163E+02 0.154E+02 -.131E+03   0.389E+00 -.389E+00 0.463E+01   -.200E-04 -.128E-03 0.446E-05
   0.159E+02 -.149E+02 0.126E+03   -.163E+02 0.153E+02 -.131E+03   0.390E+00 -.379E+00 0.463E+01   -.105E-04 -.172E-04 -.550E-05
   -.160E+02 0.149E+02 0.126E+03   0.164E+02 -.153E+02 -.131E+03   -.396E+00 0.380E+00 0.464E+01   -.547E-04 0.595E-04 0.811E-04
   -.158E+02 0.149E+02 0.126E+03   0.162E+02 -.153E+02 -.131E+03   -.377E+00 0.381E+00 0.463E+01   0.150E-03 0.731E-04 0.402E-04
   -.159E+02 0.149E+02 0.126E+03   0.163E+02 -.153E+02 -.131E+03   -.387E+00 0.380E+00 0.463E+01   0.386E-04 0.292E-04 0.177E-04
   -.159E+02 0.149E+02 0.126E+03   0.163E+02 -.153E+02 -.131E+03   -.386E+00 0.380E+00 0.463E+01   0.953E-04 0.402E-04 -.991E-05
   0.281E+02 0.280E+02 0.351E+02   -.284E+02 -.284E+02 -.356E+02   0.354E+00 0.354E+00 0.475E+00   0.615E-04 0.586E-04 0.332E-04
   0.280E+02 0.282E+02 0.333E+02   -.283E+02 -.285E+02 -.339E+02   0.349E+00 0.353E+00 0.517E+00   -.322E-04 0.323E-04 0.306E-04
   0.280E+02 0.282E+02 0.333E+02   -.284E+02 -.285E+02 -.339E+02   0.350E+00 0.353E+00 0.517E+00   -.197E-04 0.165E-04 -.817E-05
   0.280E+02 0.282E+02 0.333E+02   -.283E+02 -.285E+02 -.339E+02   0.350E+00 0.353E+00 0.519E+00   -.182E-04 0.150E-04 0.169E-05
   -.280E+02 -.281E+02 0.334E+02   0.284E+02 0.285E+02 -.339E+02   -.351E+00 -.351E+00 0.519E+00   -.417E-04 -.237E-04 0.245E-04
   -.278E+02 -.281E+02 0.333E+02   0.282E+02 0.285E+02 -.338E+02   -.347E+00 -.353E+00 0.518E+00   0.805E-04 -.304E-04 0.122E-04
   -.280E+02 -.283E+02 0.334E+02   0.284E+02 0.287E+02 -.339E+02   -.352E+00 -.356E+00 0.519E+00   -.222E-04 -.482E-04 0.177E-04
   -.278E+02 -.283E+02 0.333E+02   0.282E+02 0.286E+02 -.338E+02   -.347E+00 -.355E+00 0.518E+00   0.700E-04 -.411E-04 -.199E-04
   0.274E+02 -.282E+02 -.338E+02   -.278E+02 0.285E+02 0.344E+02   0.343E+00 -.354E+00 -.530E+00   -.694E-05 -.453E-04 0.251E-04
   0.278E+02 -.282E+02 -.338E+02   -.281E+02 0.286E+02 0.343E+02   0.346E+00 -.353E+00 -.529E+00   -.823E-05 -.177E-04 -.705E-04
   0.279E+02 -.282E+02 -.334E+02   -.283E+02 0.286E+02 0.339E+02   0.349E+00 -.354E+00 -.519E+00   0.116E-04 -.355E-04 -.125E-04
   0.279E+02 -.282E+02 -.334E+02   -.283E+02 0.286E+02 0.339E+02   0.349E+00 -.354E+00 -.520E+00   -.382E-04 -.477E-04 -.284E-04
   -.278E+02 0.280E+02 -.339E+02   0.282E+02 -.284E+02 0.344E+02   -.348E+00 0.350E+00 -.530E+00   0.202E-04 0.272E-04 -.218E-05
   -.280E+02 0.282E+02 -.334E+02   0.284E+02 -.285E+02 0.339E+02   -.351E+00 0.353E+00 -.519E+00   0.377E-04 0.422E-04 0.382E-06
   -.279E+02 0.283E+02 -.338E+02   0.282E+02 -.286E+02 0.343E+02   -.348E+00 0.356E+00 -.528E+00   0.378E-04 0.477E-04 -.551E-04
   -.280E+02 0.282E+02 -.334E+02   0.284E+02 -.285E+02 0.339E+02   -.351E+00 0.353E+00 -.519E+00   0.236E-04 0.693E-05 0.986E-05
   0.977E+01 0.529E-01 0.256E+00   -.988E+01 -.528E-01 -.260E+00   0.111E+00 -.260E-03 0.800E-02   -.783E-04 0.410E-04 0.561E-04
   0.100E+02 0.505E-01 0.993E-01   -.101E+02 -.515E-01 -.100E+00   0.118E+00 0.110E-02 0.237E-02   0.117E-04 0.204E-04 -.160E-04
   0.988E+01 0.450E-01 0.455E-01   -.999E+01 -.455E-01 -.457E-01   0.114E+00 0.469E-03 0.648E-03   -.523E-04 -.549E-05 0.321E-04
   0.992E+01 0.453E-01 0.162E-01   -.100E+02 -.456E-01 -.162E-01   0.115E+00 0.254E-03 0.214E-03   -.319E-04 -.189E-05 -.971E-06
   -.989E+01 -.598E-01 0.183E+00   0.100E+02 0.612E-01 -.184E+00   -.116E+00 -.279E-02 0.331E-02   0.114E-04 -.350E-04 -.214E-05
   -.990E+01 0.424E-01 0.642E-01   0.100E+02 -.428E-01 -.646E-01   -.114E+00 0.290E-03 0.594E-03   0.103E-03 0.190E-04 -.763E-06
   -.989E+01 0.144E+00 0.158E+00   0.100E+02 -.146E+00 -.159E+00   -.114E+00 0.362E-02 0.302E-02   -.264E-04 0.268E-04 -.626E-05
   -.990E+01 0.518E-01 0.600E-01   0.100E+02 -.521E-01 -.605E-01   -.114E+00 0.170E-03 0.882E-03   0.572E-04 0.155E-05 -.328E-05
   0.189E+02 0.187E+02 0.185E+03   -.178E+02 -.176E+02 -.182E+03   -.106E+01 -.109E+01 -.241E+01   -.110E-05 -.883E-05 -.189E-04
   0.189E+02 0.191E+02 0.185E+03   -.178E+02 -.180E+02 -.182E+03   -.106E+01 -.108E+01 -.241E+01   -.770E-05 0.901E-04 -.175E-03
   0.190E+02 0.191E+02 0.185E+03   -.179E+02 -.180E+02 -.182E+03   -.106E+01 -.108E+01 -.241E+01   0.170E-04 0.107E-03 -.729E-04
   0.189E+02 0.188E+02 0.185E+03   -.179E+02 -.177E+02 -.182E+03   -.106E+01 -.109E+01 -.241E+01   -.125E-04 -.137E-04 -.624E-04
   -.181E+02 -.190E+02 0.177E+03   0.170E+02 0.179E+02 -.175E+03   0.106E+01 0.109E+01 -.218E+01   0.648E-03 0.159E-05 -.137E-02
   -.191E+02 -.189E+02 0.185E+03   0.180E+02 0.178E+02 -.182E+03   0.105E+01 0.109E+01 -.241E+01   -.847E-04 -.350E-04 -.391E-05
   -.189E+02 -.189E+02 0.185E+03   0.178E+02 0.178E+02 -.182E+03   0.106E+01 0.109E+01 -.241E+01   0.162E-05 -.697E-04 -.326E-04
   -.189E+02 -.189E+02 0.185E+03   0.179E+02 0.178E+02 -.183E+03   0.106E+01 0.109E+01 -.241E+01   0.143E-04 -.860E-04 -.979E-04
   0.190E+02 -.180E+02 -.185E+03   -.179E+02 0.169E+02 0.182E+03   -.106E+01 0.110E+01 0.240E+01   0.301E-05 0.188E-03 -.128E-03
   0.189E+02 -.188E+02 -.185E+03   -.178E+02 0.177E+02 0.183E+03   -.106E+01 0.108E+01 0.241E+01   -.399E-04 -.872E-04 0.277E-03
   0.190E+02 -.197E+02 -.185E+03   -.179E+02 0.187E+02 0.182E+03   -.107E+01 0.106E+01 0.240E+01   -.323E-04 -.417E-03 -.822E-04
   0.189E+02 -.189E+02 -.185E+03   -.178E+02 0.178E+02 0.183E+03   -.106E+01 0.109E+01 0.241E+01   -.342E-04 -.496E-04 0.124E-03
   -.200E+02 0.188E+02 -.185E+03   0.190E+02 -.177E+02 0.182E+03   0.104E+01 -.109E+01 0.241E+01   -.436E-03 0.515E-04 0.143E-03
   -.184E+02 0.189E+02 -.185E+03   0.173E+02 -.178E+02 0.183E+03   0.108E+01 -.108E+01 0.240E+01   0.251E-03 0.801E-04 -.148E-03
   -.191E+02 0.190E+02 -.185E+03   0.180E+02 -.179E+02 0.183E+03   0.106E+01 -.108E+01 0.241E+01   -.426E-04 0.507E-04 0.113E-04
   -.190E+02 0.190E+02 -.185E+03   0.179E+02 -.179E+02 0.183E+03   0.106E+01 -.108E+01 0.241E+01   0.217E-04 0.126E-04 -.209E-04
   0.107E+00 -.181E+00 0.209E+03   -.116E+00 0.185E+00 -.211E+03   0.666E-02 -.181E-02 0.208E+01   0.190E-03 -.755E-04 0.117E-03
   0.102E-02 -.512E-01 0.209E+03   0.143E-02 0.516E-01 -.211E+03   -.185E-02 0.500E-04 0.207E+01   -.832E-05 0.184E-04 -.404E-04
   0.400E-01 -.946E-02 0.209E+03   -.436E-01 0.452E-02 -.211E+03   0.295E-02 0.433E-02 0.206E+01   0.951E-04 0.569E-04 -.753E-04
   0.746E-02 -.792E-01 0.209E+03   -.101E-01 0.785E-01 -.211E+03   0.243E-02 0.104E-02 0.207E+01   -.138E-03 -.157E-03 -.112E-03
   -.163E+00 0.139E-01 0.200E+03   0.172E+00 -.243E-01 -.202E+03   -.660E-02 0.841E-02 0.208E+01   -.339E-03 -.382E-04 0.987E-04
   0.129E+00 -.390E-01 0.199E+03   -.134E+00 0.365E-01 -.201E+03   0.399E-02 0.209E-02 0.207E+01   0.200E-03 0.181E-03 -.210E-03
   -.239E-01 -.857E-01 0.199E+03   0.303E-01 0.859E-01 -.201E+03   -.509E-02 0.446E-03 0.207E+01   -.138E-03 -.955E-04 -.133E-03
   0.632E-01 -.629E-01 0.199E+03   -.643E-01 0.612E-01 -.201E+03   0.912E-03 0.163E-02 0.206E+01   0.771E-04 0.417E-04 -.157E-03
   -.702E+00 0.997E+00 -.198E+03   0.747E+00 -.105E+01 0.200E+03   -.337E-01 0.363E-01 -.204E+01   -.268E-03 0.242E-03 0.297E-03
   0.683E-01 -.755E-02 -.199E+03   -.694E-01 0.603E-02 0.201E+03   0.723E-03 0.173E-02 -.207E+01   0.518E-04 -.225E-04 0.147E-03
   -.852E-01 -.304E+00 -.199E+03   0.840E-01 0.304E+00 0.201E+03   0.762E-03 0.222E-03 -.206E+01   0.325E-04 0.115E-04 0.145E-03
   0.160E-02 -.816E-01 -.199E+03   -.373E-02 0.815E-01 0.201E+03   0.162E-02 0.455E-03 -.206E+01   0.593E-04 -.518E-04 0.214E-03
   0.940E+00 -.692E+00 -.208E+03   -.987E+00 0.733E+00 0.210E+03   0.348E-01 -.305E-01 -.205E+01   0.186E-03 -.178E-03 0.109E-03
   -.335E+00 -.179E+00 -.209E+03   0.338E+00 0.175E+00 0.211E+03   -.213E-02 0.331E-02 -.206E+01   0.132E-04 -.397E-05 0.150E-03
   0.788E-01 0.631E-01 -.209E+03   -.783E-01 -.669E-01 0.211E+03   -.403E-03 0.342E-02 -.207E+01   0.164E-05 -.684E-05 0.647E-04
   -.894E-01 -.170E-01 -.209E+03   0.932E-01 0.125E-01 0.211E+03   -.320E-02 0.415E-02 -.206E+01   0.237E-04 -.790E-04 0.161E-03
 -----------------------------------------------------------------------------------------------
   0.784E-03 -.394E-01 -.366E+00   0.441E-13 -.141E-12 -.853E-12   -.976E-03 0.385E-01 0.366E+00   0.268E-03 -.236E-03 -.255E-03
 
 
 POSITION                                       TOTAL-FORCE (eV/Angst)
 -----------------------------------------------------------------------------------
      2.77841      5.21785      1.58925         0.001303      0.000985     -0.002293
      8.33453      5.21785      1.58910        -0.000373     -0.000056     -0.000344
      2.77841     10.77658      1.58925         0.000455     -0.000099     -0.000404
      8.33453     10.77658      1.58910        -0.000005      0.000047     -0.000168
      0.00058      2.43861      1.89560        -0.001338     -0.001205     -0.002010
      5.55670      2.43861      1.89545         0.000234     -0.000090     -0.000489
      0.00058      7.99734      1.89560        -0.000243      0.000329     -0.000079
      5.55670      7.99734      1.89545        -0.000160     -0.000036     -0.000484
      2.78043      5.21797      8.30298        -0.004513     -0.004104     -0.001222
      8.33655      5.21797      8.30283         0.000576      0.000073     -0.000314
      2.78043     10.77670      8.30298         0.000250      0.000350      0.000167
      8.33655     10.77670      8.30283         0.000127      0.000098     -0.000027
      0.00259      2.43849      8.60933         0.004645      0.004936     -0.004692
      5.55871      2.43849      8.60919        -0.000348     -0.000198      0.000448
      0.00259      7.99722      8.60933        -0.000174     -0.000417      0.000228
      5.55871      7.99722      8.60919        -0.000136      0.000074     -0.000008
     -1.37640      1.05960      8.18451        -0.000391     -0.000871      0.000078
      4.17971      1.05960      8.18437         0.001801     -0.001335     -0.000798
     -1.37640      6.61833      8.18451        -0.001633      0.002011     -0.000307
      4.17971      6.61833      8.18437         0.000740      0.000123     -0.000444
      1.38116      3.81753      8.18442        -0.001556     -0.003213     -0.055755
      6.93728      3.81753      8.18427        -0.001056      0.000119     -0.000292
      1.38116      9.37626      8.18442        -0.000204      0.000148     -0.000543
      6.93728      9.37626      8.18427        -0.000157     -0.000020     -0.000094
      1.39985      1.03817      2.01416         0.000430      0.002572      0.001735
      6.95597      1.03817      2.01401         0.000255     -0.000060      0.000529
      1.39985      6.59689      2.01416        -0.000425     -0.003060      0.001939
      6.95597      6.59689      2.01401         0.000316      0.000219      0.000622
      4.15741      3.83897      2.01406        -0.003284     -0.000468      0.002498
      9.71353      3.83897      2.01392         0.002785      0.000576      0.001644
      4.15741      9.39769      2.01406        -0.000275     -0.000094      0.000853
      9.71353      9.39769      2.01392        -0.000088     -0.000012      0.000211
      1.40044      3.83812      3.78391         0.002270      0.001612     -0.040120
      6.95656      3.83812      3.78377        -0.000739     -0.000045     -0.000528
      1.40044      9.39685      3.78391        -0.000011     -0.000268     -0.000642
      6.95656      9.39685      3.78377        -0.000063     -0.000166      0.000084
      4.15774      1.03891      3.78384        -0.000626      0.001120      0.000026
      9.71386      1.03891      3.78369         0.000680      0.000465     -0.000504
      4.15774      6.59764      3.78384        -0.000909     -0.000951      0.000135
      9.71386      6.59764      3.78369         0.000948     -0.000300     -0.000537
     -1.37674      3.81828      6.41474         0.002045      0.000053     -0.005297
      4.17938      3.81828      6.41460        -0.001530      0.000127     -0.003992
     -1.37674      9.37700      6.41474        -0.000133      0.000197     -0.000492
      4.17938      9.37700      6.41460         0.000050      0.000008     -0.000562
      1.38057      1.05876      6.41466         0.000732      0.000652     -0.005172
      6.93668      1.05876      6.41452        -0.000235     -0.000240     -0.000382
      1.38057      6.61748      6.41466         0.000456     -0.000042     -0.004015
      6.93668      6.61748      6.41452        -0.000330     -0.000036     -0.000401
      1.38227      3.82822      0.00001        -0.001688     -0.000088      0.003687
      6.93839      3.82822     -0.00014         0.001573      0.000140      0.001551
      1.38227      9.38694      0.00001        -0.000169      0.000001      0.000473
      6.93839      9.38694     -0.00014         0.000172     -0.000085      0.000195
      1.39874      1.04885     10.19857        -0.000356     -0.001418      0.001743
      6.95485      1.04885     10.19843         0.000175     -0.000042      0.000250
      1.39874      6.60758     10.19857        -0.000017      0.001371      0.001662
      6.95485      6.60758     10.19843         0.000190     -0.000134      0.000391
     -1.25763      1.18232      6.18371         0.000366      0.001345      0.001226
      4.29848      1.18232      6.18356        -0.000258     -0.000542      0.001342
     -1.25763      6.74104      6.18371         0.000135     -0.000990      0.001454
      4.29848      6.74104      6.18356        -0.000272      0.000493      0.000842
      1.26393      3.69462      6.17404        -0.005537      0.000466      0.128551
      6.81742      3.69462      6.18354         0.002701      0.000143     -0.000574
      1.26131      9.25335      6.18369         0.000526      0.000133     -0.000429
      6.81742      9.25335      6.18354         0.000187     -0.000005      0.000354
      1.51970      0.91526      4.01489        -0.000175     -0.005892      0.000701
      7.07582      0.91526      4.01474        -0.000119      0.000136     -0.000066
      1.51970      6.47399      4.01489        -0.000219      0.007065      0.000687
      7.07582      6.47399      4.01474        -0.000156     -0.000263     -0.000079
      4.03864      3.96168      4.01487         0.007761      0.000304     -0.001005
      9.59476      3.96168      4.01472        -0.005043      0.000015      0.002545
      4.03864      9.52041      4.01487         0.000107     -0.000010     -0.000059
      9.59476      9.52041      4.01472         0.000370      0.000058      0.000077
      0.00035      5.21813      1.57032        -0.002152      0.001557     -0.003553
      5.55647      5.21813      1.57017         0.000595      0.000453     -0.001144
      0.00035     10.77686      1.57032        -0.000592     -0.000547     -0.000248
      5.55647     10.77686      1.57017        -0.000337      0.000176     -0.000682
      2.77849      2.43869      1.57537         0.002164     -0.002019     -0.003889
      8.33461      2.43869      1.57522        -0.000805     -0.000208     -0.000731
      2.77849      7.99742      1.57537         0.001171      0.000548     -0.000913
      8.33461      7.99742      1.57522        -0.000119     -0.000012     -0.000290
      0.00252      5.21805      8.62321         0.011175     -0.012326     -0.007906
      5.55864      5.21805      8.62307        -0.000263      0.000202      0.000893
      0.00252     10.77678      8.62321        -0.000409      0.000486      0.000632
      5.55864     10.77678      8.62307        -0.000450      0.000328     -0.000055
      2.78066      2.43877      8.62826        -0.011765      0.010610     -0.005337
      8.33677      2.43877      8.62811         0.000656     -0.000196     -0.000256
      2.78066      7.99750      8.62826         0.000088     -0.000326      0.000472
      8.33677      7.99750      8.62811         0.000621     -0.000437     -0.000297
 -----------------------------------------------------------------------------------
    total drift:                                0.000077     -0.001136     -0.000138


--------------------------------------------------------------------------------------------------------



  FREE ENERGIE OF THE ION-ELECTRON SYSTEM (eV)
  ---------------------------------------------------
  free  energy   TOTEN  =      -489.21481024 eV

  energy  without entropy=     -489.21481024  energy(sigma->0) =     -489.21481024
 


--------------------------------------------------------------------------------------------------------


    POTLOK:  cpu time    3.3299: real time    3.3513


--------------------------------------------------------------------------------------------------------


     LOOP+:  cpu time 6417.8719: real time 6476.7244
    4ORBIT:  cpu time    0.0000: real time    0.0000

 total amount of memory used by VASP MPI-rank0  1233264. kBytes
=======================================================================

   base      :      30000. kBytes
   nonl-proj :      75226. kBytes
   fftplans  :      85054. kBytes
   grid      :      64684. kBytes
   one-center:        466. kBytes
   wavefun   :     977834. kBytes
 
  
  
 General timing and accounting informations for this job:
 ========================================================
  
                  Total CPU time used (sec):     6514.768
                            User time (sec):     6445.275
                          System time (sec):       69.493
                         Elapsed time (sec):     6575.790
  
                   Maximum memory used (kb):     1433892.
                   Average memory used (kb):           0.
  
                          Minor page faults:      1011425
                          Major page faults:           30
                 Voluntary context switches:        64430
