   28   28   60    2
  0.1357572E+02  0.7689801E-09  0.7689812E-09  0.6979496E-09  0.5000000E-15
   1.0000000000000000E-004
  CAR 
 unknown system                          
    208     14    160

  0.1262379E-14  0.1262379E-14  0.1262379E-14  0.2777778E-01
    1      -55.858878    -49.199883   1.000000   1.000000
    2      -55.857763    -49.197305   1.000000   1.000000
    3      -55.857762    -49.197302   1.000000   1.000000
    4      -55.857533    -49.197231   1.000000   1.000000
    5      -55.857256    -49.197227   1.000000   1.000000
    6      -55.857255    -49.196873   1.000000   1.000000
    7      -55.857074    -49.196819   1.000000   1.000000
    8      -55.856263    -49.194726   1.000000   1.000000
    9      -54.304441    -49.160956   1.000000   1.000000
   10      -54.304278    -49.160677   1.000000   1.000000
   11      -54.303642    -49.159872   1.000000   1.000000
   12      -54.303573    -49.159111   1.000000   1.000000
   13      -54.303529    -49.159014   1.000000   1.000000
   14      -54.303459    -49.158630   1.000000   1.000000
   15      -54.303196    -49.158193   1.000000   1.000000
   16      -54.302836    -49.157809   1.000000   1.000000
   17      -54.302302    -49.156932   1.000000   1.000000
   18      -54.302089    -49.156848   1.000000   1.000000
   19      -54.302017    -49.156560   1.000000   1.000000
   20      -54.301946    -49.156333   1.000000   1.000000
   21      -54.301877    -49.156157   1.000000   1.000000
   22      -54.301874    -49.156107   1.000000   1.000000
   23      -54.301355    -49.155735   1.000000   1.000000
   24      -54.301153    -49.155373   1.000000   1.000000
   25      -43.074438    -43.075197   1.000000   1.000000
   26      -43.046622    -43.047698   1.000000   1.000000
   27      -43.046618    -43.047694   1.000000   1.000000
   28      -43.045466    -43.046547   1.000000   1.000000
   29      -43.045462    -43.046543   1.000000   1.000000
   30      -43.044494    -43.045611   1.000000   1.000000
   31      -43.044484    -43.045594   1.000000   1.000000
   32      -43.020563    -43.021890   1.000000   1.000000
   33      -15.390921    -14.984494   1.000000   1.000000
   34      -15.330845    -14.923740   1.000000   1.000000
   35      -15.330840    -14.923735   1.000000   1.000000
   36      -15.290711    -14.884589   1.000000   1.000000
   37       -9.569364     -9.273051   1.000000   1.000000
   38       -8.804682     -8.511736   1.000000   1.000000
   39       -8.804678     -8.511733   1.000000   1.000000
   40       -8.720470     -8.376495   1.000000   1.000000
   41       -8.648882     -8.355173   1.000000   1.000000
   42       -8.648878     -8.355171   1.000000   1.000000
   43       -8.575037     -8.217347   1.000000   1.000000
   44       -8.430565     -8.062740   1.000000   1.000000
   45       -2.495656     -1.522303   1.000000   1.000000
   46       -2.472725     -1.522268   1.000000   1.000000
   47       -2.472718     -0.901663   1.000000   1.000000
   48       -2.153745     -0.523087   1.000000   1.000000
   49       -1.620721     -0.450250   1.000000   1.000000
   50       -1.620717     -0.289397   1.000000   1.000000
   51       -1.484196     -0.289373   1.000000   1.000000
   52       -1.484187     -0.174725   1.000000   1.000000
   53       -1.393198     -0.043695   1.000000   1.000000
   54       -1.286736     -0.043689   1.000000   1.000000
   55       -1.118350      0.167594   1.000000   1.000000
   56       -1.092828      0.177792   1.000000   1.000000
   57       -1.074020      0.259290   1.000000   1.000000
   58       -1.074007      0.325645   1.000000   1.000000
   59       -1.033595      0.597822   1.000000   1.000000
   60       -0.985064      0.597834   1.000000   1.000000
   61       -0.985060      0.941552   1.000000   1.000000
   62       -0.812764      0.941628   1.000000   1.000000
   63       -0.812755      1.150893   1.000000   1.000000
   64       -0.783158      1.553811   1.000000   1.000000
   65       -0.716519      1.574254   1.000000   1.000000
   66       -0.716509      2.094067   1.000000   1.000000
   67       -0.637944      2.094135   1.000000   1.000000
   68       -0.575277      2.419007   1.000000   1.000000
   69       -0.476189      2.531884   1.000000   1.000000
   70       -0.476186      2.534423   1.000000   1.000000
   71       -0.443242      2.534429   1.000000   1.000000
   72       -0.424672      2.537873   1.000000   1.000000
   73       -0.424643      2.553381   1.000000   1.000000
   74       -0.088320      2.553409   1.000000   1.000000
   75       -0.088299      2.698838   1.000000   1.000000
   76        0.118448      2.698844   1.000000   1.000000
   77        0.143497      2.906785   1.000000   1.000000
   78        0.277972      2.985305   1.000000   1.000000
   79        0.638516      3.382503   1.000000   1.000000
   80        0.638551      3.499152   1.000000   1.000000
   81        0.641877      3.919844   1.000000   1.000000
   82        0.670822      3.923210   1.000000   1.000000
   83        0.838151      4.098733   1.000000   1.000000
   84        0.862467      4.106947   1.000000   1.000000
   85        1.133276      4.165504   1.000000   1.000000
   86        1.174850      4.165618   1.000000   1.000000
   87        1.194775      4.191777   1.000000   1.000000
   88        1.194790      4.191924   1.000000   1.000000
   89        1.285035      6.688923   1.000000   0.000000
   90        1.293078      7.102220   1.000000   0.000000
   91        1.310535      7.366319   1.000000   0.000000
   92        1.310542      7.477131   1.000000   0.000000
   93        1.355123      7.681211   1.000000   0.000000
   94        1.513235      7.682604   1.000000   0.000000
   95        1.513267      7.818481   1.000000   0.000000
   96        1.529838      8.137403   1.000000   0.000000
   97        1.583316      8.147295   1.000000   0.000000
   98        1.588048      8.147457   1.000000   0.000000
   99        1.726413      8.160195   1.000000   0.000000
  100        1.726417      8.175037   1.000000   0.000000
  101        1.784565      8.175232   1.000000   0.000000
  102        1.892776      8.574108   1.000000   0.000000
  103        1.892786      8.581416   1.000000   0.000000
  104        2.021703      8.581603   1.000000   0.000000
  105        2.323090      8.660232   1.000000   0.000000
  106        2.330456      8.717646   1.000000   0.000000
  107        2.368697      8.717850   1.000000   0.000000
  108        2.370679      9.058623   1.000000   0.000000
  109        2.599816      9.065810   1.000000   0.000000
  110        3.251325      9.069754   1.000000   0.000000
  111        3.593244      9.103368   1.000000   0.000000
  112        3.594392      9.108598   1.000000   0.000000
  113        3.794368      9.108633   1.000000   0.000000
  114        3.794382      9.314421   1.000000   0.000000
  115        4.455339      9.676249   1.000000   0.000000
  116        4.455340      9.676319   1.000000   0.000000
  117        4.587953      9.696342   1.000000   0.000000
  118        4.587968      9.858307   1.000000   0.000000
  119        4.658460      9.951157   1.000000   0.000000
  120        4.658467      9.951176   1.000000   0.000000
  121        8.234324     10.497168   0.000000   0.000000
  122        8.771882     10.497173   0.000000   0.000000
  123        9.570556     10.572956   0.000000   0.000000
  124        9.570564     10.572961   0.000000   0.000000
  125        9.851780     10.798392   0.000000   0.000000
  126       10.351871     10.798405   0.000000   0.000000
  127       10.351877     11.601813   0.000000   0.000000
  128       10.580167     12.225750   0.000000   0.000000
  129       11.439065     12.225765   0.000000   0.000000
  130       11.439068     12.233357   0.000000   0.000000
  131       11.640974     12.249325   0.000000   0.000000
  132       11.731101     12.249333   0.000000   0.000000
  133       11.731119     12.432355   0.000000   0.000000
  134       11.941474     12.616788   0.000000   0.000000
  135       12.131492     12.833017   0.000000   0.000000
  136       12.251626     12.833027   0.000000   0.000000
  137       12.276333     13.315408   0.000000   0.000000
  138       12.276343     13.315444   0.000000   0.000000
  139       12.619225     13.676719   0.000000   0.000000
  140       12.619251     13.757257   0.000000   0.000000
  141       12.936638     13.948190   0.000000   0.000000
  142       13.376366     14.030855   0.000000   0.000000
  143       13.376367     14.373879   0.000000   0.000000
  144       13.456068     14.373881   0.000000   0.000000
  145       13.990018     14.457689   0.000000   0.000000
  146       14.364600     14.728297   0.000000   0.000000
  147       14.364601     14.745844   0.000000   0.000000
  148       14.430546     14.745853   0.000000   0.000000
  149       14.430569     14.887713   0.000000   0.000000
  150       14.507819     14.887718   0.000000   0.000000
  151       15.076381     15.297365   0.000000   0.000000
  152       15.356784     16.006138   0.000000   0.000000
  153       15.408674     16.282658   0.000000   0.000000
  154       15.754680     16.376090   0.000000   0.000000
  155       15.776342     16.421381   0.000000   0.000000
  156       16.106381     16.576595   0.000000   0.000000
  157       16.119224     16.581004   0.000000   0.000000
  158       16.119225     16.868873   0.000000   0.000000
  159       16.241187     16.869101   0.000000   0.000000
  160       16.843543     17.243377   0.000000   0.000000

  0.3333333E+00  0.1262353E-14  0.1267551E-14  0.1111111E+00
    1      -55.858703    -49.199530   1.000000   1.000000
    2      -55.858219    -49.198560   1.000000   1.000000
    3      -55.857705    -49.197180   1.000000   1.000000
    4      -55.857591    -49.197148   1.000000   1.000000
    5      -55.857221    -49.196970   1.000000   1.000000
    6      -55.857128    -49.196940   1.000000   1.000000
    7      -55.856842    -49.196007   1.000000   1.000000
    8      -55.856422    -49.195076   1.000000   1.000000
    9      -54.304247    -49.160336   1.000000   1.000000
   10      -54.304087    -49.160150   1.000000   1.000000
   11      -54.303882    -49.159691   1.000000   1.000000
   12      -54.303724    -49.159536   1.000000   1.000000
   13      -54.303511    -49.158947   1.000000   1.000000
   14      -54.303273    -49.158700   1.000000   1.000000
   15      -54.302896    -49.158550   1.000000   1.000000
   16      -54.302806    -49.157746   1.000000   1.000000
   17      -54.302475    -49.157245   1.000000   1.000000
   18      -54.302402    -49.156921   1.000000   1.000000
   19      -54.301992    -49.156655   1.000000   1.000000
   20      -54.301917    -49.156470   1.000000   1.000000
   21      -54.301908    -49.156414   1.000000   1.000000
   22      -54.301602    -49.156338   1.000000   1.000000
   23      -54.301596    -49.155325   1.000000   1.000000
   24      -54.301325    -49.155304   1.000000   1.000000
   25      -43.070481    -43.071287   1.000000   1.000000
   26      -43.059923    -43.060851   1.000000   1.000000
   27      -43.046099    -43.047185   1.000000   1.000000
   28      -43.045237    -43.046326   1.000000   1.000000
   29      -43.045045    -43.046149   1.000000   1.000000
   30      -43.044745    -43.045850   1.000000   1.000000
   31      -43.032922    -43.034133   1.000000   1.000000
   32      -43.023817    -43.025114   1.000000   1.000000
   33      -15.376008    -14.969415   1.000000   1.000000
   34      -15.345986    -14.939053   1.000000   1.000000
   35      -15.320702    -14.913818   1.000000   1.000000
   36      -15.300633    -14.894241   1.000000   1.000000
   37       -9.442275     -9.149497   1.000000   1.000000
   38       -9.107990     -8.820448   1.000000   1.000000
   39       -8.749501     -8.442320   1.000000   1.000000
   40       -8.650700     -8.312969   1.000000   1.000000
   41       -8.634768     -8.295398   1.000000   1.000000
   42       -8.596584     -8.286499   1.000000   1.000000
   43       -8.566985     -8.250290   1.000000   1.000000
   44       -8.487511     -8.140562   1.000000   1.000000
   45       -2.462132     -1.303113   1.000000   1.000000
   46       -2.437130     -1.298615   1.000000   1.000000
   47       -2.363139     -0.986167   1.000000   1.000000
   48       -2.203020     -0.781210   1.000000   1.000000
   49       -1.648308     -0.562642   1.000000   1.000000
   50       -1.567097     -0.418757   1.000000   1.000000
   51       -1.514742     -0.391184   1.000000   1.000000
   52       -1.404768     -0.373120   1.000000   1.000000
   53       -1.364976     -0.087268   1.000000   1.000000
   54       -1.282040      0.057738   1.000000   1.000000
   55       -1.133525      0.321208   1.000000   1.000000
   56       -1.119152      0.487727   1.000000   1.000000
   57       -1.110694      0.509680   1.000000   1.000000
   58       -1.092005      0.734536   1.000000   1.000000
   59       -1.006498      0.783933   1.000000   1.000000
   60       -0.928006      0.839729   1.000000   1.000000
   61       -0.911773      0.894986   1.000000   1.000000
   62       -0.844402      1.003076   1.000000   1.000000
   63       -0.829468      1.214345   1.000000   1.000000
   64       -0.691491      1.555132   1.000000   1.000000
   65       -0.608423      1.647899   1.000000   1.000000
   66       -0.566043      1.806839   1.000000   1.000000
   67       -0.562904      1.968543   1.000000   1.000000
   68       -0.536975      1.975019   1.000000   1.000000
   69       -0.450340      2.025388   1.000000   1.000000
   70       -0.439950      2.395346   1.000000   1.000000
   71       -0.429080      2.456924   1.000000   1.000000
   72       -0.396043      2.535741   1.000000   1.000000
   73       -0.335411      2.537738   1.000000   1.000000
   74       -0.208021      2.570105   1.000000   1.000000
   75       -0.083483      2.706983   1.000000   1.000000
   76       -0.036979      2.731879   1.000000   1.000000
   77       -0.008588      2.766773   1.000000   1.000000
   78        0.059566      2.982870   1.000000   1.000000
   79        0.355273      3.179418   1.000000   1.000000
   80        0.381358      3.565354   1.000000   1.000000
   81        0.585033      3.580610   1.000000   1.000000
   82        0.605260      3.840153   1.000000   1.000000
   83        0.676908      3.968280   1.000000   1.000000
   84        0.804728      4.071123   1.000000   1.000000
   85        1.142795      4.149885   1.000000   1.000000
   86        1.204886      4.152373   1.000000   1.000000
   87        1.235044      4.172571   1.000000   1.000000
   88        1.261507      4.188390   1.000000   1.000000
   89        1.272715      7.048244   1.000000   0.000000
   90        1.291475      7.650759   1.000000   0.000000
   91        1.293257      7.732784   1.000000   0.000000
   92        1.367358      7.761228   1.000000   0.000000
   93        1.390510      7.774604   1.000000   0.000000
   94        1.427242      7.782307   1.000000   0.000000
   95        1.462278      7.913840   1.000000   0.000000
   96        1.516469      7.921849   1.000000   0.000000
   97        1.542818      7.983669   1.000000   0.000000
   98        1.584077      8.014002   1.000000   0.000000
   99        1.634751      8.035853   1.000000   0.000000
  100        1.709453      8.554908   1.000000   0.000000
  101        1.813599      8.589061   1.000000   0.000000
  102        1.830557      8.647903   1.000000   0.000000
  103        1.963690      8.691296   1.000000   0.000000
  104        2.132562      8.695710   1.000000   0.000000
  105        2.596736      8.746130   1.000000   0.000000
  106        2.801073      8.759963   1.000000   0.000000
  107        2.810692      8.829940   1.000000   0.000000
  108        2.879547      8.841946   1.000000   0.000000
  109        3.214145      8.959426   1.000000   0.000000
  110        3.387895      9.006740   1.000000   0.000000
  111        3.445425      9.022505   1.000000   0.000000
  112        3.632611      9.047408   1.000000   0.000000
  113        3.668652      9.243211   1.000000   0.000000
  114        3.739960      9.336421   1.000000   0.000000
  115        3.764357      9.413671   1.000000   0.000000
  116        3.866120      9.444299   1.000000   0.000000
  117        3.890966      9.686890   1.000000   0.000000
  118        4.218102      9.771059   1.000000   0.000000
  119        4.379067      9.825905   1.000000   0.000000
  120        4.397214      9.831527   1.000000   0.000000
  121        8.914664     10.065074   0.000000   0.000000
  122        9.617503     10.453738   0.000000   0.000000
  123        9.828072     10.564119   0.000000   0.000000
  124       10.005019     11.050104   0.000000   0.000000
  125       10.375217     11.323574   0.000000   0.000000
  126       10.386201     11.376049   0.000000   0.000000
  127       10.550061     11.518273   0.000000   0.000000
  128       10.691834     11.792280   0.000000   0.000000
  129       10.976042     11.841500   0.000000   0.000000
  130       11.359950     12.205120   0.000000   0.000000
  131       11.506316     12.469637   0.000000   0.000000
  132       11.714783     12.575485   0.000000   0.000000
  133       12.062062     12.711226   0.000000   0.000000
  134       12.120080     12.757625   0.000000   0.000000
  135       12.333752     13.108990   0.000000   0.000000
  136       12.474584     13.397337   0.000000   0.000000
  137       12.681106     13.424928   0.000000   0.000000
  138       12.766672     13.519534   0.000000   0.000000
  139       12.880475     13.663247   0.000000   0.000000
  140       12.968518     13.693099   0.000000   0.000000
  141       12.975964     13.762329   0.000000   0.000000
  142       13.273455     14.189646   0.000000   0.000000
  143       13.405916     14.268477   0.000000   0.000000
  144       13.662583     14.315374   0.000000   0.000000
  145       13.692362     14.480497   0.000000   0.000000
  146       13.956589     14.515473   0.000000   0.000000
  147       14.085614     14.623686   0.000000   0.000000
  148       14.194211     14.721849   0.000000   0.000000
  149       14.489827     14.976842   0.000000   0.000000
  150       14.616163     15.113317   0.000000   0.000000
  151       14.756841     15.294589   0.000000   0.000000
  152       14.806763     15.345694   0.000000   0.000000
  153       14.881581     15.701541   0.000000   0.000000
  154       15.261898     15.846665   0.000000   0.000000
  155       15.282465     15.871050   0.000000   0.000000
  156       15.393496     16.022811   0.000000   0.000000
  157       15.624819     16.170689   0.000000   0.000000
  158       15.854593     16.619441   0.000000   0.000000
  159       15.924202     16.622245   0.000000   0.000000
  160       16.188187     16.878358   0.000000   0.000000

  0.3333333E+00  0.3333333E+00  0.1333144E-14  0.5555556E-01
    1      -55.858484    -49.199189   1.000000   1.000000
    2      -55.858172    -49.198308   1.000000   1.000000
    3      -55.858171    -49.198306   1.000000   1.000000
    4      -55.857660    -49.197684   1.000000   1.000000
    5      -55.857158    -49.196409   1.000000   1.000000
    6      -55.856812    -49.196090   1.000000   1.000000
    7      -55.856812    -49.196087   1.000000   1.000000
    8      -55.856602    -49.195360   1.000000   1.000000
    9      -54.304071    -49.160605   1.000000   1.000000
   10      -54.303946    -49.160002   1.000000   1.000000
   11      -54.303841    -49.159941   1.000000   1.000000
   12      -54.303785    -49.159577   1.000000   1.000000
   13      -54.303173    -49.158852   1.000000   1.000000
   14      -54.303121    -49.158156   1.000000   1.000000
   15      -54.303032    -49.158155   1.000000   1.000000
   16      -54.302973    -49.157665   1.000000   1.000000
   17      -54.302569    -49.157154   1.000000   1.000000
   18      -54.302399    -49.156947   1.000000   1.000000
   19      -54.302342    -49.156808   1.000000   1.000000
   20      -54.302088    -49.156593   1.000000   1.000000
   21      -54.301735    -49.156316   1.000000   1.000000
   22      -54.301672    -49.156151   1.000000   1.000000
   23      -54.301618    -49.155804   1.000000   1.000000
   24      -54.301355    -49.155670   1.000000   1.000000
   25      -43.066994    -43.067843   1.000000   1.000000
   26      -43.057718    -43.058673   1.000000   1.000000
   27      -43.057710    -43.058666   1.000000   1.000000
   28      -43.052049    -43.053078   1.000000   1.000000
   29      -43.038509    -43.039673   1.000000   1.000000
   30      -43.034326    -43.035527   1.000000   1.000000
   31      -43.034319    -43.035520   1.000000   1.000000
   32      -43.026562    -43.027834   1.000000   1.000000
   33      -15.361400    -14.954722   1.000000   1.000000
   34      -15.335405    -14.928597   1.000000   1.000000
   35      -15.335400    -14.928592   1.000000   1.000000
   36      -15.310972    -14.904407   1.000000   1.000000
   37       -9.321843     -9.028545   1.000000   1.000000
   38       -9.026780     -8.731878   1.000000   1.000000
   39       -9.026778     -8.731877   1.000000   1.000000
   40       -8.755893     -8.432087   1.000000   1.000000
   41       -8.607427     -8.270899   1.000000   1.000000
   42       -8.528573     -8.188757   1.000000   1.000000
   43       -8.501244     -8.174975   1.000000   1.000000
   44       -8.501242     -8.174974   1.000000   1.000000
   45       -2.399191     -1.196009   1.000000   1.000000
   46       -2.398446     -1.195983   1.000000   1.000000
   47       -2.398443     -0.941341   1.000000   1.000000
   48       -2.234117     -0.823674   1.000000   1.000000
   49       -1.650781     -0.504394   1.000000   1.000000
   50       -1.650771     -0.504378   1.000000   1.000000
   51       -1.441669     -0.344779   1.000000   1.000000
   52       -1.400536     -0.158926   1.000000   1.000000
   53       -1.210690     -0.058034   1.000000   1.000000
   54       -1.199922      0.164661   1.000000   1.000000
   55       -1.199910      0.264148   1.000000   1.000000
   56       -1.194134      0.264163   1.000000   1.000000
   57       -1.087875      0.690542   1.000000   1.000000
   58       -1.052500      0.876104   1.000000   1.000000
   59       -1.052497      0.876158   1.000000   1.000000
   60       -1.027857      0.972401   1.000000   1.000000
   61       -1.027851      0.972406   1.000000   1.000000
   62       -0.823005      1.132011   1.000000   1.000000
   63       -0.700378      1.296884   1.000000   1.000000
   64       -0.621890      1.486099   1.000000   1.000000
   65       -0.614062      1.562231   1.000000   1.000000
   66       -0.614052      1.772488   1.000000   1.000000
   67       -0.592489      1.929049   1.000000   1.000000
   68       -0.530659      1.929090   1.000000   1.000000
   69       -0.473879      1.975202   1.000000   1.000000
   70       -0.340707      1.975211   1.000000   1.000000
   71       -0.340706      2.040984   1.000000   1.000000
   72       -0.271461      2.232621   1.000000   1.000000
   73       -0.157494      2.268365   1.000000   1.000000
   74       -0.101279      2.335315   1.000000   1.000000
   75       -0.101276      2.769347   1.000000   1.000000
   76       -0.031261      2.769362   1.000000   1.000000
   77       -0.031247      2.866352   1.000000   1.000000
   78        0.018866      2.924348   1.000000   1.000000
   79        0.257737      2.924360   1.000000   1.000000
   80        0.476114      3.095483   1.000000   1.000000
   81        0.728214      3.809692   1.000000   1.000000
   82        0.728226      4.067379   1.000000   1.000000
   83        0.812408      4.067476   1.000000   1.000000
   84        0.827401      4.124845   1.000000   1.000000
   85        1.074874      4.251139   1.000000   1.000000
   86        1.158473      4.272612   1.000000   1.000000
   87        1.209899      4.272678   1.000000   1.000000
   88        1.222795      4.304802   1.000000   1.000000
   89        1.222810      7.403689   1.000000   0.000000
   90        1.285720      7.403705   1.000000   0.000000
   91        1.314182      7.556029   1.000000   0.000000
   92        1.372595      7.605600   1.000000   0.000000
   93        1.372624      7.617199   1.000000   0.000000
   94        1.416172      7.760420   1.000000   0.000000
   95        1.416179      7.899676   1.000000   0.000000
   96        1.431426      8.116681   1.000000   0.000000
   97        1.439186      8.116761   1.000000   0.000000
   98        1.496887      8.133269   1.000000   0.000000
   99        1.538356      8.296636   1.000000   0.000000
  100        1.538358      8.296653   1.000000   0.000000
  101        1.836268      8.331599   1.000000   0.000000
  102        2.213302      8.534602   1.000000   0.000000
  103        2.236324      8.534625   1.000000   0.000000
  104        2.236334      8.550948   1.000000   0.000000
  105        2.301747      8.777262   1.000000   0.000000
  106        2.366422      8.800472   1.000000   0.000000
  107        2.728745      8.886849   1.000000   0.000000
  108        2.728753      8.886919   1.000000   0.000000
  109        2.748744      8.893044   1.000000   0.000000
  110        3.224113      9.012056   1.000000   0.000000
  111        3.224130      9.028899   1.000000   0.000000
  112        3.363558      9.028934   1.000000   0.000000
  113        3.430666      9.146922   1.000000   0.000000
  114        3.600257      9.226956   1.000000   0.000000
  115        3.860492      9.595134   1.000000   0.000000
  116        3.860498      9.595181   1.000000   0.000000
  117        3.877354      9.729229   1.000000   0.000000
  118        4.376871      9.796964   1.000000   0.000000
  119        4.706756     10.119010   1.000000   0.000000
  120        4.706763     10.119052   1.000000   0.000000
  121        9.833196     10.994282   0.000000   0.000000
  122       10.274128     11.092829   0.000000   0.000000
  123       10.307010     11.348630   0.000000   0.000000
  124       10.442924     11.348635   0.000000   0.000000
  125       10.523297     11.480959   0.000000   0.000000
  126       10.523302     11.485589   0.000000   0.000000
  127       10.901910     11.521350   0.000000   0.000000
  128       10.901917     11.521358   0.000000   0.000000
  129       11.238254     11.972518   0.000000   0.000000
  130       11.238263     11.972529   0.000000   0.000000
  131       11.628531     12.738307   0.000000   0.000000
  132       11.628535     12.817355   0.000000   0.000000
  133       12.059340     12.822123   0.000000   0.000000
  134       12.089640     12.822178   0.000000   0.000000
  135       12.412125     12.861634   0.000000   0.000000
  136       12.462940     13.222853   0.000000   0.000000
  137       12.543077     13.222888   0.000000   0.000000
  138       12.543079     13.515728   0.000000   0.000000
  139       12.941464     13.710755   0.000000   0.000000
  140       13.077938     13.867376   0.000000   0.000000
  141       13.077943     13.885768   0.000000   0.000000
  142       13.094503     14.077336   0.000000   0.000000
  143       13.147746     14.077353   0.000000   0.000000
  144       13.180049     14.108990   0.000000   0.000000
  145       13.522460     14.206985   0.000000   0.000000
  146       13.828027     14.303179   0.000000   0.000000
  147       13.849581     14.479945   0.000000   0.000000
  148       13.897779     14.479953   0.000000   0.000000
  149       13.897782     14.628055   0.000000   0.000000
  150       14.153669     14.628106   0.000000   0.000000
  151       14.153678     14.763140   0.000000   0.000000
  152       14.556534     15.347060   0.000000   0.000000
  153       14.903270     15.495552   0.000000   0.000000
  154       14.931364     15.505367   0.000000   0.000000
  155       14.931370     15.505420   0.000000   0.000000
  156       15.142336     15.878621   0.000000   0.000000
  157       15.341329     15.897592   0.000000   0.000000
  158       15.657691     16.100120   0.000000   0.000000
  159       15.679554     16.134272   0.000000   0.000000
  160       15.902999     16.541152   0.000000   0.000000

 -0.3333333E+00  0.3333333E+00  0.1265958E-14  0.5555556E-01
    1      -55.858574    -49.199187   1.000000   1.000000
    2      -55.858012    -49.198315   1.000000   1.000000
    3      -55.857990    -49.198277   1.000000   1.000000
    4      -55.857897    -49.197655   1.000000   1.000000
    5      -55.856977    -49.196397   1.000000   1.000000
    6      -55.856955    -49.196122   1.000000   1.000000
    7      -55.856897    -49.196085   1.000000   1.000000
    8      -55.856495    -49.195331   1.000000   1.000000
    9      -54.304127    -49.160383   1.000000   1.000000
   10      -54.303867    -49.160049   1.000000   1.000000
   11      -54.303803    -49.159855   1.000000   1.000000
   12      -54.303683    -49.159748   1.000000   1.000000
   13      -54.303511    -49.159192   1.000000   1.000000
   14      -54.303060    -49.157984   1.000000   1.000000
   15      -54.302972    -49.157962   1.000000   1.000000
   16      -54.302654    -49.157576   1.000000   1.000000
   17      -54.302541    -49.157176   1.000000   1.000000
   18      -54.302527    -49.157086   1.000000   1.000000
   19      -54.302435    -49.156916   1.000000   1.000000
   20      -54.302164    -49.156479   1.000000   1.000000
   21      -54.301669    -49.156350   1.000000   1.000000
   22      -54.301556    -49.156089   1.000000   1.000000
   23      -54.301538    -49.155759   1.000000   1.000000
   24      -54.301476    -49.155644   1.000000   1.000000
   25      -43.067010    -43.067858   1.000000   1.000000
   26      -43.057768    -43.058729   1.000000   1.000000
   27      -43.057695    -43.058649   1.000000   1.000000
   28      -43.051993    -43.053017   1.000000   1.000000
   29      -43.038482    -43.039650   1.000000   1.000000