 vasp.6.2.0 18Jan21 (build Feb  9 2021 11:43:09) complex                         
 executed on       CrayXC_GCC_OMP date 2021.05.01  16:37:42
 running  448 mpi-ranks, with    1 threads/rank
 distrk:  each k-point on   32 cores,   14 groups
 distr:  one band on NCORE=   1 cores,   32 groups


--------------------------------------------------------------------------------------------------------


 INCAR:
   AEXX = 0.25
   ALGO = all
   EDIFF = 2.8e-05
   EDIFFG = -0.03
   ENCUT = 520
   GGA = pe
   HFSCREEN = 0.207
   IBRION = 2
   ISIF = 3
   ISMEAR = 0
   ISPIN = 2
   KPAR = 14
   LASPH = .TRUE.
   LHFCALC = .TRUE.
   LMAXFOCK = 4
   LORBIT = 11
   LREAL = .FALSE.
   LVHAR = .TRUE.
   LWAVE = .TRUE.
   MAGMOM = 0.6 0.6 0.6 0.6 0.6 0.6 0.6 0.6 0.6 0.6 0.6 0.6 0.6 0.6 0.6 0.6 0.6 0.6 0.6 0.6 5 5 5 5 5 5 5 5
   NCORE = 1
   NEDOS = 2000
   NELM = 200
   NELMIN = 4
   NSW = 60
   NWRITE = 1
   PREC = accurate
   PRECFOCK = fast
   SIGMA = 0.05
   TIME = 0.3

 POTCAR:    PAW_PBE Li_sv 10Sep2004               
 POTCAR:    PAW_PBE O 08Apr2002                   
 POTCAR:    PAW_PBE S 06Sep2000                   
 POTCAR:    PAW_PBE Fe_pv 02Aug2007               
 POTCAR:    PAW_PBE Li_sv 10Sep2004               
  local pseudopotential read in
  atomic valenz-charges read in
  non local Contribution for L=           0  read in
    real space projection operators read in
  non local Contribution for L=           0  read in
    real space projection operators read in
  non local Contribution for L=           1  read in
    real space projection operators read in
    PAW grid and wavefunctions read in

   number of l-projection  operators is LMAX  =           3
   number of lm-projection operators is LMMAX =           5

 POTCAR:    PAW_PBE O 08Apr2002                   
  local pseudopotential read in
  partial core-charges read in
  partial kinetic energy density read in
  kinetic energy density of atom read in
  atomic valenz-charges read in
  non local Contribution for L=           0  read in
    real space projection operators read in
  non local Contribution for L=           0  read in
    real space projection operators read in
  non local Contribution for L=           1  read in
    real space projection operators read in
  non local Contribution for L=           1  read in
    real space projection operators read in
    PAW grid and wavefunctions read in

   number of l-projection  operators is LMAX  =           4
   number of lm-projection operators is LMMAX =           8

 POTCAR:    PAW_PBE S 06Sep2000                   
  local pseudopotential read in
  partial core-charges read in
  partial kinetic energy density read in
  atomic valenz-charges read in
  non local Contribution for L=           0  read in
    real space projection operators read in
  non local Contribution for L=           0  read in
    real space projection operators read in
  non local Contribution for L=           1  read in
    real space projection operators read in
  non local Contribution for L=           1  read in
    real space projection operators read in
    PAW grid and wavefunctions read in

   number of l-projection  operators is LMAX  =           4
   number of lm-projection operators is LMMAX =           8

 POTCAR:    PAW_PBE Fe_pv 02Aug2007               
  local pseudopotential read in
  partial core-charges read in
  partial kinetic energy density read in
  atomic valenz-charges read in
  non local Contribution for L=           1  read in
    real space projection operators read in
  non local Contribution for L=           1  read in
    real space projection operators read in
  non local Contribution for L=           2  read in
    real space projection operators read in
  non local Contribution for L=           2  read in
    real space projection operators read in
  non local Contribution for L=           0  read in
    real space projection operators read in
  non local Contribution for L=           0  read in
    real space projection operators read in
    PAW grid and wavefunctions read in

   number of l-projection  operators is LMAX  =           6
   number of lm-projection operators is LMMAX =          18

 -----------------------------------------------------------------------------
|                                                                             |
|               ----> ADVICE to this user running VASP <----                  |
|                                                                             |
|     You have a (more or less) 'large supercell' and for larger cells it     |
|     might be more efficient to use real-space projection operators.         |
|     Therefore, try LREAL= Auto in the INCAR file.                           |
|     Mind: For very accurate calculation, you might also keep the            |
|     reciprocal projection scheme (i.e. LREAL=.FALSE.).                      |
|                                                                             |
 -----------------------------------------------------------------------------

  PAW_PBE Li_sv 10Sep2004               :
 energy of atom  1       EATOM= -202.7858
 kinetic energy error for atom=    0.0130 (will be added to EATOM!!)
  PAW_PBE O 08Apr2002                   :
 energy of atom  2       EATOM= -432.3788
 kinetic energy error for atom=    0.0208 (will be added to EATOM!!)
  PAW_PBE S 06Sep2000                   :
 energy of atom  3       EATOM= -276.8230
 kinetic energy error for atom=    0.0016 (will be added to EATOM!!)
  PAW_PBE Fe_pv 02Aug2007               :
 energy of atom  4       EATOM=-2457.4239
 kinetic energy error for atom=    0.0062 (will be added to EATOM!!)


 POSCAR: # Compound: Li8O4S8Fe8. Old comment: Fe8
  positions in direct lattice
  No initial velocities read in
 exchange correlation table for  LEXCH =        8
   RHO(1)=    0.500       N(1)  =     2000
   RHO(2)=  100.500       N(2)  =     4000



--------------------------------------------------------------------------------------------------------


 ion  position               nearest neighbor table
   1  0.224  0.062  0.000-  10 1.94   9 1.94  17 2.55  13 2.55
   2  0.724  0.989  0.000-  10 1.94   9 1.94  16 2.55  20 2.55
   3  0.224  0.489  0.000-  11 1.94  12 1.94  13 2.55  17 2.55
   4  0.724  0.562  0.000-  11 1.94  12 1.94  20 2.55  16 2.55
   5  0.511  0.276  1.000-   9 1.94  11 1.94  18 2.55  14 2.55
   6  0.938  0.276  1.000-  12 1.94  10 1.94  14 2.55  18 2.55
   7  0.438  0.776  1.000-   9 1.94  11 1.94  15 2.55  19 2.55
   8  0.011  0.776  1.000-  12 1.94  10 1.94  19 2.55  15 2.55
   9  0.474  0.026  1.000-   7 1.94   1 1.94   5 1.94   2 1.94  22 2.04  27 2.04
  10  0.974  0.026  0.000-   1 1.94   6 1.94   2 1.94   8 1.94  28 2.04  21 2.04
  11  0.474  0.526  0.000-   4 1.94   7 1.94   3 1.94   5 1.94  25 2.04  24 2.04
  12  0.974  0.526  1.000-   6 1.94   4 1.94   8 1.94   3 1.94  23 2.04  26 2.04
  13  0.300  0.352  0.303-  25 2.44   3 2.55   1 2.55  22 2.72  21 2.72  24 2.72  23 2.72
  14  0.800  0.352  0.303-  26 2.44   5 2.55   6 2.55  21 2.72  23 2.72  22 2.72  24 2.72
  15  0.300  0.852  0.303-  27 2.44   8 2.55   7 2.55  24 2.72  22 2.72  23 2.72  21 2.72
  16  0.800  0.852  0.303-  28 2.44   2 2.55   4 2.55  23 2.72  24 2.72  21 2.72  22 2.72
  17  0.148  0.200  0.697-  21 2.44   3 2.55   1 2.55  27 2.72  28 2.72  25 2.72  26 2.72
  18  0.648  0.200  0.697-  22 2.44   5 2.55   6 2.55  28 2.72  26 2.72  27 2.72  25 2.72
  19  0.148  0.700  0.697-  23 2.44   8 2.55   7 2.55  25 2.72  27 2.72  26 2.72  28 2.72
  20  0.648  0.700  0.697-  24 2.44   2 2.55   4 2.55  26 2.72  25 2.72  28 2.72  27 2.72
  21  0.054  0.105  0.318-  10 2.04  17 2.44  14 2.72  13 2.72  16 2.72  15 2.72
  22  0.554  0.105  0.318-   9 2.04  18 2.44  13 2.72  15 2.72  14 2.72  16 2.72
  23  0.054  0.605  0.318-  12 2.04  19 2.44  16 2.72  14 2.72  15 2.72  13 2.72
  24  0.554  0.605  0.318-  11 2.04  20 2.44  15 2.72  16 2.72  13 2.72  14 2.72
  25  0.395  0.446  0.682-  11 2.04  13 2.44  19 2.72  20 2.72  17 2.72  18 2.72
  26  0.895  0.446  0.682-  12 2.04  14 2.44  20 2.72  18 2.72  19 2.72  17 2.72
  27  0.395  0.946  0.682-   9 2.04  15 2.44  17 2.72  19 2.72  18 2.72  20 2.72
  28  0.895  0.946  0.682-  10 2.04  16 2.44  18 2.72  17 2.72  20 2.72  19 2.72

  LATTYP: Found a base centered monoclinic cell.
 ALAT       =    10.8749739061
 B/A-ratio  =     1.0000101723
 C/A-ratio  =     0.6417943054
 COS(beta)  =    -0.3895307059
  
  Lattice vectors:
  
 A1 = (   7.6897987200,   0.0013039900,  -0.0063390200)
 A2 = (  -0.0013874400,   7.6898096300,  -0.0063390300)
 A3 = (  -1.9167941200,  -1.9174672700,   6.4313753200)


Analysis of symmetry for initial positions (statically):
=====================================================================
 Subroutine PRICEL returns following result:
 
  LATTYP: Found a base centered orthorhombic cell.
 ALAT       =     5.4374869531
 B/A-ratio  =     2.3644048249
 C/A-ratio  =     1.0000101723
  
  Lattice vectors:
  
 A1 = (   1.9167941200,   1.9174672700,  -6.4313753200)
 A2 = (   1.9274115200,   1.9280895400,   6.4250362950)
 A3 = (   3.8455930800,  -3.8442528200,   0.0000000050)
 
   2 primitive cells build up your supercell.
 

 Routine SETGRP: Setting up the symmetry group for a 
 base centered monoclinic supercell.


 Subroutine GETGRP returns: Found  2 space group operations
 (whereof  1 operations were pure point group operations)
 out of a pool of  4 trial point group operations.


The static configuration has the point symmetry C_1 .
 The point group associated with its full space group is C_2 .


Analysis of symmetry for dynamics (positions and initial velocities):
=====================================================================
 Subroutine PRICEL returns following result:
 
  LATTYP: Found a base centered orthorhombic cell.
 ALAT       =     5.4374869531
 B/A-ratio  =     2.3644048249
 C/A-ratio  =     1.0000101723
  
  Lattice vectors:
  
 A1 = (   1.9167941200,   1.9174672700,  -6.4313753200)
 A2 = (   1.9274115200,   1.9280895400,   6.4250362950)
 A3 = (   3.8455930800,  -3.8442528200,   0.0000000050)
 
   2 primitive cells build up your supercell.
 

 Routine SETGRP: Setting up the symmetry group for a 
 base centered monoclinic supercell.


 Subroutine GETGRP returns: Found  2 space group operations
 (whereof  1 operations were pure point group operations)
 out of a pool of  4 trial point group operations.


The dynamic configuration has the point symmetry C_1 .
 The point group associated with its full space group is C_2 .


Analysis of structural, dynamic, and magnetic symmetry:
=====================================================================
 Subroutine PRICEL returns following result:
 
  LATTYP: Found a base centered orthorhombic cell.
 ALAT       =     5.4374869531
 B/A-ratio  =     2.3644048249
 C/A-ratio  =     1.0000101723
  
  Lattice vectors:
  
 A1 = (   1.9167941200,   1.9174672700,  -6.4313753200)
 A2 = (   1.9274115200,   1.9280895400,   6.4250362950)
 A3 = (   3.8455930800,  -3.8442528200,   0.0000000050)
 
   2 primitive cells build up your supercell.
 

 Routine SETGRP: Setting up the symmetry group for a 
 base centered monoclinic supercell.


 Subroutine GETGRP returns: Found  2 space group operations
 (whereof  1 operations were pure point group operations)
 out of a pool of  4 trial point group operations.


The overall configuration has the point symmetry C_1 .
 The point group associated with its full space group is C_2 .


 Subroutine INISYM returns: Found  2 space group operations
 (whereof  1 operations are pure point group operations),
 and found     2 'primitive' translations


----------------------------------------------------------------------------------------

                                     Primitive cell                                     

  volume of cell :     190.0601

  direct lattice vectors                    reciprocal lattice vectors
     1.916794120  1.917467270 -6.431375320     0.129956075  0.130001382 -0.077996935
     1.927411520  1.928089540  6.425036295     0.130084291  0.130129643  0.077567256
     3.845593080 -3.844252820  0.000000005     0.130064463 -0.130018764  0.000000012

  length of vectors
     6.979496324  6.979508280  5.437542265     0.199680902  0.199680560  0.183906617

  position of ions in fractional coordinates (direct lattice)
     0.286517890  0.286521450  0.161685070
     0.713455880  0.713477760  0.734739780
     0.786544130  0.786522250  0.234739790
     0.213482100  0.213478540  0.661685060
     0.500000270  0.499998200  0.448205800
     0.000000740  0.000002810  0.948205810
     0.348568920  0.651427560  0.948193220
     0.848574600  0.151426370  0.448193990
     0.651425400  0.348573630  0.948193990
     0.151431080  0.848572440  0.448193220
     0.841010050  0.158992510  0.948137970
     0.340998420  0.658974080  0.448127640
     0.159001580  0.841025920  0.948127640
     0.658989950  0.341007490  0.448137970

  ion indices of the primitive-cell ions
   primitive index   ion index
                 1           1
                 2           3
                 3           8
                 4           7
                 5           9
                 6          10
                 7          13
                 8          15
                 9          17
                10          19
                11          21
                12          22
                13          28
                14          27

----------------------------------------------------------------------------------------



 KPOINTS: # No comment                            

Automatic generation of k-mesh.
 Grid dimensions read from file:
 generate k-points for:    3    3    4

 Generating k-lattice:

  Cartesian coordinates                     Fractional coordinates (reciprocal lattice)
     0.043358126  0.000018480  0.012927878     0.333333333  0.000000000  0.000000000
     0.000003305  0.043358068  0.012927874    -0.000000000  0.333333333  0.000000000
     0.000032054  0.000032065  0.038891048     0.000000000  0.000000000  0.250000000

  Length of vectors
     0.045244419  0.045244359  0.038891074

  Shift w.r.t. Gamma in fractional coordinates (k-lattice)
     0.000000000  0.000000000  0.000000000

 
 Subroutine IBZKPT returns following result:
 ===========================================
 
 Found     14 irreducible k-points:
 
 Following reciprocal coordinates:
            Coordinates               Weight
  0.000000  0.000000  0.000000      1.000000
  0.333333  0.000000  0.000000      4.000000
  0.333333  0.333333  0.000000      2.000000
 -0.333333  0.333333  0.000000      2.000000
  0.000000  0.000000  0.250000      2.000000
  0.333333  0.000000  0.250000      4.000000
 -0.333333  0.000000  0.250000      4.000000
  0.333333  0.333333  0.250000      2.000000
 -0.333333  0.333333  0.250000      4.000000
 -0.333333 -0.333333  0.250000      2.000000
  0.000000  0.000000  0.500000      1.000000
  0.333333  0.000000  0.500000      4.000000
  0.333333  0.333333  0.500000      2.000000
 -0.333333  0.333333  0.500000      2.000000
 
 Following cartesian coordinates:
            Coordinates               Weight
  0.000000  0.000000  0.000000      1.000000
  0.043358  0.000018  0.012928      4.000000
  0.043361  0.043377  0.025856      2.000000
 -0.043355  0.043340 -0.000000      2.000000
  0.000032  0.000032  0.038891      2.000000
  0.043390  0.000051  0.051819      4.000000
 -0.043326  0.000014  0.025963      4.000000
  0.043393  0.043409  0.064747      2.000000
 -0.043323  0.043372  0.038891      4.000000
 -0.043329 -0.043344  0.013035      2.000000
  0.000064  0.000064  0.077782      1.000000
  0.043422  0.000083  0.090710      4.000000
  0.043426  0.043441  0.103638      2.000000
 -0.043291  0.043404  0.077782      2.000000
 
 
 Subroutine IBZKPT_HF returns following result:
 ==============================================
 
 Found     36 k-points in 1st BZ
 the following     36 k-points will be used (e.g. in the exchange kernel)
 Following reciprocal coordinates:   # in IRBZ
  0.000000  0.000000  0.000000    0.02777778   1 t-inv F
  0.333333  0.000000  0.000000    0.02777778   2 t-inv F
  0.333333  0.333333  0.000000    0.02777778   3 t-inv F
 -0.333333  0.333333  0.000000    0.02777778   4 t-inv F
  0.000000  0.000000  0.250000    0.02777778   5 t-inv F
  0.333333  0.000000  0.250000    0.02777778   6 t-inv F
 -0.333333  0.000000  0.250000    0.02777778   7 t-inv F
  0.333333  0.333333  0.250000    0.02777778   8 t-inv F
 -0.333333  0.333333  0.250000    0.02777778   9 t-inv F
 -0.333333 -0.333333  0.250000    0.02777778  10 t-inv F
  0.000000  0.000000  0.500000    0.02777778  11 t-inv F
  0.333333  0.000000  0.500000    0.02777778  12 t-inv F
  0.333333  0.333333  0.500000    0.02777778  13 t-inv F
 -0.333333  0.333333  0.500000    0.02777778  14 t-inv F
 -0.000000 -0.333333 -0.000000    0.02777778   2 t-inv F
 -0.333333 -0.333333 -0.000000    0.02777778   3 t-inv F
 -0.000000 -0.000000 -0.250000    0.02777778   5 t-inv F
 -0.000000 -0.333333 -0.250000    0.02777778   6 t-inv F
 -0.000000  0.333333 -0.250000    0.02777778   7 t-inv F
 -0.333333 -0.333333 -0.250000    0.02777778   8 t-inv F
 -0.333333  0.333333 -0.250000    0.02777778   9 t-inv F
  0.333333  0.333333 -0.250000    0.02777778  10 t-inv F
 -0.000000 -0.333333 -0.500000    0.02777778  12 t-inv F
 -0.333333 -0.333333 -0.500000    0.02777778  13 t-inv F
 -0.333333 -0.000000 -0.000000    0.02777778   2 t-inv T
  0.000000  0.333333  0.000000    0.02777778   2 t-inv T
  0.333333 -0.333333 -0.000000    0.02777778   4 t-inv T
 -0.333333 -0.000000 -0.250000    0.02777778   6 t-inv T
  0.000000  0.333333  0.250000    0.02777778   6 t-inv T
  0.333333 -0.000000 -0.250000    0.02777778   7 t-inv T
  0.000000 -0.333333  0.250000    0.02777778   7 t-inv T
  0.333333 -0.333333 -0.250000    0.02777778   9 t-inv T
  0.333333 -0.333333  0.250000    0.02777778   9 t-inv T
 -0.333333 -0.000000 -0.500000    0.02777778  12 t-inv T
  0.000000  0.333333  0.500000    0.02777778  12 t-inv T
  0.333333 -0.333333 -0.500000    0.02777778  14 t-inv T


--------------------------------------------------------------------------------------------------------




 Dimension of arrays:
   k-points           NKPTS =     14   k-points in BZ     NKDIM =     36   number of bands    NBANDS=    160
   number of dos      NEDOS =   2000   number of ions     NIONS =     28
   non local maximal  LDIM  =      6   non local SUM 2l+1 LMDIM =     18
   total plane-waves  NPLWV = 194400
   max r-space proj   IRMAX =      1   max aug-charges    IRDMAX=  16310
   dimension x,y,z NGX =    60 NGY =   60 NGZ =   54
   dimension x,y,z NGXF=   120 NGYF=  120 NGZF=  108
   support grid    NGXF=   120 NGYF=  120 NGZF=  108
   ions per type =               8   4   8   8
   NGX,Y,Z   is equivalent  to a cutoff of  12.97, 12.97, 12.86 a.u.
   NGXF,Y,Z  is equivalent  to a cutoff of  25.94, 25.94, 25.72 a.u.

 SYSTEM =  unknown system                          
 POSCAR =  # Compound: Li8O4S8Fe8. Old comment: Fe8

 Startparameter for this run:
   NWRITE =      1    write-flag & timer
   PREC   = accura    normal or accurate (medium, high low for compatibility)
   ISTART =      0    job   : 0-new  1-cont  2-samecut
   ICHARG =      2    charge: 1-file 2-atom 10-const
   ISPIN  =      2    spin polarized calculation?
   LNONCOLLINEAR =      F non collinear calculations
   LSORBIT =      F    spin-orbit coupling
   INIWAV =      1    electr: 0-lowe 1-rand  2-diag
   LASPH  =      T    aspherical Exc in radial PAW
   METAGGA=      F    non-selfconsistent MetaGGA calc.

 Electronic Relaxation 1
   ENCUT  =  520.0 eV  38.22 Ry    6.18 a.u.  14.30 14.30 12.98*2*pi/ulx,y,z
   ENINI  =  520.0     initial cutoff
   ENAUG  =  628.9 eV  augmentation charge cutoff
   NELM   =    200;   NELMIN=  4; NELMDL= -5     # of ELM steps 
   EDIFF  = 0.3E-04   stopping-criterion for ELM
   LREAL  =      F    real-space projection
   NLSPLINE    = F    spline interpolate recip. space projectors
   LCOMPAT=      F    compatible to vasp.4.4
   GGA_COMPAT  = T    GGA compatible to vasp.4.4-vasp.4.6
   LMAXPAW     = -100 max onsite density
   LMAXMIX     =    2 max onsite mixed and CHGCAR
   VOSKOWN=      0    Vosko Wilk Nusair interpolation
   ROPT   =    0.00000   0.00000   0.00000   0.00000
 Ionic relaxation
   EDIFFG = -.3E-01   stopping-criterion for IOM
   NSW    =     60    number of steps for IOM
   NBLOCK =      1;   KBLOCK =     60    inner block; outer block 
   IBRION =      2    ionic relax: 0-MD 1-quasi-New 2-CG
   NFREE  =      1    steps in history (QN), initial steepest desc. (CG)
   ISIF   =      3    stress and relaxation
   IWAVPR =     11    prediction:  0-non 1-charg 2-wave 3-comb
   ISYM   =      3    0-nonsym 1-usesym 2-fastsym
   LCORR  =      T    Harris-Foulkes like correction to forces

   POTIM  = 0.5000    time-step for ionic-motion
   TEIN   =    0.0    initial temperature
   TEBEG  =    0.0;   TEEND  =   0.0 temperature during run
   SMASS  =  -3.00    Nose mass-parameter (am)
   estimated Nose-frequenzy (Omega)   =  0.10E-29 period in steps = 0.13E+47 mass=  -0.135E-26a.u.
   SCALEE = 1.0000    scale energy and forces
   NPACO  =    256;   APACO  = 16.0  distance and # of slots for P.C.
   PSTRESS=    0.0 pullay stress

  Mass of Ions in am
   POMASS =   7.01 16.00 32.07 55.85
  Ionic Valenz
   ZVAL   =   3.00  6.00  6.00 14.00
  Atomic Wigner-Seitz radii
   RWIGS  =  -1.00 -1.00 -1.00 -1.00
  virtual crystal weights 
   VCA    =   1.00  1.00  1.00  1.00
   NELECT =     208.0000    total number of electrons
   NUPDOWN=      -1.0000    fix difference up-down

 DOS related values:
   EMIN   =  10.00;   EMAX   =-10.00  energy-range for DOS
   EFERMI =   0.00
   ISMEAR =     0;   SIGMA  =   0.05  broadening in eV -4-tet -1-fermi 0-gaus

 Electronic relaxation 2 (details)
   IALGO  =     58    algorithm
   LDIAG  =      T    sub-space diagonalisation (order eigenvalues)
   LSUBROT=      F    optimize rotation matrix (better conditioning)
   TURBO    =      0    0=normal 1=particle mesh
   IRESTART =      0    0=no restart 2=restart with 2 vectors
   NREBOOT  =      0    no. of reboots
   NMIN     =      0    reboot dimension
   EREF     =   0.00    reference energy to select bands
   IMIX   =      4    mixing-type and parameters
     AMIX     =   0.40;   BMIX     =  1.00
     AMIX_MAG =   1.60;   BMIX_MAG =  1.00
     AMIN     =   0.10
     WC   =   100.;   INIMIX=   1;  MIXPRE=   1;  MAXMIX= -45

 Intra band minimization:
   WEIMIN = 0.0010     energy-eigenvalue tresh-hold
   EBREAK =  0.44E-07  absolut break condition
   DEPER  =   0.30     relativ break condition  

   TIME   =   0.30     timestep for ELM

  volume/ion in A,a.u.               =      13.58        91.61
  Fermi-wavevector in a.u.,A,eV,Ry     =   1.339026  2.530392 24.395113  1.792990
  Thomas-Fermi vector in A             =   2.467450

 Write flags
   LWAVE        =      T    write WAVECAR
   LDOWNSAMPLE  =      F    k-point downsampling of WAVECAR
   LCHARG       =      T    write CHGCAR
   LVTOT        =      F    write LOCPOT, total local potential
   LVHAR        =      T    write LOCPOT, Hartree potential only
   LELF         =      F    write electronic localiz. function (ELF)
   LORBIT       =     11    0 simple, 1 ext, 2 COOP (PROOUT), +10 PAW based schemes


 Dipole corrections
   LMONO  =      F    monopole corrections only (constant potential shift)
   LDIPOL =      F    correct potential (dipole corrections)
   IDIPOL =      0    1-x, 2-y, 3-z, 4-all directions 
   EPSILON=  1.0000000 bulk dielectric constant

 Exchange correlation treatment:
   GGA     =    PE    GGA type
   LEXCH   =     8    internal setting for exchange type
   VOSKOWN=      0    Vosko Wilk Nusair interpolation
   EXXOEP  =     0    0=HF, 1=EXX-LHF (local Hartree Fock) 2=EXX OEP
   LHFCALC =     T    Hartree Fock is set to
   LSYMGRAD=     F    symmetrize gradient (conserves proper symmetry)
   PRECFOCK=fast      Normal, Fast or Accurate (Low or Medium for compatibility)
   LRHFCALC=     F    long range Hartree Fock
   LRSCOR  =     F    long range correlation only (use DFT for short range part)
   LTHOMAS =     F    Thomas Fermi screening in HF
   LMODELHF=     F    short range full HF, long range fraction AEXX
   LFOCKACE=     T    use Adeptively-Compressed-Exchange operator
   ENCUT4O =  -1.0   cutoff for four orbital integrals eV
   LMAXFOCK=     4    L truncation for augmentation on plane wave grid
   LMAXFOCKAE=  -1    L truncation for all-electron charge restoration on plane wave grid
   NMAXFOCKAE=   1    number of basis functions for all-electron charge restoration
   LFOCKAEDFT=     F  apply the AE augmentation even for DFT
   NKREDX  =     1    reduce k-point grid by
   NKREDY  =     1    reduce k-point grid by
   NKREDZ  =     1    reduce k-point grid by
   SHIFTRED=     F    shift reduced grid of Gamma
   HFKIDENT=     F    idential grid for each k-point
   ODDONLY =     F    use only odd q-grid points
   EVENONLY=     F    use only even q-grid points
   HFALPHA =   -1.0000 decay constant for conv. correction
   MCALPHA =    0.0000 extent of test-charge in conv. correction in multipole expansion
   AEXX    =    0.2500 exact exchange contribution
   HFSCREEN=    0.2070 screening length (either q_TF or 0.3 A-1)
   HFSCREENC=   0.2070 screening length for correlation (either q_TF or 0.3 A-1)
   HFRCUT  =    0.0000 spherical cutoff for potential kernel
   ALDAX   =    0.7500 LDA exchange part
   AGGAX   =    0.7500 GGA exchange part
   ALDAC   =    1.0000 LDA correlation
   AGGAC   =    1.0000 GGA correlation
   ENCUTFOCK=  -1.0 apply spherical cutoff to Coloumb kernel
   NBANDSGWLOW=     1    first orbital included in HF term
   NBLOCK_FOCK=    64    blocking factor in FOCK_ACC
 Linear response parameters
   LEPSILON=     F    determine dielectric tensor
   LRPA    =     F    only Hartree local field effects (RPA)
   LNABLA  =     F    use nabla operator in PAW spheres
   LVEL    =     F    velocity operator in full k-point grid
   LINTERFAST=   F  fast interpolation
   KINTER  =     0    interpolate to denser k-point grid
   CSHIFT  =0.1000    complex shift for real part using Kramers Kronig
   OMEGAMAX=  -1.0    maximum frequency
   DEG_THRESHOLD= 0.2000000E-02 threshold for treating states as degnerate
   RTIME   =   -0.100 relaxation time in fs
  (WPLASMAI=    0.000 imaginary part of plasma frequency in eV, 0.658/RTIME)
   DFIELD  = 0.0000000 0.0000000 0.0000000 field for delta impulse in time

 Orbital magnetization related:
   ORBITALMAG=     F  switch on orbital magnetization
   LCHIMAG   =     F  perturbation theory with respect to B field
   DQ        =  0.001000  dq finite difference perturbation B field
   LLRAUG    =     F  two centre corrections for induced B field



--------------------------------------------------------------------------------------------------------


 conjugate gradient relaxation of ions
 charge density and potential will be updated during run
 spin polarized calculation
 Conjugate gradient for all bands (Freysoldt, et al. PRB 79, 241103 (2009))
 preconditioned conjugated gradient                                        
 perform sub-space diagonalisation
    before iterative eigenvector-optimisation
 modified Broyden-mixing scheme, WC =      100.0
 initial mixing is a Kerker type mixing with AMIX =  0.4000 and BMIX =      1.0000
 Hartree-type preconditioning will be used
 using additional bands           56
 reciprocal scheme for non local part
 use partial core corrections
 no Harris-corrections to forces 
 use gradient corrections 
 use of overlap-Matrix (Vanderbilt PP)
 Gauss-broadening in eV      SIGMA  =   0.05


--------------------------------------------------------------------------------------------------------


  energy-cutoff  :      520.00
  volume of cell :      380.12
      direct lattice vectors                 reciprocal lattice vectors
     7.689798720  0.001303990 -0.006339020     0.130074377  0.000055440  0.038783634
    -0.001387440  7.689809630 -0.006339030     0.000009914  0.130074204  0.038783622
    -1.916794120 -1.917467270  6.431375320     0.000128216  0.000128261  0.155564191

  length of vectors
     7.689801443  7.689812368  6.979496324     0.135733256  0.135733076  0.155564297



 k-points in units of 2pi/SCALE and weight: # No comment                            
   0.00000000  0.00000000  0.00000000       0.028
   0.04335813  0.00001848  0.01292788       0.111
   0.04336143  0.04337655  0.02585575       0.056
  -0.04335482  0.04333959 -0.00000000       0.056
   0.00003205  0.00003207  0.03889105       0.056
   0.04339018  0.00005055  0.05181893       0.111
  -0.04332607  0.00001359  0.02596317       0.111
   0.04339348  0.04340861  0.06474680       0.056
  -0.04332277  0.04337165  0.03889104       0.111
  -0.04332938 -0.04334448  0.01303530       0.056
   0.00006411  0.00006413  0.07778210       0.028
   0.04342223  0.00008261  0.09070997       0.111
   0.04342554  0.04344068  0.10363785       0.056
  -0.04329071  0.04340372  0.07778209       0.056

 k-points in reciprocal lattice and weights: # No comment                            
   0.00000000  0.00000000  0.00000000       0.028
   0.33333333  0.00000000  0.00000000       0.111
   0.33333333  0.33333333  0.00000000       0.056
  -0.33333333  0.33333333  0.00000000       0.056
   0.00000000  0.00000000  0.25000000       0.056
   0.33333333  0.00000000  0.25000000       0.111
  -0.33333333  0.00000000  0.25000000       0.111
   0.33333333  0.33333333  0.25000000       0.056
  -0.33333333  0.33333333  0.25000000       0.111
  -0.33333333 -0.33333333  0.25000000       0.056
   0.00000000  0.00000000  0.50000000       0.028
   0.33333333  0.00000000  0.50000000       0.111
   0.33333333  0.33333333  0.50000000       0.056
  -0.33333333  0.33333333  0.50000000       0.056

 position of ions in fractional coordinates (direct lattice) 
   0.22410326  0.06241819  0.00000356
   0.72410877  0.98936899  0.00002188
   0.22410877  0.48936899  0.00002188
   0.72410326  0.56241819  0.00000356
   0.51063102  0.27589123  0.99997812
   0.93758180  0.27589674  0.99999644
   0.43758180  0.77589674  0.99999644
   0.01063102  0.77589123  0.99997812
   0.47410200  0.02589620  0.99999793
   0.97410431  0.02589850  0.00000207
   0.47410431  0.52589850  0.00000207
   0.97410200  0.52589620  0.99999793
   0.29981039  0.35161717  0.30285864
   0.79981018  0.35161619  0.30285177
   0.29981018  0.85161619  0.30285177
   0.79981039  0.85161717  0.30285864
   0.14838381  0.20018982  0.69714823
   0.64838283  0.20018961  0.69714136
   0.14838283  0.70018961  0.69714136
   0.64838381  0.70018982  0.69714823
   0.05356524  0.10542727  0.31798246
   0.55355086  0.10542322  0.31797566
   0.05355086  0.60542322  0.31797566
   0.55356524  0.60542727  0.31798246
   0.39457678  0.44644914  0.68202434
   0.89457273  0.44643476  0.68201754
   0.39457273  0.94643476  0.68201754
   0.89457678  0.94644914  0.68202434

 position of ions in cartesian coordinates  (Angst):
   1.72321554  0.48026940 -0.00179337
   5.56683606  7.60896146 -0.01072106
   1.72263042  3.76340465 -0.00438204
   5.56742118  4.32582621 -0.00813240
   2.00951480  0.20479158  6.42624882
   5.29264524  0.20535556  6.42366016
   1.44705216  4.04960838  6.42366015
  -1.83607828  4.04904440  6.42624881
   1.72892287 -1.71770823  6.42819251
   7.49062618  0.20042079 -0.00632573
   3.64503310  4.04467361 -0.00632573
   5.57312851  2.12784858  6.42185348
   1.72447605  2.12353852  1.94366817
   5.56938696  2.12419615  1.94045448
   1.72379388  5.96844897  1.94045448
   5.56868169  5.96909533  1.93732914
  -0.19552575  0.20285618  4.48141230
   3.64937925  0.20351974  4.47819862
  -0.19621383  4.04777256  4.47819861
   3.64867989  4.04841299  4.47507328
  -0.19774727  0.20106453  2.04405669
   3.64705455  0.20169840  2.04084356
  -0.19853853  4.04595122  2.04084356
   3.64645837  4.04662134  2.03771766
   1.72629635  2.12586407  4.38102322
   5.57117762  2.12641852  4.37781010
   1.72558454  5.97067134  4.37781009
   5.57050199  5.97142088  4.37468420



--------------------------------------------------------------------------------------------------------


 k-point   1 :   0.0000 0.0000 0.0000  plane waves:   10193
 k-point   2 :   0.3333 0.0000 0.0000  plane waves:   10234
 k-point   3 :   0.3333 0.3333 0.0000  plane waves:   10218
 k-point   4 :  -0.3333 0.3333 0.0000  plane waves:   10206
 k-point   5 :   0.0000 0.0000 0.2500  plane waves:   10242
 k-point   6 :   0.3333 0.0000 0.2500  plane waves:   10235
 k-point   7 :  -0.3333 0.0000 0.2500  plane waves:   10264
 k-point   8 :   0.3333 0.3333 0.2500  plane waves:   10215
 k-point   9 :  -0.3333 0.3333 0.2500  plane waves:   10226
 k-point  10 :  -0.3333-0.3333 0.2500  plane waves:   10244
 k-point  11 :   0.0000 0.0000 0.5000  plane waves:   10226
 k-point  12 :   0.3333 0.0000 0.5000  plane waves:   10250
 k-point  13 :   0.3333 0.3333 0.5000  plane waves:   10243
 k-point  14 :  -0.3333 0.3333 0.5000  plane waves:   10256

 maximum and minimum number of plane-waves per node :     10264    10193

 maximum number of plane-waves:     10264
 maximum index in each direction: 
   IXMAX=   14   IYMAX=   14   IZMAX=   12
   IXMIN=  -14   IYMIN=  -14   IZMIN=  -13


 serial   3D FFT for wavefunctions
 parallel 3D FFT for charge:
    minimum data exchange during FFTs selected (reduces bandwidth)


 FFT grid for exact exchange (Hartree Fock) 
  NGX = 30; NGY = 30; NGZ = 28


 Radii for the augmentation spheres in the non-local exchange
 for species   1 augmentation radius   0.956 (default was   0.708)
       energy cutoff for augmentation   2080.0
 for species   2 augmentation radius   0.974 (default was   0.722)
       energy cutoff for augmentation   2080.0
 for species   3 augmentation radius   1.309 (default was   0.970)
       energy cutoff for augmentation   2080.0
 for species   4 augmentation radius   1.283 (default was   0.950)
       energy cutoff for augmentation   2080.0
 Maximum index for augmentation-charges in exchange          622
  SETUP_FOCK is finished

 total amount of memory used by VASP MPI-rank0   214770. kBytes
=======================================================================

   base      :      30000. kBytes
   nonl-proj :      87435. kBytes
   fftplans  :       2549. kBytes
   grid      :      20720. kBytes
   one-center:        870. kBytes
   HF        :        259. kBytes
   nonlr-proj:       1975. kBytes
   wavefun   :      70962. kBytes

     INWAV:  cpu time    0.0000: real time    0.0000
 Broyden mixing: mesh for mixing (old mesh)
   NGX = 29   NGY = 29   NGZ = 25
  (NGX  =120   NGY  =120   NGZ  =108)
  gives a total of  21025 points

 initial charge density was supplied:
 charge density of overlapping atoms calculated
 number of electron     208.0000000 magnetization      52.0000000
 keeping initial charge density in first step


--------------------------------------------------------------------------------------------------------


 Maximum index for augmentation-charges          740 (set IRDMAX)


--------------------------------------------------------------------------------------------------------


 First call to EWALD:  gamma=   0.245
 Maximum number of real-space cells 3x 3x 3
 Maximum number of reciprocal cells 3x 3x 3

    FEWALD:  cpu time    0.0252: real time    0.0252


--------------------------------------- Iteration      1(   1)  ---------------------------------------


    POTLOK:  cpu time    0.1234: real time    0.1235
    SETDIJ:  cpu time    0.9696: real time    0.9697
    TRIAL :  cpu time    1.1941: real time    1.2902
    CORREC:  cpu time    0.0017: real time    0.0017
    --------------------------------------------
      LOOP:  cpu time    2.3395: real time    2.4368

 eigenvalue-minimisations  :  8960
 total energy-change (2. order) :-0.1696596E+04  (-0.1158792E+05)
 number of electron     208.0000000 magnetization      52.0000000
 augmentation part      208.0000000 magnetization      52.0000000

 Free energy of the ion-electron system (eV)
  ---------------------------------------------------
  alpha Z        PSCENC =       586.34135829
  Ewald energy   TEWEN  =    -15396.59688743
  -Hartree energ DENC   =     -7983.69895025
  -exchange      EXHF   =         0.00000000
  -V(xc)+E(xc)   XCENC  =       892.63059743
  PAW double counting   =     19754.79240331   -23991.15132959
  entropy T*S    EENTRO =        -0.01280150
  eigenvalues    EBANDS =      -710.96203090
  atomic energy  EATOM  =     25152.06171088
  ---------------------------------------------------
  free energy    TOTEN  =     -1696.59592975 eV

  energy without entropy =    -1696.58312825  energy(sigma->0) =    -1696.58952900
  exchange ACFDT corr.  =         0.00000000  see jH, gK, PRB 81, 115126


--------------------------------------------------------------------------------------------------------




--------------------------------------- Iteration      1(   2)  ---------------------------------------


    TRIAL :  cpu time    1.1099: real time    1.1101
    CORREC:  cpu time    0.0017: real time    0.0017
    --------------------------------------------
      LOOP:  cpu time    1.1208: real time    1.1353

 eigenvalue-minimisations  :  8960
 total energy-change (2. order) :-0.2205693E+04  (-0.2062552E+04)
 number of electron     208.0000000 magnetization      52.0000000
 augmentation part      208.0000000 magnetization      52.0000000

 Free energy of the ion-electron system (eV)
  ---------------------------------------------------
  alpha Z        PSCENC =       586.34135829
  Ewald energy   TEWEN  =    -15396.59688743
  -Hartree energ DENC   =     -7983.69895025
  -exchange      EXHF   =         0.00000000
  -V(xc)+E(xc)   XCENC  =       892.63059743
  PAW double counting   =     19754.79240331   -23991.15132959
  entropy T*S    EENTRO =        -0.02688821
  eigenvalues    EBANDS =     -2916.64137286
  atomic energy  EATOM  =     25152.06171088
  ---------------------------------------------------
  free energy    TOTEN  =     -3902.28935841 eV

  energy without entropy =    -3902.26247020  energy(sigma->0) =    -3902.27591430
  exchange ACFDT corr.  =         0.00000000  see jH, gK, PRB 81, 115126


--------------------------------------------------------------------------------------------------------




--------------------------------------- Iteration      1(   3)  ---------------------------------------


    TRIAL :  cpu time    1.3632: real time    1.3638
    CORREC:  cpu time    0.0017: real time    0.0017
    --------------------------------------------
      LOOP:  cpu time    1.3743: real time    1.3873

 eigenvalue-minimisations  : 10688
 total energy-change (2. order) :-0.2212969E+03  (-0.2164369E+03)
 number of electron     208.0000000 magnetization      52.0000000
 augmentation part      208.0000000 magnetization      52.0000000

 Free energy of the ion-electron system (eV)
  ---------------------------------------------------
  alpha Z        PSCENC =       586.34135829
  Ewald energy   TEWEN  =    -15396.59688743
  -Hartree energ DENC   =     -7983.69895025
  -exchange      EXHF   =         0.00000000
  -V(xc)+E(xc)   XCENC  =       892.63059743
  PAW double counting   =     19754.79240331   -23991.15132959
  entropy T*S    EENTRO =        -0.02559873
  eigenvalues    EBANDS =     -3137.93951418
  atomic energy  EATOM  =     25152.06171088
  ---------------------------------------------------
  free energy    TOTEN  =     -4123.58621025 eV

  energy without entropy =    -4123.56061152  energy(sigma->0) =    -4123.57341089
  exchange ACFDT corr.  =         0.00000000  see jH, gK, PRB 81, 115126


--------------------------------------------------------------------------------------------------------




--------------------------------------- Iteration      1(   4)  ---------------------------------------


    TRIAL :  cpu time    2.1123: real time    2.1127
    CORREC:  cpu time    0.0018: real time    0.0018
    --------------------------------------------
      LOOP:  cpu time    2.1359: real time    2.1366

 eigenvalue-minimisations  : 17472
 total energy-change (2. order) :-0.2721059E+02  (-0.2691736E+02)
 number of electron     208.0000000 magnetization      52.0000000
 augmentation part      208.0000000 magnetization      52.0000000

 Free energy of the ion-electron system (eV)
  ---------------------------------------------------
  alpha Z        PSCENC =       586.34135829
  Ewald energy   TEWEN  =    -15396.59688743
  -Hartree energ DENC   =     -7983.69895025
  -exchange      EXHF   =         0.00000000
  -V(xc)+E(xc)   XCENC  =       892.63059743
  PAW double counting   =     19754.79240331   -23991.15132959
  entropy T*S    EENTRO =        -0.02482330
  eigenvalues    EBANDS =     -3165.15088396
  atomic energy  EATOM  =     25152.06171088
  ---------------------------------------------------
  free energy    TOTEN  =     -4150.79680461 eV

  energy without entropy =    -4150.77198131  energy(sigma->0) =    -4150.78439296
  exchange ACFDT corr.  =         0.00000000  see jH, gK, PRB 81, 115126


--------------------------------------------------------------------------------------------------------




--------------------------------------- Iteration      1(   5)  ---------------------------------------


    POTLOK:  cpu time    0.2375: real time    0.2375
    SETDIJ:  cpu time    2.0785: real time    2.0789
    TRIAL :  cpu time  109.7348: real time  109.7934
    CORREC:  cpu time    0.0019: real time    0.0019
    CHARGE:  cpu time    0.1304: real time    0.1305
    --------------------------------------------
      LOOP:  cpu time  112.1919: real time  112.2643

 eigenvalue-minimisations  :  9920
 total energy-change (2. order) : 0.3907275E+04  (-0.8623806E+01)
 number of electron     207.9999974 magnetization      35.3865180
 augmentation part       66.4785171 magnetization      23.8992331

 Free energy of the ion-electron system (eV)
  ---------------------------------------------------
  alpha Z        PSCENC =       586.34135829
  Ewald energy   TEWEN  =    -15396.59688743
  -Hartree energ DENC   =     -7983.69895025
  -exchange      EXHF   =       603.19527496
  -V(xc)+E(xc)   XCENC  =       678.41514658
  PAW double counting   =     19959.52484208   -20654.22352958
  entropy T*S    EENTRO =        -0.01229191
  eigenvalues    EBANDS =     -3188.52803384
  atomic energy  EATOM  =     25152.06171088
  ---------------------------------------------------
  free energy    TOTEN  =      -243.52136021 eV

  energy without entropy =     -243.50906830  energy(sigma->0) =     -243.51521425
  exchange ACFDT corr.  =        -0.03742394  see jH, gK, PRB 81, 115126


--------------------------------------------------------------------------------------------------------




--------------------------------------- Iteration      1(   6)  ---------------------------------------


    POTLOK:  cpu time    0.2370: real time    0.2370
    SETDIJ:  cpu time    2.0572: real time    2.0579
    TRIAL :  cpu time  116.4897: real time  116.5397
    CORREC:  cpu time  107.4243: real time  107.4826
    CHARGE:  cpu time    0.1261: real time    0.1261
    --------------------------------------------
      LOOP:  cpu time  226.3416: real time  226.4650

 eigenvalue-minimisations  :     0
 total energy-change (2. order) : 0.1569517E+03  (-0.9379962E+02)
 number of electron     207.9999974 magnetization      32.7881104
 augmentation part       72.3034913 magnetization      24.3860997

 Free energy of the ion-electron system (eV)
  ---------------------------------------------------
  alpha Z        PSCENC =       586.34135829
  Ewald energy   TEWEN  =    -15396.59688743
  -Hartree energ DENC   =     -6869.99012855
  -exchange      EXHF   =       593.24237518
  -V(xc)+E(xc)   XCENC  =       660.70318966
  PAW double counting   =     22986.38951637   -23638.82272348
  entropy T*S    EENTRO =        -0.01304240
  eigenvalues    EBANDS =     -4159.88582820
  atomic energy  EATOM  =     25152.06171088
  ---------------------------------------------------
  free energy    TOTEN  =       -86.56970917 eV

  energy without entropy =      -86.55666676  energy(sigma->0) =      -86.56318797
  exchange ACFDT corr.  =        -0.00484337  see jH, gK, PRB 81, 115126


--------------------------------------------------------------------------------------------------------




--------------------------------------- Iteration      1(   7)  ---------------------------------------


    POTLOK:  cpu time    0.2358: real time    0.2358
    SETDIJ:  cpu time    2.0543: real time    2.0547
    TRIAL :  cpu time  109.9190: real time  109.9802
    CORREC:  cpu time  108.6804: real time  108.7339
    CHARGE:  cpu time    0.1265: real time    0.1265
    --------------------------------------------
      LOOP:  cpu time  221.0602: real time  221.1755

 eigenvalue-minimisations  :     0
 total energy-change (2. order) :-0.9375796E+02  (-0.1615012E+02)
 number of electron     207.9999972 magnetization      32.1842588
 augmentation part       71.6283206 magnetization      23.8582029

 Free energy of the ion-electron system (eV)
  ---------------------------------------------------
  alpha Z        PSCENC =       586.34135829
  Ewald energy   TEWEN  =    -15396.59688743
  -Hartree energ DENC   =     -7639.49821767
  -exchange      EXHF   =       596.63388192
  -V(xc)+E(xc)   XCENC  =       677.10825593
  PAW double counting   =     25938.61996177   -26734.69062991
  entropy T*S    EENTRO =        -0.01586422
  eigenvalues    EBANDS =     -3360.29405857
  atomic energy  EATOM  =     25152.06171088
  ---------------------------------------------------
  free energy    TOTEN  =      -180.32766719 eV

  energy without entropy =     -180.31180298  energy(sigma->0) =     -180.31973509
  exchange ACFDT corr.  =        -0.37091445  see jH, gK, PRB 81, 115126


--------------------------------------------------------------------------------------------------------




--------------------------------------- Iteration      1(   8)  ---------------------------------------


    POTLOK:  cpu time    0.2346: real time    0.2346
    SETDIJ:  cpu time    2.0637: real time    2.0642
    TRIAL :  cpu time  100.5370: real time  100.5862
    CORREC:  cpu time  112.1709: real time  112.2232
    CHARGE:  cpu time    0.1259: real time    0.1259
    --------------------------------------------
      LOOP:  cpu time  215.1611: real time  215.2631

 eigenvalue-minimisations  :     0
 total energy-change (2. order) :-0.1623565E+02  (-0.5795633E+01)
 number of electron     207.9999973 magnetization      31.9999993
 augmentation part       70.8448236 magnetization      23.0811416

 Free energy of the ion-electron system (eV)
  ---------------------------------------------------
  alpha Z        PSCENC =       586.34135829
  Ewald energy   TEWEN  =    -15396.59688743
  -Hartree energ DENC   =     -7614.10798627
  -exchange      EXHF   =       591.61365856
  -V(xc)+E(xc)   XCENC  =       672.23499112
  PAW double counting   =     26469.04386302   -27231.39344430
  entropy T*S    EENTRO =        -0.01677369
  eigenvalues    EBANDS =     -3425.74471863
  atomic energy  EATOM  =     25152.06171088
  ---------------------------------------------------
  free energy    TOTEN  =      -196.56331896 eV

  energy without entropy =     -196.54654527  energy(sigma->0) =     -196.55493211
  exchange ACFDT corr.  =        -0.16396592  see jH, gK, PRB 81, 115126


--------------------------------------------------------------------------------------------------------




--------------------------------------- Iteration      1(   9)  ---------------------------------------


    POTLOK:  cpu time    0.2386: real time    0.2386
    SETDIJ:  cpu time    2.0544: real time    2.0560
    TRIAL :  cpu time  110.0062: real time  110.0625
    CORREC:  cpu time  111.9673: real time  112.0291
    CHARGE:  cpu time    0.1253: real time    0.1253
    --------------------------------------------
      LOOP:  cpu time  224.4001: real time  224.5337

 eigenvalue-minimisations  :     0
 total energy-change (2. order) :-0.5730608E+01  (-0.2859664E+01)
 number of electron     207.9999974 magnetization      31.9999992
 augmentation part       71.4396578 magnetization      22.5274779

 Free energy of the ion-electron system (eV)
  ---------------------------------------------------
  alpha Z        PSCENC =       586.34135829
  Ewald energy   TEWEN  =    -15396.59688743
  -Hartree energ DENC   =     -7556.97576184
  -exchange      EXHF   =       588.84517163
  -V(xc)+E(xc)   XCENC  =       668.76772389
  PAW double counting   =     26012.64715902   -26738.76359698
  entropy T*S    EENTRO =        -0.01698581
  eigenvalues    EBANDS =     -3518.60403062
  atomic energy  EATOM  =     25152.06171088
  ---------------------------------------------------
  free energy    TOTEN  =      -202.29392684 eV

  energy without entropy =     -202.27694103  energy(sigma->0) =     -202.28543393
  exchange ACFDT corr.  =        -0.23005936  see jH, gK, PRB 81, 115126


--------------------------------------------------------------------------------------------------------




--------------------------------------- Iteration      1(  10)  ---------------------------------------


    POTLOK:  cpu time    0.2348: real time    0.2348
    SETDIJ:  cpu time    2.0593: real time    2.0607
    TRIAL :  cpu time  107.1379: real time  107.2058
    CORREC:  cpu time  116.2618: real time  116.3098
    CHARGE:  cpu time    0.1250: real time    0.1255
    --------------------------------------------
      LOOP:  cpu time  225.8271: real time  225.9587

 eigenvalue-minimisations  :     0
 total energy-change (2. order) :-0.2832837E+01  (-0.9854149E+00)
 number of electron     207.9999973 magnetization      31.9999992
 augmentation part       71.6887759 magnetization      22.2845438

 Free energy of the ion-electron system (eV)
  ---------------------------------------------------
  alpha Z        PSCENC =       586.34135829
  Ewald energy   TEWEN  =    -15396.59688743
  -Hartree energ DENC   =     -7656.44538553
  -exchange      EXHF   =       588.93896218
  -V(xc)+E(xc)   XCENC  =       670.85633192
  PAW double counting   =     25864.08915040   -26600.69573032
  entropy T*S    EENTRO =        -0.01825656
  eigenvalues    EBANDS =     -3413.65928829
  atomic energy  EATOM  =     25152.06171088
  ---------------------------------------------------
  free energy    TOTEN  =      -205.12676369 eV

  energy without entropy =     -205.10850713  energy(sigma->0) =     -205.11763541
  exchange ACFDT corr.  =        -0.42003964  see jH, gK, PRB 81, 115126


--------------------------------------------------------------------------------------------------------




--------------------------------------- Iteration      1(  11)  ---------------------------------------


    POTLOK:  cpu time    0.2351: real time    0.2351
    SETDIJ:  cpu time    2.0579: real time    2.0583
    TRIAL :  cpu time  109.5761: real time  109.6354
    CORREC:  cpu time  116.3845: real time  116.4494
    CHARGE:  cpu time    0.1255: real time    0.1255
    --------------------------------------------
      LOOP:  cpu time  228.3869: real time  228.5258

 eigenvalue-minimisations  :     0
 total energy-change (2. order) :-0.9539324E+00  (-0.3142784E+00)
 number of electron     207.9999973 magnetization      31.9999992
 augmentation part       71.5680955 magnetization      22.1932904

 Free energy of the ion-electron system (eV)
  ---------------------------------------------------
  alpha Z        PSCENC =       586.34135829
  Ewald energy   TEWEN  =    -15396.59688743
  -Hartree energ DENC   =     -7696.64839342
  -exchange      EXHF   =       588.55197112
  -V(xc)+E(xc)   XCENC  =       671.53251204
  PAW double counting   =     25688.37496018   -26430.52331277
  entropy T*S    EENTRO =        -0.01657293
  eigenvalues    EBANDS =     -3369.15635844
  atomic energy  EATOM  =     25152.06171088
  ---------------------------------------------------
  free energy    TOTEN  =      -206.08069609 eV

  energy without entropy =     -206.06412317  energy(sigma->0) =     -206.07240963
  exchange ACFDT corr.  =        -0.28315021  see jH, gK, PRB 81, 115126


--------------------------------------------------------------------------------------------------------




--------------------------------------- Iteration      1(  12)  ---------------------------------------


    POTLOK:  cpu time    0.2355: real time    0.2355
    SETDIJ:  cpu time    2.0567: real time    2.0573
    TRIAL :  cpu time  109.6698: real time  109.7158
    CORREC:  cpu time  113.8637: real time  113.9259
    CHARGE:  cpu time    0.1269: real time    0.1269
    --------------------------------------------
      LOOP:  cpu time  225.9627: real time  226.0834

 eigenvalue-minimisations  :     0
 total energy-change (2. order) :-0.3207215E+00  (-0.1585376E+00)
 number of electron     207.9999974 magnetization      31.9999992
 augmentation part       71.5419813 magnetization      22.1560372

 Free energy of the ion-electron system (eV)
  ---------------------------------------------------
  alpha Z        PSCENC =       586.34135829
  Ewald energy   TEWEN  =    -15396.59688743
  -Hartree energ DENC   =     -7681.45343461
  -exchange      EXHF   =       587.88167788
  -V(xc)+E(xc)   XCENC  =       670.91741124
  PAW double counting   =     25493.68565151   -26231.71893935
  entropy T*S    EENTRO =        -0.01424819
  eigenvalues    EBANDS =     -3387.50339306
  atomic energy  EATOM  =     25152.06171088
  ---------------------------------------------------
  free energy    TOTEN  =      -206.40141756 eV

  energy without entropy =     -206.38716936  energy(sigma->0) =     -206.39429346
  exchange ACFDT corr.  =        -0.15484731  see jH, gK, PRB 81, 115126


--------------------------------------------------------------------------------------------------------




--------------------------------------- Iteration      1(  13)  ---------------------------------------


    POTLOK:  cpu time    0.2366: real time    0.2366
    SETDIJ:  cpu time    2.0536: real time    2.0545
    TRIAL :  cpu time  109.1314: real time  109.1949
    CORREC:  cpu time  110.2724: real time  110.3332
    CHARGE:  cpu time    0.1252: real time    0.1252
    --------------------------------------------
      LOOP:  cpu time  221.8259: real time  221.9666

 eigenvalue-minimisations  :     0
 total energy-change (2. order) :-0.1575028E+00  (-0.9160365E-01)
 number of electron     207.9999974 magnetization      31.9999992
 augmentation part       71.5542576 magnetization      22.1343075

 Free energy of the ion-electron system (eV)
  ---------------------------------------------------
  alpha Z        PSCENC =       586.34135829
  Ewald energy   TEWEN  =    -15396.59688743
  -Hartree energ DENC   =     -7678.63244046
  -exchange      EXHF   =       587.79241910
  -V(xc)+E(xc)   XCENC  =       670.79953104
  PAW double counting   =     25421.85954090   -26158.48632987
  entropy T*S    EENTRO =        -0.00983584
  eigenvalues    EBANDS =     -3391.68357465
  atomic energy  EATOM  =     25152.06171088
  ---------------------------------------------------
  free energy    TOTEN  =      -206.55892040 eV

  energy without entropy =     -206.54908455  energy(sigma->0) =     -206.55400247
  exchange ACFDT corr.  =        -0.14225018  see jH, gK, PRB 81, 115126


--------------------------------------------------------------------------------------------------------




--------------------------------------- Iteration      1(  14)  ---------------------------------------


    POTLOK:  cpu time    0.2376: real time    0.2376
    SETDIJ:  cpu time    2.0561: real time    2.0568
    TRIAL :  cpu time  111.2886: real time  111.3433
    CORREC:  cpu time  119.6301: real time  119.6973
    CHARGE:  cpu time    0.1269: real time    0.1269
    --------------------------------------------
      LOOP:  cpu time  233.3611: real time  233.4839

 eigenvalue-minimisations  :     0
 total energy-change (2. order) :-0.9082120E-01  (-0.6785750E-01)
 number of electron     207.9999974 magnetization      31.9999992
 augmentation part       71.5713471 magnetization      22.1215429

 Free energy of the ion-electron system (eV)
  ---------------------------------------------------
  alpha Z        PSCENC =       586.34135829
  Ewald energy   TEWEN  =    -15396.59688743
  -Hartree energ DENC   =     -7680.67678315
  -exchange      EXHF   =       587.84980728
  -V(xc)+E(xc)   XCENC  =       670.83512169
  PAW double counting   =     25399.38264625   -26135.93863887
  entropy T*S    EENTRO =        -0.00799656
  eigenvalues    EBANDS =     -3389.89824069
  atomic energy  EATOM  =     25152.06171088
  ---------------------------------------------------
  free energy    TOTEN  =      -206.64974159 eV

  energy without entropy =     -206.64174503  energy(sigma->0) =     -206.64574331
  exchange ACFDT corr.  =        -0.12231606  see jH, gK, PRB 81, 115126


--------------------------------------------------------------------------------------------------------




--------------------------------------- Iteration      1(  15)  ---------------------------------------


    POTLOK:  cpu time    0.2354: real time    0.2354
    SETDIJ:  cpu time    2.0574: real time    2.0579
    TRIAL :  cpu time  109.7704: real time  109.8301
    CORREC:  cpu time  111.3869: real time  111.4473
    CHARGE:  cpu time    0.1252: real time    0.1252
    --------------------------------------------
      LOOP:  cpu time  223.5849: real time  223.7197

 eigenvalue-minimisations  :     0
 total energy-change (2. order) :-0.6235994E-01  (-0.6690719E-01)
 number of electron     207.9999973 magnetization      31.9999992
 augmentation part       71.5858565 magnetization      22.1100217

 Free energy of the ion-electron system (eV)
  ---------------------------------------------------
  alpha Z        PSCENC =       586.34135829
  Ewald energy   TEWEN  =    -15396.59688743
  -Hartree energ DENC   =     -7682.72729413
  -exchange      EXHF   =       587.88858349
  -V(xc)+E(xc)   XCENC  =       670.86439573
  PAW double counting   =     25395.47165818   -26132.34515139
  entropy T*S    EENTRO =        -0.00775150
  eigenvalues    EBANDS =     -3387.66247861
  atomic energy  EATOM  =     25152.06171088
  ---------------------------------------------------
  free energy    TOTEN  =      -206.71210153 eV

  energy without entropy =     -206.70435003  energy(sigma->0) =     -206.70822578
  exchange ACFDT corr.  =        -0.12633367  see jH, gK, PRB 81, 115126


--------------------------------------------------------------------------------------------------------




--------------------------------------- Iteration      1(  16)  ---------------------------------------


    POTLOK:  cpu time    0.2384: real time    0.2388
    SETDIJ:  cpu time    2.0550: real time    2.0555
    TRIAL :  cpu time  110.2745: real time  110.3390
    CORREC:  cpu time  111.4938: real time  111.5598
    CHARGE:  cpu time    0.1253: real time    0.1253
    --------------------------------------------
      LOOP:  cpu time  224.1968: real time  224.3419

 eigenvalue-minimisations  :     0
 total energy-change (2. order) :-0.5290880E-01  (-0.5127371E-01)
 number of electron     207.9999973 magnetization      31.9999992
 augmentation part       71.5937366 magnetization      22.0998299

 Free energy of the ion-electron system (eV)
  ---------------------------------------------------
  alpha Z        PSCENC =       586.34135829
  Ewald energy   TEWEN  =    -15396.59688743
  -Hartree energ DENC   =     -7683.99706982
  -exchange      EXHF   =       587.91505573
  -V(xc)+E(xc)   XCENC  =       670.86640757
  PAW double counting   =     25396.00078108   -26133.20266147
  entropy T*S    EENTRO =        -0.00739425
  eigenvalues    EBANDS =     -3386.14595367
  atomic energy  EATOM  =     25152.06171088
  ---------------------------------------------------
  free energy    TOTEN  =      -206.76501033 eV

  energy without entropy =     -206.75761608  energy(sigma->0) =     -206.76131321
  exchange ACFDT corr.  =        -0.18256470  see jH, gK, PRB 81, 115126


--------------------------------------------------------------------------------------------------------




--------------------------------------- Iteration      1(  17)  ---------------------------------------


    POTLOK:  cpu time    0.2341: real time    0.2341
    SETDIJ:  cpu time    2.0579: real time    2.0585
    TRIAL :  cpu time  113.4769: real time  113.5465
    CORREC:  cpu time  112.4594: real time  112.5190
    CHARGE:  cpu time    0.1273: real time    0.1273
    --------------------------------------------
      LOOP:  cpu time  228.3632: real time  228.5070

 eigenvalue-minimisations  :     0
 total energy-change (2. order) :-0.2641614E-01  (-0.4351930E-01)
 number of electron     207.9999973 magnetization      31.9999992
 augmentation part       71.5974377 magnetization      22.0893662

 Free energy of the ion-electron system (eV)
  ---------------------------------------------------
  alpha Z        PSCENC =       586.34135829
  Ewald energy   TEWEN  =    -15396.59688743
  -Hartree energ DENC   =     -7684.35528795
  -exchange      EXHF   =       587.94307946
  -V(xc)+E(xc)   XCENC  =       670.85063432
  PAW double counting   =     25396.73213549   -26134.10253434
  entropy T*S    EENTRO =        -0.00682488
  eigenvalues    EBANDS =     -3385.65824093
  atomic energy  EATOM  =     25152.06171088
  ---------------------------------------------------
  free energy    TOTEN  =      -206.79142647 eV

  energy without entropy =     -206.78460158  energy(sigma->0) =     -206.78801403
  exchange ACFDT corr.  =        -0.31524146  see jH, gK, PRB 81, 115126


--------------------------------------------------------------------------------------------------------




--------------------------------------- Iteration      1(  18)  ---------------------------------------


    POTLOK:  cpu time    0.2375: real time    0.2375
    SETDIJ:  cpu time    2.0528: real time    2.0558
    TRIAL :  cpu time  109.7057: real time  109.7611
    CORREC:  cpu time  111.4219: real time  111.4623
    CHARGE:  cpu time    0.1249: real time    0.1249
    --------------------------------------------
      LOOP:  cpu time  223.5647: real time  223.6637

 eigenvalue-minimisations  :     0
 total energy-change (2. order) :-0.7271499E-02  (-0.4175191E-01)
 number of electron     207.9999973 magnetization      31.9999993
 augmentation part       71.5985587 magnetization      22.0775194

 Free energy of the ion-electron system (eV)
  ---------------------------------------------------
  alpha Z        PSCENC =       586.34135829
  Ewald energy   TEWEN  =    -15396.59688743
  -Hartree energ DENC   =     -7684.19294265
  -exchange      EXHF   =       587.97980287
  -V(xc)+E(xc)   XCENC  =       670.82628858
  PAW double counting   =     25396.52243414   -26133.93838798
  entropy T*S    EENTRO =        -0.00617451
  eigenvalues    EBANDS =     -3385.79524978
  atomic energy  EATOM  =     25152.06171088
  ---------------------------------------------------
  free energy    TOTEN  =      -206.79869797 eV

  energy without entropy =     -206.79252345  energy(sigma->0) =     -206.79561071
  exchange ACFDT corr.  =        -0.62691762  see jH, gK, PRB 81, 115126


--------------------------------------------------------------------------------------------------------




--------------------------------------- Iteration      1(  19)  ---------------------------------------


    POTLOK:  cpu time    0.2331: real time    0.2331
    SETDIJ:  cpu time    2.0610: real time    2.0615
    TRIAL :  cpu time  116.8653: real time  116.9219
    CORREC:  cpu time  112.4656: real time  112.5167
    CHARGE:  cpu time    0.1261: real time    0.1261
    --------------------------------------------
      LOOP:  cpu time  231.7727: real time  231.8811

 eigenvalue-minimisations  :     0
 total energy-change (2. order) : 0.9644722E-02  (-0.4153512E-01)
 number of electron     207.9999972 magnetization      31.9999993
 augmentation part       71.5978596 magnetization      22.0640637

 Free energy of the ion-electron system (eV)
  ---------------------------------------------------
  alpha Z        PSCENC =       586.34135829
  Ewald energy   TEWEN  =    -15396.59688743
  -Hartree energ DENC   =     -7683.69348208
  -exchange      EXHF   =       588.02638248
  -V(xc)+E(xc)   XCENC  =       670.79565680
  PAW double counting   =     25395.20244373   -26132.57444633
  entropy T*S    EENTRO =        -0.00587877
  eigenvalues    EBANDS =     -3386.34561508
  atomic energy  EATOM  =     25152.06171088
  ---------------------------------------------------
  free energy    TOTEN  =      -206.78905325 eV

  energy without entropy =     -206.78317448  energy(sigma->0) =     -206.78611386
  exchange ACFDT corr.  =        -1.31889004  see jH, gK, PRB 81, 115126


--------------------------------------------------------------------------------------------------------




--------------------------------------- Iteration      1(  20)  ---------------------------------------


    POTLOK:  cpu time    0.2339: real time    0.2339
    SETDIJ:  cpu time    2.0600: real time    2.0605
    TRIAL :  cpu time  111.9283: real time  111.9926
    CORREC:  cpu time  113.9550: real time  114.0149
    CHARGE:  cpu time    0.1263: real time    0.1263
    --------------------------------------------
      LOOP:  cpu time  228.3257: real time  228.4505

 eigenvalue-minimisations  :     0
 total energy-change (2. order) : 0.3012674E-01  (-0.4110702E-01)
 number of electron     207.9999972 magnetization      31.9999993
 augmentation part       71.5964311 magnetization      22.0485985

 Free energy of the ion-electron system (eV)
  ---------------------------------------------------
  alpha Z        PSCENC =       586.34135829
  Ewald energy   TEWEN  =    -15396.59688743
  -Hartree energ DENC   =     -7682.95263305
  -exchange      EXHF   =       588.08143925
  -V(xc)+E(xc)   XCENC  =       670.76018849
  PAW double counting   =     25392.89034632   -26130.14729363
  entropy T*S    EENTRO =        -0.00611197
  eigenvalues    EBANDS =     -3387.19127687
  atomic energy  EATOM  =     25152.06171088
  ---------------------------------------------------
  free energy    TOTEN  =      -206.75892651 eV

  energy without entropy =     -206.75281453  energy(sigma->0) =     -206.75587052
  exchange ACFDT corr.  =        -2.20395935  see jH, gK, PRB 81, 115126


--------------------------------------------------------------------------------------------------------




--------------------------------------- Iteration      1(  21)  ---------------------------------------


    POTLOK:  cpu time    0.2355: real time    0.2355
    SETDIJ:  cpu time    2.0582: real time    2.0612
    TRIAL :  cpu time  110.7595: real time  110.8288
    CORREC:  cpu time  112.9321: real time  112.9821
    CHARGE:  cpu time    0.1255: real time    0.1255
    --------------------------------------------
      LOOP:  cpu time  226.1205: real time  226.2550

 eigenvalue-minimisations  :     0
 total energy-change (2. order) : 0.5555995E-01  (-0.4114095E-01)
 number of electron     207.9999972 magnetization      31.9999993
 augmentation part       71.5953219 magnetization      22.0303400

 Free energy of the ion-electron system (eV)
  ---------------------------------------------------
  alpha Z        PSCENC =       586.34135829
  Ewald energy   TEWEN  =    -15396.59688743
  -Hartree energ DENC   =     -7682.15069292
  -exchange      EXHF   =       588.15108682
  -V(xc)+E(xc)   XCENC  =       670.72467268
  PAW double counting   =     25390.08555004   -26127.18375976
  entropy T*S    EENTRO =        -0.00638050
  eigenvalues    EBANDS =     -3388.13029318
  atomic energy  EATOM  =     25152.06171088
  ---------------------------------------------------
  free energy    TOTEN  =      -206.70336655 eV

  energy without entropy =     -206.69698606  energy(sigma->0) =     -206.70017631
  exchange ACFDT corr.  =        -3.43125321  see jH, gK, PRB 81, 115126


--------------------------------------------------------------------------------------------------------




--------------------------------------- Iteration      1(  22)  ---------------------------------------


    POTLOK:  cpu time    0.2348: real time    0.2355
    SETDIJ:  cpu time    2.0568: real time    2.0573
    TRIAL :  cpu time  109.6327: real time  109.6876
    CORREC:  cpu time  113.0168: real time  113.0751
    CHARGE:  cpu time    0.1237: real time    0.1238
    --------------------------------------------
      LOOP:  cpu time  225.0861: real time  225.2010

 eigenvalue-minimisations  :     0
 total energy-change (2. order) : 0.8836757E-01  (-0.3746444E-01)
 number of electron     207.9999972 magnetization      31.9999993
 augmentation part       71.5948031 magnetization      22.0100203

 Free energy of the ion-electron system (eV)
  ---------------------------------------------------
  alpha Z        PSCENC =       586.34135829
  Ewald energy   TEWEN  =    -15396.59688743
  -Hartree energ DENC   =     -7681.46944967
  -exchange      EXHF   =       588.24485558
  -V(xc)+E(xc)   XCENC  =       670.69383500
  PAW double counting   =     25387.34084286   -26124.25893375
  entropy T*S    EENTRO =        -0.00618492
  eigenvalues    EBANDS =     -3388.96595026
  atomic energy  EATOM  =     25152.06171088
  ---------------------------------------------------
  free energy    TOTEN  =      -206.61499898 eV

  energy without entropy =     -206.60881406  energy(sigma->0) =     -206.61190652
  exchange ACFDT corr.  =        -4.27118017  see jH, gK, PRB 81, 115126


--------------------------------------------------------------------------------------------------------




--------------------------------------- Iteration      1(  23)  ---------------------------------------


    POTLOK:  cpu time    0.2357: real time    0.2360
    SETDIJ:  cpu time    2.0569: real time    2.0576
    TRIAL :  cpu time  109.4626: real time  109.5101
    CORREC:  cpu time  116.4078: real time  116.4694
    CHARGE:  cpu time    0.1257: real time    0.1257
    --------------------------------------------
      LOOP:  cpu time  228.2978: real time  228.4203

 eigenvalue-minimisations  :     0
 total energy-change (2. order) : 0.1283716E+00  (-0.2421617E-01)
 number of electron     207.9999972 magnetization      31.9999993
 augmentation part       71.5947329 magnetization      21.9919654

 Free energy of the ion-electron system (eV)
  ---------------------------------------------------
  alpha Z        PSCENC =       586.34135829
  Ewald energy   TEWEN  =    -15396.59688743
  -Hartree energ DENC   =     -7680.96722762
  -exchange      EXHF   =       588.35250666
  -V(xc)+E(xc)   XCENC  =       670.66800386
  PAW double counting   =     25385.03804895   -26121.76981898
  entropy T*S    EENTRO =        -0.00595879
  eigenvalues    EBANDS =     -3389.60813707
  atomic energy  EATOM  =     25152.06171088
  ---------------------------------------------------
  free energy    TOTEN  =      -206.48662738 eV

  energy without entropy =     -206.48066859  energy(sigma->0) =     -206.48364798
  exchange ACFDT corr.  =        -4.88656131  see jH, gK, PRB 81, 115126


--------------------------------------------------------------------------------------------------------




--------------------------------------- Iteration      1(  24)  ---------------------------------------


    POTLOK:  cpu time    0.2343: real time    0.2343
    SETDIJ:  cpu time    2.0576: real time    2.0582
    TRIAL :  cpu time  109.9735: real time  110.0181
    CORREC:  cpu time  112.4487: real time  112.5013
    CHARGE:  cpu time    0.1250: real time    0.1250
    --------------------------------------------
      LOOP:  cpu time  224.8488: real time  224.9583

 eigenvalue-minimisations  :     0
 total energy-change (2. order) : 0.1382632E+00  (-0.2421917E-01)
 number of electron     207.9999972 magnetization      31.9999993
 augmentation part       71.5955859 magnetization      21.9723953

 Free energy of the ion-electron system (eV)
  ---------------------------------------------------
  alpha Z        PSCENC =       586.34135829
  Ewald energy   TEWEN  =    -15396.59688743
  -Hartree energ DENC   =     -7680.66406915
  -exchange      EXHF   =       588.44311305
  -V(xc)+E(xc)   XCENC  =       670.64837869
  PAW double counting   =     25383.53808034   -26120.11128288
  entropy T*S    EENTRO =        -0.00594827
  eigenvalues    EBANDS =     -3390.00280715
  atomic energy  EATOM  =     25152.06171088
  ---------------------------------------------------
  free energy    TOTEN  =      -206.34836415 eV

  energy without entropy =     -206.34241587  energy(sigma->0) =     -206.34539001
  exchange ACFDT corr.  =        -5.23390448  see jH, gK, PRB 81, 115126


--------------------------------------------------------------------------------------------------------




--------------------------------------- Iteration      1(  25)  ---------------------------------------


    POTLOK:  cpu time    0.2375: real time    0.2375
    SETDIJ:  cpu time    2.0549: real time    2.0556
    TRIAL :  cpu time  110.0205: real time  110.0735
    CORREC:  cpu time  112.1271: real time  112.1853
    CHARGE:  cpu time    0.1255: real time    0.1255
    --------------------------------------------
      LOOP:  cpu time  224.5728: real time  224.6994

 eigenvalue-minimisations  :     0
 total energy-change (2. order) : 0.1611534E+00  (-0.3308791E-01)
 number of electron     207.9999972 magnetization      31.9999994
 augmentation part       71.5991447 magnetization      21.9465218

 Free energy of the ion-electron system (eV)
  ---------------------------------------------------
  alpha Z        PSCENC =       586.34135829
  Ewald energy   TEWEN  =    -15396.59688743
  -Hartree energ DENC   =     -7680.56915005
  -exchange      EXHF   =       588.54065277
  -V(xc)+E(xc)   XCENC  =       670.63345346
  PAW double counting   =     25382.68319867   -26119.10398729
  entropy T*S    EENTRO =        -0.00626791
  eigenvalues    EBANDS =     -3390.17161182
  atomic energy  EATOM  =     25152.06171088
  ---------------------------------------------------
  free energy    TOTEN  =      -206.18721079 eV

  energy without entropy =     -206.18094288  energy(sigma->0) =     -206.18407683
  exchange ACFDT corr.  =        -5.49099550  see jH, gK, PRB 81, 115126


--------------------------------------------------------------------------------------------------------




--------------------------------------- Iteration      1(  26)  ---------------------------------------


    POTLOK:  cpu time    0.2347: real time    0.2347
    SETDIJ:  cpu time    2.0569: real time    2.0597
    TRIAL :  cpu time  110.9384: real time  111.0013
    CORREC:  cpu time  114.7496: real time  114.8120
    CHARGE:  cpu time    0.1256: real time    0.1256
    --------------------------------------------
      LOOP:  cpu time  228.1166: real time  228.2555

 eigenvalue-minimisations  :     0
 total energy-change (2. order) : 0.2068154E+00  (-0.4782424E-01)
 number of electron     207.9999971 magnetization      31.9999994
 augmentation part       71.6070950 magnetization      21.9114596

 Free energy of the ion-electron system (eV)
  ---------------------------------------------------
  alpha Z        PSCENC =       586.34135829
  Ewald energy   TEWEN  =    -15396.59688743
  -Hartree energ DENC   =     -7680.98918555
  -exchange      EXHF   =       588.67984912
  -V(xc)+E(xc)   XCENC  =       670.62921051
  PAW double counting   =     25383.11801334   -26119.39534639
  entropy T*S    EENTRO =        -0.00614838
  eigenvalues    EBANDS =     -3389.82285023
  atomic energy  EATOM  =     25152.06171088
  ---------------------------------------------------
  free energy    TOTEN  =      -205.98039536 eV

  energy without entropy =     -205.97424698  energy(sigma->0) =     -205.97732117
  exchange ACFDT corr.  =        -5.48501446  see jH, gK, PRB 81, 115126


--------------------------------------------------------------------------------------------------------




--------------------------------------- Iteration      1(  27)  ---------------------------------------


    POTLOK:  cpu time    0.2341: real time    0.2341
    SETDIJ:  cpu time    2.0657: real time    2.0663
    TRIAL :  cpu time  109.5109: real time  109.5747
    CORREC:  cpu time  110.7996: real time  110.8545
    CHARGE:  cpu time    0.1257: real time    0.1257
    --------------------------------------------
      LOOP:  cpu time  222.7443: real time  222.8773

 eigenvalue-minimisations  :     0
 total energy-change (2. order) : 0.2812561E+00  (-0.1330744E+01)
 number of electron     207.9999971 magnetization      31.9999994
 augmentation part       71.6259627 magnetization      21.9091370

 Free energy of the ion-electron system (eV)
  ---------------------------------------------------
  alpha Z        PSCENC =       586.34135829
  Ewald energy   TEWEN  =    -15396.59688743
  -Hartree energ DENC   =     -7682.22976020
  -exchange      EXHF   =       588.87767798
  -V(xc)+E(xc)   XCENC  =       670.64236564
  PAW double counting   =     25385.87604141   -26122.03769755
  entropy T*S    EENTRO =        -0.00416158
  eigenvalues    EBANDS =     -3388.62779994
  atomic energy  EATOM  =     25152.06171088
  ---------------------------------------------------
  free energy    TOTEN  =      -205.69913930 eV

  energy without entropy =     -205.69497771  energy(sigma->0) =     -205.69705851
  exchange ACFDT corr.  =        -5.48758677  see jH, gK, PRB 81, 115126


--------------------------------------------------------------------------------------------------------




--------------------------------------- Iteration      1(  28)  ---------------------------------------


    POTLOK:  cpu time    0.2342: real time    0.2342
    SETDIJ:  cpu time    2.0589: real time    2.0595
    TRIAL :  cpu time  110.6970: real time  110.7641
    CORREC:  cpu time  117.3482: real time  117.4221
    CHARGE:  cpu time    0.1250: real time    0.1254
    --------------------------------------------
      LOOP:  cpu time  230.4713: real time  230.6271

 eigenvalue-minimisations  :     0
 total energy-change (2. order) :-0.1207295E+01  (-0.4053554E+00)
 number of electron     207.9999971 magnetization      31.9999994
 augmentation part       71.6370305 magnetization      21.9037210

 Free energy of the ion-electron system (eV)
  ---------------------------------------------------
  alpha Z        PSCENC =       586.34135829
  Ewald energy   TEWEN  =    -15396.59688743
  -Hartree energ DENC   =     -7685.64200055
  -exchange      EXHF   =       589.16042915
  -V(xc)+E(xc)   XCENC  =       670.76900346
  PAW double counting   =     25390.19815726   -26126.58656809
  entropy T*S    EENTRO =        -0.00392771
  eigenvalues    EBANDS =     -3386.60747598
  atomic energy  EATOM  =     25152.06171088
  ---------------------------------------------------
  free energy    TOTEN  =      -206.90643459 eV

  energy without entropy =     -206.90250688  energy(sigma->0) =     -206.90447073
  exchange ACFDT corr.  =        -0.53850204  see jH, gK, PRB 81, 115126


--------------------------------------------------------------------------------------------------------




--------------------------------------- Iteration      1(  29)  ---------------------------------------


    POTLOK:  cpu time    0.2352: real time    0.2352
    SETDIJ:  cpu time    2.0564: real time    2.0570
    TRIAL :  cpu time  109.3305: real time  109.3863
[...]
    101       8.3894      0.00000
    102       8.4701      0.00000
    103       8.5333      0.00000
    104       8.6059      0.00000
    105       8.6558      0.00000
    106       8.6884      0.00000
    107       8.6884      0.00000
    108       8.7746      0.00000
    109       8.7747      0.00000
    110       8.9476      0.00000
    111       9.0126      0.00000
    112       9.0126      0.00000
    113       9.0832      0.00000
    114       9.2000      0.00000
    115       9.5828      0.00000
    116       9.5831      0.00000
    117       9.6555      0.00000
    118       9.7977      0.00000
    119      10.0098      0.00000
    120      10.0100      0.00000
    121      10.6534      0.00000
    122      10.9299      0.00000
    123      11.3408      0.00000
    124      11.3415      0.00000
    125      11.6910      0.00000
    126      11.6915      0.00000
    127      12.2131      0.00000
    128      12.2134      0.00000
    129      12.2236      0.00000
    130      12.3864      0.00000
    131      12.4482      0.00000
    132      12.5627      0.00000
    133      12.5631      0.00000
    134      12.7164      0.00000
    135      13.1273      0.00000
    136      13.1298      0.00000
    137      13.1763      0.00000
    138      13.2378      0.00000
    139      13.3650      0.00000
    140      13.6523      0.00000
    141      13.7911      0.00000
    142      13.7945      0.00000
    143      13.7956      0.00000
    144      14.0374      0.00000
    145      14.2512      0.00000
    146      14.3743      0.00000
    147      14.5360      0.00000
    148      14.5361      0.00000
    149      14.7062      0.00000
    150      14.7260      0.00000
    151      14.7265      0.00000
    152      15.1093      0.00000
    153      15.4049      0.00000
    154      15.5338      0.00000
    155      15.5345      0.00000
    156      15.5993      0.00000
    157      15.6519      0.00000
    158      16.0386      0.00000
    159      16.0399      0.00000
    160      16.0692      0.00000


--------------------------------------------------------------------------------------------------------


 soft charge-density along one line, spin component           1
         0         1         2         3         4         5         6         7         8         9
 total charge-density along one line

 soft charge-density along one line, spin component           2
         0         1         2         3         4         5         6         7         8         9
 total charge-density along one line

 pseudopotential strength for first ion, spin component:           1
-34.728   4.882  -0.000  -0.000  -0.000
  4.882 -11.491   0.000  -0.000   0.000
 -0.000   0.000   0.027  -0.000   0.000
 -0.000  -0.000  -0.000   0.026   0.000
 -0.000   0.000   0.000   0.000   0.015
 pseudopotential strength for first ion, spin component:           2
-34.729   4.882  -0.000  -0.000  -0.000
  4.882 -11.490   0.001  -0.000   0.000
 -0.000   0.001   0.027  -0.000   0.000
 -0.000  -0.000  -0.000   0.026   0.000
 -0.000   0.000   0.000   0.000   0.014
 total augmentation occupancy for first ion, spin component:           1
  1.999  -0.025   0.001   0.000   0.000
 -0.025   0.779   0.003   0.000   0.000
  0.001   0.003   0.022   0.000  -0.000
  0.000   0.000   0.000   0.025  -0.000
  0.000   0.000  -0.000  -0.000   0.058
 total augmentation occupancy for first ion, spin component:           2
  0.000  -0.000   0.000  -0.000  -0.000
 -0.000  -0.006   0.003  -0.000  -0.000
  0.000   0.003   0.001  -0.000  -0.000
 -0.000  -0.000  -0.000   0.000   0.000
 -0.000  -0.000  -0.000   0.000  -0.001


------------------------ aborting loop because EDIFF is reached ----------------------------------------





 total charge

# of ion       s       p       d       tot
------------------------------------------
    1        2.025   0.074   0.000   2.100
    2        2.025   0.074   0.000   2.100
    3        2.025   0.074   0.000   2.100
    4        2.025   0.074   0.000   2.100
    5        2.025   0.074   0.000   2.100
    6        2.025   0.074   0.000   2.100
    7        2.025   0.074   0.000   2.100
    8        2.025   0.074   0.000   2.100
    9        1.552   3.548   0.000   5.100
   10        1.552   3.548   0.000   5.100
   11        1.552   3.548   0.000   5.100
   12        1.552   3.548   0.000   5.100
   13        1.310   2.469   0.000   3.779
   14        1.310   2.469   0.000   3.779
   15        1.310   2.469   0.000   3.779
   16        1.310   2.469   0.000   3.779
   17        1.310   2.469   0.000   3.779
   18        1.310   2.469   0.000   3.779
   19        1.310   2.469   0.000   3.779
   20        1.310   2.469   0.000   3.779
   21        0.235   6.216   5.900  12.351
   22        0.235   6.216   5.900  12.351
   23        0.235   6.216   5.900  12.351
   24        0.235   6.216   5.900  12.351
   25        0.235   6.216   5.900  12.351
   26        0.235   6.216   5.900  12.351
   27        0.235   6.216   5.900  12.351
   28        0.235   6.216   5.900  12.351
--------------------------------------------------
tot         34.767  84.263  47.202 166.233



 magnetization (x)

# of ion       s       p       d       tot
------------------------------------------
    1       -0.000   0.000   0.000  -0.000
    2       -0.000   0.000   0.000  -0.000
    3       -0.000   0.000   0.000  -0.000
    4       -0.000   0.000   0.000  -0.000
    5       -0.000   0.000   0.000  -0.000
    6       -0.000   0.000   0.000  -0.000
    7       -0.000   0.000   0.000  -0.000
    8       -0.000   0.000   0.000  -0.000
    9        0.011   0.128   0.000   0.139
   10        0.011   0.128   0.000   0.139
   11        0.011   0.128   0.000   0.139
   12        0.011   0.128   0.000   0.139
   13        0.019   0.097   0.000   0.117
   14        0.019   0.097   0.000   0.117
   15        0.019   0.097   0.000   0.117
   16        0.019   0.097   0.000   0.117
   17        0.019   0.097   0.000   0.117
   18        0.019   0.097   0.000   0.117
   19        0.019   0.097   0.000   0.117
   20        0.019   0.097   0.000   0.117
   21        0.036   0.025   3.568   3.629
   22        0.036   0.025   3.568   3.629
   23        0.036   0.025   3.568   3.629
   24        0.036   0.025   3.568   3.629
   25        0.036   0.025   3.568   3.629
   26        0.036   0.025   3.568   3.629
   27        0.036   0.025   3.568   3.629
   28        0.036   0.025   3.568   3.629
--------------------------------------------------
tot          0.482   1.492  28.545  30.519

    FORLOC:  cpu time    0.0053: real time    0.0053
    FORHF :  cpu time  150.1861: real time  150.2618
    FORNL :  cpu time    0.2246: real time    0.2246
    STRESS:  cpu time    2.2519: real time    2.2554
    FORCOR:  cpu time    0.2266: real time    0.2266
    OFIELD:  cpu time    0.0008: real time    0.0008

  FORCE on cell =-STRESS in cart. coord.  units (eV):
  Direction    XX          YY          ZZ          XY          YZ          ZX
  --------------------------------------------------------------------------------------
  Alpha Z   601.89119   601.89119   601.89119
  Ewald   -5951.22557 -5951.22977 -3614.68678    -0.02184     1.84319     1.84234
  Hartree  2078.95921  2078.95424  3514.22988    -0.01064     1.17806     1.17747
  E(xc)    -851.64802  -851.64797  -849.90045    -0.00001     0.00095     0.00095
  Local     442.61005   442.61935 -3143.35933     0.03268    -2.93921    -2.93767
  n-local   883.96846   886.45747   897.57650    -0.00060     0.03264     0.00224
  augment  1084.24838  1084.24610   974.38021    -0.00090    -0.04527    -0.04532
  Kinetic  2661.56074  2670.59638  2528.42191    -0.00262    -0.03042    -0.10496
  Fock     -956.24418  -956.01852  -908.54789     0.00296     0.00978     0.01072
  -------------------------------------------------------------------------------------
  Total      -0.00565    -0.00565     0.00525     0.00123    -0.00210    -0.00210
  in kB      -0.02444    -0.02443     0.02269     0.00534    -0.00909    -0.00909
  external pressure =       -0.01 kB  Pullay stress =        0.00 kB


 VOLUME and BASIS-vectors are now :
 -----------------------------------------------------------------------------
  energy-cutoff  :      520.00
  volume of cell :      370.30
      direct lattice vectors                 reciprocal lattice vectors
     7.638525886  0.001357876 -0.006561232     0.130949049  0.000056301  0.039288254
    -0.001315609  7.638536599 -0.006561251     0.000010469  0.130948878  0.039288243
    -1.904281837 -1.904950564  6.349764127     0.000135321  0.000135368  0.157567358

  length of vectors
     7.638528825  7.638539531  6.897436512     0.136715850  0.136715671  0.157567475


 FORCES acting on ions:
    Electron-Ion                     Ewald-Force                    Non-Local-Force
 -----------------------------------------------------------------------------------------------
   0.264E+00 -.140E+02 0.604E-01   -.252E+00 0.141E+02 -.587E-01   -.156E-01 -.841E-01 -.121E-02
   0.263E+00 0.140E+02 0.332E-01   -.251E+00 -.141E+02 -.319E-01   -.161E-01 0.835E-01 -.104E-02
   0.263E+00 0.140E+02 0.332E-01   -.251E+00 -.141E+02 -.319E-01   -.161E-01 0.835E-01 -.104E-02
   0.264E+00 -.140E+02 0.604E-01   -.252E+00 0.141E+02 -.587E-01   -.156E-01 -.841E-01 -.121E-02
   -.140E+02 -.268E+00 -.332E-01   0.141E+02 0.257E+00 0.319E-01   -.836E-01 0.161E-01 0.104E-02
   0.140E+02 -.258E+00 -.604E-01   -.141E+02 0.248E+00 0.587E-01   0.840E-01 0.156E-01 0.121E-02
   0.140E+02 -.258E+00 -.604E-01   -.141E+02 0.248E+00 0.587E-01   0.840E-01 0.156E-01 0.121E-02
   -.140E+02 -.268E+00 -.332E-01   0.141E+02 0.257E+00 0.319E-01   -.836E-01 0.161E-01 0.104E-02
   -.144E+00 0.234E+00 0.492E-02   0.159E+00 -.260E+00 -.542E-02   -.112E-01 0.198E-01 0.459E-03
   -.235E+00 0.144E+00 -.492E-02   0.261E+00 -.159E+00 0.542E-02   -.198E-01 0.112E-01 -.459E-03
   -.235E+00 0.144E+00 -.492E-02   0.261E+00 -.159E+00 0.542E-02   -.198E-01 0.112E-01 -.459E-03
   -.144E+00 0.234E+00 0.492E-02   0.159E+00 -.260E+00 -.542E-02   -.112E-01 0.198E-01 0.459E-03
   0.127E+00 0.535E-02 0.854E+02   -.128E+00 -.430E-02 -.858E+02   0.235E-02 0.181E-03 0.300E+00
   0.113E+00 0.253E-01 0.854E+02   -.113E+00 -.233E-01 -.858E+02   0.288E-03 -.160E-02 0.299E+00
   0.113E+00 0.253E-01 0.854E+02   -.113E+00 -.233E-01 -.858E+02   0.288E-03 -.160E-02 0.299E+00
   0.127E+00 0.536E-02 0.854E+02   -.128E+00 -.430E-02 -.858E+02   0.235E-02 0.181E-03 0.300E+00
   -.238E-01 -.111E+00 -.854E+02   0.233E-01 0.113E+00 0.858E+02   0.160E-02 -.288E-03 -.299E+00
   -.389E-02 -.126E+00 -.854E+02   0.431E-02 0.128E+00 0.858E+02   -.181E-03 -.235E-02 -.300E+00
   -.387E-02 -.126E+00 -.854E+02   0.431E-02 0.128E+00 0.858E+02   -.181E-03 -.235E-02 -.300E+00
   -.238E-01 -.111E+00 -.854E+02   0.233E-01 0.113E+00 0.858E+02   0.160E-02 -.288E-03 -.299E+00
   -.128E+00 0.435E-02 -.726E+02   0.129E+00 -.396E-02 0.711E+02   0.177E-02 -.294E-03 0.136E+01
   -.113E+00 0.389E-01 -.726E+02   0.111E+00 -.393E-01 0.711E+02   0.374E-02 0.330E-04 0.136E+01
   -.113E+00 0.389E-01 -.726E+02   0.111E+00 -.393E-01 0.711E+02   0.374E-02 0.330E-04 0.136E+01
   -.128E+00 0.436E-02 -.726E+02   0.129E+00 -.396E-02 0.711E+02   0.177E-02 -.294E-03 0.136E+01
   -.366E-01 0.115E+00 0.726E+02   0.390E-01 -.112E+00 -.711E+02   -.316E-04 -.374E-02 -.136E+01
   -.203E-02 0.130E+00 0.726E+02   0.366E-02 -.130E+00 -.711E+02   0.295E-03 -.177E-02 -.136E+01
   -.202E-02 0.130E+00 0.726E+02   0.366E-02 -.130E+00 -.711E+02   0.295E-03 -.177E-02 -.136E+01
   -.366E-01 0.115E+00 0.726E+02   0.390E-01 -.112E+00 -.711E+02   -.316E-04 -.374E-02 -.136E+01
 -----------------------------------------------------------------------------------------------
   0.134E+00 -.944E-01 -.580E-04   -.320E-14 0.373E-13 -.142E-13   -.105E+00 0.105E+00 -.265E-09


 POSITION                                       TOTAL-FORCE (eV/Angst)
 -----------------------------------------------------------------------------------
      1.71264      0.47667     -0.00128         0.003813     -0.007025      0.004606
      5.53070      7.56051     -0.01053         0.003942      0.022347      0.004979
      1.71210      3.74056     -0.00397         0.003942      0.022347      0.004979
      5.53124      4.29661     -0.00784         0.003813     -0.007025      0.004606
      1.99363      0.20226      6.34389        -0.022346     -0.003950     -0.004979
      5.25752      0.20287      6.34120         0.007027     -0.003811     -0.004606
      1.43760      4.02146      6.34120         0.007027     -0.003811     -0.004606
     -1.82629      4.02085      6.34389        -0.022346     -0.003950     -0.004979
      1.71699     -1.70639      6.34647         0.000261     -0.001760      0.000022
      7.44058      0.19929     -0.00655         0.001760     -0.000260     -0.000022
      3.62066      4.01788     -0.00655         0.001760     -0.000260     -0.000022
      5.53559      2.11356      6.33991         0.000261     -0.001760      0.000022
      1.71294      2.10933      1.92102         0.000457      0.000586     -0.020148
      5.53221      2.10998      1.91767        -0.000424     -0.000390     -0.021009
      1.71229      5.92857      1.91767        -0.000424     -0.000390     -0.021009
      5.53154      5.92927      1.91446         0.000457      0.000586     -0.020148
     -0.19437      0.20131      4.42225         0.000390      0.000424      0.021009
      3.62486      0.20200      4.41890        -0.000586     -0.000457      0.020148
     -0.19506      4.02059      4.41890        -0.000586     -0.000457      0.020148
      3.62423      4.02126      4.41569         0.000390      0.000424      0.021009
     -0.19642      0.19958      2.01166         0.001964     -0.001167     -0.002393
      3.62269      0.20029      2.00835         0.001124     -0.001451     -0.002508
     -0.19723      4.01888      2.00835         0.001124     -0.001451     -0.002508
      3.62219      4.01953      2.00510         0.001964     -0.001167     -0.002393
      1.71464      2.11150      4.33158         0.001451     -0.001123      0.002508
      5.53393      2.11202      4.32826         0.001168     -0.001964      0.002393
      1.71401      5.93061      4.32826         0.001168     -0.001964      0.002393
      5.53325      5.93145      4.32502         0.001451     -0.001123      0.002508
 -----------------------------------------------------------------------------------
    total drift:                                0.022656      0.016433     -0.000058


--------------------------------------------------------------------------------------------------------



  FREE ENERGIE OF THE ION-ELECTRON SYSTEM (eV)
  ---------------------------------------------------
  free  energy   TOTEN  =      -214.52177261 eV

  energy  without entropy=     -214.52177261  energy(sigma->0) =     -214.52177261

 d Force = 0.7597764E-03[ 0.492E-03, 0.103E-02]  d Energy = 0.7811583E-03-0.214E-04
 d Force = 0.8931271E+00[ 0.880E+00, 0.907E+00]  d Ewald  = 0.3606002E+01-0.271E+01


--------------------------------------------------------------------------------------------------------


    POTLOK:  cpu time    2.2998: real time    2.3013


--------------------------------------------------------------------------------------------------------


 Conjugate gradient step on ions:
 trial-energy change:   -0.000781  1 .order   -0.000792   -0.001089   -0.000496
  (g-gl).g = 0.118E-02      g.g   = 0.113E-02  gl.gl    = 0.221E+00
 g(Force)  = 0.107E-02   g(Stress)= 0.602E-04 ortho     =-0.473E-04
 gamma     =   0.00532
 trial     =   0.96539
 opt step  =   1.77146  (harmonic =   1.77146) maximal distance =0.00386031
 next E    =  -214.521991   (d E  =  -0.00100)


--------------------------------------------------------------------------------------------------------


  
 reached required accuracy - stopping structural energy minimisation
 writing wavefunctions
     LOOP+:  cpu time 2098.2549: real time 2099.4756
    4ORBIT:  cpu time    0.0000: real time    0.0000



 total charge

# of ion       s       p       d       tot
------------------------------------------
    1        2.025   0.074   0.000   2.100
    2        2.025   0.074   0.000   2.100
    3        2.025   0.074   0.000   2.100
    4        2.025   0.074   0.000   2.100
    5        2.025   0.074   0.000   2.100
    6        2.025   0.074   0.000   2.100
    7        2.025   0.074   0.000   2.100
    8        2.025   0.074   0.000   2.100
    9        1.552   3.548   0.000   5.100
   10        1.552   3.548   0.000   5.100
   11        1.552   3.548   0.000   5.100
   12        1.552   3.548   0.000   5.100
   13        1.310   2.469   0.000   3.779
   14        1.310   2.469   0.000   3.779
   15        1.310   2.469   0.000   3.779
   16        1.310   2.469   0.000   3.779
   17        1.310   2.469   0.000   3.779
   18        1.310   2.469   0.000   3.779
   19        1.310   2.469   0.000   3.779
   20        1.310   2.469   0.000   3.779
   21        0.235   6.216   5.900  12.351
   22        0.235   6.216   5.900  12.351
   23        0.235   6.216   5.900  12.351
   24        0.235   6.216   5.900  12.351
   25        0.235   6.216   5.900  12.351
   26        0.235   6.216   5.900  12.351
   27        0.235   6.216   5.900  12.351
   28        0.235   6.216   5.900  12.351
--------------------------------------------------
tot         34.767  84.263  47.202 166.233



 magnetization (x)

# of ion       s       p       d       tot
------------------------------------------
    1       -0.000   0.000   0.000  -0.000
    2       -0.000   0.000   0.000  -0.000
    3       -0.000   0.000   0.000  -0.000
    4       -0.000   0.000   0.000  -0.000
    5       -0.000   0.000   0.000  -0.000
    6       -0.000   0.000   0.000  -0.000
    7       -0.000   0.000   0.000  -0.000
    8       -0.000   0.000   0.000  -0.000
    9        0.011   0.128   0.000   0.139
   10        0.011   0.128   0.000   0.139
   11        0.011   0.128   0.000   0.139
   12        0.011   0.128   0.000   0.139
   13        0.019   0.097   0.000   0.117
   14        0.019   0.097   0.000   0.117
   15        0.019   0.097   0.000   0.117
   16        0.019   0.097   0.000   0.117
   17        0.019   0.097   0.000   0.117
   18        0.019   0.097   0.000   0.117
   19        0.019   0.097   0.000   0.117
   20        0.019   0.097   0.000   0.117
   21        0.036   0.025   3.568   3.629
   22        0.036   0.025   3.568   3.629
   23        0.036   0.025   3.568   3.629
   24        0.036   0.025   3.568   3.629
   25        0.036   0.025   3.568   3.629
   26        0.036   0.025   3.568   3.629
   27        0.036   0.025   3.568   3.629
   28        0.036   0.025   3.568   3.629
--------------------------------------------------
tot          0.482   1.492  28.545  30.519


 total amount of memory used by VASP MPI-rank0   315546. kBytes
=======================================================================

   base      :      30000. kBytes
   nonl-proj :      87435. kBytes
   fftplans  :       2549. kBytes
   grid      :      20720. kBytes
   one-center:        870. kBytes
   HF        :        259. kBytes
   nonlr-proj:      29515. kBytes
   wavefun   :      70962. kBytes
   fock_wrk  :      73236. kBytes

  
  
 General timing and accounting informations for this job:
 ========================================================
  
                  Total CPU time used (sec):    53762.316
                            User time (sec):    53606.498
                          System time (sec):      155.817
                         Elapsed time (sec):    53802.909
  
                   Maximum memory used (kb):      818496.
                   Average memory used (kb):          N/A
  
                          Minor page faults:      1352287
                          Major page faults:            9
                 Voluntary context switches:        16151
