srun: Warning: can't honor --ntasks-per-node set to 128 which doesn't match the requested tasks 448 with the number of requested nodes 4. Ignoring --ntasks-per-node.
 ----------------------------------------------------
    OOO  PPPP  EEEEE N   N M   M PPPP
   O   O P   P E     NN  N MM MM P   P
   O   O PPPP  EEEEE N N N M M M PPPP   -- VERSION
   O   O P     E     N  NN M   M P
    OOO  P     EEEEE N   N M   M P
 ----------------------------------------------------
 running  448 mpi-ranks, with    1 threads/rank
 distrk:  each k-point on   32 cores,   14 groups
 distr:  one band on    1 cores,   32 groups
 vasp.6.2.0 18Jan21 (build Feb  9 2021 11:43:09) complex                         
 POSCAR found type information on POSCAR LiO S Fe
 POSCAR found :  4 types and      28 ions
 scaLAPACK will be used
 -----------------------------------------------------------------------------
|                                                                             |
|               ----> ADVICE to this user running VASP <----                  |
|                                                                             |
|     You have a (more or less) 'large supercell' and for larger cells it     |
|     might be more efficient to use real-space projection operators.         |
|     Therefore, try LREAL= Auto in the INCAR file.                           |
|     Mind: For very accurate calculation, you might also keep the            |
|     reciprocal projection scheme (i.e. LREAL=.FALSE.).                      |
|                                                                             |
 -----------------------------------------------------------------------------

 LDA part: xc-table for Pade appr. of Perdew
 POSCAR, INCAR and KPOINTS ok, starting setup
 FFT: planning ...
 WAVECAR not read
 entering main loop
       N       E                     dE             d eps       ncg     rms          ort
DAV:   1    -0.169659592975E+04   -0.16966E+04   -0.11588E+05  2240   0.169E+03
DAV:   2    -0.390228935841E+04   -0.22057E+04   -0.20626E+04  2240   0.449E+02
DAV:   3    -0.412358621025E+04   -0.22130E+03   -0.21644E+03  2240   0.138E+02
DAV:   4    -0.415079680461E+04   -0.27211E+02   -0.26917E+02  2240   0.303E+01
DAV:   5    -0.243521360206E+03    0.39073E+04   -0.86238E+01  2240   0.435E+01
 gam= 0.000 g(H,U,f)=  0.395E+03 0.214E+03 0.360E+02 ort(H,U,f) = 0.000E+00 0.000E+00 0.000E+00
SDA:   6    -0.865697091676E+02    0.15695E+03   -0.86238E+01  2240   0.645E+03 0.000E+00
 gam= 0.000 trial= 0.300  step= 0.291 mean= 0.300
 gam= 0.155 g(H,U,f)=  0.776E+02 0.177E+02 0.498E+01 ort(H,U,f) =-0.732E+02 0.570E+02 0.195E+02
CGA:   7    -0.180327667193E+03   -0.93758E+02   -0.93800E+02  2240   0.100E+03 0.331E+01
 gam= 0.155 trial= 0.300  step= 0.320 mean= 0.300
 gam= 0.202 g(H,U,f)=  0.153E+02 0.425E+01 0.674E+00 ort(H,U,f) =-0.932E+01 0.126E+02 0.131E+01
CGA:   8    -0.196563318958E+03   -0.16236E+02   -0.16150E+02  2240   0.202E+02 0.460E+01
 gam= 0.202 trial= 0.301  step= 0.547 mean= 0.301
 gam= 0.623 g(H,U,f)=  0.949E+01 0.298E+01 0.140E+00 ort(H,U,f) =-0.530E+01 0.516E+01-0.103E+00
CGA:   9    -0.202293926838E+03   -0.57306E+01   -0.57956E+01  2240   0.126E+02-0.238E+00
 gam= 0.623 trial= 0.313  step= 0.459 mean= 0.313
 gam= 0.312 g(H,U,f)=  0.302E+01 0.652E+00 0.269E+00 ort(H,U,f) =-0.143E+01 0.213E+01-0.487E+00
CGA:  10    -0.205126763691E+03   -0.28328E+01   -0.28597E+01  2240   0.394E+01 0.211E+00
 gam= 0.312 trial= 0.320  step= 0.492 mean= 0.320
 gam= 0.377 g(H,U,f)=  0.118E+01 0.232E+00 0.662E-01 ort(H,U,f) =-0.596E+00 0.111E+00 0.143E+00
CGA:  11    -0.206080696093E+03   -0.95393E+00   -0.98541E+00  2240   0.148E+01-0.342E+00
 gam= 0.377 trial= 0.329  step= 0.464 mean= 0.329
 gam= 0.412 g(H,U,f)=  0.399E+00 0.189E+00 0.228E-01 ort(H,U,f) =-0.463E-01 0.944E-01 0.258E-01
CGA:  12    -0.206401417558E+03   -0.32072E+00   -0.31428E+00  2240   0.611E+00 0.739E-01
 gam= 0.412 trial= 0.336  step= 0.495 mean= 0.336
 gam= 1.036 g(H,U,f)=  0.252E+00 0.351E+00 0.292E-01 ort(H,U,f) =-0.137E+00 0.109E+00 0.259E-01
CGA:  13    -0.206558920397E+03   -0.15750E+00   -0.15854E+00  2240   0.633E+00-0.190E-02
 gam= 1.036 trial= 0.344  step= 0.291 mean= 0.344
 gam= 0.789 g(H,U,f)=  0.268E+00 0.214E+00 0.175E-01 ort(H,U,f) =-0.171E+00 0.187E+00 0.334E-01
CGA:  14    -0.206649741593E+03   -0.90821E-01   -0.91604E-01  2240   0.499E+00 0.500E-01
 gam= 0.789 trial= 0.341  step= 0.252 mean= 0.341
 gam= 1.234 g(H,U,f)=  0.228E+00 0.380E+00 0.861E-02 ort(H,U,f) =-0.309E-01 0.131E+00 0.943E-02
CGA:  15    -0.206712101535E+03   -0.62360E-01   -0.67858E-01  2240   0.616E+00 0.109E+00
 gam= 1.234 trial= 0.336  step= 0.178 mean= 0.336
 gam= 1.193 g(H,U,f)=  0.208E+00 0.516E+00 0.120E-01 ort(H,U,f) =-0.667E-01 0.232E+00 0.976E-02
CGA:  16    -0.206765010333E+03   -0.52909E-01   -0.66907E-01  2240   0.735E+00 0.175E+00
 gam= 1.193 trial= 0.329  step= 0.109 mean= 0.329
 gam= 1.221 g(H,U,f)=  0.262E+00 0.628E+00 0.687E-02 ort(H,U,f) =-0.133E+00 0.329E+00 0.224E-01
CGA:  17    -0.206791426469E+03   -0.26416E-01   -0.51274E-01  2240   0.897E+00 0.219E+00
 gam= 1.221 trial= 0.318  step= 0.075 mean= 0.318
 gam= 1.390 g(H,U,f)=  0.368E+00 0.870E+00 0.929E-02 ort(H,U,f) =-0.169E+00 0.380E+00 0.341E-01
CGA:  18    -0.206798697968E+03   -0.72715E-02   -0.43519E-01  2240   0.125E+01 0.246E+00
 gam= 1.390 trial= 0.305  step= 0.053 mean= 0.305
 gam= 1.494 g(H,U,f)=  0.520E+00 0.133E+01 0.142E-01 ort(H,U,f) =-0.224E+00 0.461E+00 0.432E-01
CGA:  19    -0.206789053246E+03    0.96447E-02   -0.41752E-01  2240   0.186E+01 0.280E+00
 gam= 1.494 trial= 0.293  step= 0.036 mean= 0.293
 gam= 1.487 g(H,U,f)=  0.730E+00 0.201E+01 0.250E-01 ort(H,U,f) =-0.370E+00 0.578E+00 0.736E-01
CGA:  20    -0.206758926505E+03    0.30127E-01   -0.41535E-01  2240   0.277E+01 0.282E+00
 gam= 1.487 trial= 0.280  step= 0.026 mean= 0.280
 gam= 1.441 g(H,U,f)=  0.102E+01 0.292E+01 0.582E-01 ort(H,U,f) =-0.695E+00 0.662E+00 0.225E+00
CGA:  21    -0.206703366553E+03    0.55560E-01   -0.41107E-01  2240   0.399E+01 0.191E+00
 gam= 1.441 trial= 0.267  step= 0.019 mean= 0.267
 gam= 1.398 g(H,U,f)=  0.142E+01 0.406E+01 0.110E+00 ort(H,U,f) =-0.134E+01 0.523E+00 0.524E+00
CGA:  22    -0.206614998982E+03    0.88368E-01   -0.41141E-01  2240   0.558E+01-0.295E+00
 gam= 1.398 trial= 0.255  step= 0.014 mean= 0.255
 gam= 1.344 g(H,U,f)=  0.194E+01 0.543E+01 0.132E+00 ort(H,U,f) =-0.240E+01 0.655E-01 0.559E+00
CGA:  23    -0.206486627379E+03    0.12837E+00   -0.37464E-01  2240   0.750E+01-0.178E+01
 gam= 1.344 trial= 0.243  step= 0.009 mean= 0.243
 gam= 1.248 g(H,U,f)=  0.247E+01 0.674E+01 0.152E+00 ort(H,U,f) =-0.348E+01 0.281E+00 0.529E+00
CGA:  24    -0.206348364145E+03    0.13826E+00   -0.24216E-01  2240   0.936E+01-0.267E+01
 gam= 1.248 trial= 0.231  step= 0.008 mean= 0.231
 gam= 1.232 g(H,U,f)=  0.307E+01 0.816E+01 0.308E+00 ort(H,U,f) =-0.465E+01 0.552E+00 0.147E+01
CGA:  25    -0.206187210788E+03    0.16115E+00   -0.24219E-01  2240   0.115E+02-0.262E+01
 gam= 1.232 trial= 0.220  step= 0.008 mean= 0.220
 gam= 1.260 g(H,U,f)=  0.386E+01 0.987E+01 0.803E+00 ort(H,U,f) =-0.675E+01-0.551E+00 0.528E+01
CGA:  26    -0.205980395361E+03    0.20682E+00   -0.33088E-01  2240   0.145E+02-0.202E+01
 gam= 1.260 trial= 0.209  step= 0.008 mean= 0.209
 gam= 0.000 g(H,U,f)=  0.495E+01 0.120E+02 0.108E+01 ort(H,U,f) =-0.109E+02-0.484E+01 0.824E+01
CGA:  27    -0.205699139297E+03    0.28126E+00   -0.47824E-01  2240   0.180E+02-0.747E+01
 gam= 0.000 trial= 0.199  step= 0.148 mean= 0.199
 gam= 0.312 g(H,U,f)=  0.165E+01 0.375E+01 0.212E+00 ort(H,U,f) = 0.167E+01 0.389E+01 0.137E+00
CGA:  28    -0.206906434590E+03   -0.12073E+01   -0.13307E+01  2240   0.561E+01 0.569E+01
 gam= 0.312 trial= 0.197  step= 0.110 mean= 0.197
 gam= 0.747 g(H,U,f)=  0.118E+01 0.283E+01 0.172E+00 ort(H,U,f) = 0.821E+00 0.177E+01 0.144E+00
CGA:  29    -0.207207827943E+03   -0.30139E+00   -0.40536E+00  2240   0.419E+01 0.274E+01
 gam= 0.747 trial= 0.192  step= 0.084 mean= 0.192
 gam= 0.000 g(H,U,f)=  0.127E+01 0.331E+01 0.201E+00 ort(H,U,f) = 0.562E+00 0.149E+01 0.299E+00
CGA:  30    -0.207351327282E+03   -0.14350E+00   -0.26112E+00  2240   0.478E+01 0.235E+01
 gam= 0.000 trial= 0.187  step= 0.171 mean= 0.187
 gam= 0.417 g(H,U,f)=  0.401E+00 0.144E+01 0.151E+00 ort(H,U,f) = 0.308E+00 0.118E+01 0.146E+00
CGA:  31    -0.207749977168E+03   -0.39865E+00   -0.41004E+00  2240   0.199E+01 0.164E+01
 gam= 0.417 trial= 0.186  step= 0.168 mean= 0.186
 gam= 0.000 g(H,U,f)=  0.502E+00 0.186E+01 0.211E+00 ort(H,U,f) =-0.324E-01 0.950E+00 0.283E+00
CGA:  32    -0.207963841488E+03   -0.21386E+00   -0.22417E+00  2240   0.257E+01 0.120E+01
 gam= 0.000 trial= 0.185  step= 0.272 mean= 0.185
 gam= 0.000 g(H,U,f)=  0.340E+00 0.158E+01 0.790E+00 ort(H,U,f) =-0.110E+00 0.741E+00 0.781E+00
CGA:  33    -0.208374097546E+03   -0.41026E+00   -0.34941E+00  2240   0.271E+01 0.141E+01
 gam= 0.000 trial= 0.190  step= 1.093 mean= 0.190
 gam= 0.000 trial= 1.232  step= 1.232 mean= 0.299
 gam= 5.963 g(H,U,f)=  0.649E+01 0.714E+01 0.255E+01 ort(H,U,f) =-0.120E+01 0.153E+00 0.839E+00
CGA:  34    -0.209322850266E+03   -0.94875E+00   -0.25149E-03  2240   0.162E+02-0.213E+00
 gam= 5.963 trial= 0.346  step= 0.167 mean= 0.346
 gam= 0.798 g(H,U,f)=  0.841E+01 0.435E+01 0.165E+00 ort(H,U,f) =-0.261E+01 0.193E+01 0.458E+00
CGA:  35    -0.209981015471E+03   -0.65817E+00   -0.12435E+01  2240   0.129E+02-0.224E+00
 gam= 0.798 trial= 0.337  step= 0.203 mean= 0.337
 gam= 0.454 g(H,U,f)=  0.419E+01 0.165E+01 0.178E-01 ort(H,U,f) = 0.171E+01 0.843E+00 0.242E-01
CGA:  36    -0.210982048449E+03   -0.10010E+01   -0.12953E+01  2240   0.587E+01 0.258E+01
 gam= 0.454 trial= 0.330  step= 0.180 mean= 0.330
 gam= 0.470 g(H,U,f)=  0.182E+01 0.939E+00 0.496E-02 ort(H,U,f) = 0.945E+00 0.506E+00 0.534E-02
CGA:  37    -0.211498781525E+03   -0.51673E+00   -0.63482E+00  2240   0.276E+01 0.146E+01
 gam= 0.470 trial= 0.323  step= 0.166 mean= 0.323
 gam= 0.705 g(H,U,f)=  0.119E+01 0.738E+00 0.141E-01 ort(H,U,f) = 0.153E+00 0.607E+00 0.121E-01
CGA:  38    -0.211730617729E+03   -0.23184E+00   -0.28528E+00  2240   0.195E+01 0.773E+00
 gam= 0.705 trial= 0.315  step= 0.138 mean= 0.315
 gam= 0.837 g(H,U,f)=  0.113E+01 0.496E+00 0.248E-02 ort(H,U,f) =-0.914E-01 0.568E+00 0.325E-02
CGA:  39    -0.211857388026E+03   -0.12677E+00   -0.17187E+00  2240   0.163E+01 0.480E+00
 gam= 0.837 trial= 0.306  step= 0.117 mean= 0.306
 gam= 0.897 g(H,U,f)=  0.115E+01 0.310E+00 0.361E-04 ort(H,U,f) =-0.405E-01 0.399E+00 0.641E-04
CGA:  40    -0.211931261314E+03   -0.73873E-01   -0.11903E+00  2240   0.146E+01 0.358E+00
 gam= 0.897 trial= 0.297  step= 0.103 mean= 0.297
 gam= 0.916 g(H,U,f)=  0.112E+01 0.216E+00 0.628E-09 ort(H,U,f) = 0.824E-01 0.271E+00 0.136E-08
CGA:  41    -0.211981511208E+03   -0.50250E-01   -0.91375E-01  2240   0.134E+01 0.354E+00
 gam= 0.916 trial= 0.287  step= 0.089 mean= 0.287
 gam= 0.915 g(H,U,f)=  0.106E+01 0.167E+00 0.554E-11 ort(H,U,f) = 0.160E+00 0.199E+00 0.129E-10
CGA:  42    -0.212018367843E+03   -0.36857E-01   -0.73949E-01  2240   0.122E+01 0.359E+00
 gam= 0.915 trial= 0.277  step= 0.076 mean= 0.277
 gam= 0.919 g(H,U,f)=  0.989E+00 0.136E+00 0.312E-11 ort(H,U,f) = 0.192E+00 0.157E+00 0.701E-11
CGA:  43    -0.212043920303E+03   -0.25552E-01   -0.59204E-01  2240   0.112E+01 0.348E+00
 gam= 0.919 trial= 0.267  step= 0.065 mean= 0.267
 gam= 0.930 g(H,U,f)=  0.932E+00 0.115E+00 0.399E-11 ort(H,U,f) = 0.203E+00 0.128E+00 0.108E-10
CGA:  44    -0.212060613889E+03   -0.16694E-01   -0.47194E-01  2240   0.105E+01 0.331E+00
 gam= 0.930 trial= 0.257  step= 0.056 mean= 0.257
 gam= 0.947 g(H,U,f)=  0.890E+00 0.101E+00 0.925E-13 ort(H,U,f) = 0.212E+00 0.102E+00 0.311E-12
CGA:  45    -0.212070784722E+03   -0.10171E-01   -0.38092E-01  2240   0.991E+00 0.315E+00
 gam= 0.947 trial= 0.247  step= 0.049 mean= 0.247
 gam= 0.964 g(H,U,f)=  0.862E+00 0.927E-01 0.134E-11 ort(H,U,f) = 0.225E+00 0.767E-01 0.785E-12
CGA:  46    -0.212076206444E+03   -0.54217E-02   -0.31379E-01  2240   0.955E+00 0.302E+00
 gam= 0.964 trial= 0.237  step= 0.042 mean= 0.237
 gam= 0.980 g(H,U,f)=  0.846E+00 0.896E-01 0.501E-10 ort(H,U,f) = 0.242E+00 0.527E-01 0.155E-09
CGA:  47    -0.212078119226E+03   -0.19128E-02   -0.26409E-01  2240   0.936E+00 0.294E+00
 gam= 0.980 trial= 0.227  step= 0.037 mean= 0.227
 gam= 0.994 g(H,U,f)=  0.840E+00 0.905E-01 0.270E-12 ort(H,U,f) = 0.259E+00 0.320E-01 0.124E-11
CGA:  48    -0.212077398992E+03    0.72023E-03   -0.22746E-01  2240   0.930E+00 0.291E+00
 gam= 0.994 trial= 0.218  step= 0.033 mean= 0.218
 gam= 1.009 g(H,U,f)=  0.844E+00 0.943E-01 0.203E-11 ort(H,U,f) = 0.276E+00 0.161E-01 0.543E-11
CGA:  49    -0.212074601883E+03    0.27971E-02   -0.19980E-01  2240   0.938E+00 0.292E+00
 gam= 1.009 trial= 0.208  step= 0.029 mean= 0.208
 gam= 1.020 g(H,U,f)=  0.857E+00 0.100E+00 0.504E-11 ort(H,U,f) = 0.291E+00 0.567E-02 0.193E-10
CGA:  50    -0.212070060940E+03    0.45409E-02   -0.17860E-01  2240   0.957E+00 0.297E+00
 gam= 1.020 trial= 0.199  step= 0.026 mean= 0.199
 gam= 1.026 g(H,U,f)=  0.875E+00 0.107E+00 0.724E-11 ort(H,U,f) = 0.303E+00 0.164E-02 0.279E-10
CGA:  51    -0.212064009712E+03    0.60512E-02   -0.16147E-01  2240   0.982E+00 0.304E+00
 gam= 1.026 trial= 0.191  step= 0.023 mean= 0.191
 gam= 1.031 g(H,U,f)=  0.897E+00 0.115E+00 0.555E-12 ort(H,U,f) = 0.309E+00 0.470E-02 0.309E-11
CGA:  52    -0.212056657770E+03    0.73519E-02   -0.14751E-01  2240   0.101E+01 0.314E+00
 gam= 1.031 trial= 0.182  step= 0.020 mean= 0.182
 gam= 1.036 g(H,U,f)=  0.925E+00 0.123E+00 0.154E-11 ort(H,U,f) = 0.311E+00 0.151E-01 0.121E-10
CGA:  53    -0.212048212159E+03    0.84456E-02   -0.13616E-01  2240   0.105E+01 0.326E+00
 gam= 1.036 trial= 0.174  step= 0.018 mean= 0.174
 gam= 1.044 g(H,U,f)=  0.963E+00 0.132E+00 0.109E-12 ort(H,U,f) = 0.309E+00 0.321E-01 0.108E-11
CGA:  54    -0.212038825574E+03    0.93866E-02   -0.12713E-01  2240   0.109E+01 0.341E+00
 gam= 1.044 trial= 0.166  step= 0.017 mean= 0.166
 gam= 1.049 g(H,U,f)=  0.101E+01 0.140E+00 0.798E-12 ort(H,U,f) = 0.303E+00 0.550E-01 0.447E-11
CGA:  55    -0.212028581653E+03    0.10244E-01   -0.11985E-01  2240   0.115E+01 0.358E+00
 gam= 1.049 trial= 0.159  step= 0.015 mean= 0.159
 gam= 1.052 g(H,U,f)=  0.106E+01 0.148E+00 0.759E-12 ort(H,U,f) = 0.294E+00 0.827E-01 0.315E-11
CGA:  56    -0.212017526289E+03    0.11055E-01   -0.11369E-01  2240   0.121E+01 0.377E+00
 gam= 1.052 trial= 0.152  step= 0.014 mean= 0.152
 gam= 1.053 g(H,U,f)=  0.112E+01 0.157E+00 0.877E-13 ort(H,U,f) = 0.283E+00 0.114E+00 0.289E-12
CGA:  57    -0.212005685050E+03    0.11841E-01   -0.10832E-01  2240   0.127E+01 0.397E+00
 gam= 1.053 trial= 0.145  step= 0.012 mean= 0.145
 gam= 1.053 g(H,U,f)=  0.117E+01 0.165E+00 0.150E-11 ort(H,U,f) = 0.272E+00 0.148E+00 0.101E-10
CGA:  58    -0.211993078732E+03    0.12606E-01   -0.10360E-01  2240   0.134E+01 0.420E+00
 gam= 1.053 trial= 0.138  step= 0.011 mean= 0.138
 gam= 1.053 g(H,U,f)=  0.124E+01 0.173E+00 0.215E-10 ort(H,U,f) = 0.260E+00 0.185E+00 0.115E-09
CGA:  59    -0.211979738863E+03    0.13340E-01   -0.99455E-02  2240   0.141E+01 0.445E+00
 gam= 1.053 trial= 0.132  step= 0.010 mean= 0.132
 gam= 1.051 g(H,U,f)=  0.130E+01 0.182E+00 0.331E-11 ort(H,U,f) = 0.249E+00 0.223E+00 0.197E-10
CGA:  60    -0.211965707096E+03    0.14032E-01   -0.95867E-02  2240   0.148E+01 0.472E+00
 gam= 1.051 trial= 0.126  step= 0.009 mean= 0.126
 gam= 1.052 g(H,U,f)=  0.137E+01 0.190E+00 0.365E-12 ort(H,U,f) = 0.240E+00 0.263E+00 0.422E-11
CGA:  61    -0.211951042528E+03    0.14665E-01   -0.92757E-02  2240   0.156E+01 0.503E+00
 gam= 1.052 trial= 0.120  step= 0.009 mean= 0.120
 gam= 1.051 g(H,U,f)=  0.144E+01 0.198E+00 0.262E-10 ort(H,U,f) = 0.233E+00 0.303E+00 0.114E-09
CGA:  62    -0.211935796734E+03    0.15246E-01   -0.90168E-02  2240   0.164E+01 0.536E+00
 gam= 1.051 trial= 0.114  step= 0.008 mean= 0.114
 gam= 1.051 g(H,U,f)=  0.152E+01 0.207E+00 0.498E-11 ort(H,U,f) = 0.228E+00 0.342E+00 0.156E-10
CGA:  63    -0.211920011740E+03    0.15785E-01   -0.87968E-02  2240   0.172E+01 0.570E+00
 gam= 1.051 trial= 0.109  step= 0.007 mean= 0.109
 gam= 0.000 g(H,U,f)=  0.160E+01 0.215E+00 0.153E-11 ort(H,U,f) = 0.227E+00 0.380E+00 0.486E-11
SDA:  64    -0.211903721691E+03    0.16290E-01   -0.86013E-02  2240   0.181E+01 0.607E+00
 gam= 0.000 trial= 0.104  step= 0.324 mean= 0.104
 gam= 0.121 g(H,U,f)=  0.183E+00 0.354E-01 0.163E-12 ort(H,U,f) = 0.357E+00 0.604E-01 0.238E-14
CGA:  65    -0.212235127640E+03   -0.33141E+00   -0.29340E+00  2240   0.219E+00 0.418E+00
 gam= 0.121 trial= 0.115  step= 0.236 mean= 0.115
 gam= 0.310 g(H,U,f)=  0.516E-01 0.161E-01 0.799E-12 ort(H,U,f) = 0.703E-01 0.213E-01 0.584E-12
CGA:  66    -0.212271932149E+03   -0.36805E-01   -0.31778E-01  2240   0.677E-01 0.916E-01
 gam= 0.310 trial= 0.121  step= 0.203 mean= 0.121
 gam= 0.000 g(H,U,f)=  0.235E-01 0.105E-01 0.705E-12 ort(H,U,f) = 0.196E-01 0.145E-01 0.856E-12
CGA:  67    -0.212282963493E+03   -0.11031E-01   -0.97480E-02  2240   0.340E-01 0.341E-01
 gam= 0.000 trial= 0.125  step= 0.532 mean= 0.125
 gam= 0.375 g(H,U,f)=  0.621E-02 0.653E-02 0.522E-13 ort(H,U,f) =-0.472E-02 0.599E-02 0.664E-13
CGA:  68    -0.212291985017E+03   -0.90215E-02   -0.90412E-02  2240   0.127E-01 0.126E-02
 gam= 0.375 trial= 0.145  step= 0.536 mean= 0.145
 gam= 0.809 g(H,U,f)=  0.508E-02 0.524E-02 0.652E-16 ort(H,U,f) =-0.114E-02 0.691E-02 0.234E-15
CGA:  69    -0.212296617694E+03   -0.46327E-02   -0.35422E-02  2240   0.103E-01 0.577E-02
 gam= 0.809 trial= 0.165  step= 0.477 mean= 0.165
 gam= 0.000 g(H,U,f)=  0.536E-02 0.436E-02 0.206E-13 ort(H,U,f) =-0.261E-02 0.848E-02 0.112E-12
CGA:  70    -0.212301065417E+03   -0.44477E-02   -0.35768E-02  2240   0.972E-02 0.588E-02
 gam= 0.000 trial= 0.181  step= 0.625 mean= 0.181
 gam= 0.639 g(H,U,f)=  0.218E-02 0.403E-02 0.689E-17 ort(H,U,f) =-0.233E-02 0.343E-02 0.612E-17
CGA:  71    -0.212304265173E+03   -0.31998E-02   -0.30378E-02  2240   0.621E-02 0.111E-02
 gam= 0.639 trial= 0.203  step= 1.034 mean= 0.203
 gam= 0.639 trial= 1.318  step= 1.318 mean= 0.320
 gam= 2.570 g(H,U,f)=  0.110E-01 0.495E-02 0.987E-18 ort(H,U,f) =-0.268E-02 0.564E-02 0.635E-17
CGA:  72    -0.212310209350E+03   -0.59442E-02   -0.18670E-02  2240   0.160E-01 0.296E-02
 gam= 2.570 trial= 0.370  step= 1.139 mean= 0.370
 gam= 0.000 g(H,U,f)=  0.335E-01 0.859E-02 0.124E-15 ort(H,U,f) =-0.909E-02 0.186E-01-0.401E-15
CGA:  73    -0.212327039686E+03   -0.16830E-01   -0.13412E-01  2240   0.421E-01 0.953E-02
 gam= 0.000 trial= 0.408  step= 0.442 mean= 0.408
 gam= 0.235 g(H,U,f)=  0.403E-02 0.588E-02 0.298E-16 ort(H,U,f) =-0.222E-02 0.530E-02 0.427E-16
CGA:  74    -0.212336371683E+03   -0.93320E-02   -0.93082E-02  2240   0.991E-02 0.308E-02
 gam= 0.235 trial= 0.410  step= 0.783 mean= 0.410
 gam= 1.556 g(H,U,f)=  0.915E-02 0.627E-02 0.393E-14 ort(H,U,f) =-0.395E-02 0.640E-02 0.859E-14
CGA:  75    -0.212340937025E+03   -0.45653E-02   -0.41607E-02  2240   0.154E-01 0.245E-02
 gam= 1.556 trial= 0.429  step= 0.807 mean= 0.429
 gam= 2.155 g(H,U,f)=  0.251E-01 0.815E-02 0.332E-14 ort(H,U,f) =-0.930E-02 0.153E-01-0.365E-13
CGA:  76    -0.212349746517E+03   -0.88095E-02   -0.77596E-02  2240   0.332E-01 0.599E-02
 gam= 2.155 trial= 0.448  step= 0.704 mean= 0.448
 gam= 2.470 g(H,U,f)=  0.681E-01 0.140E-01 0.121E-14 ort(H,U,f) =-0.255E-01 0.406E-01-0.411E-14
CGA:  77    -0.212367771696E+03   -0.18025E-01   -0.16257E-01  2240   0.821E-01 0.151E-01
 gam= 2.470 trial= 0.460  step= 0.562 mean= 0.460
 gam= 2.734 g(H,U,f)=  0.192E+00 0.329E-01 0.339E-14 ort(H,U,f) =-0.803E-01 0.119E+00 0.173E-15
CGA:  78    -0.212403061569E+03   -0.35290E-01   -0.33540E-01  2240   0.224E+00 0.390E-01
 gam= 2.734 trial= 0.466  step= 0.398 mean= 0.466
 gam= 2.812 g(H,U,f)=  0.541E+00 0.908E-01 0.805E-13 ort(H,U,f) =-0.282E+00 0.379E+00 0.616E-13
CGA:  79    -0.212466685941E+03   -0.63624E-01   -0.65842E-01  2240   0.631E+00 0.968E-01
 gam= 2.812 trial= 0.462  step= 0.177 mean= 0.462
 gam= 1.952 g(H,U,f)=  0.105E+01 0.186E+00 0.125E-13 ort(H,U,f) =-0.799E+00 0.109E+01 0.194E-13
CGA:  80    -0.212540134569E+03   -0.73449E-01   -0.79887E-01  2240   0.123E+01 0.290E+00
 gam= 1.952 trial= 0.448  step= 0.094 mean= 0.448
 gam= 1.458 g(H,U,f)=  0.150E+01 0.293E+00 0.134E-12 ort(H,U,f) =-0.133E+01 0.184E+01 0.399E-12
CGA:  81    -0.212608264821E+03   -0.68130E-01   -0.84324E-01  2240   0.180E+01 0.512E+00
 gam= 1.458 trial= 0.430  step= 0.065 mean= 0.430
 gam= 1.257 g(H,U,f)=  0.186E+01 0.403E+00 0.504E-12 ort(H,U,f) =-0.150E+01 0.187E+01 0.214E-11
CGA:  82    -0.212655611421E+03   -0.47347E-01   -0.82620E-01  2240   0.226E+01 0.374E+00
 gam= 1.257 trial= 0.412  step= 0.046 mean= 0.412
 gam= 1.134 g(H,U,f)=  0.206E+01 0.500E+00 0.546E-14 ort(H,U,f) =-0.120E+01 0.126E+01 0.324E-13
CGA:  83    -0.212670984516E+03   -0.15373E-01   -0.62253E-01  2240   0.256E+01 0.572E-01
 gam= 1.134 trial= 0.394  step= 0.034 mean= 0.394
 gam= 1.067 g(H,U,f)=  0.215E+01 0.582E+00 0.180E-14 ort(H,U,f) =-0.526E+00 0.378E+00 0.141E-13
CGA:  84    -0.212667430712E+03    0.35538E-02   -0.44763E-01  2240   0.273E+01-0.148E+00
 gam= 1.067 trial= 0.376  step= 0.028 mean= 0.376
 gam= 1.031 g(H,U,f)=  0.217E+01 0.653E+00 0.118E-12 ort(H,U,f) = 0.280E+00-0.506E+00 0.112E-11
CGA:  85    -0.212656139973E+03    0.11291E-01   -0.36208E-01  2240   0.282E+01-0.226E+00
 gam= 1.031 trial= 0.358  step= 0.025 mean= 0.358
 gam= 1.014 g(H,U,f)=  0.214E+01 0.715E+00 0.189E-15 ort(H,U,f) = 0.102E+01-0.125E+01 0.194E-14
CGA:  86    -0.212641766175E+03    0.14374E-01   -0.31881E-01  2240   0.286E+01-0.227E+00
 gam= 1.014 trial= 0.342  step= 0.022 mean= 0.342
 gam= 1.007 g(H,U,f)=  0.211E+01 0.771E+00 0.713E-15 ort(H,U,f) = 0.161E+01-0.180E+01 0.361E-14
CGA:  87    -0.212626167856E+03    0.15598E-01   -0.29299E-01  2240   0.288E+01-0.183E+00
 gam= 1.007 trial= 0.326  step= 0.021 mean= 0.326
 gam= 1.005 g(H,U,f)=  0.207E+01 0.820E+00 0.127E-14 ort(H,U,f) = 0.204E+01-0.215E+01-0.207E-14
CGA:  88    -0.212610108674E+03    0.16059E-01   -0.27658E-01  2240   0.289E+01-0.117E+00
 gam= 1.005 trial= 0.310  step= 0.019 mean= 0.310
 gam= 1.009 g(H,U,f)=  0.206E+01 0.864E+00 0.138E-14 ort(H,U,f) = 0.230E+01-0.234E+01-0.573E-14
CGA:  89    -0.212594032186E+03    0.16076E-01   -0.26589E-01  2240   0.292E+01-0.398E-01
 gam= 1.009 trial= 0.296  step= 0.018 mean= 0.296
 gam= 1.016 g(H,U,f)=  0.206E+01 0.901E+00 0.824E-15 ort(H,U,f) = 0.244E+01-0.240E+01-0.362E-14
CGA:  90    -0.212578234902E+03    0.15797E-01   -0.25932E-01  2240   0.296E+01 0.386E-01
 gam= 1.016 trial= 0.282  step= 0.017 mean= 0.282
 gam= 1.020 g(H,U,f)=  0.209E+01 0.932E+00 0.211E-15 ort(H,U,f) = 0.248E+01-0.237E+01-0.960E-15
CGA:  91    -0.212562932558E+03    0.15302E-01   -0.25552E-01  2240   0.303E+01 0.114E+00
 gam= 1.020 trial= 0.269  step= 0.016 mean= 0.269
 gam= 1.027 g(H,U,f)=  0.215E+01 0.957E+00 0.473E-13 ort(H,U,f) = 0.245E+01-0.227E+01 0.931E-12
CGA:  92    -0.212548251823E+03    0.14681E-01   -0.25354E-01  2240   0.311E+01 0.182E+00
 gam= 1.027 trial= 0.256  step= 0.015 mean= 0.256
 gam= 1.032 g(H,U,f)=  0.223E+01 0.974E+00 0.288E-13 ort(H,U,f) = 0.237E+01-0.213E+01-0.227E-12
CGA:  93    -0.212534119234E+03    0.14133E-01   -0.25260E-01  2240   0.321E+01 0.243E+00
 gam= 1.032 trial= 0.244  step= 0.015 mean= 0.244
 gam= 1.035 g(H,U,f)=  0.233E+01 0.984E+00 0.350E-14 ort(H,U,f) = 0.227E+01-0.197E+01-0.345E-13
CGA:  94    -0.212520293737E+03    0.13825E-01   -0.25196E-01  2240   0.332E+01 0.299E+00
 gam= 1.035 trial= 0.233  step= 0.014 mean= 0.233
 gam= 1.036 g(H,U,f)=  0.245E+01 0.988E+00 0.196E-13 ort(H,U,f) = 0.216E+01-0.181E+01 0.725E-12
CGA:  95    -0.212506464045E+03    0.13830E-01   -0.25115E-01  2240   0.344E+01 0.350E+00
 gam= 1.036 trial= 0.222  step= 0.013 mean= 0.222
 gam= 1.034 g(H,U,f)=  0.257E+01 0.987E+00 0.106E-12 ort(H,U,f) = 0.206E+01-0.166E+01-0.110E-11
CGA:  96    -0.212492367769E+03    0.14096E-01   -0.24990E-01  2240   0.355E+01 0.398E+00
 gam= 1.034 trial= 0.211  step= 0.013 mean= 0.211
 gam= 1.032 g(H,U,f)=  0.269E+01 0.979E+00 0.181E-13 ort(H,U,f) = 0.198E+01-0.154E+01 0.969E-12
CGA:  97    -0.212477854577E+03    0.14513E-01   -0.24797E-01  2240   0.367E+01 0.441E+00
 gam= 1.032 trial= 0.201  step= 0.012 mean= 0.201
 gam= 1.029 g(H,U,f)=  0.280E+01 0.968E+00 0.837E-12 ort(H,U,f) = 0.193E+01-0.145E+01-0.512E-11
CGA:  98    -0.212462903573E+03    0.14951E-01   -0.24512E-01  2240   0.377E+01 0.478E+00
 gam= 1.029 trial= 0.192  step= 0.011 mean= 0.192
 gam= 1.025 g(H,U,f)=  0.291E+01 0.953E+00 0.252E-13 ort(H,U,f) = 0.193E+01-0.142E+01 0.649E-13
CGA:  99    -0.212447578134E+03    0.15325E-01   -0.24115E-01  2240   0.387E+01 0.506E+00
 gam= 1.025 trial= 0.183  step= 0.011 mean= 0.183
 gam= 1.022 g(H,U,f)=  0.302E+01 0.936E+00 0.235E-11 ort(H,U,f) = 0.197E+01-0.145E+01 0.170E-10
CGA: 100    -0.212431949264E+03    0.15629E-01   -0.23585E-01  2240   0.395E+01 0.526E+00
 gam= 1.022 trial= 0.174  step= 0.010 mean= 0.174
 gam= 1.017 g(H,U,f)=  0.310E+01 0.917E+00 0.925E-13 ort(H,U,f) = 0.207E+01-0.153E+01 0.324E-12
CGA: 101    -0.212416062641E+03    0.15887E-01   -0.22932E-01  2240   0.402E+01 0.536E+00
 gam= 1.017 trial= 0.166  step= 0.010 mean= 0.166
 gam= 1.010 g(H,U,f)=  0.316E+01 0.897E+00 0.239E-11 ort(H,U,f) = 0.221E+01-0.167E+01 0.367E-10
CGA: 102    -0.212399907771E+03    0.16155E-01   -0.22160E-01  2240   0.406E+01 0.539E+00
 gam= 1.010 trial= 0.158  step= 0.009 mean= 0.158
 gam= 1.006 g(H,U,f)=  0.320E+01 0.878E+00 0.242E-13 ort(H,U,f) = 0.238E+01-0.185E+01 0.394E-12
CGA: 103    -0.212383428616E+03    0.16479E-01   -0.21298E-01  2240   0.408E+01 0.537E+00
 gam= 1.006 trial= 0.151  step= 0.009 mean= 0.151
 gam= 0.000 g(H,U,f)=  0.324E+01 0.859E+00 0.697E-12 ort(H,U,f) = 0.259E+01-0.206E+01 0.121E-10
SDA: 104    -0.212366567222E+03    0.16861E-01   -0.20410E-01  2240   0.410E+01 0.536E+00
 gam= 0.000 trial= 0.144  step= 0.496 mean= 0.144
 gam= 0.241 g(H,U,f)=  0.570E+00 0.419E+00 0.694E-13 ort(H,U,f) = 0.107E+00 0.452E+00-0.132E-12
CGA: 105    -0.213454962616E+03   -0.10884E+01   -0.10154E+01  2240   0.988E+00 0.559E+00
 gam= 0.241 trial= 0.161  step= 0.516 mean= 0.161
 gam= 0.634 g(H,U,f)=  0.367E+00 0.260E+00 0.447E-14 ort(H,U,f) = 0.695E-02 0.382E+00 0.179E-14
CGA: 106    -0.213811227811E+03   -0.35627E+00   -0.29008E+00  2240   0.627E+00 0.389E+00
 gam= 0.634 trial= 0.179  step= 0.439 mean= 0.179
 gam= 0.673 g(H,U,f)=  0.285E+00 0.137E+00 0.401E-14 ort(H,U,f) =-0.374E-01 0.336E+00 0.203E-13
CGA: 107    -0.214039976627E+03   -0.22875E+00   -0.19180E+00  2240   0.422E+00 0.298E+00
 gam= 0.673 trial= 0.192  step= 0.348 mean= 0.192
 gam= 0.685 g(H,U,f)=  0.220E+00 0.695E-01 0.366E-15 ort(H,U,f) =-0.148E-01 0.226E+00 0.781E-14
CGA: 108    -0.214163923427E+03   -0.12395E+00   -0.10845E+00  2240   0.289E+00 0.211E+00
 gam= 0.685 trial= 0.200  step= 0.270 mean= 0.200
 gam= 0.000 g(H,U,f)=  0.162E+00 0.388E-01 0.362E-15 ort(H,U,f) = 0.151E-01 0.133E+00-0.574E-14
CGA: 109    -0.214227317154E+03   -0.63394E-01   -0.58500E-01  2240   0.201E+00 0.148E+00
 gam= 0.000 trial= 0.203  step= 0.448 mean= 0.203
 gam= 0.202 g(H,U,f)=  0.187E-01 0.219E-01 0.549E-15 ort(H,U,f) = 0.976E-02 0.220E-01-0.238E-15
CGA: 110    -0.214275282358E+03   -0.47965E-01   -0.45029E-01  2240   0.406E-01 0.318E-01
 gam= 0.202 trial= 0.216  step= 0.475 mean= 0.216
 gam= 0.000 g(H,U,f)=  0.138E-01 0.178E-01 0.269E-14 ort(H,U,f) =-0.108E-02 0.221E-01 0.255E-14
CGA: 111    -0.214289070975E+03   -0.13789E-01   -0.11175E-01  2240   0.316E-01 0.210E-01
 gam= 0.000 trial= 0.229  step= 0.651 mean= 0.229
 gam= 0.589 g(H,U,f)=  0.555E-02 0.130E-01 0.504E-16 ort(H,U,f) =-0.408E-02 0.139E-01 0.564E-17
CGA: 112    -0.214301208961E+03   -0.12138E-01   -0.10271E-01  2240   0.186E-01 0.981E-02
 gam= 0.589 trial= 0.250  step= 0.736 mean= 0.250
 gam= 0.000 g(H,U,f)=  0.871E-02 0.951E-02 0.505E-20 ort(H,U,f) =-0.143E-02 0.165E-01 0.284E-19
CGA: 113    -0.214313802226E+03   -0.12593E-01   -0.89661E-02  2240   0.182E-01 0.151E-01
 gam= 0.000 trial= 0.274  step= 0.628 mean= 0.274
 gam= 0.628 g(H,U,f)=  0.387E-02 0.758E-02 0.281E-16 ort(H,U,f) =-0.326E-02 0.762E-02-0.176E-17
CGA: 114    -0.214320194576E+03   -0.63923E-02   -0.57225E-02  2240   0.114E-01 0.436E-02
 gam= 0.628 trial= 0.292  step= 0.734 mean= 0.292
 gam= 0.000 g(H,U,f)=  0.817E-02 0.676E-02 0.662E-17 ort(H,U,f) =-0.320E-02 0.106E-01 0.661E-17
CGA: 115    -0.214326997809E+03   -0.68032E-02   -0.52051E-02  2240   0.149E-01 0.736E-02
 gam= 0.000 trial= 0.314  step= 0.557 mean= 0.314
 gam= 0.654 g(H,U,f)=  0.428E-02 0.549E-02 0.783E-16 ort(H,U,f) =-0.367E-02 0.556E-02 0.612E-16
CGA: 116    -0.214331346262E+03   -0.43485E-02   -0.41621E-02  2240   0.976E-02 0.189E-02
 gam= 0.654 trial= 0.326  step= 0.818 mean= 0.326
 gam= 1.318 g(H,U,f)=  0.730E-02 0.556E-02 0.188E-17 ort(H,U,f) =-0.361E-02 0.779E-02-0.324E-17
CGA: 117    -0.214336834944E+03   -0.54887E-02   -0.44997E-02  2240   0.129E-01 0.418E-02
 gam= 1.318 trial= 0.351  step= 1.050 mean= 0.351
 gam= 0.000 g(H,U,f)=  0.119E-01 0.462E-02 0.830E-18 ort(H,U,f) =-0.274E-02 0.118E-01-0.892E-18
CGA: 118    -0.214349603091E+03   -0.12768E-01   -0.96535E-02  2240   0.166E-01 0.908E-02
 gam= 0.000 trial= 0.386  step= 0.515 mean= 0.386
 gam= 0.390 g(H,U,f)=  0.291E-02 0.354E-02 0.244E-17 ort(H,U,f) =-0.281E-02 0.357E-02 0.119E-17
CGA: 119    -0.214353897091E+03   -0.42940E-02   -0.42659E-02  2240   0.645E-02 0.752E-03
 gam= 0.390 trial= 0.392  step= 0.846 mean= 0.392
 gam= 1.223 g(H,U,f)=  0.413E-02 0.376E-02 0.253E-19 ort(H,U,f) =-0.206E-02 0.421E-02 0.106E-20
CGA: 120    -0.214357216386E+03   -0.33193E-02   -0.28525E-02  2240   0.789E-02 0.215E-02
 gam= 1.223 trial= 0.415  step= 0.861 mean= 0.415
 gam= 0.000 g(H,U,f)=  0.123E-01 0.523E-02 0.897E-19 ort(H,U,f) =-0.257E-02 0.761E-02 0.946E-19
CGA: 121    -0.214362424869E+03   -0.52085E-02   -0.45249E-02  2240   0.175E-01 0.505E-02
 gam= 0.000 trial= 0.437  step= 0.308 mean= 0.437
 gam= 0.446 g(H,U,f)=  0.449E-02 0.333E-02 0.124E-20 ort(H,U,f) =-0.787E-03 0.327E-02 0.349E-20
CGA: 122    -0.214364730639E+03   -0.23058E-02   -0.26998E-02  2240   0.782E-02 0.249E-02
 gam= 0.446 trial= 0.431  step= 0.493 mean= 0.431
 gam= 0.731 g(H,U,f)=  0.279E-02 0.293E-02 0.383E-19 ort(H,U,f) =-0.157E-02 0.340E-02-0.172E-19
CGA: 123    -0.214367000680E+03   -0.22700E-02   -0.22007E-02  2240   0.572E-02 0.182E-02
 gam= 0.731 trial= 0.434  step= 0.846 mean= 0.434
 gam= 2.444 g(H,U,f)=  0.958E-02 0.440E-02 0.604E-17 ort(H,U,f) =-0.222E-02 0.483E-02 0.231E-17
CGA: 124    -0.214370347344E+03   -0.33467E-02   -0.29849E-02  2240   0.140E-01 0.261E-02
 gam= 2.444 trial= 0.454  step= 0.377 mean= 0.454
 gam= 0.810 g(H,U,f)=  0.815E-02 0.317E-02 0.618E-19 ort(H,U,f) =-0.721E-02 0.132E-01 0.134E-18
CGA: 125    -0.214373834814E+03   -0.34875E-02   -0.38369E-02  2240   0.113E-01 0.599E-02
 gam= 0.810 trial= 0.450  step= 0.588 mean= 0.450
 gam= 1.407 g(H,U,f)=  0.129E-01 0.300E-02 0.403E-17 ort(H,U,f) =-0.626E-02 0.116E-01 0.578E-17
CGA: 126    -0.214378866886E+03   -0.50321E-02   -0.47560E-02  2240   0.159E-01 0.531E-02
 gam= 1.407 trial= 0.457  step= 0.476 mean= 0.457
 gam= 0.000 g(H,U,f)=  0.132E-01 0.318E-02 0.209E-17 ort(H,U,f) =-0.645E-02 0.157E-01 0.927E-17
CGA: 127    -0.214384526142E+03   -0.56593E-02   -0.55735E-02  2240   0.164E-01 0.927E-02
 gam= 0.000 trial= 0.458  step= 0.545 mean= 0.458
 gam= 0.928 g(H,U,f)=  0.122E-01 0.302E-02 0.103E-17 ort(H,U,f) =-0.166E-02 0.285E-02 0.819E-18
CGA: 128    -0.214389012899E+03   -0.44868E-02   -0.44641E-02  2240   0.152E-01 0.119E-02
 gam= 0.928 trial= 0.463  step= 0.315 mean= 0.463
 gam= 0.531 g(H,U,f)=  0.572E-02 0.235E-02 0.109E-19 ort(H,U,f) =-0.360E-02 0.496E-02 0.301E-18
CGA: 129    -0.214391388073E+03   -0.23752E-02   -0.25664E-02  2240   0.808E-02 0.136E-02
 gam= 0.531 trial= 0.455  step= 0.646 mean= 0.455
 gam= 0.969 g(H,U,f)=  0.606E-02 0.176E-02 0.157E-17 ort(H,U,f) =-0.262E-02 0.424E-02 0.808E-17
CGA: 130    -0.214394373917E+03   -0.29858E-02   -0.28429E-02  2240   0.782E-02 0.163E-02
 gam= 0.969 trial= 0.465  step= 0.415 mean= 0.465
 gam= 0.799 g(H,U,f)=  0.474E-02 0.151E-02 0.770E-18 ort(H,U,f) =-0.354E-02 0.481E-02 0.467E-17
CGA: 131    -0.214396303003E+03   -0.19291E-02   -0.19519E-02  2240   0.625E-02 0.127E-02
 gam= 0.799 trial= 0.462  step= 0.554 mean= 0.462
 gam= 1.099 g(H,U,f)=  0.534E-02 0.154E-02 0.345E-18 ort(H,U,f) =-0.221E-02 0.371E-02 0.199E-18
CGA: 132    -0.214398387229E+03   -0.20842E-02   -0.20133E-02  2240   0.688E-02 0.150E-02
 gam= 1.099 trial= 0.467  step= 0.416 mean= 0.467
 gam= 1.021 g(H,U,f)=  0.524E-02 0.178E-02 0.209E-17 ort(H,U,f) =-0.239E-02 0.368E-02 0.401E-17
CGA: 133    -0.214400132483E+03   -0.17453E-02   -0.17741E-02  2240   0.702E-02 0.130E-02
 gam= 1.021 trial= 0.464  step= 0.436 mean= 0.464
 gam= 1.057 g(H,U,f)=  0.517E-02 0.225E-02 0.794E-19 ort(H,U,f) =-0.202E-02 0.326E-02 0.506E-18
CGA: 134    -0.214401928653E+03   -0.17962E-02   -0.18178E-02  2240   0.742E-02 0.123E-02
 gam= 1.057 trial= 0.463  step= 0.384 mean= 0.463
 gam= 1.075 g(H,U,f)=  0.514E-02 0.284E-02 0.181E-18 ort(H,U,f) =-0.270E-02 0.370E-02-0.193E-17
CGA: 135    -0.214403562860E+03   -0.16342E-02   -0.16746E-02  2240   0.798E-02 0.100E-02
 gam= 1.075 trial= 0.459  step= 0.428 mean= 0.459
 gam= 1.286 g(H,U,f)=  0.681E-02 0.346E-02 0.417E-17 ort(H,U,f) =-0.355E-02 0.465E-02-0.166E-16
CGA: 136    -0.214405479268E+03   -0.19164E-02   -0.19373E-02  2240   0.103E-01 0.110E-02
 gam= 1.286 trial= 0.457  step= 0.422 mean= 0.457
 gam= 1.256 g(H,U,f)=  0.904E-02 0.385E-02 0.481E-17 ort(H,U,f) =-0.517E-02 0.626E-02-0.801E-18
CGA: 137    -0.214407916816E+03   -0.24375E-02   -0.24630E-02  2240   0.129E-01 0.109E-02
 gam= 1.256 trial= 0.456  step= 0.422 mean= 0.456
 gam= 1.306 g(H,U,f)=  0.127E-01 0.417E-02 0.792E-17 ort(H,U,f) =-0.573E-02 0.674E-02-0.114E-16
CGA: 138    -0.214410904680E+03   -0.29879E-02   -0.30123E-02  2240   0.168E-01 0.101E-02
 gam= 1.306 trial= 0.454  step= 0.358 mean= 0.454
 gam= 1.037 g(H,U,f)=  0.129E-01 0.455E-02 0.398E-18 ort(H,U,f) =-0.472E-02 0.570E-02 0.176E-17
CGA: 139    -0.214414089814E+03   -0.31851E-02   -0.32506E-02  2240   0.175E-01 0.980E-03
 gam= 1.037 trial= 0.449  step= 0.284 mean= 0.449
 gam= 0.863 g(H,U,f)=  0.103E-01 0.477E-02 0.852E-18 ort(H,U,f) =-0.267E-02 0.416E-02 0.578E-19
CGA: 140    -0.214416587238E+03   -0.24974E-02   -0.26255E-02  2240   0.151E-01 0.149E-02
 gam= 0.863 trial= 0.441  step= 0.243 mean= 0.441
 gam= 0.848 g(H,U,f)=  0.812E-02 0.467E-02 0.375E-17 ort(H,U,f) =-0.165E-02 0.402E-02 0.383E-17
CGA: 141    -0.214418367486E+03   -0.17802E-02   -0.19921E-02  2240   0.128E-01 0.236E-02
 gam= 0.848 trial= 0.431  step= 0.219 mean= 0.431
 gam= 0.875 g(H,U,f)=  0.678E-02 0.441E-02 0.961E-17 ort(H,U,f) =-0.149E-02 0.477E-02 0.194E-16
CGA: 142    -0.214419680629E+03   -0.13131E-02   -0.16228E-02  2240   0.112E-01 0.328E-02
 gam= 0.875 trial= 0.420  step= 0.202 mean= 0.420
 gam= 0.900 g(H,U,f)=  0.599E-02 0.408E-02 0.155E-16 ort(H,U,f) =-0.153E-02 0.566E-02 0.515E-16
CGA: 143    -0.214420688674E+03   -0.10080E-02   -0.14175E-02  2240   0.101E-01 0.413E-02
 gam= 0.900 trial= 0.409  step= 0.186 mean= 0.409
 gam= 0.916 g(H,U,f)=  0.550E-02 0.372E-02 0.192E-18 ort(H,U,f) =-0.147E-02 0.636E-02 0.104E-17
CGA: 144    -0.214421471265E+03   -0.78259E-03   -0.12849E-02  2240   0.922E-02 0.489E-02
 gam= 0.916 trial= 0.398  step= 0.172 mean= 0.398
 gam= 0.000 g(H,U,f)=  0.508E-02 0.339E-02 0.143E-19 ort(H,U,f) =-0.124E-02 0.674E-02 0.363E-18
CGA: 145    -0.214422067574E+03   -0.59631E-03   -0.11774E-02  2240   0.846E-02 0.550E-02
 gam= 0.000 trial= 0.387  step= 0.516 mean= 0.387
 gam= 0.341 g(H,U,f)=  0.393E-03 0.249E-02 0.660E-20 ort(H,U,f) = 0.679E-04 0.279E-02 0.154E-19
CGA: 146    -0.214424430158E+03   -0.23626E-02   -0.21836E-02  2240   0.289E-02 0.286E-02
 gam= 0.341 trial= 0.393  step= 0.434 mean= 0.393
 gam= 0.000 g(H,U,f)=  0.500E-03 0.193E-02 0.145E-19 ort(H,U,f) =-0.177E-03 0.297E-02 0.253E-19
CGA: 147    -0.214425323959E+03   -0.89380E-03   -0.83788E-03  2240   0.243E-02 0.279E-02
 gam= 0.000 trial= 0.395  step= 0.486 mean= 0.395
 gam= 0.000 g(H,U,f)=  0.703E-04 0.155E-02 0.295E-19 ort(H,U,f) = 0.467E-04 0.171E-02 0.435E-19
CGA: 148    -0.214425992449E+03   -0.66849E-03   -0.58955E-03  2240   0.162E-02 0.176E-02
 gam= 0.000 trial= 0.400  step= 0.483 mean= 0.400
 gam= 0.000 g(H,U,f)=  0.402E-04 0.127E-02 0.620E-19 ort(H,U,f) = 0.428E-04 0.140E-02 0.805E-19
CGA: 149    -0.214426443237E+03   -0.45079E-03   -0.39107E-03  2240   0.131E-02 0.144E-02
 gam= 0.000 trial= 0.404  step= 0.476 mean= 0.404
 gam= 0.000 g(H,U,f)=  0.311E-04 0.105E-02 0.780E-19 ort(H,U,f) = 0.329E-04 0.115E-02 0.112E-18
CGA: 150    -0.214426796905E+03   -0.35367E-03   -0.31130E-03  2240   0.108E-02 0.118E-02
 gam= 0.000 trial= 0.408  step= 0.472 mean= 0.408
 gam= 0.000 g(H,U,f)=  0.248E-04 0.870E-03 0.789E-21 ort(H,U,f) = 0.263E-04 0.951E-03 0.232E-20
CGA: 151    -0.214427082704E+03   -0.28580E-03   -0.25443E-03  2240   0.895E-03 0.978E-03
 gam= 0.000 trial= 0.411  step= 0.469 mean= 0.411
 gam= 0.000 g(H,U,f)=  0.206E-04 0.726E-03 0.689E-21 ort(H,U,f) = 0.211E-04 0.792E-03-0.139E-20
CGA: 152    -0.214427316255E+03   -0.23355E-03   -0.20987E-03  2240   0.746E-03 0.813E-03
 gam= 0.000 trial= 0.414  step= 0.468 mean= 0.414
 gam= 0.000 g(H,U,f)=  0.172E-04 0.608E-03 0.511E-20 ort(H,U,f) = 0.174E-04 0.662E-03 0.119E-20
CGA: 153    -0.214427509364E+03   -0.19311E-03   -0.17469E-03  2240   0.625E-03 0.679E-03
 gam= 0.000 trial= 0.417  step= 0.468 mean= 0.417
 gam= 0.000 g(H,U,f)=  0.150E-04 0.510E-03 0.195E-19 ort(H,U,f) = 0.141E-04 0.555E-03 0.102E-19
CGA: 154    -0.214427670040E+03   -0.16068E-03   -0.14614E-03  2240   0.525E-03 0.569E-03
 gam= 0.000 trial= 0.419  step= 0.468 mean= 0.419
 gam= 0.000 g(H,U,f)=  0.134E-04 0.429E-03 0.347E-19 ort(H,U,f) = 0.115E-04 0.467E-03 0.284E-19
CGA: 155    -0.214427804706E+03   -0.13467E-03   -0.12295E-03  2240   0.443E-03 0.478E-03
 gam= 0.000 trial= 0.422  step= 0.469 mean= 0.422
 gam= 0.000 g(H,U,f)=  0.128E-04 0.362E-03 0.663E-19 ort(H,U,f) = 0.865E-05 0.393E-03 0.523E-19
CGA: 156    -0.214427917879E+03   -0.11317E-03   -0.10373E-03  2240   0.375E-03 0.402E-03
 gam= 0.000 trial= 0.424  step= 0.469 mean= 0.424
 gam= 0.000 g(H,U,f)=  0.137E-04 0.306E-03 0.748E-19 ort(H,U,f) = 0.544E-05 0.332E-03 0.764E-19
CGA: 157    -0.214428013234E+03   -0.95356E-04   -0.87825E-04  2240   0.319E-03 0.337E-03
 gam= 0.000 trial= 0.426  step= 0.465 mean= 0.426
 gam= 0.000 g(H,U,f)=  0.172E-04 0.259E-03 0.135E-21 ort(H,U,f) = 0.447E-06 0.281E-03 0.138E-21
CGA: 158    -0.214428092939E+03   -0.79705E-04   -0.74258E-04  2240   0.276E-03 0.281E-03
 gam= 0.000 trial= 0.428  step= 0.455 mean= 0.428
 gam= 0.000 g(H,U,f)=  0.241E-04 0.220E-03 0.132E-21 ort(H,U,f) =-0.694E-05 0.238E-03 0.145E-21
CGA: 159    -0.214428159020E+03   -0.66081E-04   -0.62913E-04  2240   0.245E-03 0.231E-03
 gam= 0.000 trial= 0.429  step= 0.435 mean= 0.429
 gam= 0.000 g(H,U,f)=  0.323E-04 0.189E-03 0.154E-21 ort(H,U,f) =-0.167E-04 0.204E-03 0.151E-21
CGA: 160    -0.214428212636E+03   -0.53616E-04   -0.53136E-04  2240   0.222E-03 0.187E-03
 gam= 0.000 trial= 0.430  step= 0.411 mean= 0.430
 gam= 0.000 g(H,U,f)=  0.384E-04 0.164E-03 0.120E-21 ort(H,U,f) =-0.254E-04 0.176E-03 0.144E-21
CGA: 161    -0.214428256773E+03   -0.44137E-04   -0.45544E-04  2240   0.202E-03 0.150E-03
 gam= 0.000 trial= 0.429  step= 0.386 mean= 0.429
 gam= 0.000 g(H,U,f)=  0.395E-04 0.144E-03 0.159E-21 ort(H,U,f) =-0.307E-04 0.153E-03 0.141E-21
CGA: 162    -0.214428293160E+03   -0.36387E-04   -0.39031E-04  2240   0.183E-03 0.122E-03
 gam= 0.000 trial= 0.427  step= 0.375 mean= 0.427
 gam= 0.000 g(H,U,f)=  0.377E-04 0.126E-03 0.104E-21 ort(H,U,f) =-0.310E-04 0.134E-03 0.133E-21
CGA: 163    -0.214428324822E+03   -0.31662E-04   -0.34333E-04  2240   0.164E-03 0.103E-03
 gam= 0.000 trial= 0.424  step= 0.363 mean= 0.424
 gam= 0.000 g(H,U,f)=  0.345E-04 0.112E-03 0.155E-21 ort(H,U,f) =-0.299E-04 0.118E-03 0.126E-21
CGA: 164    -0.214428351881E+03   -0.27058E-04   -0.29762E-04  2240   0.146E-03 0.886E-04
 gam= 0.000 trial= 0.421  step= 0.362 mean= 0.421
 final diagonalization
   1 F= -.21442835E+03 E0= -.21442835E+03  d E =-.214428E+03  mag=    32.0000
 curvature:   0.00 expect dE= 0.000E+00 dE for cont linesearch  0.000E+00
 trial: gam= 0.00000 g(F)=  0.126E-01 g(S)=  0.208E+00 ort = 0.000E+00 (trialstep = 0.100E+01)
 search vector abs. value=  0.221E+00
 bond charge predicted
 wavefunctions rotated
 writing wavefunctions
       N       E                     dE             d eps       ncg     rms          ort
 gam= 0.000 g(H,U,f)=  0.115E+02 0.186E+00 0.687E-11 ort(H,U,f) = 0.000E+00 0.000E+00 0.000E+00
SDA:   1    -0.211970741291E+03    0.24576E+01    0.00000E+00  2240   0.117E+02 0.000E+00
 gam= 0.000 trial= 0.418  step= 0.273 mean= 0.418
 gam= 0.201 g(H,U,f)=  0.168E+01 0.671E+00 0.777E-10 ort(H,U,f) =-0.337E+00 0.342E+00 0.456E-10
CGA:   2    -0.213575872774E+03   -0.16051E+01   -0.15997E+01  2240   0.235E+01 0.485E-02
 gam= 0.201 trial= 0.411  step= 0.512 mean= 0.411
 gam= 0.350 g(H,U,f)=  0.595E+00 0.229E+00 0.104E-16 ort(H,U,f) =-0.373E+00 0.379E+00 0.241E-15
CGA:   3    -0.214179682162E+03   -0.60381E+00   -0.60338E+00  2240   0.824E+00 0.596E-02
 gam= 0.350 trial= 0.416  step= 0.509 mean= 0.416
 gam= 0.371 g(H,U,f)=  0.251E+00 0.549E-01 0.101E-12 ort(H,U,f) =-0.141E+00 0.143E+00-0.515E-12
CGA:   4    -0.214390151592E+03   -0.21047E+00   -0.21028E+00  2240   0.306E+00 0.273E-02
 gam= 0.371 trial= 0.421  step= 0.544 mean= 0.421
 gam= 0.363 g(H,U,f)=  0.923E-01 0.186E-01 0.526E-12 ort(H,U,f) =-0.599E-01 0.599E-01-0.735E-12
CGA:   5    -0.214473649266E+03   -0.83498E-01   -0.83489E-01  2240   0.111E+00 0.485E-04
 gam= 0.363 trial= 0.427  step= 0.520 mean= 0.427
 gam= 0.334 g(H,U,f)=  0.335E-01 0.362E-02 0.136E-11 ort(H,U,f) =-0.164E-01 0.163E-01 0.514E-12
CGA:   6    -0.214502521069E+03   -0.28872E-01   -0.28875E-01  2240   0.371E-01-0.102E-03
 gam= 0.334 trial= 0.431  step= 0.539 mean= 0.431
 gam= 0.273 g(H,U,f)=  0.903E-02 0.109E-02 0.512E-13 ort(H,U,f) =-0.308E-02 0.319E-02 0.883E-13
CGA:   7    -0.214512520428E+03   -0.99994E-02   -0.99931E-02  2240   0.101E-01 0.111E-03
 gam= 0.273 trial= 0.437  step= 0.509 mean= 0.437
 gam= 0.298 g(H,U,f)=  0.244E-02 0.578E-03 0.164E-13 ort(H,U,f) =-0.920E-03 0.988E-03 0.323E-13
CGA:   8    -0.214515104127E+03   -0.25837E-02   -0.25813E-02  2240   0.302E-02 0.678E-04
 gam= 0.298 trial= 0.440  step= 0.573 mean= 0.440
 gam= 0.360 g(H,U,f)=  0.863E-03 0.223E-03 0.107E-13 ort(H,U,f) =-0.466E-03 0.476E-03 0.281E-13
CGA:   9    -0.214515975146E+03   -0.87102E-03   -0.87033E-03  2240   0.109E-02 0.104E-04
 gam= 0.360 trial= 0.447  step= 0.560 mean= 0.447
 gam= 0.439 g(H,U,f)=  0.397E-03 0.795E-04 0.194E-17 ort(H,U,f) =-0.198E-03 0.202E-03 0.692E-17
CGA:  10    -0.214516280484E+03   -0.30534E-03   -0.30514E-03  2240   0.477E-03 0.345E-05
 gam= 0.439 trial= 0.453  step= 0.496 mean= 0.453
 gam= 0.512 g(H,U,f)=  0.205E-03 0.393E-04 0.132E-17 ort(H,U,f) =-0.894E-04 0.992E-04 0.681E-17
CGA:  11    -0.214516399241E+03   -0.11876E-03   -0.11855E-03  2240   0.244E-03 0.981E-05
 gam= 0.512 trial= 0.455  step= 0.460 mean= 0.455
 gam= 0.415 g(H,U,f)=  0.810E-04 0.203E-04 0.373E-18 ort(H,U,f) =-0.434E-04 0.557E-04 0.404E-17
CGA:  12    -0.214516456606E+03   -0.57365E-04   -0.57334E-04  2240   0.101E-03 0.123E-04
 gam= 0.415 trial= 0.455  step= 0.529 mean= 0.455
 gam= 0.470 g(H,U,f)=  0.358E-04 0.119E-04 0.584E-19 ort(H,U,f) =-0.166E-04 0.269E-04-0.124E-17
CGA:  13    -0.214516485157E+03   -0.28551E-04   -0.28171E-04  2240   0.477E-04 0.103E-04
 gam= 0.470 trial= 0.459  step= 0.586 mean= 0.459
 gam= 0.700 g(H,U,f)=  0.255E-04 0.780E-05 0.845E-19 ort(H,U,f) =-0.113E-04 0.164E-04-0.446E-17
CGA:  14    -0.214516500869E+03   -0.15712E-04   -0.15385E-04  2240   0.333E-04 0.513E-05
 gam= 0.700 trial= 0.465  step= 0.481 mean= 0.465
 final diagonalization
   2 F= -.21451650E+03 E0= -.21451650E+03  d E =-.881490E-01  mag=    32.0000
 trial-energy change:   -0.088149  1 .order   -0.085349   -0.220888    0.050191
 step:   0.8238(harm=  0.8148)  dis= 0.00564  next Energy=  -214.520906 (dE=-0.926E-01)
 bond charge predicted
 wavefunctions rotated
 writing wavefunctions
       N       E                     dE             d eps       ncg     rms          ort
 gam= 0.000 g(H,U,f)=  0.364E+00 0.472E-02 0.265E-13 ort(H,U,f) = 0.000E+00 0.000E+00 0.000E+00
SDA:   1    -0.214439106081E+03    0.77379E-01    0.00000E+00  2240   0.368E+00 0.000E+00
 gam= 0.000 trial= 0.466  step= 0.280 mean= 0.466
 gam= 0.196 g(H,U,f)=  0.534E-01 0.186E-01 0.177E-12 ort(H,U,f) =-0.978E-02 0.900E-02 0.758E-13
CGA:   2    -0.214490712241E+03   -0.51606E-01   -0.51582E-01  2240   0.720E-01-0.774E-03
 gam= 0.196 trial= 0.457  step= 0.520 mean= 0.457
 gam= 0.436 g(H,U,f)=  0.249E-01 0.648E-02 0.121E-17 ort(H,U,f) =-0.109E-01 0.107E-01 0.234E-17
CGA:   3    -0.214509402690E+03   -0.18690E-01   -0.18695E-01  2240   0.314E-01-0.158E-03
 gam= 0.436 trial= 0.460  step= 0.476 mean= 0.460
 gam= 0.332 g(H,U,f)=  0.843E-02 0.200E-02 0.183E-18 ort(H,U,f) =-0.489E-02 0.483E-02 0.303E-17
CGA:   4    -0.214516863202E+03   -0.74605E-02   -0.74611E-02  2240   0.104E-01-0.632E-04
 gam= 0.332 trial= 0.461  step= 0.509 mean= 0.461
 gam= 0.362 g(H,U,f)=  0.313E-02 0.640E-03 0.282E-14 ort(H,U,f) =-0.176E-02 0.180E-02 0.116E-13
CGA:   5    -0.214519512576E+03   -0.26494E-02   -0.26485E-02  2240   0.377E-02 0.381E-04
 gam= 0.362 trial= 0.463  step= 0.480 mean= 0.463
 gam= 0.361 g(H,U,f)=  0.118E-02 0.180E-03 0.137E-14 ort(H,U,f) =-0.636E-03 0.678E-03 0.834E-14
CGA:   6    -0.214520420068E+03   -0.90749E-03   -0.90714E-03  2240   0.136E-02 0.423E-04
 gam= 0.361 trial= 0.464  step= 0.494 mean= 0.464
 gam= 0.406 g(H,U,f)=  0.497E-03 0.545E-04 0.275E-15 ort(H,U,f) =-0.210E-03 0.211E-03 0.241E-14
CGA:   7    -0.214520759503E+03   -0.33944E-03   -0.33942E-03  2240   0.552E-03 0.733E-06
 gam= 0.406 trial= 0.465  step= 0.471 mean= 0.465
 gam= 0.379 g(H,U,f)=  0.189E-03 0.203E-04 0.995E-18 ort(H,U,f) =-0.638E-04 0.595E-04-0.774E-16
CGA:   8    -0.214520889566E+03   -0.13006E-03   -0.13008E-03  2240   0.209E-03-0.432E-05
 gam= 0.379 trial= 0.466  step= 0.444 mean= 0.466
 gam= 0.380 g(H,U,f)=  0.688E-04 0.107E-04 0.444E-16 ort(H,U,f) =-0.257E-04 0.216E-04-0.173E-15
CGA:   9    -0.214520935623E+03   -0.46057E-04   -0.46012E-04  2240   0.794E-04-0.410E-05
 gam= 0.380 trial= 0.465  step= 0.438 mean= 0.465
 gam= 0.541 g(H,U,f)=  0.369E-04 0.613E-05 0.348E-16 ort(H,U,f) =-0.124E-04 0.119E-04-0.168E-16
CGA:  10    -0.214520952705E+03   -0.17082E-04   -0.17075E-04  2240   0.430E-04-0.548E-06
 gam= 0.541 trial= 0.463  step= 0.406 mean= 0.463
 final diagonalization
   3 F= -.21452095E+03 E0= -.21452095E+03  d E =-.926008E-01  mag=    32.0000
 curvature:  -0.41 expect dE=-0.407E-03 dE for cont linesearch -0.145E-05
 ZBRENT: interpolating
 opt :   0.8269  next Energy=  -214.520954 (dE=-0.926E-01)
 bond charge predicted
 wavefunctions rotated
 writing wavefunctions
       N       E                     dE             d eps       ncg     rms          ort
 gam= 0.000 g(H,U,f)=  0.172E-03 0.240E-05 0.547E-21 ort(H,U,f) = 0.000E+00 0.000E+00 0.000E+00
SDA:   1    -0.214520944802E+03   -0.91797E-05    0.00000E+00  2240   0.174E-03 0.000E+00
 gam= 0.000 trial= 0.460  step= 0.208 mean= 0.460
 gam= 0.152 g(H,U,f)=  0.205E-04 0.605E-05 0.397E-19 ort(H,U,f) = 0.837E-05 0.316E-05 0.464E-20
CGA:   2    -0.214520961438E+03   -0.16636E-04   -0.18092E-04  2240   0.265E-04 0.115E-04
 gam= 0.152 trial= 0.448  step= 0.394 mean= 0.448
 gam= 0.428 g(H,U,f)=  0.676E-05 0.460E-05 0.369E-19 ort(H,U,f) =-0.146E-05 0.546E-05 0.388E-19
CGA:   3    -0.214520966907E+03   -0.54692E-05   -0.55765E-05  2240   0.114E-04 0.400E-05
 gam= 0.428 trial= 0.445  step= 0.541 mean= 0.445
 gam= 0.836 g(H,U,f)=  0.737E-05 0.213E-05 0.230E-21 ort(H,U,f) =-0.367E-05 0.357E-05 0.412E-20
CGA:   4    -0.214520970441E+03   -0.35337E-05   -0.35385E-05  2240   0.950E-05-0.998E-07
 gam= 0.836 trial= 0.450  step= 0.411 mean= 0.450
 final diagonalization
   4 F= -.21452097E+03 E0= -.21452097E+03  d E =-.926186E-01  mag=    32.0000
 curvature:  -0.38 expect dE=-0.439E-03 dE for cont linesearch -0.387E-06
 ZBRENT: interpolating
 opt :   0.8304  next Energy=  -214.520971 (dE=-0.926E-01)
 bond charge predicted
 wavefunctions rotated
 writing wavefunctions
       N       E                     dE             d eps       ncg     rms          ort
 gam= 0.000 g(H,U,f)=  0.163E-03 0.375E-05 0.522E-19 ort(H,U,f) = 0.000E+00 0.000E+00 0.000E+00
SDA:   1    -0.214520946014E+03    0.20893E-04    0.00000E+00  2240   0.166E-03 0.000E+00
 gam= 0.000 trial= 0.448  step= 0.212 mean= 0.448
 gam= 0.153 g(H,U,f)=  0.165E-04 0.903E-05 0.136E-18 ort(H,U,f) = 0.768E-05 0.552E-05 0.842E-19
CGA:   2    -0.214520962122E+03   -0.16107E-04   -0.17662E-04  2240   0.255E-04 0.132E-04
 gam= 0.153 trial= 0.436  step= 0.386 mean= 0.436
 gam= 0.463 g(H,U,f)=  0.618E-05 0.564E-05 0.854E-19 ort(H,U,f) =-0.251E-05 0.749E-05 0.117E-18
CGA:   3    -0.214520967315E+03   -0.51929E-05   -0.53108E-05  2240   0.118E-04 0.499E-05
 gam= 0.463 trial= 0.434  step= 0.518 mean= 0.434
 gam= 0.695 g(H,U,f)=  0.632E-05 0.189E-05 0.266E-20 ort(H,U,f) =-0.296E-05 0.381E-05 0.241E-19
CGA:   4    -0.214520971010E+03   -0.36955E-05   -0.36596E-05  2240   0.821E-05 0.859E-06
 gam= 0.695 trial= 0.438  step= 0.411 mean= 0.438
 final diagonalization
   5 F= -.21452097E+03 E0= -.21452097E+03  d E =-.926191E-01  mag=    32.0000
 curvature:  -0.82 expect dE=-0.925E-03 dE for cont linesearch -0.512E-06
 ZBRENT: interpolating
 opt :   0.8288  next Energy=  -214.520971 (dE=-0.926E-01)
 bond charge predicted
 wavefunctions rotated
 writing wavefunctions
       N       E                     dE             d eps       ncg     rms          ort
 gam= 0.000 g(H,U,f)=  0.336E-04 0.108E-05 0.759E-21 ort(H,U,f) = 0.000E+00 0.000E+00 0.000E+00
SDA:   1    -0.214520969507E+03   -0.21930E-05    0.00000E+00  2240   0.347E-04 0.000E+00
 gam= 0.000 trial= 0.437  step= 0.376 mean= 0.437
 gam= 0.592 g(H,U,f)=  0.180E-04 0.253E-05 0.109E-19 ort(H,U,f) =-0.109E-04 0.146E-05 0.288E-20
CGA:   2    -0.214520976321E+03   -0.68134E-05   -0.65288E-05  2240   0.205E-04-0.943E-05
 gam= 0.592 trial= 0.434  step= 0.492 mean= 0.434
 gam= 0.294 g(H,U,f)=  0.475E-05 0.129E-05 0.555E-21 ort(H,U,f) =-0.337E-05 0.210E-05 0.288E-20
CGA:   3    -0.214520979964E+03   -0.36429E-05   -0.36801E-05  2240   0.604E-05-0.127E-05
 gam= 0.294 trial= 0.436  step= 0.297 mean= 0.436
 gam= 0.374 g(H,U,f)=  0.126E-05 0.100E-05 0.717E-21 ort(H,U,f) =-0.224E-06 0.155E-05-0.161E-20
CGA:   4    -0.214520980714E+03   -0.75018E-06   -0.84222E-06  2240   0.226E-05 0.132E-05
 gam= 0.374 trial= 0.430  step= 0.424 mean= 0.430
 final diagonalization
   6 F= -.21452098E+03 E0= -.21452098E+03  d E =-.926288E-01  mag=    32.0000
 curvature:  -0.45 expect dE=-0.511E-03 dE for cont linesearch -0.379E-05
 ZBRENT: interpolating
 opt :   0.8274  next Energy=  -214.520971 (dE=-0.926E-01)
 bond charge predicted
 wavefunctions rotated
 writing wavefunctions
       N       E                     dE             d eps       ncg     rms          ort
 gam= 0.000 g(H,U,f)=  0.274E-04 0.896E-06 0.862E-20 ort(H,U,f) = 0.000E+00 0.000E+00 0.000E+00
SDA:   1    -0.214520977658E+03    0.23058E-05    0.00000E+00  2240   0.283E-04 0.000E+00
 gam= 0.000 trial= 0.429  step= 0.395 mean= 0.429
 gam= 0.501 g(H,U,f)=  0.116E-04 0.257E-05 0.315E-19 ort(H,U,f) =-0.107E-04 0.131E-05 0.165E-19
CGA:   2    -0.214520983410E+03   -0.57523E-05   -0.55907E-05  2240   0.142E-04-0.936E-05
 gam= 0.501 trial= 0.428  step= 0.406 mean= 0.428
 gam= 0.347 g(H,U,f)=  0.376E-05 0.117E-05 0.785E-20 ort(H,U,f) =-0.205E-05 0.202E-05 0.200E-19
CGA:   3    -0.214520985341E+03   -0.19309E-05   -0.19305E-05  2240   0.493E-05-0.264E-07
 gam= 0.347 trial= 0.426  step= 0.307 mean= 0.426
 gam= 0.366 g(H,U,f)=  0.106E-05 0.744E-06 0.296E-21 ort(H,U,f) =-0.334E-06 0.131E-05 0.289E-20
CGA:   4    -0.214520986038E+03   -0.69710E-06   -0.75574E-06  2240   0.181E-05 0.979E-06
 gam= 0.366 trial= 0.420  step= 0.538 mean= 0.420
 final diagonalization
   7 F= -.21452099E+03 E0= -.21452099E+03  d E =-.926342E-01  mag=    32.0000
 curvature:  -0.01 expect dE=-0.158E-04 dE for cont linesearch -0.689E-07
 ZBRENT: interpolating
 opt :   0.8271  next Energy=  -214.520970 (dE=-0.926E-01)
 bond charge predicted
 wavefunctions rotated
 writing wavefunctions
       N       E                     dE             d eps       ncg     rms          ort
 gam= 0.000 g(H,U,f)=  0.323E-05 0.468E-06 0.725E-21 ort(H,U,f) = 0.000E+00 0.000E+00 0.000E+00
SDA:   1    -0.214520987576E+03   -0.22344E-05    0.00000E+00  2240   0.370E-05 0.000E+00
 gam= 0.000 trial= 0.426  step= 0.716 mean= 0.426
 gam= 0.000 g(H,U,f)=  0.721E-05 0.751E-06 0.574E-20 ort(H,U,f) =-0.414E-05 0.458E-06 0.204E-20
CGA:   2    -0.214520988311E+03   -0.73524E-06   -0.13242E-05  2240   0.796E-05-0.368E-05
 gam= 0.000 trial= 0.441  step= 0.209 mean= 0.441
 gam= 0.105 g(H,U,f)=  0.343E-06 0.492E-06 0.112E-20 ort(H,U,f) = 0.871E-06 0.563E-06 0.254E-20
CGA:   3    -0.214520988975E+03   -0.66459E-06   -0.83086E-06  2240   0.835E-06 0.143E-05
 gam= 0.105 trial= 0.429  step= 0.232 mean= 0.429
 gam= 0.000 g(H,U,f)=  0.902E-07 0.448E-06 0.220E-21 ort(H,U,f) =-0.941E-07 0.515E-06 0.615E-21
CGA:   4    -0.214520989048E+03   -0.73065E-07   -0.11448E-06  2240   0.538E-06 0.421E-06
 gam= 0.000 trial= 0.419  step=-2.118 mean= 0.419
 BOPT < 0, no correction made
 final diagonalization
   8 F= -.21452099E+03 E0= -.21452099E+03  d E =-.926372E-01  mag=    32.0000
 curvature:  -0.01 expect dE=-0.868E-05 dE for cont linesearch -0.318E-07
 ZBRENT: interpolating
 opt :   0.8270  next Energy=  -214.520970 (dE=-0.926E-01)
 bond charge predicted
 wavefunctions rotated
 writing wavefunctions
       N       E                     dE             d eps       ncg     rms          ort
 gam= 0.000 g(H,U,f)=  0.311E-06 0.341E-06 0.572E-21 ort(H,U,f) = 0.000E+00 0.000E+00 0.000E+00
SDA:   1    -0.214520990355E+03   -0.13792E-05    0.00000E+00  2240   0.653E-06 0.000E+00
 gam= 0.000 trial= 0.419  step=-1.503 mean= 0.419
 BOPT < 0, no correction made
 gam= 0.873 g(H,U,f)=  0.227E-06 0.343E-06 0.517E-23 ort(H,U,f) =-0.896E-07 0.331E-06-0.544E-22
CGA:   2    -0.214520990666E+03   -0.31183E-06    0.49043E-06  2240   0.570E-06 0.242E-06
 gam= 0.873 trial= 0.419  step= 0.945 mean= 0.419
 gam= 0.000 g(H,U,f)=  0.532E-06 0.356E-06 0.700E-21 ort(H,U,f) =-0.246E-06 0.624E-06-0.494E-21
CGA:   3    -0.214520991207E+03   -0.54023E-06   -0.36901E-06  2240   0.888E-06 0.378E-06
 gam= 0.000 trial= 0.446  step= 0.573 mean= 0.446
 gam= 1.219 g(H,U,f)=  0.769E-06 0.313E-06 0.610E-21 ort(H,U,f) =-0.501E-06 0.308E-06-0.656E-21
CGA:   4    -0.214520991454E+03   -0.24690E-06   -0.25426E-06  2240   0.108E-05-0.193E-06
 gam= 1.219 trial= 0.452  step= 0.450 mean= 0.452
 final diagonalization
   9 F= -.21452099E+03 E0= -.21452099E+03  d E =-.926396E-01  mag=    32.0000
 curvature:  -0.00 expect dE=-0.340E-05 dE for cont linesearch -0.306E-10
 trial: gam= 0.00532 g(F)=  0.107E-02 g(S)=  0.602E-04 ort =-0.473E-04 (trialstep = 0.965E+00)
 search vector abs. value=  0.113E-02
 bond charge predicted
 wavefunctions rotated
 writing wavefunctions
       N       E                     dE             d eps       ncg     rms          ort
 gam= 0.000 g(H,U,f)=  0.362E-01 0.211E-02 0.207E-17 ort(H,U,f) = 0.000E+00 0.000E+00 0.000E+00
SDA:   1    -0.214509348588E+03    0.11643E-01    0.00000E+00  2240   0.383E-01 0.000E+00
 gam= 0.000 trial= 0.452  step= 0.435 mean= 0.452
 gam= 0.410 g(H,U,f)=  0.154E-01 0.331E-03 0.141E-17 ort(H,U,f) = 0.138E-03-0.337E-04 0.169E-17
CGA:   2    -0.214517672692E+03   -0.83241E-02   -0.83245E-02  2240   0.157E-01 0.105E-03
 gam= 0.410 trial= 0.451  step= 0.365 mean= 0.451
 gam= 0.227 g(H,U,f)=  0.318E-02 0.383E-03 0.412E-19 ort(H,U,f) = 0.106E-03-0.137E-03 0.340E-18
CGA:   3    -0.214520546236E+03   -0.28735E-02   -0.28722E-02  2240   0.356E-02-0.309E-04
 gam= 0.227 trial= 0.447  step= 0.451 mean= 0.447
 gam= 0.428 g(H,U,f)=  0.137E-02 0.154E-03 0.413E-19 ort(H,U,f) =-0.217E-03 0.225E-03 0.106E-18
CGA:   4    -0.214521347226E+03   -0.80099E-03   -0.80096E-03  2240   0.152E-02 0.760E-05
 gam= 0.428 trial= 0.447  step= 0.374 mean= 0.447
 gam= 0.258 g(H,U,f)=  0.370E-03 0.222E-04 0.355E-19 ort(H,U,f) =-0.102E-03 0.902E-04 0.717E-19
CGA:   5    -0.214521632590E+03   -0.28536E-03   -0.28492E-03  2240   0.392E-03-0.117E-04
 gam= 0.258 trial= 0.443  step= 0.436 mean= 0.443
 gam= 0.461 g(H,U,f)=  0.173E-03 0.733E-05 0.395E-19 ort(H,U,f) =-0.233E-04 0.220E-04 0.536E-19
CGA:   6    -0.214521717382E+03   -0.84792E-04   -0.84768E-04  2240   0.181E-03-0.132E-05
 gam= 0.461 trial= 0.443  step= 0.450 mean= 0.443
 gam= 0.404 g(H,U,f)=  0.697E-04 0.323E-05 0.139E-19 ort(H,U,f) =-0.115E-04 0.110E-04 0.363E-19
CGA:   7    -0.214521757923E+03   -0.40541E-04   -0.40508E-04  2240   0.729E-04-0.484E-06
 gam= 0.404 trial= 0.443  step= 0.403 mean= 0.443
 gam= 0.408 g(H,U,f)=  0.283E-04 0.151E-05 0.279E-20 ort(H,U,f) =-0.482E-05 0.473E-05 0.125E-19
CGA:   8    -0.214521772612E+03   -0.14688E-04   -0.14669E-04  2240   0.298E-04-0.975E-07
 gam= 0.408 trial= 0.441  step= 0.439 mean= 0.441
 final diagonalization
  10 F= -.21452177E+03 E0= -.21452177E+03  d E =-.781158E-03  mag=    32.0000
 trial-energy change:   -0.000781  1 .order   -0.000792   -0.001089   -0.000496
 step:   1.7715(harm=  1.7715)  dis= 0.00386  next Energy=  -214.521991 (dE=-0.999E-03)
 reached required accuracy - stopping structural energy minimisation
 writing wavefunctions
Note: The following floating-point exceptions are signalling: IEEE_UNDERFLOW_FLAG IEEE_DENORMAL
Note: The following floating-point exceptions are signalling: IEEE_UNDERFLOW_FLAG IEEE_DENORMAL
Note: The following floating-point exceptions are signalling: IEEE_UNDERFLOW_FLAG IEEE_DENORMAL
Note: The following floating-point exceptions are signalling: IEEE_UNDERFLOW_FLAG IEEE_DENORMAL
Note: The following floating-point exceptions are signalling: IEEE_UNDERFLOW_FLAG IEEE_DENORMAL
Note: The following floating-point exceptions are signalling: IEEE_UNDERFLOW_FLAG IEEE_DENORMAL
Note: The following floating-point exceptions are signalling: IEEE_UNDERFLOW_FLAG IEEE_DENORMAL
Note: The following floating-point exceptions are signalling: IEEE_UNDERFLOW_FLAG IEEE_DENORMAL
Note: The following floating-point exceptions are signalling: IEEE_UNDERFLOW_FLAG IEEE_DENORMAL
Note: The following floating-point exceptions are signalling: IEEE_UNDERFLOW_FLAG IEEE_DENORMAL
Note: The following floating-point exceptions are signalling: IEEE_UNDERFLOW_FLAG IEEE_DENORMAL
Note: The following floating-point exceptions are signalling: IEEE_UNDERFLOW_FLAG IEEE_DENORMAL
Note: The following floating-point exceptions are signalling: IEEE_UNDERFLOW_FLAG IEEE_DENORMAL
Note: The following floating-point exceptions are signalling: IEEE_UNDERFLOW_FLAG IEEE_DENORMAL
Note: The following floating-point exceptions are signalling: IEEE_UNDERFLOW_FLAG IEEE_DENORMAL
Note: The following floating-point exceptions are signalling: IEEE_UNDERFLOW_FLAG IEEE_DENORMAL
Note: The following floating-point exceptions are signalling: IEEE_UNDERFLOW_FLAG IEEE_DENORMAL
Note: The following floating-point exceptions are signalling: IEEE_UNDERFLOW_FLAG IEEE_DENORMAL
Note: The following floating-point exceptions are signalling: IEEE_UNDERFLOW_FLAG IEEE_DENORMAL
Note: The following floating-point exceptions are signalling: IEEE_UNDERFLOW_FLAG IEEE_DENORMAL
Note: The following floating-point exceptions are signalling: IEEE_UNDERFLOW_FLAG IEEE_DENORMAL
Note: The following floating-point exceptions are signalling: IEEE_UNDERFLOW_FLAG IEEE_DENORMAL
Note: The following floating-point exceptions are signalling: IEEE_UNDERFLOW_FLAG IEEE_DENORMAL
Note: The following floating-point exceptions are signalling: IEEE_UNDERFLOW_FLAG IEEE_DENORMAL
Note: The following floating-point exceptions are signalling: IEEE_UNDERFLOW_FLAG IEEE_DENORMAL
Note: The following floating-point exceptions are signalling: IEEE_UNDERFLOW_FLAG IEEE_DENORMAL
Note: The following floating-point exceptions are signalling: IEEE_UNDERFLOW_FLAG IEEE_DENORMAL
Note: The following floating-point exceptions are signalling: IEEE_UNDERFLOW_FLAG IEEE_DENORMAL
Note: The following floating-point exceptions are signalling: IEEE_UNDERFLOW_FLAG IEEE_DENORMAL
Note: The following floating-point exceptions are signalling: IEEE_UNDERFLOW_FLAG IEEE_DENORMAL
Note: The following floating-point exceptions are signalling: IEEE_UNDERFLOW_FLAG IEEE_DENORMAL
Note: The following floating-point exceptions are signalling: IEEE_UNDERFLOW_FLAG IEEE_DENORMAL
Note: The following floating-point exceptions are signalling: IEEE_UNDERFLOW_FLAG IEEE_DENORMAL
Note: The following floating-point exceptions are signalling: IEEE_UNDERFLOW_FLAG IEEE_DENORMAL
Note: The following floating-point exceptions are signalling: IEEE_UNDERFLOW_FLAG IEEE_DENORMAL
Note: The following floating-point exceptions are signalling: IEEE_UNDERFLOW_FLAG IEEE_DENORMAL
Note: The following floating-point exceptions are signalling: IEEE_UNDERFLOW_FLAG IEEE_DENORMAL
Note: The following floating-point exceptions are signalling: IEEE_UNDERFLOW_FLAG IEEE_DENORMAL
Note: The following floating-point exceptions are signalling: IEEE_UNDERFLOW_FLAG IEEE_DENORMAL
Note: The following floating-point exceptions are signalling: IEEE_UNDERFLOW_FLAG IEEE_DENORMAL
Note: The following floating-point exceptions are signalling: IEEE_UNDERFLOW_FLAG IEEE_DENORMAL
Note: The following floating-point exceptions are signalling: IEEE_UNDERFLOW_FLAG IEEE_DENORMAL
Note: The following floating-point exceptions are signalling: IEEE_UNDERFLOW_FLAG IEEE_DENORMAL
Note: The following floating-point exceptions are signalling: IEEE_UNDERFLOW_FLAG IEEE_DENORMAL
Note: The following floating-point exceptions are signalling: IEEE_UNDERFLOW_FLAG IEEE_DENORMAL
Note: The following floating-point exceptions are signalling: IEEE_UNDERFLOW_FLAG IEEE_DENORMAL
Note: The following floating-point exceptions are signalling: IEEE_UNDERFLOW_FLAG IEEE_DENORMAL
Note: The following floating-point exceptions are signalling: IEEE_UNDERFLOW_FLAG IEEE_DENORMAL
Note: The following floating-point exceptions are signalling: IEEE_UNDERFLOW_FLAG IEEE_DENORMAL
Note: The following floating-point exceptions are signalling: IEEE_UNDERFLOW_FLAG IEEE_DENORMAL
Note: The following floating-point exceptions are signalling: IEEE_UNDERFLOW_FLAG IEEE_DENORMAL
Note: The following floating-point exceptions are signalling: IEEE_UNDERFLOW_FLAG IEEE_DENORMAL
Note: The following floating-point exceptions are signalling: IEEE_UNDERFLOW_FLAG IEEE_DENORMAL
Note: The following floating-point exceptions are signalling: IEEE_UNDERFLOW_FLAG IEEE_DENORMAL
Note: The following floating-point exceptions are signalling: IEEE_UNDERFLOW_FLAG IEEE_DENORMAL
Note: The following floating-point exceptions are signalling: IEEE_UNDERFLOW_FLAG IEEE_DENORMAL
Note: The following floating-point exceptions are signalling: IEEE_UNDERFLOW_FLAG IEEE_DENORMAL
Note: The following floating-point exceptions are signalling: IEEE_UNDERFLOW_FLAG IEEE_DENORMAL
Note: The following floating-point exceptions are signalling: IEEE_UNDERFLOW_FLAG IEEE_DENORMAL
Note: The following floating-point exceptions are signalling: IEEE_UNDERFLOW_FLAG IEEE_DENORMAL
Note: The following floating-point exceptions are signalling: IEEE_UNDERFLOW_FLAG IEEE_DENORMAL
Note: The following floating-point exceptions are signalling: IEEE_UNDERFLOW_FLAG IEEE_DENORMAL
Note: The following floating-point exceptions are signalling: IEEE_UNDERFLOW_FLAG IEEE_DENORMAL
Note: The following floating-point exceptions are signalling: IEEE_UNDERFLOW_FLAG IEEE_DENORMAL
Note: The following floating-point exceptions are signalling: IEEE_UNDERFLOW_FLAG IEEE_DENORMAL
Note: The following floating-point exceptions are signalling: IEEE_UNDERFLOW_FLAG IEEE_DENORMAL
Note: The following floating-point exceptions are signalling: IEEE_UNDERFLOW_FLAG IEEE_DENORMAL
Note: The following floating-point exceptions are signalling: IEEE_UNDERFLOW_FLAG IEEE_DENORMAL
Note: The following floating-point exceptions are signalling: IEEE_UNDERFLOW_FLAG IEEE_DENORMAL
Note: The following floating-point exceptions are signalling: IEEE_UNDERFLOW_FLAG IEEE_DENORMAL
Note: The following floating-point exceptions are signalling: IEEE_UNDERFLOW_FLAG IEEE_DENORMAL
Note: The following floating-point exceptions are signalling: IEEE_UNDERFLOW_FLAG IEEE_DENORMAL
Note: The following floating-point exceptions are signalling: IEEE_UNDERFLOW_FLAG IEEE_DENORMAL
Note: The following floating-point exceptions are signalling: IEEE_UNDERFLOW_FLAG IEEE_DENORMAL
Note: The following floating-point exceptions are signalling: IEEE_UNDERFLOW_FLAG IEEE_DENORMAL
Note: The following floating-point exceptions are signalling: IEEE_UNDERFLOW_FLAG IEEE_DENORMAL
Note: The following floating-point exceptions are signalling: IEEE_UNDERFLOW_FLAG IEEE_DENORMAL
Note: The following floating-point exceptions are signalling: IEEE_UNDERFLOW_FLAG IEEE_DENORMAL
Note: The following floating-point exceptions are signalling: IEEE_UNDERFLOW_FLAG IEEE_DENORMAL
Note: The following floating-point exceptions are signalling: IEEE_UNDERFLOW_FLAG IEEE_DENORMAL
Note: The following floating-point exceptions are signalling: IEEE_UNDERFLOW_FLAG IEEE_DENORMAL
Note: The following floating-point exceptions are signalling: IEEE_UNDERFLOW_FLAG IEEE_DENORMAL
Note: The following floating-point exceptions are signalling: IEEE_UNDERFLOW_FLAG IEEE_DENORMAL
Note: The following floating-point exceptions are signalling: IEEE_UNDERFLOW_FLAG IEEE_DENORMAL
Note: The following floating-point exceptions are signalling: IEEE_UNDERFLOW_FLAG IEEE_DENORMAL
Note: The following floating-point exceptions are signalling: IEEE_UNDERFLOW_FLAG IEEE_DENORMAL
Note: The following floating-point exceptions are signalling: IEEE_UNDERFLOW_FLAG IEEE_DENORMAL
Note: The following floating-point exceptions are signalling: IEEE_UNDERFLOW_FLAG IEEE_DENORMAL
Note: The following floating-point exceptions are signalling: IEEE_UNDERFLOW_FLAG IEEE_DENORMAL
Note: The following floating-point exceptions are signalling: IEEE_UNDERFLOW_FLAG IEEE_DENORMAL
Note: The following floating-point exceptions are signalling: IEEE_UNDERFLOW_FLAG IEEE_DENORMAL
Note: The following floating-point exceptions are signalling: IEEE_UNDERFLOW_FLAG IEEE_DENORMAL
Note: The following floating-point exceptions are signalling: IEEE_UNDERFLOW_FLAG IEEE_DENORMAL
Note: The following floating-point exceptions are signalling: IEEE_UNDERFLOW_FLAG IEEE_DENORMAL
Note: The following floating-point exceptions are signalling: IEEE_UNDERFLOW_FLAG IEEE_DENORMAL
Note: The following floating-point exceptions are signalling: IEEE_UNDERFLOW_FLAG IEEE_DENORMAL
Note: The following floating-point exceptions are signalling: IEEE_UNDERFLOW_FLAG IEEE_DENORMAL
Note: The following floating-point exceptions are signalling: IEEE_UNDERFLOW_FLAG IEEE_DENORMAL
Note: The following floating-point exceptions are signalling: IEEE_UNDERFLOW_FLAG IEEE_DENORMAL
Note: The following floating-point exceptions are signalling: IEEE_UNDERFLOW_FLAG IEEE_DENORMAL
Note: The following floating-point exceptions are signalling: IEEE_UNDERFLOW_FLAG IEEE_DENORMAL
Note: The following floating-point exceptions are signalling: IEEE_UNDERFLOW_FLAG IEEE_DENORMAL
Note: The following floating-point exceptions are signalling: IEEE_UNDERFLOW_FLAG IEEE_DENORMAL
Note: The following floating-point exceptions are signalling: IEEE_UNDERFLOW_FLAG IEEE_DENORMAL
Note: The following floating-point exceptions are signalling: IEEE_UNDERFLOW_FLAG IEEE_DENORMAL
Note: The following floating-point exceptions are signalling: IEEE_UNDERFLOW_FLAG IEEE_DENORMAL
Note: The following floating-point exceptions are signalling: IEEE_UNDERFLOW_FLAG IEEE_DENORMAL
Note: The following floating-point exceptions are signalling: IEEE_UNDERFLOW_FLAG IEEE_DENORMAL
Note: The following floating-point exceptions are signalling: IEEE_UNDERFLOW_FLAG IEEE_DENORMAL
Note: The following floating-point exceptions are signalling: IEEE_UNDERFLOW_FLAG IEEE_DENORMAL
Note: The following floating-point exceptions are signalling: IEEE_UNDERFLOW_FLAG IEEE_DENORMAL
Note: The following floating-point exceptions are signalling: IEEE_UNDERFLOW_FLAG IEEE_DENORMAL
Note: The following floating-point exceptions are signalling: IEEE_UNDERFLOW_FLAG IEEE_DENORMAL
Note: The following floating-point exceptions are signalling: IEEE_UNDERFLOW_FLAG IEEE_DENORMAL
Note: The following floating-point exceptions are signalling: IEEE_UNDERFLOW_FLAG IEEE_DENORMAL
Note: The following floating-point exceptions are signalling: IEEE_UNDERFLOW_FLAG IEEE_DENORMAL
Note: The following floating-point exceptions are signalling: IEEE_UNDERFLOW_FLAG IEEE_DENORMAL
Note: The following floating-point exceptions are signalling: IEEE_UNDERFLOW_FLAG IEEE_DENORMAL
Note: The following floating-point exceptions are signalling: IEEE_UNDERFLOW_FLAG IEEE_DENORMAL
Note: The following floating-point exceptions are signalling: IEEE_UNDERFLOW_FLAG IEEE_DENORMAL
Note: The following floating-point exceptions are signalling: IEEE_UNDERFLOW_FLAG IEEE_DENORMAL
Note: The following floating-point exceptions are signalling: IEEE_UNDERFLOW_FLAG IEEE_DENORMAL
Note: The following floating-point exceptions are signalling: IEEE_UNDERFLOW_FLAG IEEE_DENORMAL
Note: The following floating-point exceptions are signalling: IEEE_UNDERFLOW_FLAG IEEE_DENORMAL
Note: The following floating-point exceptions are signalling: IEEE_UNDERFLOW_FLAG IEEE_DENORMAL
Note: The following floating-point exceptions are signalling: IEEE_UNDERFLOW_FLAG IEEE_DENORMAL
Note: The following floating-point exceptions are signalling: IEEE_UNDERFLOW_FLAG IEEE_DENORMAL
Note: The following floating-point exceptions are signalling: IEEE_UNDERFLOW_FLAG IEEE_DENORMAL
Note: The following floating-point exceptions are signalling: IEEE_UNDERFLOW_FLAG IEEE_DENORMAL
Note: The following floating-point exceptions are signalling: IEEE_UNDERFLOW_FLAG IEEE_DENORMAL
Note: The following floating-point exceptions are signalling: IEEE_UNDERFLOW_FLAG IEEE_DENORMAL
Note: The following floating-point exceptions are signalling: IEEE_UNDERFLOW_FLAG IEEE_DENORMAL
Note: The following floating-point exceptions are signalling: IEEE_UNDERFLOW_FLAG IEEE_DENORMAL
Note: The following floating-point exceptions are signalling: IEEE_UNDERFLOW_FLAG IEEE_DENORMAL
Note: The following floating-point exceptions are signalling: IEEE_UNDERFLOW_FLAG IEEE_DENORMAL
Note: The following floating-point exceptions are signalling: IEEE_UNDERFLOW_FLAG IEEE_DENORMAL
Note: The following floating-point exceptions are signalling: IEEE_UNDERFLOW_FLAG IEEE_DENORMAL
Note: The following floating-point exceptions are signalling: IEEE_UNDERFLOW_FLAG IEEE_DENORMAL
Note: The following floating-point exceptions are signalling: IEEE_UNDERFLOW_FLAG IEEE_DENORMAL
Note: The following floating-point exceptions are signalling: IEEE_UNDERFLOW_FLAG IEEE_DENORMAL
Note: The following floating-point exceptions are signalling: IEEE_UNDERFLOW_FLAG IEEE_DENORMAL
Note: The following floating-point exceptions are signalling: IEEE_UNDERFLOW_FLAG IEEE_DENORMAL
Note: The following floating-point exceptions are signalling: IEEE_UNDERFLOW_FLAG IEEE_DENORMAL
Note: The following floating-point exceptions are signalling: IEEE_UNDERFLOW_FLAG IEEE_DENORMAL
Note: The following floating-point exceptions are signalling: IEEE_UNDERFLOW_FLAG IEEE_DENORMAL
Note: The following floating-point exceptions are signalling: IEEE_UNDERFLOW_FLAG IEEE_DENORMAL
Note: The following floating-point exceptions are signalling: IEEE_UNDERFLOW_FLAG IEEE_DENORMAL
Note: The following floating-point exceptions are signalling: IEEE_UNDERFLOW_FLAG IEEE_DENORMAL
Note: The following floating-point exceptions are signalling: IEEE_UNDERFLOW_FLAG IEEE_DENORMAL
Note: The following floating-point exceptions are signalling: IEEE_UNDERFLOW_FLAG IEEE_DENORMAL
Note: The following floating-point exceptions are signalling: IEEE_UNDERFLOW_FLAG IEEE_DENORMAL
Note: The following floating-point exceptions are signalling: IEEE_UNDERFLOW_FLAG IEEE_DENORMAL
Note: The following floating-point exceptions are signalling: IEEE_UNDERFLOW_FLAG IEEE_DENORMAL
Note: The following floating-point exceptions are signalling: IEEE_UNDERFLOW_FLAG IEEE_DENORMAL
Note: The following floating-point exceptions are signalling: IEEE_UNDERFLOW_FLAG IEEE_DENORMAL
Note: The following floating-point exceptions are signalling: IEEE_UNDERFLOW_FLAG IEEE_DENORMAL
Note: The following floating-point exceptions are signalling: IEEE_UNDERFLOW_FLAG IEEE_DENORMAL
Note: The following floating-point exceptions are signalling: IEEE_UNDERFLOW_FLAG IEEE_DENORMAL
Note: The following floating-point exceptions are signalling: IEEE_UNDERFLOW_FLAG IEEE_DENORMAL
Note: The following floating-point exceptions are signalling: IEEE_UNDERFLOW_FLAG IEEE_DENORMAL
Note: The following floating-point exceptions are signalling: IEEE_UNDERFLOW_FLAG IEEE_DENORMAL
Note: The following floating-point exceptions are signalling: IEEE_UNDERFLOW_FLAG IEEE_DENORMAL
Note: The following floating-point exceptions are signalling: IEEE_UNDERFLOW_FLAG IEEE_DENORMAL
Note: The following floating-point exceptions are signalling: IEEE_UNDERFLOW_FLAG IEEE_DENORMAL
Note: The following floating-point exceptions are signalling: IEEE_UNDERFLOW_FLAG IEEE_DENORMAL
Note: The following floating-point exceptions are signalling: IEEE_UNDERFLOW_FLAG IEEE_DENORMAL
Note: The following floating-point exceptions are signalling: IEEE_UNDERFLOW_FLAG IEEE_DENORMAL
Note: The following floating-point exceptions are signalling: IEEE_UNDERFLOW_FLAG IEEE_DENORMAL
Note: The following floating-point exceptions are signalling: IEEE_UNDERFLOW_FLAG IEEE_DENORMAL
Note: The following floating-point exceptions are signalling: IEEE_UNDERFLOW_FLAG IEEE_DENORMAL
Note: The following floating-point exceptions are signalling: IEEE_UNDERFLOW_FLAG IEEE_DENORMAL
Note: The following floating-point exceptions are signalling: IEEE_UNDERFLOW_FLAG IEEE_DENORMAL
Note: The following floating-point exceptions are signalling: IEEE_UNDERFLOW_FLAG IEEE_DENORMAL
Note: The following floating-point exceptions are signalling: IEEE_UNDERFLOW_FLAG IEEE_DENORMAL
Note: The following floating-point exceptions are signalling: IEEE_UNDERFLOW_FLAG IEEE_DENORMAL
Note: The following floating-point exceptions are signalling: IEEE_UNDERFLOW_FLAG IEEE_DENORMAL
Note: The following floating-point exceptions are signalling: IEEE_UNDERFLOW_FLAG IEEE_DENORMAL
Note: The following floating-point exceptions are signalling: IEEE_UNDERFLOW_FLAG IEEE_DENORMAL
Note: The following floating-point exceptions are signalling: IEEE_UNDERFLOW_FLAG IEEE_DENORMAL
Note: The following floating-point exceptions are signalling: IEEE_UNDERFLOW_FLAG IEEE_DENORMAL
Note: The following floating-point exceptions are signalling: IEEE_UNDERFLOW_FLAG IEEE_DENORMAL
Note: The following floating-point exceptions are signalling: IEEE_UNDERFLOW_FLAG IEEE_DENORMAL
Note: The following floating-point exceptions are signalling: IEEE_UNDERFLOW_FLAG IEEE_DENORMAL
Note: The following floating-point exceptions are signalling: IEEE_UNDERFLOW_FLAG IEEE_DENORMAL
Note: The following floating-point exceptions are signalling: IEEE_UNDERFLOW_FLAG IEEE_DENORMAL
Note: The following floating-point exceptions are signalling: IEEE_UNDERFLOW_FLAG IEEE_DENORMAL
Note: The following floating-point exceptions are signalling: IEEE_UNDERFLOW_FLAG IEEE_DENORMAL
Note: The following floating-point exceptions are signalling: IEEE_UNDERFLOW_FLAG IEEE_DENORMAL
Note: The following floating-point exceptions are signalling: IEEE_UNDERFLOW_FLAG IEEE_DENORMAL
Note: The following floating-point exceptions are signalling: IEEE_UNDERFLOW_FLAG IEEE_DENORMAL
Note: The following floating-point exceptions are signalling: IEEE_UNDERFLOW_FLAG IEEE_DENORMAL
Note: The following floating-point exceptions are signalling: IEEE_UNDERFLOW_FLAG IEEE_DENORMAL
Note: The following floating-point exceptions are signalling: IEEE_UNDERFLOW_FLAG IEEE_DENORMAL
Note: The following floating-point exceptions are signalling: IEEE_UNDERFLOW_FLAG IEEE_DENORMAL
Note: The following floating-point exceptions are signalling: IEEE_UNDERFLOW_FLAG IEEE_DENORMAL
Note: The following floating-point exceptions are signalling: IEEE_UNDERFLOW_FLAG IEEE_DENORMAL
Note: The following floating-point exceptions are signalling: IEEE_UNDERFLOW_FLAG IEEE_DENORMAL
Note: The following floating-point exceptions are signalling: IEEE_UNDERFLOW_FLAG IEEE_DENORMAL
Note: The following floating-point exceptions are signalling: IEEE_UNDERFLOW_FLAG IEEE_DENORMAL
Note: The following floating-point exceptions are signalling: IEEE_UNDERFLOW_FLAG IEEE_DENORMAL
Note: The following floating-point exceptions are signalling: IEEE_UNDERFLOW_FLAG IEEE_DENORMAL
Note: The following floating-point exceptions are signalling: IEEE_UNDERFLOW_FLAG IEEE_DENORMAL
Note: The following floating-point exceptions are signalling: IEEE_UNDERFLOW_FLAG IEEE_DENORMAL
Note: The following floating-point exceptions are signalling: IEEE_UNDERFLOW_FLAG IEEE_DENORMAL
Note: The following floating-point exceptions are signalling: IEEE_UNDERFLOW_FLAG IEEE_DENORMAL
Note: The following floating-point exceptions are signalling: IEEE_UNDERFLOW_FLAG IEEE_DENORMAL
Note: The following floating-point exceptions are signalling: IEEE_UNDERFLOW_FLAG IEEE_DENORMAL
Note: The following floating-point exceptions are signalling: IEEE_UNDERFLOW_FLAG IEEE_DENORMAL
Note: The following floating-point exceptions are signalling: IEEE_UNDERFLOW_FLAG IEEE_DENORMAL
Note: The following floating-point exceptions are signalling: IEEE_UNDERFLOW_FLAG IEEE_DENORMAL
Note: The following floating-point exceptions are signalling: IEEE_UNDERFLOW_FLAG IEEE_DENORMAL
Note: The following floating-point exceptions are signalling: IEEE_UNDERFLOW_FLAG IEEE_DENORMAL
Note: The following floating-point exceptions are signalling: IEEE_UNDERFLOW_FLAG IEEE_DENORMAL
Note: The following floating-point exceptions are signalling: IEEE_UNDERFLOW_FLAG IEEE_DENORMAL
Note: The following floating-point exceptions are signalling: IEEE_UNDERFLOW_FLAG IEEE_DENORMAL
Note: The following floating-point exceptions are signalling: IEEE_UNDERFLOW_FLAG IEEE_DENORMAL
Note: The following floating-point exceptions are signalling: IEEE_UNDERFLOW_FLAG IEEE_DENORMAL
Note: The following floating-point exceptions are signalling: IEEE_UNDERFLOW_FLAG IEEE_DENORMAL
Note: The following floating-point exceptions are signalling: IEEE_UNDERFLOW_FLAG IEEE_DENORMAL
Note: The following floating-point exceptions are signalling: IEEE_UNDERFLOW_FLAG IEEE_DENORMAL
Note: The following floating-point exceptions are signalling: IEEE_UNDERFLOW_FLAG IEEE_DENORMAL
Note: The following floating-point exceptions are signalling: IEEE_UNDERFLOW_FLAG IEEE_DENORMAL
Note: The following floating-point exceptions are signalling: IEEE_UNDERFLOW_FLAG IEEE_DENORMAL
Note: The following floating-point exceptions are signalling: IEEE_UNDERFLOW_FLAG IEEE_DENORMAL
Note: The following floating-point exceptions are signalling: IEEE_UNDERFLOW_FLAG IEEE_DENORMAL
Note: The following floating-point exceptions are signalling: IEEE_UNDERFLOW_FLAG IEEE_DENORMAL
Note: The following floating-point exceptions are signalling: IEEE_UNDERFLOW_FLAG IEEE_DENORMAL
Note: The following floating-point exceptions are signalling: IEEE_UNDERFLOW_FLAG IEEE_DENORMAL
Note: The following floating-point exceptions are signalling: IEEE_UNDERFLOW_FLAG IEEE_DENORMAL
Note: The following floating-point exceptions are signalling: IEEE_UNDERFLOW_FLAG IEEE_DENORMAL
Note: The following floating-point exceptions are signalling: IEEE_UNDERFLOW_FLAG IEEE_DENORMAL
Note: The following floating-point exceptions are signalling: IEEE_UNDERFLOW_FLAG IEEE_DENORMAL
Note: The following floating-point exceptions are signalling: IEEE_UNDERFLOW_FLAG IEEE_DENORMAL
Note: The following floating-point exceptions are signalling: IEEE_UNDERFLOW_FLAG IEEE_DENORMAL
Note: The following floating-point exceptions are signalling: IEEE_UNDERFLOW_FLAG IEEE_DENORMAL
[...]
Note: The following floating-point exceptions are signalling: IEEE_UNDERFLOW_FLAG IEEE_DENORMAL
Note: The following floating-point exceptions are signalling: IEEE_UNDERFLOW_FLAG IEEE_DENORMAL
Note: The following floating-point exceptions are signalling: IEEE_UNDERFLOW_FLAG IEEE_DENORMAL
Note: The following floating-point exceptions are signalling: IEEE_UNDERFLOW_FLAG IEEE_DENORMAL
Note: The following floating-point exceptions are signalling: IEEE_UNDERFLOW_FLAG IEEE_DENORMAL
Note: The following floating-point exceptions are signalling: IEEE_UNDERFLOW_FLAG IEEE_DENORMAL
Note: The following floating-point exceptions are signalling: IEEE_UNDERFLOW_FLAG IEEE_DENORMAL
Note: The following floating-point exceptions are signalling: IEEE_UNDERFLOW_FLAG IEEE_DENORMAL
Note: The following floating-point exceptions are signalling: IEEE_UNDERFLOW_FLAG IEEE_DENORMAL
Note: The following floating-point exceptions are signalling: IEEE_UNDERFLOW_FLAG IEEE_DENORMAL
Note: The following floating-point exceptions are signalling: IEEE_UNDERFLOW_FLAG IEEE_DENORMAL
Note: The following floating-point exceptions are signalling: IEEE_UNDERFLOW_FLAG IEEE_DENORMAL
Note: The following floating-point exceptions are signalling: IEEE_UNDERFLOW_FLAG IEEE_DENORMAL
Note: The following floating-point exceptions are signalling: IEEE_UNDERFLOW_FLAG IEEE_DENORMAL
Note: The following floating-point exceptions are signalling: IEEE_UNDERFLOW_FLAG IEEE_DENORMAL
Note: The following floating-point exceptions are signalling: IEEE_UNDERFLOW_FLAG IEEE_DENORMAL
Note: The following floating-point exceptions are signalling: IEEE_UNDERFLOW_FLAG IEEE_DENORMAL
Note: The following floating-point exceptions are signalling: IEEE_UNDERFLOW_FLAG IEEE_DENORMAL
Note: The following floating-point exceptions are signalling: IEEE_UNDERFLOW_FLAG IEEE_DENORMAL
Note: The following floating-point exceptions are signalling: IEEE_UNDERFLOW_FLAG IEEE_DENORMAL
Note: The following floating-point exceptions are signalling: IEEE_UNDERFLOW_FLAG IEEE_DENORMAL
Note: The following floating-point exceptions are signalling: IEEE_UNDERFLOW_FLAG IEEE_DENORMAL
Note: The following floating-point exceptions are signalling: IEEE_UNDERFLOW_FLAG IEEE_DENORMAL
Note: The following floating-point exceptions are signalling: IEEE_UNDERFLOW_FLAG IEEE_DENORMAL
Note: The following floating-point exceptions are signalling: IEEE_UNDERFLOW_FLAG IEEE_DENORMAL
Note: The following floating-point exceptions are signalling: IEEE_UNDERFLOW_FLAG IEEE_DENORMAL
Note: The following floating-point exceptions are signalling: IEEE_UNDERFLOW_FLAG IEEE_DENORMAL
Note: The following floating-point exceptions are signalling: IEEE_UNDERFLOW_FLAG IEEE_DENORMAL
Note: The following floating-point exceptions are signalling: IEEE_UNDERFLOW_FLAG IEEE_DENORMAL
Note: The following floating-point exceptions are signalling: IEEE_UNDERFLOW_FLAG IEEE_DENORMAL
Note: The following floating-point exceptions are signalling: IEEE_UNDERFLOW_FLAG IEEE_DENORMAL
Note: The following floating-point exceptions are signalling: IEEE_UNDERFLOW_FLAG IEEE_DENORMAL
Note: The following floating-point exceptions are signalling: IEEE_UNDERFLOW_FLAG IEEE_DENORMAL
Note: The following floating-point exceptions are signalling: IEEE_UNDERFLOW_FLAG IEEE_DENORMAL
Note: The following floating-point exceptions are signalling: IEEE_UNDERFLOW_FLAG IEEE_DENORMAL
Note: The following floating-point exceptions are signalling: IEEE_UNDERFLOW_FLAG IEEE_DENORMAL
Note: The following floating-point exceptions are signalling: IEEE_UNDERFLOW_FLAG IEEE_DENORMAL
Note: The following floating-point exceptions are signalling: IEEE_UNDERFLOW_FLAG IEEE_DENORMAL
Note: The following floating-point exceptions are signalling: IEEE_UNDERFLOW_FLAG IEEE_DENORMAL
Note: The following floating-point exceptions are signalling: IEEE_UNDERFLOW_FLAG IEEE_DENORMAL
Note: The following floating-point exceptions are signalling: IEEE_UNDERFLOW_FLAG IEEE_DENORMAL
Note: The following floating-point exceptions are signalling: IEEE_UNDERFLOW_FLAG IEEE_DENORMAL
Note: The following floating-point exceptions are signalling: IEEE_UNDERFLOW_FLAG IEEE_DENORMAL
Note: The following floating-point exceptions are signalling: IEEE_UNDERFLOW_FLAG IEEE_DENORMAL
Note: The following floating-point exceptions are signalling: IEEE_UNDERFLOW_FLAG IEEE_DENORMAL
Note: The following floating-point exceptions are signalling: IEEE_UNDERFLOW_FLAG IEEE_DENORMAL
Note: The following floating-point exceptions are signalling: IEEE_UNDERFLOW_FLAG IEEE_DENORMAL
Note: The following floating-point exceptions are signalling: IEEE_UNDERFLOW_FLAG IEEE_DENORMAL
Note: The following floating-point exceptions are signalling: IEEE_UNDERFLOW_FLAG IEEE_DENORMAL
Note: The following floating-point exceptions are signalling: IEEE_UNDERFLOW_FLAG IEEE_DENORMAL
Note: The following floating-point exceptions are signalling: IEEE_UNDERFLOW_FLAG IEEE_DENORMAL
Note: The following floating-point exceptions are signalling: IEEE_UNDERFLOW_FLAG IEEE_DENORMAL
Note: The following floating-point exceptions are signalling: IEEE_UNDERFLOW_FLAG IEEE_DENORMAL
Note: The following floating-point exceptions are signalling: IEEE_UNDERFLOW_FLAG IEEE_DENORMAL
Note: The following floating-point exceptions are signalling: IEEE_UNDERFLOW_FLAG IEEE_DENORMAL
Note: The following floating-point exceptions are signalling: IEEE_UNDERFLOW_FLAG IEEE_DENORMAL
Note: The following floating-point exceptions are signalling: IEEE_UNDERFLOW_FLAG IEEE_DENORMAL
Note: The following floating-point exceptions are signalling: IEEE_UNDERFLOW_FLAG IEEE_DENORMAL
Note: The following floating-point exceptions are signalling: IEEE_UNDERFLOW_FLAG IEEE_DENORMAL
Note: The following floating-point exceptions are signalling: IEEE_UNDERFLOW_FLAG IEEE_DENORMAL
Note: The following floating-point exceptions are signalling: IEEE_UNDERFLOW_FLAG IEEE_DENORMAL
Note: The following floating-point exceptions are signalling: IEEE_UNDERFLOW_FLAG IEEE_DENORMAL
Note: The following floating-point exceptions are signalling: IEEE_UNDERFLOW_FLAG IEEE_DENORMAL
Note: The following floating-point exceptions are signalling: IEEE_UNDERFLOW_FLAG IEEE_DENORMAL
Note: The following floating-point exceptions are signalling: IEEE_UNDERFLOW_FLAG IEEE_DENORMAL
Note: The following floating-point exceptions are signalling: IEEE_UNDERFLOW_FLAG IEEE_DENORMAL
Note: The following floating-point exceptions are signalling: IEEE_UNDERFLOW_FLAG IEEE_DENORMAL
Note: The following floating-point exceptions are signalling: IEEE_UNDERFLOW_FLAG IEEE_DENORMAL
Note: The following floating-point exceptions are signalling: IEEE_UNDERFLOW_FLAG IEEE_DENORMAL
Note: The following floating-point exceptions are signalling: IEEE_UNDERFLOW_FLAG IEEE_DENORMAL
Note: The following floating-point exceptions are signalling: IEEE_UNDERFLOW_FLAG IEEE_DENORMAL
Note: The following floating-point exceptions are signalling: IEEE_UNDERFLOW_FLAG IEEE_DENORMAL
Note: The following floating-point exceptions are signalling: IEEE_UNDERFLOW_FLAG IEEE_DENORMAL
Note: The following floating-point exceptions are signalling: IEEE_UNDERFLOW_FLAG IEEE_DENORMAL
Note: The following floating-point exceptions are signalling: IEEE_UNDERFLOW_FLAG IEEE_DENORMAL
Note: The following floating-point exceptions are signalling: IEEE_UNDERFLOW_FLAG IEEE_DENORMAL
Note: The following floating-point exceptions are signalling: IEEE_UNDERFLOW_FLAG IEEE_DENORMAL
Note: The following floating-point exceptions are signalling: IEEE_UNDERFLOW_FLAG IEEE_DENORMAL
Note: The following floating-point exceptions are signalling: IEEE_UNDERFLOW_FLAG IEEE_DENORMAL
Note: The following floating-point exceptions are signalling: IEEE_UNDERFLOW_FLAG IEEE_DENORMAL
Note: The following floating-point exceptions are signalling: IEEE_UNDERFLOW_FLAG IEEE_DENORMAL
Note: The following floating-point exceptions are signalling: IEEE_UNDERFLOW_FLAG IEEE_DENORMAL
Note: The following floating-point exceptions are signalling: IEEE_UNDERFLOW_FLAG IEEE_DENORMAL
Note: The following floating-point exceptions are signalling: IEEE_UNDERFLOW_FLAG IEEE_DENORMAL
Note: The following floating-point exceptions are signalling: IEEE_UNDERFLOW_FLAG IEEE_DENORMAL
Note: The following floating-point exceptions are signalling: IEEE_UNDERFLOW_FLAG IEEE_DENORMAL
Note: The following floating-point exceptions are signalling: IEEE_UNDERFLOW_FLAG IEEE_DENORMAL
Note: The following floating-point exceptions are signalling: IEEE_UNDERFLOW_FLAG IEEE_DENORMAL
Note: The following floating-point exceptions are signalling: IEEE_UNDERFLOW_FLAG IEEE_DENORMAL
Note: The following floating-point exceptions are signalling: IEEE_UNDERFLOW_FLAG IEEE_DENORMAL
Note: The following floating-point exceptions are signalling: IEEE_UNDERFLOW_FLAG IEEE_DENORMAL
Note: The following floating-point exceptions are signalling: IEEE_UNDERFLOW_FLAG IEEE_DENORMAL
Note: The following floating-point exceptions are signalling: IEEE_UNDERFLOW_FLAG IEEE_DENORMAL
Note: The following floating-point exceptions are signalling: IEEE_UNDERFLOW_FLAG IEEE_DENORMAL
Note: The following floating-point exceptions are signalling: IEEE_UNDERFLOW_FLAG IEEE_DENORMAL
Note: The following floating-point exceptions are signalling: IEEE_UNDERFLOW_FLAG IEEE_DENORMAL
Note: The following floating-point exceptions are signalling: IEEE_UNDERFLOW_FLAG IEEE_DENORMAL
Note: The following floating-point exceptions are signalling: IEEE_UNDERFLOW_FLAG IEEE_DENORMAL
Note: The following floating-point exceptions are signalling: IEEE_UNDERFLOW_FLAG IEEE_DENORMAL
Note: The following floating-point exceptions are signalling: IEEE_UNDERFLOW_FLAG IEEE_DENORMAL
Note: The following floating-point exceptions are signalling: IEEE_UNDERFLOW_FLAG IEEE_DENORMAL
Note: The following floating-point exceptions are signalling: IEEE_UNDERFLOW_FLAG IEEE_DENORMAL
Note: The following floating-point exceptions are signalling: IEEE_UNDERFLOW_FLAG IEEE_DENORMAL
Note: The following floating-point exceptions are signalling: IEEE_UNDERFLOW_FLAG IEEE_DENORMAL
Note: The following floating-point exceptions are signalling: IEEE_UNDERFLOW_FLAG IEEE_DENORMAL
Note: The following floating-point exceptions are signalling: IEEE_UNDERFLOW_FLAG IEEE_DENORMAL
Note: The following floating-point exceptions are signalling: IEEE_UNDERFLOW_FLAG IEEE_DENORMAL
Note: The following floating-point exceptions are signalling: IEEE_UNDERFLOW_FLAG IEEE_DENORMAL
Note: The following floating-point exceptions are signalling: IEEE_UNDERFLOW_FLAG IEEE_DENORMAL
Note: The following floating-point exceptions are signalling: IEEE_UNDERFLOW_FLAG IEEE_DENORMAL
Note: The following floating-point exceptions are signalling: IEEE_UNDERFLOW_FLAG IEEE_DENORMAL
Note: The following floating-point exceptions are signalling: IEEE_UNDERFLOW_FLAG IEEE_DENORMAL
Note: The following floating-point exceptions are signalling: IEEE_UNDERFLOW_FLAG IEEE_DENORMAL
Note: The following floating-point exceptions are signalling: IEEE_UNDERFLOW_FLAG IEEE_DENORMAL
Note: The following floating-point exceptions are signalling: IEEE_UNDERFLOW_FLAG IEEE_DENORMAL
Note: The following floating-point exceptions are signalling: IEEE_UNDERFLOW_FLAG IEEE_DENORMAL
Note: The following floating-point exceptions are signalling: IEEE_UNDERFLOW_FLAG IEEE_DENORMAL
Note: The following floating-point exceptions are signalling: IEEE_UNDERFLOW_FLAG IEEE_DENORMAL
Note: The following floating-point exceptions are signalling: IEEE_UNDERFLOW_FLAG IEEE_DENORMAL
Note: The following floating-point exceptions are signalling: IEEE_UNDERFLOW_FLAG IEEE_DENORMAL
Note: The following floating-point exceptions are signalling: IEEE_UNDERFLOW_FLAG IEEE_DENORMAL
Note: The following floating-point exceptions are signalling: IEEE_UNDERFLOW_FLAG IEEE_DENORMAL
Note: The following floating-point exceptions are signalling: IEEE_UNDERFLOW_FLAG IEEE_DENORMAL
Note: The following floating-point exceptions are signalling: IEEE_UNDERFLOW_FLAG IEEE_DENORMAL
Note: The following floating-point exceptions are signalling: IEEE_UNDERFLOW_FLAG IEEE_DENORMAL
Note: The following floating-point exceptions are signalling: IEEE_UNDERFLOW_FLAG IEEE_DENORMAL
Note: The following floating-point exceptions are signalling: IEEE_UNDERFLOW_FLAG IEEE_DENORMAL
Note: The following floating-point exceptions are signalling: IEEE_UNDERFLOW_FLAG IEEE_DENORMAL
Note: The following floating-point exceptions are signalling: IEEE_UNDERFLOW_FLAG IEEE_DENORMAL
Note: The following floating-point exceptions are signalling: IEEE_UNDERFLOW_FLAG IEEE_DENORMAL
Note: The following floating-point exceptions are signalling: IEEE_UNDERFLOW_FLAG IEEE_DENORMAL
Note: The following floating-point exceptions are signalling: IEEE_UNDERFLOW_FLAG IEEE_DENORMAL
Note: The following floating-point exceptions are signalling: IEEE_UNDERFLOW_FLAG IEEE_DENORMAL
Note: The following floating-point exceptions are signalling: IEEE_UNDERFLOW_FLAG IEEE_DENORMAL
Note: The following floating-point exceptions are signalling: IEEE_UNDERFLOW_FLAG IEEE_DENORMAL
Note: The following floating-point exceptions are signalling: IEEE_UNDERFLOW_FLAG IEEE_DENORMAL
Note: The following floating-point exceptions are signalling: IEEE_UNDERFLOW_FLAG IEEE_DENORMAL
Note: The following floating-point exceptions are signalling: IEEE_UNDERFLOW_FLAG IEEE_DENORMAL
Note: The following floating-point exceptions are signalling: IEEE_UNDERFLOW_FLAG IEEE_DENORMAL
Note: The following floating-point exceptions are signalling: IEEE_UNDERFLOW_FLAG IEEE_DENORMAL
Note: The following floating-point exceptions are signalling: IEEE_UNDERFLOW_FLAG IEEE_DENORMAL
Note: The following floating-point exceptions are signalling: IEEE_UNDERFLOW_FLAG IEEE_DENORMAL
Note: The following floating-point exceptions are signalling: IEEE_UNDERFLOW_FLAG IEEE_DENORMAL
Note: The following floating-point exceptions are signalling: IEEE_UNDERFLOW_FLAG IEEE_DENORMAL
Note: The following floating-point exceptions are signalling: IEEE_UNDERFLOW_FLAG IEEE_DENORMAL
Note: The following floating-point exceptions are signalling: IEEE_UNDERFLOW_FLAG IEEE_DENORMAL
Note: The following floating-point exceptions are signalling: IEEE_UNDERFLOW_FLAG IEEE_DENORMAL
Note: The following floating-point exceptions are signalling: IEEE_UNDERFLOW_FLAG IEEE_DENORMAL
Note: The following floating-point exceptions are signalling: IEEE_UNDERFLOW_FLAG IEEE_DENORMAL
Note: The following floating-point exceptions are signalling: IEEE_UNDERFLOW_FLAG IEEE_DENORMAL
Note: The following floating-point exceptions are signalling: IEEE_UNDERFLOW_FLAG IEEE_DENORMAL
Note: The following floating-point exceptions are signalling: IEEE_UNDERFLOW_FLAG IEEE_DENORMAL
Note: The following floating-point exceptions are signalling: IEEE_UNDERFLOW_FLAG IEEE_DENORMAL
Note: The following floating-point exceptions are signalling: IEEE_UNDERFLOW_FLAG IEEE_DENORMAL
Note: The following floating-point exceptions are signalling: IEEE_UNDERFLOW_FLAG IEEE_DENORMAL
Note: The following floating-point exceptions are signalling: IEEE_UNDERFLOW_FLAG IEEE_DENORMAL
Note: The following floating-point exceptions are signalling: IEEE_UNDERFLOW_FLAG IEEE_DENORMAL
Note: The following floating-point exceptions are signalling: IEEE_UNDERFLOW_FLAG IEEE_DENORMAL
Note: The following floating-point exceptions are signalling: IEEE_UNDERFLOW_FLAG IEEE_DENORMAL
Note: The following floating-point exceptions are signalling: IEEE_UNDERFLOW_FLAG IEEE_DENORMAL
Note: The following floating-point exceptions are signalling: IEEE_UNDERFLOW_FLAG IEEE_DENORMAL
Note: The following floating-point exceptions are signalling: IEEE_UNDERFLOW_FLAG IEEE_DENORMAL
Note: The following floating-point exceptions are signalling: IEEE_UNDERFLOW_FLAG IEEE_DENORMAL
Note: The following floating-point exceptions are signalling: IEEE_UNDERFLOW_FLAG IEEE_DENORMAL
Note: The following floating-point exceptions are signalling: IEEE_UNDERFLOW_FLAG IEEE_DENORMAL
Note: The following floating-point exceptions are signalling: IEEE_UNDERFLOW_FLAG IEEE_DENORMAL
Note: The following floating-point exceptions are signalling: IEEE_UNDERFLOW_FLAG IEEE_DENORMAL
Note: The following floating-point exceptions are signalling: IEEE_UNDERFLOW_FLAG IEEE_DENORMAL
Note: The following floating-point exceptions are signalling: IEEE_UNDERFLOW_FLAG IEEE_DENORMAL
Note: The following floating-point exceptions are signalling: IEEE_UNDERFLOW_FLAG IEEE_DENORMAL
Note: The following floating-point exceptions are signalling: IEEE_UNDERFLOW_FLAG IEEE_DENORMAL
Note: The following floating-point exceptions are signalling: IEEE_UNDERFLOW_FLAG IEEE_DENORMAL
Note: The following floating-point exceptions are signalling: IEEE_UNDERFLOW_FLAG IEEE_DENORMAL
Note: The following floating-point exceptions are signalling: IEEE_UNDERFLOW_FLAG IEEE_DENORMAL
Note: The following floating-point exceptions are signalling: IEEE_UNDERFLOW_FLAG IEEE_DENORMAL
Note: The following floating-point exceptions are signalling: IEEE_UNDERFLOW_FLAG IEEE_DENORMAL
Note: The following floating-point exceptions are signalling: IEEE_UNDERFLOW_FLAG IEEE_DENORMAL
Note: The following floating-point exceptions are signalling: IEEE_UNDERFLOW_FLAG IEEE_DENORMAL
Note: The following floating-point exceptions are signalling: IEEE_UNDERFLOW_FLAG IEEE_DENORMAL
Note: The following floating-point exceptions are signalling: IEEE_UNDERFLOW_FLAG IEEE_DENORMAL
Note: The following floating-point exceptions are signalling: IEEE_UNDERFLOW_FLAG IEEE_DENORMAL
Note: The following floating-point exceptions are signalling: IEEE_UNDERFLOW_FLAG IEEE_DENORMAL
Note: The following floating-point exceptions are signalling: IEEE_UNDERFLOW_FLAG IEEE_DENORMAL
Note: The following floating-point exceptions are signalling: IEEE_UNDERFLOW_FLAG IEEE_DENORMAL
Note: The following floating-point exceptions are signalling: IEEE_UNDERFLOW_FLAG IEEE_DENORMAL
Note: The following floating-point exceptions are signalling: IEEE_UNDERFLOW_FLAG IEEE_DENORMAL
Note: The following floating-point exceptions are signalling: IEEE_UNDERFLOW_FLAG IEEE_DENORMAL
Note: The following floating-point exceptions are signalling: IEEE_UNDERFLOW_FLAG IEEE_DENORMAL
Note: The following floating-point exceptions are signalling: IEEE_UNDERFLOW_FLAG IEEE_DENORMAL
Note: The following floating-point exceptions are signalling: IEEE_UNDERFLOW_FLAG IEEE_DENORMAL
Note: The following floating-point exceptions are signalling: IEEE_UNDERFLOW_FLAG IEEE_DENORMAL
Note: The following floating-point exceptions are signalling: IEEE_UNDERFLOW_FLAG IEEE_DENORMAL
Note: The following floating-point exceptions are signalling: IEEE_UNDERFLOW_FLAG IEEE_DENORMAL
Note: The following floating-point exceptions are signalling: IEEE_UNDERFLOW_FLAG IEEE_DENORMAL
Note: The following floating-point exceptions are signalling: IEEE_UNDERFLOW_FLAG IEEE_DENORMAL
Note: The following floating-point exceptions are signalling: IEEE_UNDERFLOW_FLAG IEEE_DENORMAL
Note: The following floating-point exceptions are signalling: IEEE_UNDERFLOW_FLAG IEEE_DENORMAL
Note: The following floating-point exceptions are signalling: IEEE_UNDERFLOW_FLAG IEEE_DENORMAL
Note: The following floating-point exceptions are signalling: IEEE_UNDERFLOW_FLAG IEEE_DENORMAL
Note: The following floating-point exceptions are signalling: IEEE_UNDERFLOW_FLAG IEEE_DENORMAL
Note: The following floating-point exceptions are signalling: IEEE_UNDERFLOW_FLAG IEEE_DENORMAL
Note: The following floating-point exceptions are signalling: IEEE_UNDERFLOW_FLAG IEEE_DENORMAL
Note: The following floating-point exceptions are signalling: IEEE_UNDERFLOW_FLAG IEEE_DENORMAL
Note: The following floating-point exceptions are signalling: IEEE_UNDERFLOW_FLAG IEEE_DENORMAL
Note: The following floating-point exceptions are signalling: IEEE_UNDERFLOW_FLAG IEEE_DENORMAL
Note: The following floating-point exceptions are signalling: IEEE_UNDERFLOW_FLAG IEEE_DENORMAL
Note: The following floating-point exceptions are signalling: IEEE_UNDERFLOW_FLAG IEEE_DENORMAL
Note: The following floating-point exceptions are signalling: IEEE_UNDERFLOW_FLAG IEEE_DENORMAL
