 ----------------------------------------------------
    OOO  PPPP  EEEEE N   N M   M PPPP
   O   O P   P E     NN  N MM MM P   P
   O   O PPPP  EEEEE N N N M M M PPPP   -- VERSION
   O   O P     E     N  NN M   M P
    OOO  P     EEEEE N   N M   M P
 ----------------------------------------------------
 running 1280 mpi-ranks, with    1 threads/rank
 each image running on  256 cores
 distrk:  each k-point on   32 cores,    8 groups
 distr:  one band on    4 cores,    8 groups
 vasp.6.2.0 18Jan21 (build May  7 2021 14:06:14) complex                         
 POSCAR found type information on POSCAR FeLiO S 
 01/POSCAR found :  4 types and      95 ions
 scaLAPACK will be used
 -----------------------------------------------------------------------------
|                                                                             |
|               ----> ADVICE to this user running VASP <----                  |
|                                                                             |
|     You have a (more or less) 'large supercell' and for larger cells it     |
|     might be more efficient to use real-space projection operators.         |
|     Therefore, try LREAL= Auto in the INCAR file.                           |
|     Mind: For very accurate calculation, you might also keep the            |
|     reciprocal projection scheme (i.e. LREAL=.FALSE.).                      |
|                                                                             |
 -----------------------------------------------------------------------------

 LDA part: xc-table for Pade appr. of Perdew
 POSCAR found type information on POSCAR FeLiO S 
 00/POSCAR found :  4 types and      95 ions
 POSCAR found type information on POSCAR FeLiO S 
 06/POSCAR found :  4 types and      95 ions
 Jacobian:    23.154902702064952     
 POSCAR, INCAR and KPOINTS ok, starting setup
 FFT: planning ...
 WAVECAR not read
 entering main loop
       N       E                     dE             d eps       ncg     rms          rms(c)
DAV:   1     0.849473690574E+04    0.84947E+04   -0.31859E+05 16216   0.162E+03
DAV:   2     0.834632360598E+03   -0.76601E+04   -0.70217E+04 15616   0.462E+02
DAV:   3    -0.391951920710E+03   -0.12266E+04   -0.11620E+04 16928   0.192E+02
DAV:   4    -0.537125513798E+03   -0.14517E+03   -0.14230E+03 20608   0.496E+01
BRMIX: very serious problems
 the old and the new charge density differ
 old charge density:   669.00000 new  668.00001
BRMIX: very serious problems
 the old and the new charge density differ
 old charge density:   669.00000 new  668.00001
BRMIX: very serious problems
 the old and the new charge density differ
 old charge density:   669.00000 new  668.00001
BRMIX: very serious problems
 the old and the new charge density differ
 old charge density:   669.00000 new  668.00001
BRMIX: very serious problems
 the old and the new charge density differ
 old charge density:   669.00000 new  668.00001
BRMIX: very serious problems
 the old and the new charge density differ
 old charge density:   669.00000 new  668.00001
BRMIX: very serious problems
 the old and the new charge density differ
 old charge density:   669.00000 new  668.00001
BRMIX: very serious problems
 the old and the new charge density differ
 old charge density:   669.00000 new  668.00001
BRMIX: very serious problems
 the old and the new charge density differ
 old charge density:   669.00000 new  668.00001
BRMIX: very serious problems
 the old and the new charge density differ
 old charge density:   669.00000 new  668.00001
BRMIX: very serious problems
 the old and the new charge density differ
 old charge density:   669.00000 new  668.00001
BRMIX: very serious problems
 the old and the new charge density differ
 old charge density:   669.00000 new  668.00001
DAV:   5    -0.555696487062E+03   -0.18571E+02   -0.18136E+02 27024   0.149E+01BRMIX: very serious problems
 the old and the new charge density differ
 old charge density:   669.00000 new  668.00001
BRMIX: very serious problems
 the old and the new charge density differ
 old charge density:   669.00000 new  668.00001
BRMIX: very serious problems
 the old and the new charge density differ
 old charge density:   669.00000 new  668.00001
    0.945E+01
BRMIX: very serious problems
 the old and the new charge density differ
 old charge density:   669.00000 new  668.00001
BRMIX: very serious problems
 the old and the new charge density differ
 old charge density:   669.00000 new  668.00001
BRMIX: very serious problems
 the old and the new charge density differ
 old charge density:   669.00000 new  668.00001
BRMIX: very serious problems
 the old and the new charge density differ
 old charge density:   669.00000 new  668.00001
BRMIX: very serious problems
 the old and the new charge density differ
 old charge density:   669.00000 new  668.00001
BRMIX: very serious problems
 the old and the new charge density differ
 old charge density:   669.00000 new  668.00001
BRMIX: very serious problems
 the old and the new charge density differ
 old charge density:   669.00000 new  668.00001
BRMIX: very serious problems
 the old and the new charge density differ
 old charge density:   669.00000 new  668.00001
BRMIX: very serious problems
 the old and the new charge density differ
 old charge density:   669.00000 new  668.00001
BRMIX: very serious problems
 the old and the new charge density differ
 old charge density:   669.00000 new  668.00001
BRMIX: very serious problems
 the old and the new charge density differ
 old charge density:   669.00000 new  668.00001
BRMIX: very serious problems
 the old and the new charge density differ
 old charge density:   669.00000 new  668.00001
BRMIX: very serious problems
 the old and the new charge density differ
 old charge density:   669.00000 new  668.00001
BRMIX: very serious problems
 the old and the new charge density differ
 old charge density:   669.00000 new  668.00001
BRMIX: very serious problems
 the old and the new charge density differ
 old charge density:   669.00000 new  668.00001
BRMIX: very serious problems
 the old and the new charge density differ
 old charge density:   669.00000 new  668.00001
BRMIX: very serious problems
 the old and the new charge density differ
 old charge density:   669.00000 new  668.00001
BRMIX: very serious problems
 the old and the new charge density differ
 old charge density:   669.00000 new  668.00001
BRMIX: very serious problems
 the old and the new charge density differ
 old charge density:   669.00000 new  668.00001
BRMIX: very serious problems
 the old and the new charge density differ
 old charge density:   669.00000 new  668.00001
BRMIX: very serious problems
 the old and the new charge density differ
 old charge density:   669.00000 new  668.00001
DAV:   6    -0.471503102160E+03    0.84193E+02   -0.56786E+02 19400   0.705E+01    0.123E+02
DAV:   7    -0.494592180590E+03   -0.23089E+02   -0.25870E+02 18712   0.416E+01    0.926E+01
DAV:   8    -0.477240981489E+03    0.17351E+02   -0.72148E+01 19600   0.323E+01    0.421E+01
DAV:   9    -0.488147661042E+03   -0.10907E+02   -0.26354E+01 20416   0.229E+01    0.415E+01
DAV:  10    -0.491648842840E+03   -0.35012E+01   -0.34246E+01 18640   0.210E+01    0.344E+01
DAV:  11    -0.493769659286E+03   -0.21208E+01   -0.16509E+01 18104   0.150E+01    0.208E+01
DAV:  12    -0.495817653951E+03   -0.20480E+01   -0.41774E+00 18872   0.755E+00    0.197E+01
DAV:  13    -0.495922657998E+03   -0.10500E+00   -0.23660E+00 18720   0.520E+00    0.116E+01
DAV:  14    -0.496229992093E+03   -0.30733E+00   -0.82741E-01 18848   0.446E+00    0.575E+00
DAV:  15    -0.496900356524E+03   -0.67036E+00   -0.13007E+00 19960   0.283E+00    0.562E+00
DAV:  16    -0.497103007547E+03   -0.20265E+00   -0.32884E-01 20280   0.160E+00    0.389E+00
DAV:  17    -0.497188728372E+03   -0.85721E-01   -0.13490E-01 19632   0.137E+00    0.241E+00
DAV:  18    -0.497244247787E+03   -0.55519E-01   -0.77960E-02 20704   0.991E-01    0.147E+00
DAV:  19    -0.497260564410E+03   -0.16317E-01   -0.48719E-02 20256   0.676E-01    0.953E-01
DAV:  20    -0.497272175209E+03   -0.11611E-01   -0.17502E-02 20656   0.366E-01    0.701E-01
DAV:  21    -0.497278880375E+03   -0.67052E-02   -0.57707E-03 20816   0.268E-01    0.478E-01
DAV:  22    -0.497283890493E+03   -0.50101E-02   -0.35410E-03 20936   0.213E-01    0.355E-01
DAV:  23    -0.497288110177E+03   -0.42197E-02   -0.26006E-03 20384   0.152E-01    0.304E-01
DAV:  24    -0.497291692928E+03   -0.35828E-02   -0.13726E-03 19920   0.153E-01    0.259E-01
DAV:  25    -0.497297445120E+03   -0.57522E-02   -0.41985E-03 20168   0.307E-01    0.215E-01
DAV:  26    -0.497301936842E+03   -0.44917E-02   -0.61138E-03 20112   0.262E-01    0.204E-01
DAV:  27    -0.497304471171E+03   -0.25343E-02   -0.31787E-03 19176   0.150E-01    0.175E-01
DAV:  28    -0.497307561677E+03   -0.30905E-02   -0.28919E-03 20384   0.258E-01    0.133E-01
DAV:  29    -0.497309815497E+03   -0.22538E-02   -0.69551E-03 19712   0.310E-01    0.113E-01
DAV:  30    -0.497311027666E+03   -0.12122E-02   -0.39647E-03 18080   0.972E-02    0.100E-01
DAV:  31    -0.497311236420E+03   -0.20875E-03   -0.19970E-04 17104   0.286E-02    0.822E-02
DAV:  32    -0.497311837175E+03   -0.60075E-03   -0.52333E-04 19120   0.115E-01    0.728E-02
DAV:  33    -0.497312423103E+03   -0.58593E-03   -0.17965E-03 20080   0.165E-01    0.703E-02
DAV:  34    -0.497312770302E+03   -0.34720E-03   -0.10721E-03 19144   0.692E-02    0.546E-02
DAV:  35    -0.497312904425E+03   -0.13412E-03   -0.17213E-04 18392   0.321E-02    0.457E-02
DAV:  36    -0.497313037007E+03   -0.13258E-03   -0.14007E-04 18680   0.498E-02    0.415E-02
DAV:  37    -0.497313144467E+03   -0.10746E-03   -0.28100E-04 19616   0.635E-02    0.370E-02
DAV:  38    -0.497313218883E+03   -0.74416E-04   -0.17495E-04 18000   0.378E-02    0.303E-02
DAV:  39    -0.497313263408E+03   -0.44525E-04   -0.52691E-05 18632   0.258E-02    0.209E-02
DAV:  40    -0.497313292178E+03   -0.28771E-04   -0.39368E-05 15816   0.206E-02    0.187E-02
DAV:  41    -0.497313314078E+03   -0.21900E-04   -0.30664E-05 15704   0.180E-02    0.143E-02
DAV:  42    -0.497313332604E+03   -0.18526E-04   -0.46915E-05 17320   0.280E-02    0.110E-02
DAV:  43    -0.497313345284E+03   -0.12680E-04   -0.48028E-05 16904   0.208E-02    0.890E-03
DAV:  44    -0.497313353090E+03   -0.78057E-05   -0.18151E-05 13176   0.946E-03    0.643E-03
DAV:  45    -0.497313355818E+03   -0.27286E-05   -0.40499E-06  8984   0.521E-03
   1 F= -.49731336E+03 E0= -.49730712E+03  d E =-.497313E+03  mag=    93.9999
quench:  g(F)=  0.000E+00 g(S)=  0.000E+00 dE (1.order)= 0.000E+00
 bond charge predicted
       N       E                     dE             d eps       ncg     rms          rms(c)
DAV:   1    -0.497311821510E+03    0.15316E-02   -0.10435E+00 19248   0.390E+00    0.763E-01
DAV:   2    -0.497339666204E+03   -0.27845E-01   -0.25730E-01 16768   0.652E-01    0.382E-01
DAV:   3    -0.497341083340E+03   -0.14171E-02   -0.73187E-03 19904   0.153E-01    0.159E-01
DAV:   4    -0.497341118607E+03   -0.35267E-04   -0.66859E-04 22032   0.337E-02    0.106E-01
DAV:   5    -0.497341101493E+03    0.17114E-04   -0.54683E-05 20608   0.293E-02    0.549E-02
DAV:   6    -0.497341111090E+03   -0.95975E-05   -0.45009E-05 20464   0.186E-02    0.177E-02
DAV:   7    -0.497341114576E+03   -0.34858E-05   -0.16128E-05 13744   0.720E-03
   2 F= -.49734111E+03 E0= -.49733486E+03  d E =-.277588E-01  mag=    94.0000
quench:  g(F)=  0.000E+00 g(S)=  0.000E+00 dE (1.order)= 0.000E+00
 bond charge predicted
       N       E                     dE             d eps       ncg     rms          rms(c)
DAV:   1    -0.497279395219E+03    0.61716E-01   -0.39894E+00 19176   0.752E+00    0.147E+00
DAV:   2    -0.497383397472E+03   -0.10400E+00   -0.96138E-01 16672   0.125E+00    0.758E-01
DAV:   3    -0.497388835284E+03   -0.54378E-02   -0.28686E-02 20080   0.303E-01    0.318E-01
DAV:   4    -0.497388915119E+03   -0.79835E-04   -0.20547E-03 22184   0.684E-02    0.206E-01
DAV:   5    -0.497388858433E+03    0.56686E-04   -0.23008E-04 21248   0.570E-02    0.103E-01
DAV:   6    -0.497388898329E+03   -0.39896E-04   -0.16757E-04 21424   0.338E-02    0.372E-02
DAV:   7    -0.497388912597E+03   -0.14269E-04   -0.53588E-05 17464   0.129E-02    0.247E-02
DAV:   8    -0.497388917780E+03   -0.51824E-05   -0.58048E-06 10768   0.562E-03    0.170E-02
DAV:   9    -0.497388924307E+03   -0.65276E-05   -0.34180E-06  9704   0.697E-03    0.116E-02
DAV:  10    -0.497388929140E+03   -0.48327E-05   -0.46399E-06 10440   0.464E-03
   3 F= -.49738893E+03 E0= -.49738262E+03  d E =-.478146E-01  mag=    94.0000
quench:  g(F)=  0.000E+00 g(S)=  0.000E+00 dE (1.order)= 0.000E+00
 bond charge predicted
       N       E                     dE             d eps       ncg     rms          rms(c)
DAV:   1    -0.497224450801E+03    0.16447E+00   -0.82160E+00 19152   0.106E+01    0.207E+00
DAV:   2    -0.497431375615E+03   -0.20692E+00   -0.19133E+00 16744   0.176E+00    0.111E+00
DAV:   3    -0.497442143040E+03   -0.10767E-01   -0.56408E-02 19776   0.438E-01    0.459E-01
DAV:   4    -0.497442442097E+03   -0.29906E-03   -0.53259E-03 22352   0.103E-01    0.294E-01
DAV:   5    -0.497442322567E+03    0.11953E-03   -0.47829E-04 21448   0.781E-02    0.149E-01
DAV:   6    -0.497442400291E+03   -0.77724E-04   -0.34160E-04 21344   0.516E-02    0.527E-02
DAV:   7    -0.497442430611E+03   -0.30321E-04   -0.11772E-04 17960   0.191E-02    0.351E-02
DAV:   8    -0.497442440028E+03   -0.94167E-05   -0.12062E-05 14752   0.743E-03    0.239E-02
DAV:   9    -0.497442452385E+03   -0.12357E-04   -0.53317E-06 10744   0.957E-03    0.163E-02
DAV:  10    -0.497442462091E+03   -0.97064E-05   -0.83907E-06 11896   0.673E-03    0.135E-02
DAV:  11    -0.497442469096E+03   -0.70050E-05   -0.25993E-06  9504   0.473E-03    0.119E-02
DAV:  12    -0.497442478988E+03   -0.98922E-05   -0.37647E-06  9832   0.801E-03    0.101E-02
DAV:  13    -0.497442491102E+03   -0.12114E-04   -0.22245E-05 17168   0.192E-02    0.682E-03
DAV:  14    -0.497442497871E+03   -0.67689E-05   -0.20836E-05 14592   0.111E-02    0.470E-03
DAV:  15    -0.497442501006E+03   -0.31348E-05   -0.54528E-06 10176   0.391E-03
   4 F= -.49744250E+03 E0= -.49743613E+03  d E =-.535719E-01  mag=    94.0000
quench:  g(F)=  0.000E+00 g(S)=  0.000E+00 dE (1.order)= 0.000E+00
 bond charge predicted
       N       E                     dE             d eps       ncg     rms          rms(c)
DAV:   1    -0.497158468328E+03    0.28403E+00   -0.12851E+01 19032   0.130E+01    0.254E+00
DAV:   2    -0.497466797761E+03   -0.30833E+00   -0.28515E+00 16568   0.218E+00    0.141E+00
DAV:   3    -0.497484806242E+03   -0.18008E-01   -0.10211E-01 19824   0.567E-01    0.573E-01
DAV:   4    -0.497485294610E+03   -0.48837E-03   -0.82701E-03 22096   0.133E-01    0.358E-01
DAV:   5    -0.497485125539E+03    0.16907E-03   -0.76999E-04 21656   0.939E-02    0.177E-01
DAV:   6    -0.497485229573E+03   -0.10403E-03   -0.51306E-04 21600   0.611E-02    0.596E-02
DAV:   7    -0.497485265862E+03   -0.36289E-04   -0.17038E-04 17992   0.231E-02    0.401E-02
DAV:   8    -0.497485272742E+03   -0.68800E-05   -0.17308E-05 16616   0.793E-03    0.254E-02
DAV:   9    -0.497485280497E+03   -0.77545E-05   -0.51329E-06 10184   0.913E-03    0.158E-02
DAV:  10    -0.497485287653E+03   -0.71559E-05   -0.74663E-06 11552   0.642E-03    0.122E-02
DAV:  11    -0.497485292426E+03   -0.47731E-05   -0.25173E-06  9344   0.396E-03
   5 F= -.49748529E+03 E0= -.49747885E+03  d E =-.427914E-01  mag=    94.0000
quench:  g(F)=  0.000E+00 g(S)=  0.000E+00 dE (1.order)= 0.000E+00
 bond charge predicted
       N       E                     dE             d eps       ncg     rms          rms(c)
DAV:   1    -0.497088523412E+03    0.39676E+00   -0.17282E+01 18904   0.148E+01    0.287E+00
DAV:   2    -0.497481799152E+03   -0.39328E+00   -0.36373E+00 16472   0.247E+00    0.163E+00
DAV:   3    -0.497505693527E+03   -0.23894E-01   -0.13528E-01 19976   0.657E-01    0.660E-01
DAV:   4    -0.497506363906E+03   -0.67038E-03   -0.10449E-02 21968   0.150E-01    0.401E-01
DAV:   5    -0.497506188019E+03    0.17589E-03   -0.98548E-04 21680   0.106E-01    0.196E-01
DAV:   6    -0.497506342707E+03   -0.15469E-03   -0.69627E-04 21720   0.699E-02    0.655E-02
DAV:   7    -0.497506392134E+03   -0.49427E-04   -0.22003E-04 18120   0.265E-02    0.450E-02
DAV:   8    -0.497506403623E+03   -0.11489E-04   -0.21327E-05 17840   0.905E-03    0.293E-02
DAV:   9    -0.497506417271E+03   -0.13648E-04   -0.69660E-06 11656   0.109E-02    0.192E-02
DAV:  10    -0.497506429122E+03   -0.11851E-04   -0.95586E-06 12272   0.809E-03    0.152E-02
DAV:  11    -0.497506438166E+03   -0.90447E-05   -0.37416E-06  9992   0.567E-03    0.135E-02
DAV:  12    -0.497506450353E+03   -0.12187E-04   -0.42053E-06  9912   0.889E-03    0.117E-02
DAV:  13    -0.497506467131E+03   -0.16778E-04   -0.24214E-05 17376   0.210E-02    0.828E-03
DAV:  14    -0.497506476722E+03   -0.95909E-05   -0.30146E-05 16768   0.163E-02    0.591E-03
DAV:  15    -0.497506482002E+03   -0.52798E-05   -0.10471E-05 11720   0.551E-03    0.492E-03
DAV:  16    -0.497506483246E+03   -0.12439E-05   -0.95780E-07  8432   0.217E-03
   6 F= -.49750648E+03 E0= -.49749998E+03  d E =-.211908E-01  mag=    94.0000
quench:  g(F)=  0.000E+00 g(S)=  0.000E+00 dE (1.order)= 0.000E+00
 bond charge predicted
       N       E                     dE             d eps       ncg     rms          rms(c)
DAV:   1    -0.497010722696E+03    0.49576E+00   -0.21407E+01 18840   0.162E+01    0.311E+00
DAV:   2    -0.497474916755E+03   -0.46419E+00   -0.42987E+00 16448   0.272E+00    0.178E+00
DAV:   3    -0.497503667952E+03   -0.28751E-01   -0.16151E-01 19848   0.728E-01    0.721E-01
DAV:   4    -0.497504518038E+03   -0.85009E-03   -0.12149E-02 21720   0.164E-01    0.430E-01
DAV:   5    -0.497504348573E+03    0.16946E-03   -0.11115E-03 21664   0.114E-01    0.210E-01
DAV:   6    -0.497504518809E+03   -0.17024E-03   -0.82159E-04 21744   0.763E-02    0.649E-02
DAV:   7    -0.497504567677E+03   -0.48868E-04   -0.26223E-04 18232   0.286E-02    0.437E-02
DAV:   8    -0.497504574125E+03   -0.64479E-05   -0.22203E-05 18480   0.844E-03    0.268E-02
DAV:   9    -0.497504580137E+03   -0.60123E-05   -0.53922E-06 10680   0.963E-03    0.163E-02
DAV:  10    -0.497504586300E+03   -0.61627E-05   -0.72926E-06 11544   0.651E-03    0.114E-02
DAV:  11    -0.497504590943E+03   -0.46438E-05   -0.25244E-06  9216   0.425E-03
   7 F= -.49750459E+03 E0= -.49749803E+03  d E =0.189230E-02  mag=    94.0000
quench:  g(F)=  0.000E+00 g(S)=  0.000E+00 dE (1.order)= 0.000E+00
 bond charge predicted
       N       E                     dE             d eps       ncg     rms          rms(c)
DAV:   1    -0.496867927555E+03    0.63666E+00   -0.27431E+01 18760   0.182E+01    0.343E+00
DAV:   2    -0.497448236488E+03   -0.58031E+00   -0.53934E+00 16328   0.306E+00    0.198E+00
DAV:   3    -0.497485069541E+03   -0.36833E-01   -0.21416E-01 19904   0.821E-01    0.805E-01
DAV:   4    -0.497486194658E+03   -0.11251E-02   -0.15269E-02 21784   0.184E-01    0.475E-01
DAV:   5    -0.497485991662E+03    0.20300E-03   -0.13078E-03 21824   0.124E-01    0.240E-01
DAV:   6    -0.497486193332E+03   -0.20167E-03   -0.99275E-04 21680   0.917E-02    0.711E-02
DAV:   7    -0.497486266457E+03   -0.73125E-04   -0.39561E-04 18656   0.338E-02    0.471E-02
DAV:   8    -0.497486278122E+03   -0.11664E-04   -0.29280E-05 20592   0.100E-02    0.302E-02
DAV:   9    -0.497486291685E+03   -0.13564E-04   -0.83379E-06 12400   0.127E-02    0.198E-02
DAV:  10    -0.497486303667E+03   -0.11982E-04   -0.10955E-05 12984   0.862E-03    0.150E-02
DAV:  11    -0.497486313052E+03   -0.93851E-05   -0.38797E-06  9896   0.623E-03    0.134E-02
DAV:  12    -0.497486325985E+03   -0.12933E-04   -0.50501E-06 10088   0.104E-02    0.115E-02
DAV:  13    -0.497486342487E+03   -0.16503E-04   -0.28840E-05 17280   0.242E-02    0.810E-03
DAV:  14    -0.497486352112E+03   -0.96242E-05   -0.31339E-05 16568   0.153E-02    0.602E-03
DAV:  15    -0.497486356492E+03   -0.43802E-05   -0.86895E-06 11016   0.511E-03
   8 F= -.49748636E+03 E0= -.49747977E+03  d E =0.182345E-01  mag=    94.0000
quench:  g(F)=  0.000E+00 g(S)=  0.000E+00 dE (1.order)= 0.000E+00
 bond charge predicted
       N       E                     dE             d eps       ncg     rms          rms(c)
DAV:   1    -0.497487777101E+03   -0.14250E-02   -0.15674E-02 19432   0.460E-01    0.759E-02
DAV:   2    -0.497488067995E+03   -0.29089E-03   -0.27333E-03 17152   0.831E-02    0.397E-02
DAV:   3    -0.497488081453E+03   -0.13458E-04   -0.10043E-04 20424   0.199E-02    0.196E-02
DAV:   4    -0.497488081607E+03   -0.15396E-06   -0.73439E-06 10848   0.453E-03
   9 F= -.49748808E+03 E0= -.49748150E+03  d E =-.172511E-02  mag=    94.0000
quench:  g(F)=  0.000E+00 g(S)=  0.000E+00 dE (1.order)= 0.000E+00
 bond charge predicted
       N       E                     dE             d eps       ncg     rms          rms(c)
DAV:   1    -0.497490185273E+03   -0.21038E-02   -0.61559E-02 19272   0.911E-01    0.148E-01
DAV:   2    -0.497491316613E+03   -0.11313E-02   -0.10639E-02 17208   0.163E-01    0.787E-02
DAV:   3    -0.497491367007E+03   -0.50394E-04   -0.39309E-04 21680   0.389E-02    0.397E-02
DAV:   4    -0.497491367078E+03   -0.70868E-07   -0.31434E-05 17936   0.865E-03
  10 F= -.49749137E+03 E0= -.49748479E+03  d E =-.328547E-02  mag=    94.0000
quench:  g(F)=  0.000E+00 g(S)=  0.000E+00 dE (1.order)= 0.000E+00
 bond charge predicted
       N       E                     dE             d eps       ncg     rms          rms(c)
DAV:   1    -0.497493354622E+03   -0.19876E-02   -0.13424E-01 19200   0.134E+00    0.216E-01
DAV:   2    -0.497495787308E+03   -0.24327E-02   -0.22882E-02 17256   0.240E-01    0.116E-01
DAV:   3    -0.497495894142E+03   -0.10683E-03   -0.84372E-04 21560   0.574E-02    0.594E-02
DAV:   4    -0.497495894446E+03   -0.30383E-06   -0.70203E-05 20520   0.128E-02    0.372E-02
DAV:   5    -0.497495890266E+03    0.41801E-05   -0.82312E-06 13208   0.113E-02
  11 F= -.49749589E+03 E0= -.49748933E+03  d E =-.452319E-02  mag=    94.0000
quench:  g(F)=  0.000E+00 g(S)=  0.000E+00 dE (1.order)= 0.000E+00
 bond charge predicted
       N       E                     dE             d eps       ncg     rms          rms(c)
DAV:   1    -0.497496958324E+03   -0.10639E-02   -0.22912E-01 19112   0.173E+00    0.285E-01
DAV:   2    -0.497501028720E+03   -0.40704E-02   -0.38322E-02 17288   0.314E-01    0.149E-01
DAV:   3    -0.497501215239E+03   -0.18652E-03   -0.14140E-03 21608   0.746E-02    0.730E-02
DAV:   4    -0.497501216396E+03   -0.11568E-05   -0.11359E-04 21128   0.162E-02    0.442E-02
DAV:   5    -0.497501210392E+03    0.60036E-05   -0.11363E-05 14584   0.124E-02    0.256E-02
DAV:   6    -0.497501211825E+03   -0.14326E-05   -0.11727E-05 13704   0.928E-03
  12 F= -.49750121E+03 E0= -.49749467E+03  d E =-.532156E-02  mag=    94.0000
quench:  g(F)=  0.000E+00 g(S)=  0.000E+00 dE (1.order)= 0.000E+00
 bond charge predicted
       N       E                     dE             d eps       ncg     rms          rms(c)
DAV:   1    -0.497500671494E+03    0.53890E-03   -0.33982E-01 18992   0.208E+00    0.344E-01
DAV:   2    -0.497506497303E+03   -0.58258E-02   -0.54816E-02 17320   0.377E-01    0.179E-01
DAV:   3    -0.497506767060E+03   -0.26976E-03   -0.20374E-03 21672   0.905E-02    0.867E-02
DAV:   4    -0.497506768607E+03   -0.15469E-05   -0.16483E-04 21424   0.196E-02    0.524E-02
DAV:   5    -0.497506760049E+03    0.85587E-05   -0.17192E-05 16736   0.146E-02    0.308E-02
DAV:   6    -0.497506762231E+03   -0.21826E-05   -0.15701E-05 15344   0.112E-02
  13 F= -.49750676E+03 E0= -.49750024E+03  d E =-.555041E-02  mag=    94.0000
quench:  g(F)=  0.000E+00 g(S)=  0.000E+00 dE (1.order)= 0.000E+00
 bond charge predicted
       N       E                     dE             d eps       ncg     rms          rms(c)
DAV:   1    -0.497504047553E+03    0.27125E-02   -0.45933E-01 18952   0.239E+00    0.392E-01
DAV:   2    -0.497511616975E+03   -0.75694E-02   -0.71221E-02 17336   0.431E-01    0.204E-01
DAV:   3    -0.497511967041E+03   -0.35007E-03   -0.26471E-03 21728   0.104E-01    0.986E-02
DAV:   4    -0.497511969010E+03   -0.19689E-05   -0.21301E-04 21712   0.225E-02    0.599E-02
DAV:   5    -0.497511958173E+03    0.10838E-04   -0.23377E-05 17976   0.170E-02    0.352E-02
DAV:   6    -0.497511961651E+03   -0.34788E-05   -0.20200E-05 16464   0.129E-02
  14 F= -.49751196E+03 E0= -.49750546E+03  d E =-.519942E-02  mag=    94.0000
quench:  g(F)=  0.000E+00 g(S)=  0.000E+00 dE (1.order)= 0.000E+00
 bond charge predicted
       N       E                     dE             d eps       ncg     rms          rms(c)
DAV:   1    -0.497504776351E+03    0.71818E-02   -0.72502E-01 18856   0.295E+00    0.480E-01
DAV:   2    -0.497516061917E+03   -0.11286E-01   -0.10616E-01 17336   0.530E-01    0.249E-01
DAV:   3    -0.497516586650E+03   -0.52473E-03   -0.39821E-03 21912   0.127E-01    0.120E-01
DAV:   4    -0.497516588969E+03   -0.23190E-05   -0.31056E-04 21896   0.274E-02    0.731E-02
DAV:   5    -0.497516572747E+03    0.16223E-04   -0.35777E-05 19232   0.210E-02    0.426E-02
DAV:   6    -0.497516578461E+03   -0.57141E-05   -0.30599E-05 18736   0.158E-02    0.152E-02
DAV:   7    -0.497516581707E+03   -0.32460E-05   -0.90196E-06 11824   0.618E-03
  15 F= -.49751658E+03 E0= -.49751010E+03  d E =-.462006E-02  mag=    94.0000
quench:  g(F)=  0.000E+00 g(S)=  0.000E+00 dE (1.order)= 0.000E+00
 bond charge predicted
       N       E                     dE             d eps       ncg     rms          rms(c)
DAV:   1    -0.497502723153E+03    0.13855E-01   -0.11182E+00 18728   0.356E+00    0.572E-01
DAV:   2    -0.497518743548E+03   -0.16020E-01   -0.15064E-01 17272   0.637E-01    0.295E-01
DAV:   3    -0.497519499643E+03   -0.75610E-03   -0.57597E-03 22272   0.152E-01    0.140E-01
DAV:   4    -0.497519499149E+03    0.49463E-06   -0.40524E-04 21968   0.319E-02    0.864E-02
DAV:   5    -0.497519475288E+03    0.23861E-04   -0.52656E-05 20216   0.256E-02    0.494E-02
DAV:   6    -0.497519483691E+03   -0.84035E-05   -0.43962E-05 19992   0.185E-02    0.177E-02
DAV:   7    -0.497519488261E+03   -0.45694E-05   -0.12695E-05 13520   0.726E-03
  16 F= -.49751949E+03 E0= -.49751304E+03  d E =-.290655E-02  mag=    94.0000
quench:  g(F)=  0.000E+00 g(S)=  0.000E+00 dE (1.order)= 0.000E+00
 bond charge predicted
       N       E                     dE             d eps       ncg     rms          rms(c)
DAV:   1    -0.497495936629E+03    0.23547E-01   -0.17091E+00 18528   0.425E+00    0.673E-01
DAV:   2    -0.497518208249E+03   -0.22272E-01   -0.20918E-01 17184   0.749E-01    0.344E-01
DAV:   3    -0.497519285500E+03   -0.10773E-02   -0.80822E-03 22408   0.179E-01    0.160E-01
DAV:   4    -0.497519290760E+03   -0.52599E-05   -0.58256E-04 21864   0.375E-02    0.100E-01
DAV:   5    -0.497519259724E+03    0.31036E-04   -0.73499E-05 20776   0.307E-02    0.567E-02
DAV:   6    -0.497519272433E+03   -0.12709E-04   -0.60717E-05 20744   0.216E-02    0.198E-02
DAV:   7    -0.497519278835E+03   -0.64025E-05   -0.17648E-05 15048   0.861E-03    0.144E-02
DAV:   8    -0.497519284020E+03   -0.51852E-05   -0.20850E-06  8864   0.491E-03    0.115E-02
DAV:   9    -0.497519289170E+03   -0.51493E-05   -0.23935E-06  9024   0.523E-03    0.953E-03
DAV:  10    -0.497519294364E+03   -0.51942E-05   -0.22396E-06  9296   0.526E-03    0.844E-03
DAV:  11    -0.497519299208E+03   -0.48442E-05   -0.22916E-06  8904   0.516E-03
  17 F= -.49751930E+03 E0= -.49751288E+03  d E =0.189052E-03  mag=    94.0000
quench:  g(F)=  0.000E+00 g(S)=  0.000E+00 dE (1.order)= 0.000E+00
 bond charge predicted
       N       E                     dE             d eps       ncg     rms          rms(c)
DAV:   1    -0.497481122651E+03    0.38172E-01   -0.26400E+00 18352   0.510E+00    0.796E-01
DAV:   2    -0.497513006566E+03   -0.31884E-01   -0.29900E-01 16992   0.888E-01    0.403E-01
DAV:   3    -0.497514608641E+03   -0.16021E-02   -0.11691E-02 22616   0.209E-01    0.179E-01
DAV:   4    -0.497514616105E+03   -0.74642E-05   -0.78788E-04 21984   0.435E-02    0.116E-01
DAV:   5    -0.497514569158E+03    0.46947E-04   -0.10014E-04 20984   0.375E-02    0.632E-02
DAV:   6    -0.497514581870E+03   -0.12712E-04   -0.80799E-05 20856   0.240E-02    0.201E-02
DAV:   7    -0.497514587773E+03   -0.59028E-05   -0.22363E-05 15792   0.977E-03    0.144E-02
DAV:   8    -0.497514591921E+03   -0.41481E-05   -0.21654E-06  8936   0.459E-03
  18 F= -.49751459E+03 E0= -.49750820E+03  d E =0.470729E-02  mag=    94.0000
quench:  g(F)=  0.000E+00 g(S)=  0.000E+00 dE (1.order)= 0.000E+00
 bond charge predicted
       N       E                     dE             d eps       ncg     rms          rms(c)
DAV:   1    -0.497453299119E+03    0.61289E-01   -0.41793E+00 18264   0.624E+00    0.968E-01
DAV:   2    -0.497501825161E+03   -0.48526E-01   -0.45441E-01 16832   0.107E+00    0.485E-01
DAV:   3    -0.497504395092E+03   -0.25699E-02   -0.17825E-02 22768   0.247E-01    0.201E-01
DAV:   4    -0.497504417030E+03   -0.21938E-04   -0.11162E-03 22016   0.513E-02    0.136E-01
DAV:   5    -0.497504363328E+03    0.53702E-04   -0.13144E-04 21128   0.464E-02    0.721E-02
DAV:   6    -0.497504385173E+03   -0.21845E-04   -0.11023E-04 21056   0.279E-02    0.220E-02
DAV:   7    -0.497504393869E+03   -0.86961E-05   -0.30986E-05 16664   0.118E-02    0.172E-02
DAV:   8    -0.497504400402E+03   -0.65325E-05   -0.30286E-06  9176   0.566E-03    0.134E-02
DAV:   9    -0.497504407637E+03   -0.72352E-05   -0.31383E-06  9456   0.651E-03    0.109E-02
DAV:  10    -0.497504413950E+03   -0.63130E-05   -0.34402E-06  9784   0.553E-03    0.970E-03
DAV:  11    -0.497504420495E+03   -0.65455E-05   -0.19254E-06  8640   0.616E-03    0.877E-03
DAV:  12    -0.497504429925E+03   -0.94298E-05   -0.80555E-06 11880   0.120E-02    0.711E-03
DAV:  13    -0.497504438409E+03   -0.84838E-05   -0.26787E-05 17376   0.212E-02    0.510E-03
DAV:  14    -0.497504444300E+03   -0.58908E-05   -0.20979E-05 14368   0.103E-02    0.356E-03
DAV:  15    -0.497504446401E+03   -0.21010E-05   -0.41880E-06  9656   0.369E-03
  19 F= -.49750445E+03 E0= -.49749808E+03  d E =0.101455E-01  mag=    94.0000
quench:  g(F)=  0.000E+00 g(S)=  0.000E+00 dE (1.order)= 0.000E+00
 bond charge predicted
       N       E                     dE             d eps       ncg     rms          rms(c)
DAV:   1    -0.497406040807E+03    0.98403E-01   -0.67714E+00 18240   0.782E+00    0.121E+00
DAV:   2    -0.497484259434E+03   -0.78219E-01   -0.73107E-01 16560   0.132E+00    0.602E-01
DAV:   3    -0.497488619736E+03   -0.43603E-02   -0.29078E-02 22544   0.300E-01    0.235E-01
DAV:   4    -0.497488675336E+03   -0.55601E-04   -0.17762E-03 22184   0.631E-02    0.162E-01
DAV:   5    -0.497488601372E+03    0.73964E-04   -0.17478E-04 21128   0.569E-02    0.821E-02
DAV:   6    -0.497488623816E+03   -0.22444E-04   -0.15094E-04 21920   0.309E-02    0.225E-02
DAV:   7    -0.497488630345E+03   -0.65291E-05   -0.41080E-05 17400   0.133E-02    0.168E-02
DAV:   8    -0.497488633307E+03   -0.29615E-05   -0.35339E-06  9328   0.501E-03
  20 F= -.49748863E+03 E0= -.49748229E+03  d E =0.158131E-01  mag=    94.0000
quench:  g(F)=  0.000E+00 g(S)=  0.000E+00 dE (1.order)= 0.000E+00
 bond charge predicted
       N       E                     dE             d eps       ncg     rms          rms(c)
DAV:   1    -0.497330512652E+03    0.15812E+00   -0.10954E+01 18232   0.990E+00    0.155E+00
DAV:   2    -0.497460632119E+03   -0.13012E+00   -0.12146E+00 16480   0.165E+00    0.773E-01
DAV:   3    -0.497468148621E+03   -0.75165E-02   -0.48182E-02 22352   0.377E-01    0.292E-01
DAV:   4    -0.497468273974E+03   -0.12535E-03   -0.27806E-03 22224   0.784E-02    0.203E-01
DAV:   5    -0.497468188320E+03    0.85654E-04   -0.25541E-04 21120   0.710E-02    0.991E-02
DAV:   6    -0.497468231811E+03   -0.43491E-04   -0.22637E-04 22248   0.382E-02    0.305E-02
DAV:   7    -0.497468244862E+03   -0.13050E-04   -0.64332E-05 18536   0.160E-02    0.226E-02
DAV:   8    -0.497468252347E+03   -0.74854E-05   -0.57610E-06 10424   0.691E-03    0.168E-02
DAV:   9    -0.497468262610E+03   -0.10263E-04   -0.49422E-06 10144   0.876E-03    0.132E-02
DAV:  10    -0.497468270192E+03   -0.75812E-05   -0.56964E-06 10768   0.596E-03    0.117E-02
DAV:  11    -0.497468276934E+03   -0.67420E-05   -0.17842E-06  8728   0.526E-03    0.108E-02
DAV:  12    -0.497468288877E+03   -0.11943E-04   -0.69731E-06 11376   0.116E-02    0.928E-03
DAV:  13    -0.497468303937E+03   -0.15060E-04   -0.41638E-05 17928   0.280E-02    0.692E-03
DAV:  14    -0.497468313397E+03   -0.94599E-05   -0.36557E-05 16536   0.150E-02    0.480E-03
DAV:  15    -0.497468317188E+03   -0.37918E-05   -0.80455E-06 11200   0.500E-03
  21 F= -.49746832E+03 E0= -.49746198E+03  d E =0.203161E-01  mag=    94.0000
quench:  g(F)=  0.000E+00 g(S)=  0.000E+00 dE (1.order)= 0.000E+00
 bond charge predicted
       N       E                     dE             d eps       ncg     rms          rms(c)
DAV:   1    -0.497217311073E+03    0.25100E+00   -0.17159E+01 18264   0.125E+01    0.199E+00
DAV:   2    -0.497432558974E+03   -0.21525E+00   -0.20091E+00 16520   0.208E+00    0.101E+00
DAV:   3    -0.497445324239E+03   -0.12765E-01   -0.80532E-02 22008   0.480E-01    0.384E-01
DAV:   4    -0.497445559558E+03   -0.23532E-03   -0.45745E-03 22336   0.102E-01    0.264E-01
DAV:   5    -0.497445404598E+03    0.15496E-03   -0.40555E-04 21208   0.874E-02    0.131E-01
DAV:   6    -0.497445457342E+03   -0.52744E-04   -0.35981E-04 22104   0.521E-02    0.379E-02
DAV:   7    -0.497445475874E+03   -0.18532E-04   -0.11751E-04 19208   0.208E-02    0.256E-02
DAV:   8    -0.497445481026E+03   -0.51526E-05   -0.83606E-06 12016   0.738E-03    0.178E-02
DAV:   9    -0.497445488335E+03   -0.73083E-05   -0.47780E-06 10288   0.839E-03    0.129E-02
DAV:  10    -0.497445494233E+03   -0.58985E-05   -0.55218E-06 10728   0.541E-03    0.109E-02
DAV:  11    -0.497445498813E+03   -0.45793E-05   -0.16580E-06  8848   0.395E-03
  22 F= -.49744550E+03 E0= -.49743915E+03  d E =0.228184E-01  mag=    94.0000
quench:  g(F)=  0.000E+00 g(S)=  0.000E+00 dE (1.order)= 0.000E+00
 bond charge predicted
       N       E                     dE             d eps       ncg     rms          rms(c)
DAV:   1    -0.497053942324E+03    0.39155E+00   -0.25166E+01 18352   0.156E+01    0.251E+00
DAV:   2    -0.497400357388E+03   -0.34642E+00   -0.32424E+00 16552   0.260E+00    0.129E+00
DAV:   3    -0.497421309325E+03   -0.20952E-01   -0.13755E-01 21768   0.619E-01    0.510E-01
DAV:   4    -0.497421691656E+03   -0.38233E-03   -0.74885E-03 22208   0.134E-01    0.346E-01
DAV:   5    -0.497421412168E+03    0.27949E-03   -0.66836E-04 21192   0.108E-01    0.179E-01
DAV:   6    -0.497421501465E+03   -0.89297E-04   -0.63043E-04 21928   0.744E-02    0.509E-02
DAV:   7    -0.497421542385E+03   -0.40921E-04   -0.23713E-04 19360   0.287E-02    0.356E-02
DAV:   8    -0.497421555786E+03   -0.13401E-04   -0.16082E-05 16360   0.969E-03    0.259E-02
DAV:   9    -0.497421574810E+03   -0.19024E-04   -0.88115E-06 12600   0.125E-02    0.196E-02
DAV:  10    -0.497421590898E+03   -0.16088E-04   -0.11559E-05 13304   0.904E-03    0.171E-02
DAV:  11    -0.497421605260E+03   -0.14362E-04   -0.46175E-06 10512   0.779E-03    0.158E-02
DAV:  12    -0.497421627559E+03   -0.22299E-04   -0.11811E-05 14752   0.142E-02    0.140E-02
DAV:  13    -0.497421661665E+03   -0.34106E-04   -0.68010E-05 18080   0.374E-02    0.106E-02
DAV:  14    -0.497421682622E+03   -0.20957E-04   -0.90586E-05 19144   0.273E-02    0.763E-03
DAV:  15    -0.497421693116E+03   -0.10493E-04   -0.27874E-05 13928   0.851E-03    0.630E-03
DAV:  16    -0.497421695644E+03   -0.25289E-05   -0.17210E-06  8600   0.380E-03
  23 F= -.49742170E+03 E0= -.49741533E+03  d E =0.238032E-01  mag=    94.0000
quench:  g(F)=  0.000E+00 g(S)=  0.000E+00 dE (1.order)= 0.000E+00
 bond charge predicted
       N       E                     dE             d eps       ncg     rms          rms(c)
DAV:   1    -0.496856595454E+03    0.56510E+00   -0.33486E+01 18424   0.187E+01    0.305E+00
DAV:   2    -0.497366961646E+03   -0.51037E+00   -0.47812E+00 16696   0.316E+00    0.159E+00
DAV:   3    -0.497394996228E+03   -0.28035E-01   -0.17777E-01 21600   0.754E-01    0.642E-01
DAV:   4    -0.497395403475E+03   -0.40725E-03   -0.10272E-02 22296   0.165E-01    0.424E-01
DAV:   5    -0.497394965929E+03    0.43755E-03   -0.98361E-04 21096   0.134E-01    0.214E-01
DAV:   6    -0.497395080356E+03   -0.11443E-03   -0.87295E-04 21944   0.864E-02    0.597E-02
DAV:   7    -0.497395127848E+03   -0.47492E-04   -0.30576E-04 19200   0.334E-02    0.398E-02
DAV:   8    -0.497395139062E+03   -0.11214E-04   -0.22164E-05 18776   0.100E-02    0.266E-02
DAV:   9    -0.497395152785E+03   -0.13723E-04   -0.78749E-06 12264   0.116E-02    0.187E-02
DAV:  10    -0.497395165338E+03   -0.12553E-04   -0.93577E-06 12264   0.846E-03    0.155E-02
DAV:  11    -0.497395175600E+03   -0.10262E-04   -0.43185E-06 10264   0.624E-03    0.144E-02
DAV:  12    -0.497395188330E+03   -0.12730E-04   -0.41969E-06 10512   0.820E-03    0.132E-02
DAV:  13    -0.497395215498E+03   -0.27168E-04   -0.33877E-05 17784   0.262E-02    0.106E-02
DAV:  14    -0.497395234868E+03   -0.19370E-04   -0.67091E-05 18464   0.287E-02    0.805E-03
DAV:  15    -0.497395245950E+03   -0.11081E-04   -0.32802E-05 15176   0.102E-02    0.630E-03
DAV:  16    -0.497395249493E+03   -0.35439E-05   -0.36691E-06  8904   0.430E-03
  24 F= -.49739525E+03 E0= -.49738884E+03  d E =0.264462E-01  mag=    94.0000
quench:  g(F)=  0.000E+00 g(S)=  0.000E+00 dE (1.order)= 0.000E+00
 bond charge predicted
       N       E                     dE             d eps       ncg     rms          rms(c)
DAV:   1    -0.496716791936E+03    0.67845E+00   -0.36673E+01 18640   0.209E+01    0.338E+00
DAV:   2    -0.497332972805E+03   -0.61618E+00   -0.57516E+00 16688   0.356E+00    0.177E+00
DAV:   3    -0.497366042908E+03   -0.33070E-01   -0.20683E-01 21640   0.850E-01    0.717E-01
DAV:   4    -0.497366530286E+03   -0.48738E-03   -0.12409E-02 22296   0.187E-01    0.469E-01
DAV:   5    -0.497366016335E+03    0.51395E-03   -0.11886E-03 21336   0.149E-01    0.233E-01
DAV:   6    -0.497366158549E+03   -0.14221E-03   -0.10053E-03 21960   0.935E-02    0.637E-02
DAV:   7    -0.497366212323E+03   -0.53774E-04   -0.34476E-04 19024   0.371E-02    0.423E-02
DAV:   8    -0.497366225633E+03   -0.13310E-04   -0.28324E-05 19584   0.111E-02    0.283E-02
DAV:   9    -0.497366240214E+03   -0.14581E-04   -0.79708E-06 12312   0.119E-02    0.201E-02
DAV:  10    -0.497366254321E+03   -0.14106E-04   -0.98188E-06 12464   0.917E-03    0.163E-02
DAV:  11    -0.497366266342E+03   -0.12022E-04   -0.51233E-06 10624   0.697E-03    0.150E-02
DAV:  12    -0.497366281870E+03   -0.15528E-04   -0.55367E-06 11408   0.972E-03    0.137E-02
DAV:  13    -0.497366311800E+03   -0.29930E-04   -0.41612E-05 17968   0.289E-02    0.108E-02
DAV:  14    -0.497366331894E+03   -0.20094E-04   -0.72111E-05 18736   0.288E-02    0.816E-03
DAV:  15    -0.497366343429E+03   -0.11536E-04   -0.32727E-05 14992   0.101E-02    0.641E-03
DAV:  16    -0.497366346894E+03   -0.34646E-05   -0.34489E-06  8920   0.413E-03
  25 F= -.49736635E+03 E0= -.49735988E+03  d E =0.289026E-01  mag=    94.0000
quench:  g(F)=  0.000E+00 g(S)=  0.000E+00 dE (1.order)= 0.000E+00
 bond charge predicted
       N       E                     dE             d eps       ncg     rms          rms(c)
DAV:   1    -0.497367999728E+03   -0.16563E-02   -0.38144E-02 18088   0.571E-01    0.828E-02
DAV:   2    -0.497368380333E+03   -0.38060E-03   -0.36167E-03 16856   0.101E-01    0.435E-02
DAV:   3    -0.497368398951E+03   -0.18619E-04   -0.14258E-04 21472   0.243E-02    0.213E-02
DAV:   4    -0.497368399100E+03   -0.14863E-06   -0.82660E-06 11728   0.523E-03
  26 F= -.49736840E+03 E0= -.49736193E+03  d E =-.205221E-02  mag=    94.0000
quench:  g(F)=  0.000E+00 g(S)=  0.000E+00 dE (1.order)= 0.000E+00
 bond charge predicted
       N       E                     dE             d eps       ncg     rms          rms(c)
DAV:   1    -0.497369475719E+03   -0.10768E-02   -0.99762E-02 18800   0.114E+00    0.163E-01
DAV:   2    -0.497370906783E+03   -0.14311E-02   -0.13508E-02 17320   0.204E-01    0.870E-02
DAV:   3    -0.497370973238E+03   -0.66455E-04   -0.51996E-04 22568   0.482E-02    0.433E-02
DAV:   4    -0.497370973131E+03    0.10717E-06   -0.36154E-05 17888   0.104E-02
  27 F= -.49737097E+03 E0= -.49736451E+03  d E =-.257403E-02  mag=    94.0000
quench:  g(F)=  0.000E+00 g(S)=  0.000E+00 dE (1.order)= 0.000E+00
 bond charge predicted
       N       E                     dE             d eps       ncg     rms          rms(c)
DAV:   1    -0.497370416558E+03    0.55668E-03   -0.21094E-01 18960   0.171E+00    0.243E-01
DAV:   2    -0.497373620423E+03   -0.32039E-02   -0.30146E-02 17328   0.305E-01    0.130E-01
DAV:   3    -0.497373767709E+03   -0.14729E-03   -0.11418E-03 22544   0.711E-02    0.642E-02
DAV:   4    -0.497373767466E+03    0.24321E-06   -0.80479E-05 20400   0.153E-02    0.413E-02
DAV:   5    -0.497373761851E+03    0.56149E-05   -0.12582E-05 14696   0.149E-02    0.213E-02
DAV:   6    -0.497373763502E+03   -0.16510E-05   -0.10699E-05 12312   0.857E-03
  28 F= -.49737376E+03 E0= -.49736731E+03  d E =-.279037E-02  mag=    94.0000
quench:  g(F)=  0.000E+00 g(S)=  0.000E+00 dE (1.order)= 0.000E+00
 bond charge predicted
       N       E                     dE             d eps       ncg     rms          rms(c)
DAV:   1    -0.497370756923E+03    0.30049E-02   -0.35859E-01 18952   0.222E+00    0.325E-01
DAV:   2    -0.497376249481E+03   -0.54926E-02   -0.51609E-02 17272   0.399E-01    0.167E-01
DAV:   3    -0.497376514481E+03   -0.26500E-03   -0.19440E-03 22624   0.933E-02    0.769E-02
DAV:   4    -0.497376515591E+03   -0.11099E-05   -0.13511E-04 21464   0.195E-02    0.486E-02
DAV:   5    -0.497376507315E+03    0.82765E-05   -0.15929E-05 15920   0.165E-02    0.272E-02
DAV:   6    -0.497376509270E+03   -0.19548E-05   -0.14848E-05 14584   0.114E-02
  29 F= -.49737651E+03 E0= -.49737006E+03  d E =-.274577E-02  mag=    94.0000
quench:  g(F)=  0.000E+00 g(S)=  0.000E+00 dE (1.order)= 0.000E+00
 bond charge predicted
       N       E                     dE             d eps       ncg     rms          rms(c)
DAV:   1    -0.497370707910E+03    0.57994E-02   -0.52515E-01 18960   0.268E+00    0.390E-01
DAV:   2    -0.497378658649E+03   -0.79507E-02   -0.74543E-02 17264   0.476E-01    0.198E-01
DAV:   3    -0.497379049319E+03   -0.39067E-03   -0.27971E-03 22912   0.110E-01    0.888E-02
DAV:   4    -0.497379051263E+03   -0.19440E-05   -0.18583E-04 21656   0.226E-02    0.574E-02
DAV:   5    -0.497379040577E+03    0.10686E-04   -0.22797E-05 17496   0.201E-02    0.315E-02
DAV:   6    -0.497379043735E+03   -0.31578E-05   -0.19274E-05 16032   0.132E-02
  30 F= -.49737904E+03 E0= -.49737261E+03  d E =-.253447E-02  mag=    94.0000
quench:  g(F)=  0.000E+00 g(S)=  0.000E+00 dE (1.order)= 0.000E+00
 bond charge predicted
       N       E                     dE             d eps       ncg     rms          rms(c)
DAV:   1    -0.497370558842E+03    0.84817E-02   -0.69596E-01 18960   0.306E+00    0.444E-01
DAV:   2    -0.497380884777E+03   -0.10326E-01   -0.96583E-02 17296   0.536E-01    0.223E-01
DAV:   3    -0.497381405704E+03   -0.52093E-03   -0.36416E-03 23072   0.124E-01    0.967E-02
DAV:   4    -0.497381409766E+03   -0.40624E-05   -0.23569E-04 21976   0.252E-02    0.638E-02
DAV:   5    -0.497381397842E+03    0.11924E-04   -0.28281E-05 18376   0.230E-02    0.343E-02
DAV:   6    -0.497381402404E+03   -0.45621E-05   -0.23613E-05 17520   0.145E-02
  31 F= -.49738140E+03 E0= -.49737498E+03  d E =-.235867E-02  mag=    94.0000
quench:  g(F)=  0.000E+00 g(S)=  0.000E+00 dE (1.order)= 0.000E+00
 bond charge predicted
       N       E                     dE             d eps       ncg     rms          rms(c)
DAV:   1    -0.497367960931E+03    0.13437E-01   -0.10614E+00 18936   0.373E+00    0.539E-01
DAV:   2    -0.497383274263E+03   -0.15313E-01   -0.14291E-01 17232   0.646E-01    0.267E-01
DAV:   3    -0.497384065547E+03   -0.79128E-03   -0.53900E-03 23152   0.148E-01    0.112E-01
DAV:   4    -0.497384073355E+03   -0.78081E-05   -0.33817E-04 22112   0.301E-02    0.753E-02
DAV:   5    -0.497384058445E+03    0.14910E-04   -0.39881E-05 19336   0.281E-02    0.394E-02
DAV:   6    -0.497384065138E+03   -0.66924E-05   -0.31582E-05 19024   0.165E-02    0.128E-02
DAV:   7    -0.497384067422E+03   -0.22849E-05   -0.89589E-06 11048   0.685E-03
  32 F= -.49738407E+03 E0= -.49737765E+03  d E =-.266502E-02  mag=    94.0000
quench:  g(F)=  0.000E+00 g(S)=  0.000E+00 dE (1.order)= 0.000E+00
 bond charge predicted
       N       E                     dE             d eps       ncg     rms          rms(c)
DAV:   1    -0.497364895046E+03    0.19170E-01   -0.15574E+00 18880   0.444E+00    0.635E-01
DAV:   2    -0.497386380942E+03   -0.21486E-01   -0.20022E-01 17184   0.756E-01    0.312E-01
DAV:   3    -0.497387518460E+03   -0.11375E-02   -0.75786E-03 23272   0.173E-01    0.126E-01
DAV:   4    -0.497387530520E+03   -0.12060E-04   -0.45788E-04 22160   0.350E-02    0.861E-02
DAV:   5    -0.497387512123E+03    0.18397E-04   -0.52439E-05 20192   0.334E-02    0.440E-02
DAV:   6    -0.497387520811E+03   -0.86880E-05   -0.40563E-05 20344   0.183E-02    0.136E-02
DAV:   7    -0.497387523366E+03   -0.25548E-05   -0.11453E-05 11928   0.790E-03
  33 F= -.49738752E+03 E0= -.49738112E+03  d E =-.345594E-02  mag=    94.0000
quench:  g(F)=  0.000E+00 g(S)=  0.000E+00 dE (1.order)= 0.000E+00
 bond charge predicted
       N       E                     dE             d eps       ncg     rms          rms(c)
DAV:   1    -0.497362085875E+03    0.25435E-01   -0.22300E+00 18800   0.515E+00    0.731E-01
DAV:   2    -0.497390914802E+03   -0.28829E-01   -0.26858E-01 17240   0.869E-01    0.358E-01
DAV:   3    -0.497392434352E+03   -0.15196E-02   -0.98191E-03 23240   0.196E-01    0.141E-01
DAV:   4    -0.497392453737E+03   -0.19384E-04   -0.59988E-04 22296   0.403E-02    0.973E-02
DAV:   5    -0.497392432671E+03    0.21066E-04   -0.66459E-05 20848   0.387E-02    0.484E-02
DAV:   6    -0.497392443973E+03   -0.11302E-04   -0.51408E-05 21272   0.200E-02    0.145E-02
DAV:   7    -0.497392446861E+03   -0.28880E-05   -0.14549E-05 13312   0.894E-03
  34 F= -.49739245E+03 E0= -.49738605E+03  d E =-.492349E-02  mag=    94.0000
quench:  g(F)=  0.000E+00 g(S)=  0.000E+00 dE (1.order)= 0.000E+00
 bond charge predicted
       N       E                     dE             d eps       ncg     rms          rms(c)
DAV:   1    -0.497359994921E+03    0.32449E-01   -0.31795E+00 18640   0.591E+00    0.828E-01
DAV:   2    -0.497397442333E+03   -0.37447E-01   -0.34925E-01 17200   0.989E-01    0.406E-01
DAV:   3    -0.497399466977E+03   -0.20246E-02   -0.13071E-02 23344   0.225E-01    0.158E-01
DAV:   4    -0.497399495393E+03   -0.28416E-04   -0.77096E-04 22256   0.460E-02    0.109E-01
DAV:   5    -0.497399471029E+03    0.24365E-04   -0.84195E-05 21000   0.441E-02    0.537E-02
DAV:   6    -0.497399485618E+03   -0.14589E-04   -0.65557E-05 22064   0.224E-02    0.160E-02
DAV:   7    -0.497399489021E+03   -0.34035E-05   -0.18407E-05 14504   0.100E-02
  35 F= -.49739949E+03 E0= -.49739309E+03  d E =-.704216E-02  mag=    94.0000
quench:  g(F)=  0.000E+00 g(S)=  0.000E+00 dE (1.order)= 0.000E+00
 bond charge predicted
       N       E                     dE             d eps       ncg     rms          rms(c)
DAV:   1    -0.497357722940E+03    0.41763E-01   -0.45610E+00 18512   0.678E+00    0.937E-01
DAV:   2    -0.497406203464E+03   -0.48481E-01   -0.45325E-01 17064   0.113E+00    0.461E-01
DAV:   3    -0.497408951860E+03   -0.27484E-02   -0.18229E-02 23424   0.262E-01    0.181E-01
DAV:   4    -0.497408992941E+03   -0.41080E-04   -0.10099E-03 22168   0.529E-02    0.124E-01
DAV:   5    -0.497408962949E+03    0.29992E-04   -0.10726E-04 21024   0.494E-02    0.615E-02
DAV:   6    -0.497408982045E+03   -0.19096E-04   -0.85712E-05 22128   0.258E-02    0.185E-02
DAV:   7    -0.497408986614E+03   -0.45696E-05   -0.25238E-05 15384   0.114E-02
  36 F= -.49740899E+03 E0= -.49740258E+03  d E =-.949759E-02  mag=    94.0000
quench:  g(F)=  0.000E+00 g(S)=  0.000E+00 dE (1.order)= 0.000E+00
 bond charge predicted
       N       E                     dE             d eps       ncg     rms          rms(c)
DAV:   1    -0.497355100759E+03    0.53881E-01   -0.65441E+00 18536   0.781E+00    0.106E+00
DAV:   2    -0.497416891069E+03   -0.61790E-01   -0.57818E-01 16984   0.128E+00    0.525E-01
DAV:   3    -0.497420535667E+03   -0.36446E-02   -0.24572E-02 23592   0.301E-01    0.209E-01
DAV:   4    -0.497420584648E+03   -0.48981E-04   -0.13147E-03 22008   0.600E-02    0.144E-01
DAV:   5    -0.497420543560E+03    0.41088E-04   -0.14198E-04 21232   0.569E-02    0.712E-02
DAV:   6    -0.497420569400E+03   -0.25840E-04   -0.11534E-04 22384   0.301E-02    0.223E-02
DAV:   7    -0.497420575795E+03   -0.63955E-05   -0.33922E-05 17112   0.129E-02    0.166E-02
DAV:   8    -0.497420579782E+03   -0.39869E-05   -0.24509E-06  8984   0.532E-03
  37 F= -.49742058E+03 E0= -.49741416E+03  d E =-.115932E-01  mag=    94.0000
quench:  g(F)=  0.000E+00 g(S)=  0.000E+00 dE (1.order)= 0.000E+00
 bond charge predicted
       N       E                     dE             d eps       ncg     rms          rms(c)
DAV:   1    -0.497342806878E+03    0.77769E-01   -0.90507E+00 18344   0.902E+00    0.122E+00
DAV:   2    -0.497427967892E+03   -0.85161E-01   -0.79952E-01 17088   0.149E+00    0.598E-01
DAV:   3    -0.497432845864E+03   -0.48780E-02   -0.32797E-02 23608   0.343E-01    0.237E-01
DAV:   4    -0.497432928915E+03   -0.83051E-04   -0.17509E-03 22072   0.693E-02    0.162E-01
DAV:   5    -0.497432878921E+03    0.49994E-04   -0.17605E-04 21320   0.631E-02    0.815E-02
DAV:   6    -0.497432912235E+03   -0.33314E-04   -0.14973E-04 22432   0.352E-02    0.252E-02
DAV:   7    -0.497432920940E+03   -0.87054E-05   -0.48283E-05 18520   0.150E-02    0.191E-02
DAV:   8    -0.497432926246E+03   -0.53058E-05   -0.32307E-06  9256   0.598E-03    0.139E-02
DAV:   9    -0.497432932895E+03   -0.66489E-05   -0.37229E-06  9480   0.712E-03    0.107E-02
DAV:  10    -0.497432938001E+03   -0.51063E-05   -0.35188E-06  9904   0.496E-03    0.951E-03
DAV:  11    -0.497432942749E+03   -0.47476E-05   -0.12812E-06  8672   0.469E-03
  38 F= -.49743294E+03 E0= -.49742650E+03  d E =-.123630E-01  mag=    94.0000
quench:  g(F)=  0.000E+00 g(S)=  0.000E+00 dE (1.order)= 0.000E+00
 bond charge predicted
       N       E                     dE             d eps       ncg     rms          rms(c)
DAV:   1    -0.497333919190E+03    0.99019E-01   -0.11672E+01 18488   0.102E+01    0.136E+00
DAV:   2    -0.497437573281E+03   -0.10365E+00   -0.97014E-01 17080   0.165E+00    0.668E-01
DAV:   3    -0.497443794331E+03   -0.62210E-02   -0.41848E-02 23520   0.386E-01    0.264E-01
DAV:   4    -0.497443887371E+03   -0.93040E-04   -0.21762E-03 22056   0.780E-02    0.181E-01
DAV:   5    -0.497443824243E+03    0.63128E-04   -0.22137E-04 21440   0.721E-02    0.878E-02
DAV:   6    -0.497443862306E+03   -0.38063E-04   -0.18809E-04 22624   0.370E-02    0.262E-02
DAV:   7    -0.497443871132E+03   -0.88262E-05   -0.55622E-05 18808   0.162E-02    0.198E-02
DAV:   8    -0.497443876028E+03   -0.48957E-05   -0.36796E-06  9456   0.629E-03
  39 F= -.49744388E+03 E0= -.49743742E+03  d E =-.109333E-01  mag=    94.0000
quench:  g(F)=  0.000E+00 g(S)=  0.000E+00 dE (1.order)= 0.000E+00
 bond charge predicted
       N       E                     dE             d eps       ncg     rms          rms(c)
DAV:   1    -0.497313095361E+03    0.13078E+00   -0.14344E+01 18344   0.112E+01    0.151E+00
DAV:   2    -0.497443316973E+03   -0.13022E+00   -0.12210E+00 16976   0.184E+00    0.738E-01
DAV:   3    -0.497451349252E+03   -0.80323E-02   -0.55283E-02 23440   0.431E-01    0.288E-01
DAV:   4    -0.497451488240E+03   -0.13899E-03   -0.27245E-03 22024   0.881E-02    0.197E-01
DAV:   5    -0.497451416429E+03    0.71811E-04   -0.26081E-04 21320   0.755E-02    0.980E-02
DAV:   6    -0.497451463292E+03   -0.46863E-04   -0.23578E-04 22800   0.423E-02    0.286E-02
DAV:   7    -0.497451475316E+03   -0.12024E-04   -0.74389E-05 19336   0.190E-02    0.217E-02
DAV:   8    -0.497451482228E+03   -0.69119E-05   -0.54387E-06 10312   0.717E-03    0.156E-02
DAV:   9    -0.497451490781E+03   -0.85538E-05   -0.47002E-06  9984   0.818E-03    0.125E-02
DAV:  10    -0.497451496711E+03   -0.59293E-05   -0.44202E-06 10192   0.524E-03    0.109E-02
DAV:  11    -0.497451503063E+03   -0.63518E-05   -0.14155E-06  8808   0.576E-03    0.101E-02
DAV:  12    -0.497451513786E+03   -0.10723E-04   -0.85458E-06 12952   0.120E-02    0.845E-03
DAV:  13    -0.497451525792E+03   -0.12006E-04   -0.25364E-05 17040   0.209E-02    0.649E-03
DAV:  14    -0.497451533278E+03   -0.74869E-05   -0.23509E-05 15320   0.140E-02    0.488E-03
DAV:  15    -0.497451537021E+03   -0.37429E-05   -0.82553E-06 11248   0.556E-03
  40 F= -.49745154E+03 E0= -.49744507E+03  d E =-.766099E-02  mag=    94.0000
quench:  g(F)=  0.000E+00 g(S)=  0.000E+00 dE (1.order)= 0.000E+00
 bond charge predicted
       N       E                     dE             d eps       ncg     rms          rms(c)
DAV:   1    -0.497281907884E+03    0.16963E+00   -0.18199E+01 18296   0.123E+01    0.167E+00
DAV:   2    -0.497444085024E+03   -0.16218E+00   -0.15239E+00 16856   0.203E+00    0.820E-01
DAV:   3    -0.497454295718E+03   -0.10211E-01   -0.72401E-02 23552   0.478E-01    0.322E-01
DAV:   4    -0.497454440605E+03   -0.14489E-03   -0.33775E-03 22008   0.973E-02    0.219E-01
DAV:   5    -0.497454320462E+03    0.12014E-03   -0.33600E-04 21512   0.818E-02    0.110E-01
DAV:   6    -0.497454364732E+03   -0.44270E-04   -0.30207E-04 23320   0.462E-02    0.296E-02
DAV:   7    -0.497454375228E+03   -0.10496E-04   -0.94465E-05 19832   0.210E-02    0.211E-02
DAV:   8    -0.497454378143E+03   -0.29150E-05   -0.65908E-06 10896   0.636E-03
  41 F= -.49745438E+03 E0= -.49744790E+03  d E =-.284112E-02  mag=    94.0000
quench:  g(F)=  0.000E+00 g(S)=  0.000E+00 dE (1.order)= 0.000E+00
 bond charge predicted
       N       E                     dE             d eps       ncg     rms          rms(c)
DAV:   1    -0.497244279530E+03    0.21010E+00   -0.23108E+01 18200   0.136E+01    0.182E+00
DAV:   2    -0.497440658198E+03   -0.19638E+00   -0.18517E+00 16936   0.224E+00    0.883E-01
DAV:   3    -0.497453392061E+03   -0.12734E-01   -0.92301E-02 23768   0.525E-01    0.345E-01
DAV:   4    -0.497453570702E+03   -0.17864E-03   -0.40939E-03 22064   0.106E-01    0.235E-01
DAV:   5    -0.497453433994E+03    0.13671E-03   -0.41024E-04 21648   0.868E-02    0.120E-01
DAV:   6    -0.497453491674E+03   -0.57681E-04   -0.35324E-04 23464   0.511E-02    0.339E-02
DAV:   7    -0.497453507731E+03   -0.16057E-04   -0.12119E-04 20112   0.235E-02    0.250E-02
DAV:   8    -0.497453514310E+03   -0.65789E-05   -0.85539E-06 12032   0.808E-03    0.171E-02
DAV:   9    -0.497453522245E+03   -0.79355E-05   -0.51484E-06 10040   0.862E-03    0.127E-02
DAV:  10    -0.497453528067E+03   -0.58212E-05   -0.49197E-06 10008   0.567E-03    0.108E-02
DAV:  11    -0.497453532778E+03   -0.47112E-05   -0.17208E-06  8792   0.468E-03
  42 F= -.49745353E+03 E0= -.49744702E+03  d E =0.845365E-03  mag=    94.0000
quench:  g(F)=  0.000E+00 g(S)=  0.000E+00 dE (1.order)= 0.000E+00
 bond charge predicted
       N       E                     dE             d eps       ncg     rms          rms(c)
DAV:   1    -0.497219166746E+03    0.23436E+00   -0.26976E+01 18192   0.147E+01    0.190E+00
DAV:   2    -0.497441271453E+03   -0.22210E+00   -0.21021E+00 16984   0.243E+00    0.916E-01
DAV:   3    -0.497455243581E+03   -0.13972E-01   -0.10234E-01 24016   0.559E-01    0.358E-01
DAV:   4    -0.497455439642E+03   -0.19606E-03   -0.44322E-03 21952   0.113E-01    0.246E-01
DAV:   5    -0.497455290872E+03    0.14877E-03   -0.44532E-04 21744   0.954E-02    0.125E-01
DAV:   6    -0.497455357135E+03   -0.66264E-04   -0.38351E-04 23336   0.549E-02    0.353E-02
DAV:   7    -0.497455375901E+03   -0.18766E-04   -0.13672E-04 19936   0.254E-02    0.266E-02
DAV:   8    -0.497455384086E+03   -0.81842E-05   -0.94610E-06 12784   0.885E-03    0.187E-02
DAV:   9    -0.497455394396E+03   -0.10310E-04   -0.57255E-06 10304   0.930E-03    0.146E-02
DAV:  10    -0.497455402046E+03   -0.76500E-05   -0.60768E-06 10696   0.630E-03    0.124E-02
DAV:  11    -0.497455408752E+03   -0.67058E-05   -0.19769E-06  8824   0.556E-03    0.114E-02
DAV:  12    -0.497455418994E+03   -0.10242E-04   -0.51101E-06 10240   0.971E-03    0.101E-02
DAV:  13    -0.497455434589E+03   -0.15595E-04   -0.24157E-05 17120   0.223E-02    0.800E-03
DAV:  14    -0.497455445442E+03   -0.10853E-04   -0.36109E-05 17024   0.214E-02    0.600E-03
DAV:  15    -0.497455451858E+03   -0.64154E-05   -0.16473E-05 13368   0.797E-03    0.500E-03
DAV:  16    -0.497455453928E+03   -0.20708E-05   -0.16732E-06  8736   0.355E-03
  43 F= -.49745545E+03 E0= -.49744887E+03  d E =-.192115E-02  mag=    94.0000
quench:  g(F)=  0.000E+00 g(S)=  0.000E+00 dE (1.order)= 0.000E+00
 bond charge predicted
       N       E                     dE             d eps       ncg     rms          rms(c)
DAV:   1    -0.497206208097E+03    0.24924E+00   -0.31495E+01 18144   0.156E+01    0.197E+00
DAV:   2    -0.497449475476E+03   -0.24327E+00   -0.23112E+00 17184   0.260E+00    0.950E-01
DAV:   3    -0.497464942780E+03   -0.15467E-01   -0.11798E-01 24008   0.605E-01    0.381E-01
DAV:   4    -0.497465093292E+03   -0.15051E-03   -0.46592E-03 21872   0.121E-01    0.259E-01
DAV:   5    -0.497464886761E+03    0.20653E-03   -0.50437E-04 21712   0.102E-01    0.134E-01
DAV:   6    -0.497464952158E+03   -0.65397E-04   -0.47503E-04 23288   0.596E-02    0.363E-02
DAV:   7    -0.497464970364E+03   -0.18207E-04   -0.15154E-04 20056   0.272E-02    0.270E-02
DAV:   8    -0.497464976526E+03   -0.61614E-05   -0.89898E-06 12440   0.799E-03    0.181E-02
DAV:   9    -0.497464984667E+03   -0.81412E-05   -0.56144E-06 10392   0.849E-03    0.134E-02
DAV:  10    -0.497464990515E+03   -0.58480E-05   -0.50631E-06 10704   0.533E-03    0.111E-02
DAV:  11    -0.497464995462E+03   -0.49475E-05   -0.14572E-06  8784   0.443E-03
  44 F= -.49746500E+03 E0= -.49745831E+03  d E =-.954153E-02  mag=    94.0000
quench:  g(F)=  0.000E+00 g(S)=  0.000E+00 dE (1.order)= 0.000E+00
 bond charge predicted
       N       E                     dE             d eps       ncg     rms          rms(c)
DAV:   1    -0.497160885348E+03    0.30411E+00   -0.39290E+01 18080   0.174E+01    0.219E+00
DAV:   2    -0.497462509246E+03   -0.30162E+00   -0.28712E+00 17064   0.291E+00    0.106E+00
DAV:   3    -0.497482244526E+03   -0.19735E-01   -0.15391E-01 24096   0.676E-01    0.424E-01
DAV:   4    -0.497482406234E+03   -0.16171E-03   -0.58089E-03 21728   0.135E-01    0.288E-01
DAV:   5    -0.497482137077E+03    0.26916E-03   -0.62510E-04 21792   0.107E-01    0.157E-01
DAV:   6    -0.497482218173E+03   -0.81096E-04   -0.60600E-04 23120   0.703E-02    0.429E-02
DAV:   7    -0.497482250838E+03   -0.32666E-04   -0.21127E-04 20176   0.308E-02    0.332E-02
DAV:   8    -0.497482265744E+03   -0.14906E-04   -0.14123E-05 15464   0.101E-02    0.242E-02
DAV:   9    -0.497482285899E+03   -0.20155E-04   -0.92290E-06 11936   0.120E-02    0.190E-02
DAV:  10    -0.497482302244E+03   -0.16345E-04   -0.10339E-05 12504   0.894E-03    0.168E-02
DAV:  11    -0.497482316862E+03   -0.14618E-04   -0.41424E-06 10080   0.811E-03    0.156E-02
DAV:  12    -0.497482341774E+03   -0.24913E-04   -0.14811E-05 15240   0.166E-02    0.138E-02
DAV:  13    -0.497482375229E+03   -0.33455E-04   -0.63438E-05 18008   0.353E-02    0.107E-02
DAV:  14    -0.497482397130E+03   -0.21901E-04   -0.98561E-05 18920   0.335E-02    0.771E-03
DAV:  15    -0.497482410890E+03   -0.13760E-04   -0.40901E-05 15152   0.108E-02    0.615E-03
DAV:  16    -0.497482413738E+03   -0.28485E-05   -0.31532E-06  9008   0.327E-03
  45 F= -.49748241E+03 E0= -.49747560E+03  d E =-.174183E-01  mag=    94.0000
quench:  g(F)=  0.000E+00 g(S)=  0.000E+00 dE (1.order)= 0.000E+00
 bond charge predicted
       N       E                     dE             d eps       ncg     rms          rms(c)
DAV:   1    -0.497073154349E+03    0.40926E+00   -0.45428E+01 18240   0.199E+01    0.258E+00
DAV:   2    -0.497475513190E+03   -0.40236E+00   -0.38184E+00 17024   0.336E+00    0.126E+00
DAV:   3    -0.497501867916E+03   -0.26355E-01   -0.19903E-01 24016   0.782E-01    0.503E-01
DAV:   4    -0.497502125815E+03   -0.25790E-03   -0.79231E-03 21856   0.155E-01    0.341E-01
DAV:   5    -0.497501748589E+03    0.37723E-03   -0.78171E-04 21736   0.122E-01    0.188E-01
DAV:   6    -0.497501825853E+03   -0.77265E-04   -0.81431E-04 23096   0.865E-02    0.470E-02
DAV:   7    -0.497501864214E+03   -0.38361E-04   -0.31237E-04 20408   0.365E-02    0.349E-02
DAV:   8    -0.497501872439E+03   -0.82245E-05   -0.18269E-05 17888   0.100E-02    0.235E-02
DAV:   9    -0.497501884150E+03   -0.11711E-04   -0.72982E-06 10704   0.111E-02    0.160E-02
DAV:  10    -0.497501894094E+03   -0.99444E-05   -0.83412E-06 11784   0.769E-03    0.133E-02
DAV:  11    -0.497501900631E+03   -0.65365E-05   -0.31228E-06  9392   0.507E-03    0.123E-02
DAV:  12    -0.497501909695E+03   -0.90642E-05   -0.27789E-06  9216   0.739E-03    0.114E-02
DAV:  13    -0.497501926529E+03   -0.16834E-04   -0.16160E-05 15592   0.185E-02    0.953E-03
DAV:  14    -0.497501942341E+03   -0.15812E-04   -0.51577E-05 17368   0.309E-02    0.707E-03
DAV:  15    -0.497501952943E+03   -0.10602E-04   -0.37388E-05 15840   0.126E-02    0.532E-03
DAV:  16    -0.497501956210E+03   -0.32670E-05   -0.54116E-06 10016   0.421E-03
  46 F= -.49750196E+03 E0= -.49749503E+03  d E =-.195425E-01  mag=    94.0000
quench:  g(F)=  0.000E+00 g(S)=  0.000E+00 dE (1.order)= 0.000E+00
 bond charge predicted
       N       E                     dE             d eps       ncg     rms          rms(c)
DAV:   1    -0.497500535231E+03    0.14177E-02   -0.83280E-02 19520   0.127E+00    0.183E-01
DAV:   2    -0.497502254969E+03   -0.17197E-02   -0.15952E-02 17008   0.218E-01    0.896E-02
DAV:   3    -0.497502347324E+03   -0.92356E-04   -0.58398E-04 22384   0.505E-02    0.360E-02
DAV:   4    -0.497502348414E+03   -0.10893E-05   -0.38730E-05 17368   0.104E-02
  47 F= -.49750235E+03 E0= -.49749542E+03  d E =-.392204E-03  mag=    94.0000
quench:  g(F)=  0.000E+00 g(S)=  0.000E+00 dE (1.order)= 0.000E+00
 bond charge predicted
       N       E                     dE             d eps       ncg     rms          rms(c)
DAV:   1    -0.497500122656E+03    0.22247E-02   -0.45581E-01 18760   0.240E+00    0.327E-01
DAV:   2    -0.497506002257E+03   -0.58796E-02   -0.54768E-02 17096   0.404E-01    0.165E-01
DAV:   3    -0.497506316679E+03   -0.31442E-03   -0.20741E-03 23504   0.929E-02    0.674E-02
DAV:   4    -0.497506321106E+03   -0.44264E-05   -0.12151E-04 20960   0.191E-02    0.461E-02
DAV:   5    -0.497506317417E+03    0.36889E-05   -0.10520E-05 14128   0.185E-02
  48 F= -.49750632E+03 E0= -.49749939E+03  d E =-.396900E-02  mag=    94.0000
quench:  g(F)=  0.000E+00 g(S)=  0.000E+00 dE (1.order)= 0.000E+00
 bond charge predicted
       N       E                     dE             d eps       ncg     rms          rms(c)
DAV:   1    -0.497497519260E+03    0.88018E-02   -0.27810E+00 17632   0.410E+00    0.561E-01
DAV:   2    -0.497516221959E+03   -0.18703E-01   -0.17661E-01 16744   0.660E-01    0.276E-01
DAV:   3    -0.497517327935E+03   -0.11060E-02   -0.79232E-03 23096   0.157E-01    0.109E-01
DAV:   4    -0.497517358601E+03   -0.30666E-04   -0.39465E-04 21864   0.323E-02    0.725E-02
DAV:   5    -0.497517353227E+03    0.53742E-05   -0.31100E-05 19016   0.246E-02    0.365E-02
DAV:   6    -0.497517359476E+03   -0.62488E-05   -0.29349E-05 20032   0.155E-02    0.111E-02
DAV:   7    -0.497517361358E+03   -0.18817E-05   -0.11392E-05 13560   0.738E-03
  49 F= -.49751736E+03 E0= -.49751044E+03  d E =-.110439E-01  mag=    94.0000
quench:  g(F)=  0.000E+00 g(S)=  0.000E+00 dE (1.order)= 0.000E+00
 bond charge predicted
       N       E                     dE             d eps       ncg     rms          rms(c)
DAV:   1    -0.497471588579E+03    0.45771E-01   -0.10462E+01 17392   0.694E+00    0.100E+00
DAV:   2    -0.497533854838E+03   -0.62266E-01   -0.59433E-01 16688   0.110E+00    0.486E-01
DAV:   3    -0.497537890163E+03   -0.40353E-02   -0.30879E-02 22648   0.260E-01    0.201E-01
DAV:   4    -0.497537986637E+03   -0.96474E-04   -0.13624E-03 21824   0.556E-02    0.132E-01
DAV:   5    -0.497537947034E+03    0.39603E-04   -0.11498E-04 21416   0.375E-02    0.722E-02
DAV:   6    -0.497537960853E+03   -0.13819E-04   -0.10811E-04 22632   0.301E-02    0.195E-02
DAV:   7    -0.497537968760E+03   -0.79070E-05   -0.55178E-05 19936   0.128E-02    0.147E-02
DAV:   8    -0.497537971107E+03   -0.23473E-05   -0.27625E-06 10616   0.376E-03
  50 F= -.49753797E+03 E0= -.49753105E+03  d E =-.206097E-01  mag=    94.0000
quench:  g(F)=  0.000E+00 g(S)=  0.000E+00 dE (1.order)= 0.000E+00
 bond charge predicted
       N       E                     dE             d eps       ncg     rms          rms(c)
DAV:   1    -0.497445132327E+03    0.92836E-01   -0.17513E+01 17448   0.902E+00    0.132E+00
DAV:   2    -0.497555450311E+03   -0.11032E+00   -0.10584E+00 16680   0.144E+00    0.640E-01
DAV:   3    -0.497563256304E+03   -0.78060E-02   -0.61679E-02 22688   0.341E-01    0.271E-01
DAV:   4    -0.497563367162E+03   -0.11086E-03   -0.20807E-03 21792   0.720E-02    0.176E-01
DAV:   5    -0.497563269307E+03    0.97855E-04   -0.21855E-04 21848   0.484E-02    0.977E-02
DAV:   6    -0.497563287616E+03   -0.18308E-04   -0.21432E-04 22504   0.397E-02    0.261E-02
DAV:   7    -0.497563303987E+03   -0.16372E-04   -0.10829E-04 20696   0.165E-02    0.204E-02
DAV:   8    -0.497563308205E+03   -0.42176E-05   -0.44125E-06 12520   0.466E-03
  51 F= -.49756331E+03 E0= -.49755639E+03  d E =-.253371E-01  mag=    94.0000
quench:  g(F)=  0.000E+00 g(S)=  0.000E+00 dE (1.order)= 0.000E+00
 bond charge predicted
       N       E                     dE             d eps       ncg     rms          rms(c)
DAV:   1    -0.497465560270E+03    0.97744E-01   -0.15813E+01 17648   0.946E+00    0.136E+00
DAV:   2    -0.497578385621E+03   -0.11283E+00   -0.10761E+00 16712   0.154E+00    0.657E-01
DAV:   3    -0.497585902032E+03   -0.75164E-02   -0.56981E-02 22704   0.358E-01    0.267E-01
DAV:   4    -0.497586072242E+03   -0.17021E-03   -0.25248E-03 21944   0.763E-02    0.179E-01
DAV:   5    -0.497585990228E+03    0.82013E-04   -0.20852E-04 21728   0.533E-02    0.982E-02
DAV:   6    -0.497586017698E+03   -0.27470E-04   -0.21108E-04 22552   0.435E-02    0.252E-02
DAV:   7    -0.497586034920E+03   -0.17222E-04   -0.10664E-04 20400   0.186E-02    0.209E-02
DAV:   8    -0.497586040559E+03   -0.56381E-05   -0.49531E-06 12200   0.539E-03    0.168E-02
DAV:   9    -0.497586051990E+03   -0.11431E-04   -0.37232E-06  9640   0.953E-03    0.135E-02
DAV:  10    -0.497586060733E+03   -0.87429E-05   -0.76471E-06 11224   0.694E-03    0.121E-02
DAV:  11    -0.497586067675E+03   -0.69424E-05   -0.29951E-06  9504   0.542E-03    0.112E-02
DAV:  12    -0.497586077813E+03   -0.10137E-04   -0.40609E-06 10848   0.912E-03    0.100E-02
DAV:  13    -0.497586096119E+03   -0.18306E-04   -0.36643E-05 17376   0.271E-02    0.768E-03
DAV:  14    -0.497586107404E+03   -0.11286E-04   -0.57182E-05 17168   0.247E-02    0.555E-03
DAV:  15    -0.497586114149E+03   -0.67450E-05   -0.21898E-05 13120   0.755E-03    0.471E-03
DAV:  16    -0.497586115067E+03   -0.91796E-06   -0.10693E-06  8536   0.179E-03
  52 F= -.49758612E+03 E0= -.49757920E+03  d E =-.228069E-01  mag=    94.0000
quench:  g(F)=  0.000E+00 g(S)=  0.000E+00 dE (1.order)= 0.000E+00
 bond charge predicted
       N       E                     dE             d eps       ncg     rms          rms(c)
DAV:   1    -0.497584715280E+03    0.13989E-02   -0.56867E-02 18192   0.680E-01    0.959E-02
DAV:   2    -0.497585223573E+03   -0.50829E-03   -0.47544E-03 17112   0.112E-01    0.483E-02
DAV:   3    -0.497585253211E+03   -0.29638E-04   -0.19968E-04 22568   0.264E-02    0.188E-02
DAV:   4    -0.497585253836E+03   -0.62476E-06   -0.10234E-05 13208   0.544E-03
  53 F= -.49758525E+03 E0= -.49757834E+03  d E =0.861231E-03  mag=    94.0000
quench:  g(F)=  0.000E+00 g(S)=  0.000E+00 dE (1.order)= 0.000E+00
 bond charge predicted
       N       E                     dE             d eps       ncg     rms          rms(c)
DAV:   1    -0.497581552743E+03    0.37005E-02   -0.21265E-01 18168   0.131E+00    0.183E-01
DAV:   2    -0.497583438175E+03   -0.18854E-02   -0.17647E-02 17064   0.215E-01    0.938E-02
DAV:   3    -0.497583546735E+03   -0.10856E-03   -0.74711E-04 23240   0.509E-02    0.377E-02
DAV:   4    -0.497583548832E+03   -0.20973E-05   -0.39639E-05 18096   0.105E-02
  54 F= -.49758355E+03 E0= -.49757664E+03  d E =0.170500E-02  mag=    94.0000
quench:  g(F)=  0.000E+00 g(S)=  0.000E+00 dE (1.order)= 0.000E+00
 bond charge predicted
       N       E                     dE             d eps       ncg     rms          rms(c)
DAV:   1    -0.497576996341E+03    0.65504E-02   -0.43155E-01 18176   0.188E+00    0.259E-01
DAV:   2    -0.497580823034E+03   -0.38267E-02   -0.35834E-02 17048   0.307E-01    0.134E-01
DAV:   3    -0.497581042999E+03   -0.21997E-03   -0.15228E-03 23192   0.728E-02    0.541E-02
DAV:   4    -0.497581047437E+03   -0.44385E-05   -0.81656E-05 20392   0.150E-02    0.367E-02
DAV:   5    -0.497581045892E+03    0.15452E-05   -0.81531E-06 13232   0.139E-02
  55 F= -.49758105E+03 E0= -.49757414E+03  d E =0.250294E-02  mag=    94.0000
quench:  g(F)=  0.000E+00 g(S)=  0.000E+00 dE (1.order)= 0.000E+00
 bond charge predicted
       N       E                     dE             d eps       ncg     rms          rms(c)
DAV:   1    -0.497571505879E+03    0.95416E-02   -0.66718E-01 18192   0.236E+00    0.329E-01
DAV:   2    -0.497577492080E+03   -0.59862E-02   -0.56057E-02 17048   0.387E-01    0.165E-01
DAV:   3    -0.497577844976E+03   -0.35290E-03   -0.23804E-03 23224   0.916E-02    0.639E-02
DAV:   4    -0.497577852636E+03   -0.76598E-05   -0.12811E-04 21352   0.184E-02    0.430E-02
DAV:   5    -0.497577850087E+03    0.25490E-05   -0.10892E-05 14312   0.155E-02
  56 F= -.49757785E+03 E0= -.49757094E+03  d E =0.319581E-02  mag=    94.0000
quench:  g(F)=  0.000E+00 g(S)=  0.000E+00 dE (1.order)= 0.000E+00
 bond charge predicted
       N       E                     dE             d eps       ncg     rms          rms(c)
DAV:   1    -0.497565614438E+03    0.12238E-01   -0.87230E-01 18224   0.275E+00    0.381E-01
DAV:   2    -0.497573644599E+03   -0.80302E-02   -0.75143E-02 17120   0.451E-01    0.192E-01
DAV:   3    -0.497574117721E+03   -0.47312E-03   -0.31723E-03 23232   0.106E-01    0.735E-02
DAV:   4    -0.497574127951E+03   -0.10230E-04   -0.17086E-04 21824   0.213E-02    0.498E-02
DAV:   5    -0.497574124867E+03    0.30835E-05   -0.15024E-05 15864   0.182E-02
  57 F= -.49757412E+03 E0= -.49756722E+03  d E =0.372522E-02  mag=    94.0000
quench:  g(F)=  0.000E+00 g(S)=  0.000E+00 dE (1.order)= 0.000E+00
 bond charge predicted
       N       E                     dE             d eps       ncg     rms          rms(c)
DAV:   1    -0.497559881168E+03    0.14247E-01   -0.10041E+00 18304   0.306E+00    0.421E-01
DAV:   2    -0.497569604145E+03   -0.97230E-02   -0.90854E-02 17088   0.502E-01    0.211E-01
DAV:   3    -0.497570178953E+03   -0.57481E-03   -0.38120E-03 23336   0.118E-01    0.807E-02
DAV:   4    -0.497570191144E+03   -0.12191E-04   -0.20493E-04 22080   0.236E-02    0.549E-02
DAV:   5    -0.497570187697E+03    0.34464E-05   -0.18270E-05 16848   0.205E-02
  58 F= -.49757019E+03 E0= -.49756328E+03  d E =0.393717E-02  mag=    94.0000
quench:  g(F)=  0.000E+00 g(S)=  0.000E+00 dE (1.order)= 0.000E+00
 bond charge predicted
       N       E                     dE             d eps       ncg     rms          rms(c)
DAV:   1    -0.497552373011E+03    0.17818E-01   -0.12251E+00 18544   0.359E+00    0.492E-01
DAV:   2    -0.497565445566E+03   -0.13073E-01   -0.12182E-01 17192   0.591E-01    0.246E-01
DAV:   3    -0.497566210137E+03   -0.76457E-03   -0.49341E-03 23416   0.138E-01    0.930E-02
DAV:   4    -0.497566225802E+03   -0.15664E-04   -0.27343E-04 22280   0.275E-02    0.638E-02
DAV:   5    -0.497566221192E+03    0.46100E-05   -0.24923E-05 18232   0.247E-02
  59 F= -.49756622E+03 E0= -.49755931E+03  d E =0.396651E-02  mag=    94.0000
quench:  g(F)=  0.000E+00 g(S)=  0.000E+00 dE (1.order)= 0.000E+00
 bond charge predicted
       N       E                     dE             d eps       ncg     rms          rms(c)
DAV:   1    -0.497547011294E+03    0.19215E-01   -0.12554E+00 18800   0.391E+00    0.534E-01
DAV:   2    -0.497562110901E+03   -0.15100E-01   -0.14020E-01 17312   0.646E-01    0.263E-01
DAV:   3    -0.497562989181E+03   -0.87828E-03   -0.55286E-03 23304   0.150E-01    0.999E-02
DAV:   4    -0.497563008297E+03   -0.19116E-04   -0.32059E-04 22384   0.298E-02    0.689E-02
DAV:   5    -0.497563003626E+03    0.46702E-05   -0.28546E-05 18648   0.275E-02
  60 F= -.49756300E+03 E0= -.49755608E+03  d E =0.321757E-02  mag=    94.0000
quench:  g(F)=  0.000E+00 g(S)=  0.000E+00 dE (1.order)= 0.000E+00
 bond charge predicted
       N       E                     dE             d eps       ncg     rms          rms(c)
DAV:   1    -0.497563142803E+03   -0.13451E-03   -0.63914E-04 18432   0.753E-02    0.137E-02
DAV:   2    -0.497563150463E+03   -0.76596E-05   -0.63196E-05 17032   0.147E-02    0.927E-03
DAV:   3    -0.497563151575E+03   -0.11120E-05   -0.26293E-06  9480   0.366E-03    0.657E-03
DAV:   4    -0.497563152935E+03   -0.13603E-05   -0.84608E-07  8544   0.320E-03
  61 F= -.49756315E+03 E0= -.49755623E+03  d E =-.149309E-03  mag=    94.0000
quench:  g(F)=  0.000E+00 g(S)=  0.000E+00 dE (1.order)= 0.000E+00
 bond charge predicted
       N       E                     dE             d eps       ncg     rms          rms(c)
DAV:   1    -0.497563339076E+03   -0.18750E-03   -0.16936E-03 18600   0.130E-01    0.186E-02
DAV:   2    -0.497563357923E+03   -0.18846E-04   -0.16948E-04 17240   0.215E-02    0.991E-03
DAV:   3    -0.497563359312E+03   -0.13888E-05   -0.62023E-06 11088   0.528E-03    0.537E-03
DAV:   4    -0.497563359822E+03   -0.51079E-06   -0.97234E-07  8248   0.207E-03
  62 F= -.49756336E+03 E0= -.49755644E+03  d E =-.206887E-03  mag=    94.0000
quench:  g(F)=  0.000E+00 g(S)=  0.000E+00 dE (1.order)= 0.000E+00
 bond charge predicted
       N       E                     dE             d eps       ncg     rms          rms(c)
DAV:   1    -0.497563458912E+03   -0.99600E-04   -0.24370E-03 19056   0.180E-01    0.252E-02
DAV:   2    -0.497563492716E+03   -0.33804E-04   -0.30916E-04 17416   0.296E-02    0.131E-02
DAV:   3    -0.497563494781E+03   -0.20656E-05   -0.10752E-05 12696   0.711E-03    0.610E-03
DAV:   4    -0.497563495181E+03   -0.39933E-06   -0.15702E-06  8424   0.247E-03
  63 F= -.49756350E+03 E0= -.49755657E+03  d E =-.135358E-03  mag=    94.0000
quench:  g(F)=  0.000E+00 g(S)=  0.000E+00 dE (1.order)= 0.000E+00
 bond charge predicted
       N       E                     dE             d eps       ncg     rms          rms(c)
DAV:   1    -0.497563317758E+03    0.17702E-03   -0.54064E-03 18832   0.247E-01    0.340E-02
DAV:   2    -0.497563381107E+03   -0.63348E-04   -0.58721E-04 17120   0.406E-02    0.174E-02
DAV:   3    -0.497563384905E+03   -0.37986E-05   -0.22336E-05 16256   0.961E-03    0.762E-03
DAV:   4    -0.497563385293E+03   -0.38743E-06   -0.23260E-06  8600   0.302E-03
  64 F= -.49756339E+03 E0= -.49755646E+03  d E =0.109888E-03  mag=    94.0000
quench:  g(F)=  0.000E+00 g(S)=  0.000E+00 dE (1.order)= 0.000E+00
 bond charge predicted
       N       E                     dE             d eps       ncg     rms          rms(c)
DAV:   1    -0.497562656508E+03    0.72840E-03   -0.20462E-02 17936   0.386E-01    0.519E-02
DAV:   2    -0.497562816279E+03   -0.15977E-03   -0.15043E-03 16648   0.629E-02    0.261E-02
DAV:   3    -0.497562826023E+03   -0.97438E-05   -0.65197E-05 21088   0.149E-02    0.108E-02
DAV:   4    -0.497562826477E+03   -0.45437E-06   -0.36047E-06  9880   0.359E-03
  65 F= -.49756283E+03 E0= -.49755590E+03  d E =0.558816E-03  mag=    94.0000
quench:  g(F)=  0.000E+00 g(S)=  0.000E+00 dE (1.order)= 0.000E+00
 bond charge predicted
       N       E                     dE             d eps       ncg     rms          rms(c)
DAV:   1    -0.497561108380E+03    0.17176E-02   -0.69662E-02 17536   0.621E-01    0.832E-02
DAV:   2    -0.497561540035E+03   -0.43166E-03   -0.40999E-03 16528   0.100E-01    0.414E-02
DAV:   3    -0.497561564941E+03   -0.24906E-04   -0.17194E-04 22792   0.230E-02    0.167E-02
DAV:   4    -0.497561565799E+03   -0.85798E-06   -0.84445E-06 12192   0.506E-03
  66 F= -.49756157E+03 E0= -.49755464E+03  d E =0.126068E-02  mag=    94.0000
quench:  g(F)=  0.000E+00 g(S)=  0.000E+00 dE (1.order)= 0.000E+00
 bond charge predicted
       N       E                     dE             d eps       ncg     rms          rms(c)
DAV:   1    -0.497558194722E+03    0.33702E-02   -0.19026E-01 17408   0.977E-01    0.131E-01
DAV:   2    -0.497559291068E+03   -0.10963E-02   -0.10443E-02 16504   0.157E-01    0.649E-02
DAV:   3    -0.497559352788E+03   -0.61720E-04   -0.43158E-04 23024   0.357E-02    0.261E-02
DAV:   4    -0.497559354793E+03   -0.20042E-05   -0.21290E-05 16064   0.782E-03
  67 F= -.49755935E+03 E0= -.49755243E+03  d E =0.221101E-02  mag=    94.0000
quench:  g(F)=  0.000E+00 g(S)=  0.000E+00 dE (1.order)= 0.000E+00
 bond charge predicted
       N       E                     dE             d eps       ncg     rms          rms(c)
DAV:   1    -0.497553483638E+03    0.58692E-02   -0.41847E-01 17376   0.142E+00    0.191E-01
DAV:   2    -0.497555829384E+03   -0.23457E-02   -0.22372E-02 16504   0.228E-01    0.944E-02
DAV:   3    -0.497555960242E+03   -0.13086E-03   -0.92266E-04 22952   0.516E-02    0.381E-02
DAV:   4    -0.497555964468E+03   -0.42267E-05   -0.45491E-05 18520   0.114E-02
  68 F= -.49755596E+03 E0= -.49754904E+03  d E =0.339032E-02  mag=    94.0000
quench:  g(F)=  0.000E+00 g(S)=  0.000E+00 dE (1.order)= 0.000E+00
 bond charge predicted
       N       E                     dE             d eps       ncg     rms          rms(c)
DAV:   1    -0.497546427707E+03    0.95325E-02   -0.80028E-01 17328   0.195E+00    0.262E-01
DAV:   2    -0.497550883908E+03   -0.44562E-02   -0.42532E-02 16480   0.314E-01    0.129E-01
DAV:   3    -0.497551133419E+03   -0.24951E-03   -0.17710E-03 23008   0.706E-02    0.523E-02
DAV:   4    -0.497551141461E+03   -0.80426E-05   -0.87297E-05 20592   0.156E-02    0.353E-02
DAV:   5    -0.497551142927E+03   -0.14657E-05   -0.86680E-06 13424   0.134E-02
  69 F= -.49755114E+03 E0= -.49754422E+03  d E =0.482154E-02  mag=    94.0000
quench:  g(F)=  0.000E+00 g(S)=  0.000E+00 dE (1.order)= 0.000E+00
 bond charge predicted
       N       E                     dE             d eps       ncg     rms          rms(c)
DAV:   1    -0.497536489070E+03    0.14652E-01   -0.13740E+00 17336   0.255E+00    0.348E-01
DAV:   2    -0.497544207792E+03   -0.77187E-02   -0.73677E-02 16472   0.411E-01    0.168E-01
DAV:   3    -0.497544653279E+03   -0.44549E-03   -0.31248E-03 22960   0.932E-02    0.648E-02
DAV:   4    -0.497544667059E+03   -0.13780E-04   -0.15312E-04 21584   0.200E-02    0.438E-02
DAV:   5    -0.497544668220E+03   -0.11607E-05   -0.12870E-05 14960   0.159E-02
  70 F= -.49754467E+03 E0= -.49753775E+03  d E =0.647471E-02  mag=    94.0000
quench:  g(F)=  0.000E+00 g(S)=  0.000E+00 dE (1.order)= 0.000E+00
 bond charge predicted
       N       E                     dE             d eps       ncg     rms          rms(c)
[...]
Note: The following floating-point exceptions are signalling: IEEE_INVALID_FLAG IEEE_DIVIDE_BY_ZERO IEEE_UNDERFLOW_FLAG IEEE_DENORMAL
Note: The following floating-point exceptions are signalling: IEEE_INVALID_FLAG IEEE_DIVIDE_BY_ZERO IEEE_UNDERFLOW_FLAG IEEE_DENORMAL
Note: The following floating-point exceptions are signalling: IEEE_INVALID_FLAG IEEE_DIVIDE_BY_ZERO IEEE_UNDERFLOW_FLAG IEEE_DENORMAL
Note: The following floating-point exceptions are signalling: IEEE_INVALID_FLAG IEEE_DIVIDE_BY_ZERO IEEE_UNDERFLOW_FLAG IEEE_DENORMAL
Note: The following floating-point exceptions are signalling: IEEE_INVALID_FLAG IEEE_DIVIDE_BY_ZERO IEEE_UNDERFLOW_FLAG IEEE_DENORMAL
Note: The following floating-point exceptions are signalling: IEEE_INVALID_FLAG IEEE_DIVIDE_BY_ZERO IEEE_UNDERFLOW_FLAG IEEE_DENORMAL
Note: The following floating-point exceptions are signalling: IEEE_INVALID_FLAG IEEE_DIVIDE_BY_ZERO IEEE_UNDERFLOW_FLAG IEEE_DENORMAL
Note: The following floating-point exceptions are signalling: IEEE_INVALID_FLAG IEEE_DIVIDE_BY_ZERO IEEE_UNDERFLOW_FLAG IEEE_DENORMAL
Note: The following floating-point exceptions are signalling: IEEE_INVALID_FLAG IEEE_DIVIDE_BY_ZERO IEEE_UNDERFLOW_FLAG IEEE_DENORMAL
Note: The following floating-point exceptions are signalling: IEEE_INVALID_FLAG IEEE_DIVIDE_BY_ZERO IEEE_UNDERFLOW_FLAG IEEE_DENORMAL
Note: The following floating-point exceptions are signalling: IEEE_INVALID_FLAG IEEE_DIVIDE_BY_ZERO IEEE_UNDERFLOW_FLAG IEEE_DENORMAL
Note: The following floating-point exceptions are signalling: IEEE_INVALID_FLAG IEEE_DIVIDE_BY_ZERO IEEE_UNDERFLOW_FLAG IEEE_DENORMAL
Note: The following floating-point exceptions are signalling: IEEE_INVALID_FLAG IEEE_DIVIDE_BY_ZERO IEEE_UNDERFLOW_FLAG IEEE_DENORMAL
Note: The following floating-point exceptions are signalling: IEEE_INVALID_FLAG IEEE_DIVIDE_BY_ZERO IEEE_UNDERFLOW_FLAG IEEE_DENORMAL
Note: The following floating-point exceptions are signalling: IEEE_INVALID_FLAG IEEE_DIVIDE_BY_ZERO IEEE_UNDERFLOW_FLAG IEEE_DENORMAL
Note: The following floating-point exceptions are signalling: IEEE_INVALID_FLAG IEEE_DIVIDE_BY_ZERO IEEE_UNDERFLOW_FLAG IEEE_DENORMAL
Note: The following floating-point exceptions are signalling: IEEE_INVALID_FLAG IEEE_DIVIDE_BY_ZERO IEEE_UNDERFLOW_FLAG IEEE_DENORMAL
Note: The following floating-point exceptions are signalling: IEEE_INVALID_FLAG IEEE_DIVIDE_BY_ZERO IEEE_UNDERFLOW_FLAG IEEE_DENORMAL
Note: The following floating-point exceptions are signalling: IEEE_INVALID_FLAG IEEE_DIVIDE_BY_ZERO IEEE_UNDERFLOW_FLAG IEEE_DENORMAL
Note: The following floating-point exceptions are signalling: IEEE_INVALID_FLAG IEEE_DIVIDE_BY_ZERO IEEE_UNDERFLOW_FLAG IEEE_DENORMAL
Note: The following floating-point exceptions are signalling: IEEE_INVALID_FLAG IEEE_DIVIDE_BY_ZERO IEEE_UNDERFLOW_FLAG IEEE_DENORMAL
Note: The following floating-point exceptions are signalling: IEEE_INVALID_FLAG IEEE_DIVIDE_BY_ZERO IEEE_UNDERFLOW_FLAG IEEE_DENORMAL
Note: The following floating-point exceptions are signalling: IEEE_INVALID_FLAG IEEE_DIVIDE_BY_ZERO IEEE_UNDERFLOW_FLAG IEEE_DENORMAL
Note: The following floating-point exceptions are signalling: IEEE_INVALID_FLAG IEEE_DIVIDE_BY_ZERO IEEE_UNDERFLOW_FLAG IEEE_DENORMAL
Note: The following floating-point exceptions are signalling: IEEE_INVALID_FLAG IEEE_DIVIDE_BY_ZERO IEEE_UNDERFLOW_FLAG IEEE_DENORMAL
Note: The following floating-point exceptions are signalling: IEEE_INVALID_FLAG IEEE_DIVIDE_BY_ZERO IEEE_UNDERFLOW_FLAG IEEE_DENORMAL
Note: The following floating-point exceptions are signalling: IEEE_INVALID_FLAG IEEE_DIVIDE_BY_ZERO IEEE_UNDERFLOW_FLAG IEEE_DENORMAL
Note: The following floating-point exceptions are signalling: IEEE_INVALID_FLAG IEEE_DIVIDE_BY_ZERO IEEE_UNDERFLOW_FLAG IEEE_DENORMAL
Note: The following floating-point exceptions are signalling: IEEE_INVALID_FLAG IEEE_DIVIDE_BY_ZERO IEEE_UNDERFLOW_FLAG IEEE_DENORMAL
Note: The following floating-point exceptions are signalling: IEEE_INVALID_FLAG IEEE_DIVIDE_BY_ZERO IEEE_UNDERFLOW_FLAG IEEE_DENORMAL
Note: The following floating-point exceptions are signalling: IEEE_INVALID_FLAG IEEE_DIVIDE_BY_ZERO IEEE_UNDERFLOW_FLAG IEEE_DENORMAL
Note: The following floating-point exceptions are signalling: IEEE_INVALID_FLAG IEEE_DIVIDE_BY_ZERO IEEE_UNDERFLOW_FLAG IEEE_DENORMAL
Note: The following floating-point exceptions are signalling: IEEE_INVALID_FLAG IEEE_DIVIDE_BY_ZERO IEEE_UNDERFLOW_FLAG IEEE_DENORMAL
Note: The following floating-point exceptions are signalling: IEEE_INVALID_FLAG IEEE_DIVIDE_BY_ZERO IEEE_UNDERFLOW_FLAG IEEE_DENORMAL
Note: The following floating-point exceptions are signalling: IEEE_INVALID_FLAG IEEE_DIVIDE_BY_ZERO IEEE_UNDERFLOW_FLAG IEEE_DENORMAL
Note: The following floating-point exceptions are signalling: IEEE_INVALID_FLAG IEEE_DIVIDE_BY_ZERO IEEE_UNDERFLOW_FLAG IEEE_DENORMAL
Note: The following floating-point exceptions are signalling: IEEE_INVALID_FLAG IEEE_DIVIDE_BY_ZERO IEEE_UNDERFLOW_FLAG IEEE_DENORMAL
Note: The following floating-point exceptions are signalling: IEEE_INVALID_FLAG IEEE_DIVIDE_BY_ZERO IEEE_UNDERFLOW_FLAG IEEE_DENORMAL
Note: The following floating-point exceptions are signalling: IEEE_INVALID_FLAG IEEE_DIVIDE_BY_ZERO IEEE_UNDERFLOW_FLAG IEEE_DENORMAL
Note: The following floating-point exceptions are signalling: IEEE_INVALID_FLAG IEEE_DIVIDE_BY_ZERO IEEE_UNDERFLOW_FLAG IEEE_DENORMAL
Note: The following floating-point exceptions are signalling: IEEE_INVALID_FLAG IEEE_DIVIDE_BY_ZERO IEEE_UNDERFLOW_FLAG IEEE_DENORMAL
Note: The following floating-point exceptions are signalling: IEEE_INVALID_FLAG IEEE_DIVIDE_BY_ZERO IEEE_UNDERFLOW_FLAG IEEE_DENORMAL
Note: The following floating-point exceptions are signalling: IEEE_INVALID_FLAG IEEE_DIVIDE_BY_ZERO IEEE_UNDERFLOW_FLAG IEEE_DENORMAL
Note: The following floating-point exceptions are signalling: IEEE_INVALID_FLAG IEEE_DIVIDE_BY_ZERO IEEE_UNDERFLOW_FLAG IEEE_DENORMAL
Note: The following floating-point exceptions are signalling: IEEE_INVALID_FLAG IEEE_DIVIDE_BY_ZERO IEEE_UNDERFLOW_FLAG IEEE_DENORMAL
Note: The following floating-point exceptions are signalling: IEEE_INVALID_FLAG IEEE_DIVIDE_BY_ZERO IEEE_UNDERFLOW_FLAG IEEE_DENORMAL
Note: The following floating-point exceptions are signalling: IEEE_INVALID_FLAG IEEE_DIVIDE_BY_ZERO IEEE_UNDERFLOW_FLAG IEEE_DENORMAL
Note: The following floating-point exceptions are signalling: IEEE_INVALID_FLAG IEEE_DIVIDE_BY_ZERO IEEE_UNDERFLOW_FLAG IEEE_DENORMAL
Note: The following floating-point exceptions are signalling: IEEE_INVALID_FLAG IEEE_DIVIDE_BY_ZERO IEEE_UNDERFLOW_FLAG IEEE_DENORMAL
Note: The following floating-point exceptions are signalling: IEEE_INVALID_FLAG IEEE_DIVIDE_BY_ZERO IEEE_UNDERFLOW_FLAG IEEE_DENORMAL
Note: The following floating-point exceptions are signalling: IEEE_INVALID_FLAG IEEE_DIVIDE_BY_ZERO IEEE_UNDERFLOW_FLAG IEEE_DENORMAL
Note: The following floating-point exceptions are signalling: IEEE_INVALID_FLAG IEEE_DIVIDE_BY_ZERO IEEE_UNDERFLOW_FLAG IEEE_DENORMAL
Note: The following floating-point exceptions are signalling: IEEE_INVALID_FLAG IEEE_DIVIDE_BY_ZERO IEEE_UNDERFLOW_FLAG IEEE_DENORMAL
Note: The following floating-point exceptions are signalling: IEEE_INVALID_FLAG IEEE_DIVIDE_BY_ZERO IEEE_UNDERFLOW_FLAG IEEE_DENORMAL
Note: The following floating-point exceptions are signalling: IEEE_INVALID_FLAG IEEE_DIVIDE_BY_ZERO IEEE_UNDERFLOW_FLAG IEEE_DENORMAL
Note: The following floating-point exceptions are signalling: IEEE_INVALID_FLAG IEEE_DIVIDE_BY_ZERO IEEE_UNDERFLOW_FLAG IEEE_DENORMAL
Note: The following floating-point exceptions are signalling: IEEE_INVALID_FLAG IEEE_DIVIDE_BY_ZERO IEEE_UNDERFLOW_FLAG IEEE_DENORMAL
Note: The following floating-point exceptions are signalling: IEEE_INVALID_FLAG IEEE_DIVIDE_BY_ZERO IEEE_UNDERFLOW_FLAG IEEE_DENORMAL
Note: The following floating-point exceptions are signalling: IEEE_INVALID_FLAG IEEE_DIVIDE_BY_ZERO IEEE_UNDERFLOW_FLAG IEEE_DENORMAL
Note: The following floating-point exceptions are signalling: IEEE_INVALID_FLAG IEEE_DIVIDE_BY_ZERO IEEE_UNDERFLOW_FLAG IEEE_DENORMAL
Note: The following floating-point exceptions are signalling: IEEE_INVALID_FLAG IEEE_DIVIDE_BY_ZERO IEEE_UNDERFLOW_FLAG IEEE_DENORMAL
Note: The following floating-point exceptions are signalling: IEEE_INVALID_FLAG IEEE_DIVIDE_BY_ZERO IEEE_UNDERFLOW_FLAG IEEE_DENORMAL
Note: The following floating-point exceptions are signalling: IEEE_INVALID_FLAG IEEE_DIVIDE_BY_ZERO IEEE_UNDERFLOW_FLAG IEEE_DENORMAL
Note: The following floating-point exceptions are signalling: IEEE_INVALID_FLAG IEEE_DIVIDE_BY_ZERO IEEE_UNDERFLOW_FLAG IEEE_DENORMAL
Note: The following floating-point exceptions are signalling: IEEE_INVALID_FLAG IEEE_DIVIDE_BY_ZERO IEEE_UNDERFLOW_FLAG IEEE_DENORMAL
Note: The following floating-point exceptions are signalling: IEEE_INVALID_FLAG IEEE_DIVIDE_BY_ZERO IEEE_UNDERFLOW_FLAG IEEE_DENORMAL
Note: The following floating-point exceptions are signalling: IEEE_INVALID_FLAG IEEE_DIVIDE_BY_ZERO IEEE_UNDERFLOW_FLAG IEEE_DENORMAL
Note: The following floating-point exceptions are signalling: IEEE_INVALID_FLAG IEEE_DIVIDE_BY_ZERO IEEE_UNDERFLOW_FLAG IEEE_DENORMAL
Note: The following floating-point exceptions are signalling: IEEE_INVALID_FLAG IEEE_DIVIDE_BY_ZERO IEEE_UNDERFLOW_FLAG IEEE_DENORMAL
Note: The following floating-point exceptions are signalling: IEEE_INVALID_FLAG IEEE_DIVIDE_BY_ZERO IEEE_UNDERFLOW_FLAG IEEE_DENORMAL
Note: The following floating-point exceptions are signalling: IEEE_INVALID_FLAG IEEE_DIVIDE_BY_ZERO IEEE_UNDERFLOW_FLAG IEEE_DENORMAL
Note: The following floating-point exceptions are signalling: IEEE_INVALID_FLAG IEEE_DIVIDE_BY_ZERO IEEE_UNDERFLOW_FLAG IEEE_DENORMAL
Note: The following floating-point exceptions are signalling: IEEE_INVALID_FLAG IEEE_DIVIDE_BY_ZERO IEEE_UNDERFLOW_FLAG IEEE_DENORMAL
Note: The following floating-point exceptions are signalling: IEEE_INVALID_FLAG IEEE_DIVIDE_BY_ZERO IEEE_UNDERFLOW_FLAG IEEE_DENORMAL
Note: The following floating-point exceptions are signalling: IEEE_INVALID_FLAG IEEE_DIVIDE_BY_ZERO IEEE_UNDERFLOW_FLAG IEEE_DENORMAL
Note: The following floating-point exceptions are signalling: IEEE_INVALID_FLAG IEEE_DIVIDE_BY_ZERO IEEE_UNDERFLOW_FLAG IEEE_DENORMAL
Note: The following floating-point exceptions are signalling: IEEE_INVALID_FLAG IEEE_DIVIDE_BY_ZERO IEEE_UNDERFLOW_FLAG IEEE_DENORMAL
Note: The following floating-point exceptions are signalling: IEEE_INVALID_FLAG IEEE_DIVIDE_BY_ZERO IEEE_UNDERFLOW_FLAG IEEE_DENORMAL
Note: The following floating-point exceptions are signalling: IEEE_INVALID_FLAG IEEE_DIVIDE_BY_ZERO IEEE_UNDERFLOW_FLAG IEEE_DENORMAL
Note: The following floating-point exceptions are signalling: IEEE_INVALID_FLAG IEEE_DIVIDE_BY_ZERO IEEE_UNDERFLOW_FLAG IEEE_DENORMAL
Note: The following floating-point exceptions are signalling: IEEE_INVALID_FLAG IEEE_DIVIDE_BY_ZERO IEEE_UNDERFLOW_FLAG IEEE_DENORMAL
Note: The following floating-point exceptions are signalling: IEEE_INVALID_FLAG IEEE_DIVIDE_BY_ZERO IEEE_UNDERFLOW_FLAG IEEE_DENORMAL
Note: The following floating-point exceptions are signalling: IEEE_INVALID_FLAG IEEE_DIVIDE_BY_ZERO IEEE_UNDERFLOW_FLAG IEEE_DENORMAL
Note: The following floating-point exceptions are signalling: IEEE_INVALID_FLAG IEEE_DIVIDE_BY_ZERO IEEE_UNDERFLOW_FLAG IEEE_DENORMAL
Note: The following floating-point exceptions are signalling: IEEE_INVALID_FLAG IEEE_DIVIDE_BY_ZERO IEEE_UNDERFLOW_FLAG IEEE_DENORMAL
Note: The following floating-point exceptions are signalling: IEEE_INVALID_FLAG IEEE_DIVIDE_BY_ZERO IEEE_UNDERFLOW_FLAG IEEE_DENORMAL
Note: The following floating-point exceptions are signalling: IEEE_INVALID_FLAG IEEE_DIVIDE_BY_ZERO IEEE_UNDERFLOW_FLAG IEEE_DENORMAL
Note: The following floating-point exceptions are signalling: IEEE_INVALID_FLAG IEEE_DIVIDE_BY_ZERO IEEE_UNDERFLOW_FLAG IEEE_DENORMAL
Note: The following floating-point exceptions are signalling: IEEE_INVALID_FLAG IEEE_DIVIDE_BY_ZERO IEEE_UNDERFLOW_FLAG IEEE_DENORMAL
Note: The following floating-point exceptions are signalling: IEEE_INVALID_FLAG IEEE_DIVIDE_BY_ZERO IEEE_UNDERFLOW_FLAG IEEE_DENORMAL
Note: The following floating-point exceptions are signalling: IEEE_INVALID_FLAG IEEE_DIVIDE_BY_ZERO IEEE_UNDERFLOW_FLAG IEEE_DENORMAL
Note: The following floating-point exceptions are signalling: IEEE_INVALID_FLAG IEEE_DIVIDE_BY_ZERO IEEE_UNDERFLOW_FLAG IEEE_DENORMAL
Note: The following floating-point exceptions are signalling: IEEE_INVALID_FLAG IEEE_DIVIDE_BY_ZERO IEEE_UNDERFLOW_FLAG IEEE_DENORMAL
Note: The following floating-point exceptions are signalling: IEEE_INVALID_FLAG IEEE_DIVIDE_BY_ZERO IEEE_UNDERFLOW_FLAG IEEE_DENORMAL
Note: The following floating-point exceptions are signalling: IEEE_INVALID_FLAG IEEE_DIVIDE_BY_ZERO IEEE_UNDERFLOW_FLAG IEEE_DENORMAL
Note: The following floating-point exceptions are signalling: IEEE_INVALID_FLAG IEEE_DIVIDE_BY_ZERO IEEE_UNDERFLOW_FLAG IEEE_DENORMAL
Note: The following floating-point exceptions are signalling: IEEE_INVALID_FLAG IEEE_DIVIDE_BY_ZERO IEEE_UNDERFLOW_FLAG IEEE_DENORMAL
Note: The following floating-point exceptions are signalling: IEEE_INVALID_FLAG IEEE_DIVIDE_BY_ZERO IEEE_UNDERFLOW_FLAG IEEE_DENORMAL
Note: The following floating-point exceptions are signalling: IEEE_INVALID_FLAG IEEE_DIVIDE_BY_ZERO IEEE_UNDERFLOW_FLAG IEEE_DENORMAL
Note: The following floating-point exceptions are signalling: IEEE_INVALID_FLAG IEEE_DIVIDE_BY_ZERO IEEE_UNDERFLOW_FLAG IEEE_DENORMAL
Note: The following floating-point exceptions are signalling: IEEE_INVALID_FLAG IEEE_DIVIDE_BY_ZERO IEEE_UNDERFLOW_FLAG IEEE_DENORMAL
Note: The following floating-point exceptions are signalling: IEEE_INVALID_FLAG IEEE_DIVIDE_BY_ZERO IEEE_UNDERFLOW_FLAG IEEE_DENORMAL
Note: The following floating-point exceptions are signalling: IEEE_INVALID_FLAG IEEE_DIVIDE_BY_ZERO IEEE_UNDERFLOW_FLAG IEEE_DENORMAL
Note: The following floating-point exceptions are signalling: IEEE_INVALID_FLAG IEEE_DIVIDE_BY_ZERO IEEE_UNDERFLOW_FLAG IEEE_DENORMAL
Note: The following floating-point exceptions are signalling: IEEE_INVALID_FLAG IEEE_DIVIDE_BY_ZERO IEEE_UNDERFLOW_FLAG IEEE_DENORMAL
Note: The following floating-point exceptions are signalling: IEEE_INVALID_FLAG IEEE_DIVIDE_BY_ZERO IEEE_UNDERFLOW_FLAG IEEE_DENORMAL
Note: The following floating-point exceptions are signalling: IEEE_INVALID_FLAG IEEE_DIVIDE_BY_ZERO IEEE_UNDERFLOW_FLAG IEEE_DENORMAL
Note: The following floating-point exceptions are signalling: IEEE_INVALID_FLAG IEEE_DIVIDE_BY_ZERO IEEE_UNDERFLOW_FLAG IEEE_DENORMAL
Note: The following floating-point exceptions are signalling: IEEE_INVALID_FLAG IEEE_DIVIDE_BY_ZERO IEEE_UNDERFLOW_FLAG IEEE_DENORMAL
Note: The following floating-point exceptions are signalling: IEEE_INVALID_FLAG IEEE_DIVIDE_BY_ZERO IEEE_UNDERFLOW_FLAG IEEE_DENORMAL
Note: The following floating-point exceptions are signalling: IEEE_INVALID_FLAG IEEE_DIVIDE_BY_ZERO IEEE_UNDERFLOW_FLAG IEEE_DENORMAL
Note: The following floating-point exceptions are signalling: IEEE_INVALID_FLAG IEEE_DIVIDE_BY_ZERO IEEE_UNDERFLOW_FLAG IEEE_DENORMAL
Note: The following floating-point exceptions are signalling: IEEE_INVALID_FLAG IEEE_DIVIDE_BY_ZERO IEEE_UNDERFLOW_FLAG IEEE_DENORMAL
Note: The following floating-point exceptions are signalling: IEEE_INVALID_FLAG IEEE_DIVIDE_BY_ZERO IEEE_UNDERFLOW_FLAG IEEE_DENORMAL
Note: The following floating-point exceptions are signalling: IEEE_INVALID_FLAG IEEE_DIVIDE_BY_ZERO IEEE_UNDERFLOW_FLAG IEEE_DENORMAL
Note: The following floating-point exceptions are signalling: IEEE_INVALID_FLAG IEEE_DIVIDE_BY_ZERO IEEE_UNDERFLOW_FLAG IEEE_DENORMAL
Note: The following floating-point exceptions are signalling: IEEE_INVALID_FLAG IEEE_DIVIDE_BY_ZERO IEEE_UNDERFLOW_FLAG IEEE_DENORMAL
Note: The following floating-point exceptions are signalling: IEEE_INVALID_FLAG IEEE_DIVIDE_BY_ZERO IEEE_UNDERFLOW_FLAG IEEE_DENORMAL
Note: The following floating-point exceptions are signalling: IEEE_INVALID_FLAG IEEE_DIVIDE_BY_ZERO IEEE_UNDERFLOW_FLAG IEEE_DENORMAL
Note: The following floating-point exceptions are signalling: IEEE_INVALID_FLAG IEEE_DIVIDE_BY_ZERO IEEE_UNDERFLOW_FLAG IEEE_DENORMAL
Note: The following floating-point exceptions are signalling: IEEE_INVALID_FLAG IEEE_DIVIDE_BY_ZERO IEEE_UNDERFLOW_FLAG IEEE_DENORMAL
Note: The following floating-point exceptions are signalling: IEEE_INVALID_FLAG IEEE_DIVIDE_BY_ZERO IEEE_UNDERFLOW_FLAG IEEE_DENORMAL
Note: The following floating-point exceptions are signalling: IEEE_INVALID_FLAG IEEE_DIVIDE_BY_ZERO IEEE_UNDERFLOW_FLAG IEEE_DENORMAL
Note: The following floating-point exceptions are signalling: IEEE_INVALID_FLAG IEEE_DIVIDE_BY_ZERO IEEE_UNDERFLOW_FLAG IEEE_DENORMAL
Note: The following floating-point exceptions are signalling: IEEE_INVALID_FLAG IEEE_DIVIDE_BY_ZERO IEEE_UNDERFLOW_FLAG IEEE_DENORMAL
Note: The following floating-point exceptions are signalling: IEEE_INVALID_FLAG IEEE_DIVIDE_BY_ZERO IEEE_UNDERFLOW_FLAG IEEE_DENORMAL
Note: The following floating-point exceptions are signalling: IEEE_INVALID_FLAG IEEE_DIVIDE_BY_ZERO IEEE_UNDERFLOW_FLAG IEEE_DENORMAL
Note: The following floating-point exceptions are signalling: IEEE_INVALID_FLAG IEEE_DIVIDE_BY_ZERO IEEE_UNDERFLOW_FLAG IEEE_DENORMAL
Note: The following floating-point exceptions are signalling: IEEE_INVALID_FLAG IEEE_DIVIDE_BY_ZERO IEEE_UNDERFLOW_FLAG IEEE_DENORMAL
Note: The following floating-point exceptions are signalling: IEEE_INVALID_FLAG IEEE_DIVIDE_BY_ZERO IEEE_UNDERFLOW_FLAG IEEE_DENORMAL
Note: The following floating-point exceptions are signalling: IEEE_INVALID_FLAG IEEE_DIVIDE_BY_ZERO IEEE_UNDERFLOW_FLAG IEEE_DENORMAL
Note: The following floating-point exceptions are signalling: IEEE_INVALID_FLAG IEEE_DIVIDE_BY_ZERO IEEE_UNDERFLOW_FLAG IEEE_DENORMAL
Note: The following floating-point exceptions are signalling: IEEE_INVALID_FLAG IEEE_DIVIDE_BY_ZERO IEEE_UNDERFLOW_FLAG IEEE_DENORMAL
Note: The following floating-point exceptions are signalling: IEEE_INVALID_FLAG IEEE_DIVIDE_BY_ZERO IEEE_UNDERFLOW_FLAG IEEE_DENORMAL
Note: The following floating-point exceptions are signalling: IEEE_INVALID_FLAG IEEE_DIVIDE_BY_ZERO IEEE_UNDERFLOW_FLAG IEEE_DENORMAL
Note: The following floating-point exceptions are signalling: IEEE_INVALID_FLAG IEEE_DIVIDE_BY_ZERO IEEE_UNDERFLOW_FLAG IEEE_DENORMAL
Note: The following floating-point exceptions are signalling: IEEE_INVALID_FLAG IEEE_DIVIDE_BY_ZERO IEEE_UNDERFLOW_FLAG IEEE_DENORMAL
Note: The following floating-point exceptions are signalling: IEEE_INVALID_FLAG IEEE_DIVIDE_BY_ZERO IEEE_UNDERFLOW_FLAG IEEE_DENORMAL
Note: The following floating-point exceptions are signalling: IEEE_INVALID_FLAG IEEE_DIVIDE_BY_ZERO IEEE_UNDERFLOW_FLAG IEEE_DENORMAL
Note: The following floating-point exceptions are signalling: IEEE_INVALID_FLAG IEEE_DIVIDE_BY_ZERO IEEE_UNDERFLOW_FLAG IEEE_DENORMAL
Note: The following floating-point exceptions are signalling: IEEE_INVALID_FLAG IEEE_DIVIDE_BY_ZERO IEEE_UNDERFLOW_FLAG IEEE_DENORMAL
Note: The following floating-point exceptions are signalling: IEEE_INVALID_FLAG IEEE_DIVIDE_BY_ZERO IEEE_UNDERFLOW_FLAG IEEE_DENORMAL
Note: The following floating-point exceptions are signalling: IEEE_INVALID_FLAG IEEE_DIVIDE_BY_ZERO IEEE_UNDERFLOW_FLAG IEEE_DENORMAL
Note: The following floating-point exceptions are signalling: IEEE_INVALID_FLAG IEEE_DIVIDE_BY_ZERO IEEE_UNDERFLOW_FLAG IEEE_DENORMAL
Note: The following floating-point exceptions are signalling: IEEE_INVALID_FLAG IEEE_DIVIDE_BY_ZERO IEEE_UNDERFLOW_FLAG IEEE_DENORMAL
Note: The following floating-point exceptions are signalling: IEEE_INVALID_FLAG IEEE_DIVIDE_BY_ZERO IEEE_UNDERFLOW_FLAG IEEE_DENORMAL
Note: The following floating-point exceptions are signalling: IEEE_INVALID_FLAG IEEE_DIVIDE_BY_ZERO IEEE_UNDERFLOW_FLAG IEEE_DENORMAL
Note: The following floating-point exceptions are signalling: IEEE_INVALID_FLAG IEEE_DIVIDE_BY_ZERO IEEE_UNDERFLOW_FLAG IEEE_DENORMAL
Note: The following floating-point exceptions are signalling: IEEE_INVALID_FLAG IEEE_DIVIDE_BY_ZERO IEEE_UNDERFLOW_FLAG IEEE_DENORMAL
