  99  99   0   0
  0.1430410E+02  0.1177748E-08  0.1177748E-08  0.1058004E-08  0.5000000E-15
  1.000000000000000E-004
  CAR 
 unknown system                          
     17.95304804    -54.33985490  301      5.24154594      1.00000000
    -54.340  0.0000E+00  0.0000E+00  0.0000E+00  0.0000E+00
    -54.099  0.0000E+00  0.0000E+00  0.0000E+00  0.0000E+00
    -53.858  0.0000E+00  0.0000E+00  0.0000E+00  0.0000E+00
    -53.617  0.0000E+00  0.0000E+00  0.0000E+00  0.0000E+00
    -53.376  0.0000E+00  0.0000E+00  0.0000E+00  0.0000E+00
    -53.135  0.0000E+00  0.0000E+00  0.0000E+00  0.0000E+00
    -52.894  0.0000E+00  0.0000E+00  0.0000E+00  0.0000E+00
    -52.653  0.0000E+00  0.0000E+00  0.0000E+00  0.0000E+00
    -52.412  0.0000E+00  0.0000E+00  0.0000E+00  0.0000E+00
    -52.171  0.0000E+00  0.0000E+00  0.0000E+00  0.0000E+00
    -51.930  0.0000E+00  0.0000E+00  0.0000E+00  0.0000E+00
    -51.689  0.0000E+00  0.0000E+00  0.0000E+00  0.0000E+00
    -51.448  0.0000E+00  0.0000E+00  0.0000E+00  0.0000E+00
    -51.207  0.3497E-03  0.0000E+00  0.8428E-04  0.0000E+00
    -50.966  0.1469E+03  0.0000E+00  0.3540E+02  0.0000E+00
    -50.725  0.2501E+01  0.0000E+00  0.3600E+02  0.0000E+00
    -50.484  0.0000E+00  0.0000E+00  0.3600E+02  0.0000E+00
    -50.243  0.0000E+00  0.0000E+00  0.3600E+02  0.0000E+00
    -50.002  0.0000E+00  0.0000E+00  0.3600E+02  0.0000E+00
    -49.761  0.1546E+01  0.0000E+00  0.3637E+02  0.0000E+00
    -49.520  0.2688E+03  0.0000E+00  0.1011E+03  0.0000E+00
    -49.279  0.2845E+02  0.0000E+00  0.1080E+03  0.0000E+00
    -49.038  0.0000E+00  0.0000E+00  0.1080E+03  0.0000E+00
    -48.797  0.0000E+00  0.0000E+00  0.1080E+03  0.0000E+00
    -48.556  0.0000E+00  0.0000E+00  0.1080E+03  0.0000E+00
    -48.315  0.0000E+00  0.0000E+00  0.1080E+03  0.0000E+00
    -48.074  0.0000E+00  0.0000E+00  0.1080E+03  0.0000E+00
    -47.833  0.0000E+00  0.0000E+00  0.1080E+03  0.0000E+00
    -47.593  0.0000E+00  0.0000E+00  0.1080E+03  0.0000E+00
    -47.352  0.0000E+00  0.0000E+00  0.1080E+03  0.0000E+00
    -47.111  0.0000E+00  0.0000E+00  0.1080E+03  0.0000E+00
    -46.870  0.0000E+00  0.0000E+00  0.1080E+03  0.0000E+00
    -46.629  0.0000E+00  0.0000E+00  0.1080E+03  0.0000E+00
    -46.388  0.0000E+00  0.3270E+00  0.1080E+03  0.7880E-01
    -46.147  0.0000E+00  0.1490E+03  0.1080E+03  0.3599E+02
    -45.906  0.0000E+00  0.6786E+02  0.1080E+03  0.5234E+02
    -45.665  0.0000E+00  0.2310E+03  0.1080E+03  0.1080E+03
    -45.424  0.0000E+00  0.0000E+00  0.1080E+03  0.1080E+03
    -45.183  0.0000E+00  0.0000E+00  0.1080E+03  0.1080E+03
    -44.942  0.0000E+00  0.0000E+00  0.1080E+03  0.1080E+03
    -44.701  0.0000E+00  0.0000E+00  0.1080E+03  0.1080E+03
    -44.460  0.0000E+00  0.0000E+00  0.1080E+03  0.1080E+03
    -44.219  0.0000E+00  0.0000E+00  0.1080E+03  0.1080E+03
    -43.978  0.0000E+00  0.0000E+00  0.1080E+03  0.1080E+03
    -43.737  0.0000E+00  0.0000E+00  0.1080E+03  0.1080E+03
    -43.496  0.0000E+00  0.0000E+00  0.1080E+03  0.1080E+03
    -43.255  0.0000E+00  0.0000E+00  0.1080E+03  0.1080E+03
    -43.014  0.0000E+00  0.0000E+00  0.1080E+03  0.1080E+03
    -42.773  0.0000E+00  0.0000E+00  0.1080E+03  0.1080E+03
    -42.532  0.0000E+00  0.0000E+00  0.1080E+03  0.1080E+03
    -42.291  0.0000E+00  0.0000E+00  0.1080E+03  0.1080E+03
    -42.050  0.0000E+00  0.0000E+00  0.1080E+03  0.1080E+03
    -41.809  0.0000E+00  0.0000E+00  0.1080E+03  0.1080E+03
    -41.568  0.0000E+00  0.0000E+00  0.1080E+03  0.1080E+03
    -41.327  0.0000E+00  0.0000E+00  0.1080E+03  0.1080E+03
    -41.086  0.0000E+00  0.0000E+00  0.1080E+03  0.1080E+03
    -40.845  0.0000E+00  0.0000E+00  0.1080E+03  0.1080E+03
    -40.604  0.0000E+00  0.0000E+00  0.1080E+03  0.1080E+03
    -40.363  0.0000E+00  0.0000E+00  0.1080E+03  0.1080E+03
    -40.122  0.8379E-11  0.5386E-11  0.1080E+03  0.1080E+03
    -39.881  0.2247E+02  0.2096E+02  0.1134E+03  0.1131E+03
    -39.640  0.5223E+02  0.5374E+02  0.1260E+03  0.1260E+03
    -39.399  0.0000E+00  0.0000E+00  0.1260E+03  0.1260E+03
    -39.158  0.0000E+00  0.0000E+00  0.1260E+03  0.1260E+03
    -38.917  0.0000E+00  0.0000E+00  0.1260E+03  0.1260E+03
    -38.676  0.0000E+00  0.0000E+00  0.1260E+03  0.1260E+03
    -38.435  0.0000E+00  0.0000E+00  0.1260E+03  0.1260E+03
    -38.194  0.0000E+00  0.0000E+00  0.1260E+03  0.1260E+03
    -37.953  0.0000E+00  0.0000E+00  0.1260E+03  0.1260E+03
    -37.712  0.0000E+00  0.0000E+00  0.1260E+03  0.1260E+03
    -37.472  0.0000E+00  0.0000E+00  0.1260E+03  0.1260E+03
    -37.231  0.0000E+00  0.0000E+00  0.1260E+03  0.1260E+03
    -36.990  0.0000E+00  0.0000E+00  0.1260E+03  0.1260E+03
    -36.749  0.0000E+00  0.0000E+00  0.1260E+03  0.1260E+03
    -36.508  0.0000E+00  0.0000E+00  0.1260E+03  0.1260E+03
    -36.267  0.0000E+00  0.0000E+00  0.1260E+03  0.1260E+03
    -36.026  0.0000E+00  0.0000E+00  0.1260E+03  0.1260E+03
    -35.785  0.0000E+00  0.0000E+00  0.1260E+03  0.1260E+03
    -35.544  0.0000E+00  0.0000E+00  0.1260E+03  0.1260E+03
    -35.303  0.0000E+00  0.0000E+00  0.1260E+03  0.1260E+03
    -35.062  0.0000E+00  0.0000E+00  0.1260E+03  0.1260E+03
    -34.821  0.0000E+00  0.0000E+00  0.1260E+03  0.1260E+03
    -34.580  0.0000E+00  0.0000E+00  0.1260E+03  0.1260E+03
    -34.339  0.0000E+00  0.0000E+00  0.1260E+03  0.1260E+03
    -34.098  0.0000E+00  0.0000E+00  0.1260E+03  0.1260E+03
    -33.857  0.0000E+00  0.0000E+00  0.1260E+03  0.1260E+03
    -33.616  0.0000E+00  0.0000E+00  0.1260E+03  0.1260E+03
    -33.375  0.0000E+00  0.0000E+00  0.1260E+03  0.1260E+03
    -33.134  0.0000E+00  0.0000E+00  0.1260E+03  0.1260E+03
    -32.893  0.0000E+00  0.0000E+00  0.1260E+03  0.1260E+03
    -32.652  0.0000E+00  0.0000E+00  0.1260E+03  0.1260E+03
    -32.411  0.0000E+00  0.0000E+00  0.1260E+03  0.1260E+03
    -32.170  0.0000E+00  0.0000E+00  0.1260E+03  0.1260E+03
    -31.929  0.0000E+00  0.0000E+00  0.1260E+03  0.1260E+03
    -31.688  0.0000E+00  0.0000E+00  0.1260E+03  0.1260E+03
    -31.447  0.0000E+00  0.0000E+00  0.1260E+03  0.1260E+03
    -31.206  0.0000E+00  0.0000E+00  0.1260E+03  0.1260E+03
    -30.965  0.0000E+00  0.0000E+00  0.1260E+03  0.1260E+03
    -30.724  0.0000E+00  0.0000E+00  0.1260E+03  0.1260E+03
    -30.483  0.0000E+00  0.0000E+00  0.1260E+03  0.1260E+03
    -30.242  0.0000E+00  0.0000E+00  0.1260E+03  0.1260E+03
    -30.001  0.0000E+00  0.0000E+00  0.1260E+03  0.1260E+03
    -29.760  0.0000E+00  0.0000E+00  0.1260E+03  0.1260E+03
    -29.519  0.0000E+00  0.0000E+00  0.1260E+03  0.1260E+03
    -29.278  0.0000E+00  0.0000E+00  0.1260E+03  0.1260E+03
    -29.037  0.0000E+00  0.0000E+00  0.1260E+03  0.1260E+03
    -28.796  0.0000E+00  0.0000E+00  0.1260E+03  0.1260E+03
    -28.555  0.0000E+00  0.0000E+00  0.1260E+03  0.1260E+03
    -28.314  0.0000E+00  0.0000E+00  0.1260E+03  0.1260E+03
    -28.073  0.0000E+00  0.0000E+00  0.1260E+03  0.1260E+03
    -27.832  0.0000E+00  0.0000E+00  0.1260E+03  0.1260E+03
    -27.591  0.0000E+00  0.0000E+00  0.1260E+03  0.1260E+03
    -27.351  0.0000E+00  0.0000E+00  0.1260E+03  0.1260E+03
    -27.110  0.0000E+00  0.0000E+00  0.1260E+03  0.1260E+03
    -26.869  0.0000E+00  0.0000E+00  0.1260E+03  0.1260E+03
    -26.628  0.0000E+00  0.0000E+00  0.1260E+03  0.1260E+03
    -26.387  0.0000E+00  0.0000E+00  0.1260E+03  0.1260E+03
    -26.146  0.0000E+00  0.0000E+00  0.1260E+03  0.1260E+03
    -25.905  0.0000E+00  0.0000E+00  0.1260E+03  0.1260E+03
    -25.664  0.0000E+00  0.0000E+00  0.1260E+03  0.1260E+03
    -25.423  0.0000E+00  0.0000E+00  0.1260E+03  0.1260E+03
    -25.182  0.0000E+00  0.0000E+00  0.1260E+03  0.1260E+03
    -24.941  0.0000E+00  0.0000E+00  0.1260E+03  0.1260E+03
    -24.700  0.0000E+00  0.0000E+00  0.1260E+03  0.1260E+03
    -24.459  0.0000E+00  0.0000E+00  0.1260E+03  0.1260E+03
    -24.218  0.0000E+00  0.0000E+00  0.1260E+03  0.1260E+03
    -23.977  0.0000E+00  0.0000E+00  0.1260E+03  0.1260E+03
    -23.736  0.0000E+00  0.0000E+00  0.1260E+03  0.1260E+03
    -23.495  0.0000E+00  0.0000E+00  0.1260E+03  0.1260E+03
    -23.254  0.0000E+00  0.0000E+00  0.1260E+03  0.1260E+03
    -23.013  0.0000E+00  0.0000E+00  0.1260E+03  0.1260E+03
    -22.772  0.0000E+00  0.0000E+00  0.1260E+03  0.1260E+03
    -22.531  0.0000E+00  0.0000E+00  0.1260E+03  0.1260E+03
    -22.290  0.0000E+00  0.0000E+00  0.1260E+03  0.1260E+03
    -22.049  0.0000E+00  0.0000E+00  0.1260E+03  0.1260E+03
    -21.808  0.0000E+00  0.0000E+00  0.1260E+03  0.1260E+03
    -21.567  0.0000E+00  0.0000E+00  0.1260E+03  0.1260E+03
    -21.326  0.0000E+00  0.0000E+00  0.1260E+03  0.1260E+03
    -21.085  0.0000E+00  0.0000E+00  0.1260E+03  0.1260E+03
    -20.844  0.0000E+00  0.0000E+00  0.1260E+03  0.1260E+03
    -20.603  0.0000E+00  0.0000E+00  0.1260E+03  0.1260E+03
    -20.362  0.0000E+00  0.0000E+00  0.1260E+03  0.1260E+03
    -20.121  0.0000E+00  0.0000E+00  0.1260E+03  0.1260E+03
    -19.880  0.0000E+00  0.0000E+00  0.1260E+03  0.1260E+03
    -19.639  0.0000E+00  0.0000E+00  0.1260E+03  0.1260E+03
    -19.398  0.0000E+00  0.0000E+00  0.1260E+03  0.1260E+03
    -19.157  0.0000E+00  0.0000E+00  0.1260E+03  0.1260E+03
    -18.916  0.0000E+00  0.0000E+00  0.1260E+03  0.1260E+03
    -18.675  0.0000E+00  0.0000E+00  0.1260E+03  0.1260E+03
    -18.434  0.0000E+00  0.0000E+00  0.1260E+03  0.1260E+03
    -18.193  0.0000E+00  0.0000E+00  0.1260E+03  0.1260E+03
    -17.952  0.0000E+00  0.0000E+00  0.1260E+03  0.1260E+03
    -17.711  0.0000E+00  0.0000E+00  0.1260E+03  0.1260E+03
    -17.470  0.0000E+00  0.0000E+00  0.1260E+03  0.1260E+03
    -17.229  0.0000E+00  0.0000E+00  0.1260E+03  0.1260E+03
    -16.989  0.0000E+00  0.0000E+00  0.1260E+03  0.1260E+03
    -16.748  0.0000E+00  0.0000E+00  0.1260E+03  0.1260E+03
    -16.507  0.0000E+00  0.0000E+00  0.1260E+03  0.1260E+03
    -16.266  0.0000E+00  0.0000E+00  0.1260E+03  0.1260E+03
    -16.025  0.0000E+00  0.0000E+00  0.1260E+03  0.1260E+03
    -15.784  0.0000E+00  0.0000E+00  0.1260E+03  0.1260E+03
    -15.543  0.0000E+00  0.0000E+00  0.1260E+03  0.1260E+03
    -15.302  0.0000E+00  0.0000E+00  0.1260E+03  0.1260E+03
    -15.061  0.0000E+00  0.0000E+00  0.1260E+03  0.1260E+03
    -14.820  0.0000E+00  0.0000E+00  0.1260E+03  0.1260E+03
    -14.579  0.0000E+00  0.0000E+00  0.1260E+03  0.1260E+03
    -14.338  0.0000E+00  0.0000E+00  0.1260E+03  0.1260E+03
    -14.097  0.0000E+00  0.0000E+00  0.1260E+03  0.1260E+03
    -13.856  0.0000E+00  0.0000E+00  0.1260E+03  0.1260E+03
    -13.615  0.0000E+00  0.0000E+00  0.1260E+03  0.1260E+03
    -13.374  0.2960E-03  0.0000E+00  0.1260E+03  0.1260E+03
    -13.133  0.3117E+02  0.0000E+00  0.1335E+03  0.1260E+03
    -12.892  0.4335E+02  0.2993E+00  0.1440E+03  0.1261E+03
    -12.651  0.1741E+00  0.5954E+02  0.1440E+03  0.1404E+03
    -12.410  0.0000E+00  0.1485E+02  0.1440E+03  0.1440E+03
    -12.169  0.0000E+00  0.0000E+00  0.1440E+03  0.1440E+03
    -11.928  0.0000E+00  0.0000E+00  0.1440E+03  0.1440E+03
    -11.687  0.0000E+00  0.0000E+00  0.1440E+03  0.1440E+03
    -11.446  0.0000E+00  0.0000E+00  0.1440E+03  0.1440E+03
    -11.205  0.0000E+00  0.0000E+00  0.1440E+03  0.1440E+03
    -10.964  0.0000E+00  0.0000E+00  0.1440E+03  0.1440E+03
    -10.723  0.0000E+00  0.0000E+00  0.1440E+03  0.1440E+03
    -10.482  0.0000E+00  0.0000E+00  0.1440E+03  0.1440E+03
    -10.241  0.0000E+00  0.0000E+00  0.1440E+03  0.1440E+03
    -10.000  0.0000E+00  0.0000E+00  0.1440E+03  0.1440E+03
     -9.759  0.0000E+00  0.0000E+00  0.1440E+03  0.1440E+03
     -9.518  0.0000E+00  0.0000E+00  0.1440E+03  0.1440E+03
     -9.277  0.0000E+00  0.0000E+00  0.1440E+03  0.1440E+03
     -9.036  0.0000E+00  0.0000E+00  0.1440E+03  0.1440E+03
     -8.795  0.0000E+00  0.0000E+00  0.1440E+03  0.1440E+03
     -8.554  0.0000E+00  0.0000E+00  0.1440E+03  0.1440E+03
     -8.313  0.0000E+00  0.0000E+00  0.1440E+03  0.1440E+03
     -8.072  0.0000E+00  0.0000E+00  0.1440E+03  0.1440E+03
     -7.831  0.7014E-10  0.0000E+00  0.1440E+03  0.1440E+03
     -7.590  0.6464E+00  0.9184E-11  0.1442E+03  0.1440E+03
     -7.349  0.1769E+02  0.5474E+00  0.1484E+03  0.1441E+03
     -7.108  0.3219E+02  0.1958E+02  0.1562E+03  0.1489E+03
     -6.868  0.3444E+02  0.3076E+02  0.1645E+03  0.1563E+03
     -6.627  0.2709E+02  0.2554E+02  0.1710E+03  0.1624E+03
     -6.386  0.5702E-04  0.3552E+02  0.1710E+03  0.1710E+03
     -6.145  0.0000E+00  0.8636E-01  0.1710E+03  0.1710E+03
     -5.904  0.0000E+00  0.0000E+00  0.1710E+03  0.1710E+03
     -5.663  0.0000E+00  0.0000E+00  0.1710E+03  0.1710E+03
     -5.422  0.0000E+00  0.0000E+00  0.1710E+03  0.1710E+03
     -5.181  0.0000E+00  0.0000E+00  0.1710E+03  0.1710E+03
     -4.940  0.0000E+00  0.0000E+00  0.1710E+03  0.1710E+03
     -4.699  0.0000E+00  0.0000E+00  0.1710E+03  0.1710E+03
     -4.458  0.0000E+00  0.0000E+00  0.1710E+03  0.1710E+03
     -4.217  0.0000E+00  0.0000E+00  0.1710E+03  0.1710E+03
     -3.976  0.0000E+00  0.0000E+00  0.1710E+03  0.1710E+03
     -3.735  0.0000E+00  0.0000E+00  0.1710E+03  0.1710E+03
     -3.494  0.0000E+00  0.0000E+00  0.1710E+03  0.1710E+03
     -3.253  0.0000E+00  0.0000E+00  0.1710E+03  0.1710E+03
     -3.012  0.0000E+00  0.0000E+00  0.1710E+03  0.1710E+03
     -2.771  0.0000E+00  0.0000E+00  0.1710E+03  0.1710E+03
     -2.530  0.0000E+00  0.0000E+00  0.1710E+03  0.1710E+03
     -2.289  0.0000E+00  0.0000E+00  0.1710E+03  0.1710E+03
     -2.048  0.1086E-01  0.0000E+00  0.1710E+03  0.1710E+03
     -1.807  0.2436E+02  0.0000E+00  0.1769E+03  0.1710E+03
     -1.566  0.1877E+02  0.0000E+00  0.1814E+03  0.1710E+03
     -1.325  0.1465E+02  0.0000E+00  0.1849E+03  0.1710E+03
     -1.084  0.2350E+02  0.0000E+00  0.1906E+03  0.1710E+03
     -0.843  0.5656E+02  0.0000E+00  0.2042E+03  0.1710E+03
     -0.602  0.6240E+02  0.2908E-03  0.2193E+03  0.1710E+03
     -0.361  0.3984E+02  0.9370E+01  0.2289E+03  0.1733E+03
     -0.120  0.8214E+02  0.2140E+02  0.2486E+03  0.1784E+03
      0.121  0.8902E+02  0.1308E+02  0.2701E+03  0.1816E+03
      0.362  0.8352E+02  0.2368E+02  0.2902E+03  0.1873E+03
      0.603  0.7273E+02  0.3122E+02  0.3078E+03  0.1948E+03
      0.844  0.6114E+02  0.4777E+02  0.3225E+03  0.2063E+03
      1.085  0.3932E+02  0.4073E+02  0.3320E+03  0.2161E+03
      1.326  0.3546E+02  0.3348E+02  0.3405E+03  0.2242E+03
      1.567  0.5056E+02  0.2440E+02  0.3527E+03  0.2301E+03
      1.808  0.5299E+02  0.3287E+02  0.3655E+03  0.2380E+03
      2.049  0.7554E+02  0.4092E+02  0.3837E+03  0.2479E+03
      2.290  0.6441E+02  0.2794E+02  0.3992E+03  0.2546E+03
      2.531  0.3154E+02  0.2941E+02  0.4068E+03  0.2617E+03
      2.772  0.5080E+02  0.3931E+02  0.4190E+03  0.2711E+03
      3.013  0.2453E+02  0.4588E+02  0.4249E+03  0.2822E+03
      3.253  0.9863E+01  0.4828E+02  0.4273E+03  0.2938E+03
      3.494  0.3874E+02  0.4147E+02  0.4366E+03  0.3038E+03
      3.735  0.2574E+02  0.7224E+01  0.4429E+03  0.3056E+03
      3.976  0.3703E+02  0.2233E+02  0.4518E+03  0.3110E+03
      4.217  0.3916E+02  0.7345E+02  0.4612E+03  0.3287E+03
      4.458  0.3827E+02  0.4439E+02  0.4704E+03  0.3393E+03
      4.699  0.3612E+02  0.1100E+02  0.4791E+03  0.3420E+03
      4.940  0.2510E+02  0.3272E-05  0.4852E+03  0.3420E+03
      5.181  0.3384E+01  0.0000E+00  0.4860E+03  0.3420E+03
      5.422  0.0000E+00  0.0000E+00  0.4860E+03  0.3420E+03
      5.663  0.0000E+00  0.0000E+00  0.4860E+03  0.3420E+03
      5.904  0.0000E+00  0.0000E+00  0.4860E+03  0.3420E+03
      6.145  0.0000E+00  0.9175E-09  0.4860E+03  0.3420E+03
      6.386  0.0000E+00  0.1333E+01  0.4860E+03  0.3423E+03
      6.627  0.0000E+00  0.5076E+01  0.4860E+03  0.3435E+03
      6.868  0.0000E+00  0.1016E+02  0.4860E+03  0.3460E+03
      7.109  0.3869E-13  0.2052E+02  0.4860E+03  0.3509E+03
      7.350  0.5248E-01  0.6046E+02  0.4860E+03  0.3655E+03
      7.591  0.1012E+00  0.6105E+02  0.4860E+03  0.3802E+03
      7.832  0.5860E+00  0.6288E+02  0.4862E+03  0.3954E+03
      8.073  0.5987E+00  0.7497E+02  0.4863E+03  0.4134E+03
      8.314  0.2442E+01  0.7979E+02  0.4869E+03  0.4327E+03
      8.555  0.4585E+01  0.6950E+02  0.4880E+03  0.4494E+03
      8.796  0.9630E+01  0.6601E+02  0.4903E+03  0.4653E+03
      9.037  0.1493E+02  0.4628E+02  0.4939E+03  0.4765E+03
      9.278  0.1623E+02  0.3278E+02  0.4978E+03  0.4844E+03
      9.519  0.1963E+02  0.8829E+01  0.5026E+03  0.4865E+03
      9.760  0.1586E+02  0.5682E+01  0.5064E+03  0.4879E+03
     10.001  0.2429E+02  0.1153E+02  0.5123E+03  0.4906E+03
     10.242  0.1666E+02  0.1666E+02  0.5163E+03  0.4947E+03
     10.483  0.2190E+02  0.2374E+02  0.5215E+03  0.5004E+03
     10.724  0.1415E+02  0.2199E+02  0.5250E+03  0.5057E+03
     10.965  0.1516E+02  0.2233E+02  0.5286E+03  0.5111E+03
     11.206  0.2220E+02  0.3152E+02  0.5340E+03  0.5187E+03
     11.447  0.3249E+02  0.2005E+02  0.5418E+03  0.5235E+03
     11.688  0.2862E+02  0.1831E+02  0.5487E+03  0.5279E+03
     11.929  0.3310E+02  0.1168E+02  0.5567E+03  0.5307E+03
     12.170  0.3632E+02  0.2497E+02  0.5654E+03  0.5367E+03
     12.411  0.2200E+02  0.4500E+02  0.5707E+03  0.5476E+03
     12.652  0.1976E+02  0.3524E+02  0.5755E+03  0.5561E+03
     12.893  0.2529E+02  0.3257E+02  0.5816E+03  0.5639E+03
     13.134  0.2583E+02  0.2054E+02  0.5878E+03  0.5689E+03
     13.374  0.2837E+02  0.2400E+02  0.5946E+03  0.5747E+03
     13.615  0.2516E+02  0.3310E+02  0.6007E+03  0.5826E+03
     13.856  0.1834E+02  0.2633E+02  0.6051E+03  0.5890E+03
     14.097  0.3678E+01  0.2623E+02  0.6060E+03  0.5953E+03
     14.338  0.2420E-03  0.2294E+02  0.6060E+03  0.6008E+03
     14.579  0.0000E+00  0.1931E+02  0.6060E+03  0.6055E+03
     14.820  0.0000E+00  0.2166E+01  0.6060E+03  0.6060E+03
     15.061  0.0000E+00  0.2216E-05  0.6060E+03  0.6060E+03
     15.302  0.0000E+00  0.0000E+00  0.6060E+03  0.6060E+03
     15.543  0.0000E+00  0.0000E+00  0.6060E+03  0.6060E+03
     15.784  0.0000E+00  0.0000E+00  0.6060E+03  0.6060E+03
     16.025  0.0000E+00  0.0000E+00  0.6060E+03  0.6060E+03
     16.266  0.0000E+00  0.0000E+00  0.6060E+03  0.6060E+03
     16.507  0.0000E+00  0.0000E+00  0.6060E+03  0.6060E+03
     16.748  0.0000E+00  0.0000E+00  0.6060E+03  0.6060E+03
     16.989  0.0000E+00  0.0000E+00  0.6060E+03  0.6060E+03
     17.230  0.0000E+00  0.0000E+00  0.6060E+03  0.6060E+03
     17.471  0.0000E+00  0.0000E+00  0.6060E+03  0.6060E+03
     17.712  0.0000E+00  0.0000E+00  0.6060E+03  0.6060E+03
     17.953  0.0000E+00  0.0000E+00  0.6060E+03  0.6060E+03
