<?xml version="1.0" encoding="ISO-8859-1"?>
<modeling>
 <generator>
  <i name="program" type="string">vasp </i>
  <i name="version" type="string">5.4.4.18Apr17-6-g9f103f2a35  </i>
  <i name="subversion" type="string">(build Oct 25 2017 14:42:18) complex            parallel </i>
  <i name="platform" type="string">LinuxIFC </i>
  <i name="date" type="string">2021 05 28 </i>
  <i name="time" type="string">05:17:08 </i>
 </generator>
 <incar>
  <i type="string" name="PREC">accurate</i>
  <i type="string" name="ALGO"> normal</i>
  <i type="logical" name="ADDGRID"> T  </i>
  <i type="int" name="ISPIN">     2</i>
  <i type="int" name="ICHARG">     1</i>
  <i type="int" name="NELM">   200</i>
  <i type="int" name="NELMIN">     8</i>
  <i name="EDIFF">      0.00000100</i>
  <i type="int" name="ISYM">     0</i>
  <i name="ENCUT">    650.00000000</i>
  <v name="MAGMOM">      0.60000000      0.60000000      0.60000000      0.60000000      0.60000000      0.60000000      0.60000000      0.60000000      0.60000000      0.60000000      0.60000000      0.60000000      0.60000000      0.60000000      0.60000000      0.60000000      0.60000000      0.60000000      0.60000000      0.60000000
      0.60000000      0.60000000      0.60000000      0.60000000      0.60000000      0.60000000      0.60000000      0.60000000      0.60000000      0.60000000      0.60000000      0.60000000      0.60000000      0.60000000      0.60000000      0.60000000      0.60000000      0.60000000      0.60000000      0.60000000
      0.60000000      0.60000000      0.60000000      0.60000000      0.60000000      0.60000000      0.60000000      0.60000000      0.60000000      0.60000000      0.60000000      0.60000000      0.60000000      0.60000000      0.60000000      0.60000000      0.60000000      0.60000000      0.60000000      0.60000000
      0.60000000      0.60000000      0.60000000      5.00000000      5.00000000      5.00000000      5.00000000      5.00000000      5.00000000      5.00000000      5.00000000      5.00000000      5.00000000      5.00000000      5.00000000      5.00000000      5.00000000      5.00000000      5.00000000      5.00000000
      5.00000000      5.00000000      5.00000000      5.00000000      5.00000000      5.00000000      5.00000000      5.00000000      5.00000000      5.00000000      5.00000000      5.00000000      5.00000000      5.00000000      5.00000000      5.00000000      5.00000000      5.00000000      5.00000000</v>
  <i type="logical" name="LREAL"> F  </i>
  <i type="int" name="ISMEAR">     0</i>
  <i name="SIGMA">      0.05000000</i>
  <i type="int" name="NWRITE">     1</i>
  <i type="int" name="LMAXMIX">     4</i>
  <i type="logical" name="LWAVE"> F  </i>
  <i type="logical" name="LASPH"> T  </i>
  <v type="int" name="KPOINT_BSE">    -1     0     0     0</v>
  <i type="int" name="NELM">   200</i>
  <i type="string" name="GGA"> pe</i>
  <i type="logical" name="LDAU"> T  </i>
  <v type="int" name="LDAUTYPE">     2</v>
  <v type="int" name="LDAUL">    -1    -1    -1     2</v>
  <v name="LDAUU">      0.00000000      0.00000000      0.00000000      4.00000000</v>
  <v name="LDAUJ">      0.00000000      0.00000000      0.00000000      0.00000000</v>
  <i type="logical" name="LASPH"> T  </i>
 </incar>
 <structure name="primitive_cell" >
  <crystal>
   <varray name="basis" >
    <v>      11.77726974       0.00848871       0.06923316 </v>
    <v>      -0.03028248      11.77723386       0.06923316 </v>
    <v>      -2.02000231      -2.02666320      10.18574622 </v>
   </varray>
   <i name="volume">   1416.10551572 </i>
   <varray name="rec_basis" >
    <v>       0.08481023       0.00011906       0.01684296 </v>
    <v>      -0.00016014       0.08481016       0.01684296 </v>
    <v>      -0.00057537      -0.00057727       0.09794744 </v>
   </varray>
  </crystal>
  <varray name="positions" >
   <v>       0.20224939       0.24206952      -0.16816581 </v>
   <v>       0.19734517       0.40355659      -0.19686089 </v>
   <v>       0.19734517       0.07022326      -0.19686089 </v>
   <v>       0.39684232       0.26982435       0.00000000 </v>
   <v>       0.06350899       0.26982435       0.00000000 </v>
   <v>       0.37094724       0.41064640      -0.15457223 </v>
   <v>       0.03761391       0.41064640      -0.15457223 </v>
   <v>       0.03761391       0.07731307      -0.15457223 </v>
   <v>       0.37094724       0.07731307      -0.15457223 </v>
   <v>       0.00169027       0.20657296      -0.37079665 </v>
   <v>       0.33587268       0.20657296      -0.37079665 </v>
   <v>       0.16118393       0.04306059      -0.39352170 </v>
   <v>       0.16118393       0.37639393      -0.39352170 </v>
   <v>       0.25602027       0.29571943       0.15457223 </v>
   <v>       0.20224939      -0.42459715      -0.16816581 </v>
   <v>       0.20224939      -0.09126381      -0.16816581 </v>
   <v>      -0.13108394       0.24206952      -0.16816581 </v>
   <v>      -0.46441728       0.24206952      -0.16816581 </v>
   <v>       0.26311007       0.46932149       0.19686089 </v>
   <v>       0.26311007       0.13598816       0.19686089 </v>
   <v>      -0.46932149       0.40355659      -0.19686089 </v>
   <v>      -0.13598816       0.07022326      -0.19686089 </v>
   <v>      -0.13598816       0.40355659      -0.19686089 </v>
   <v>      -0.46932149       0.07022326      -0.19686089 </v>
   <v>       0.42459715       0.46441728       0.16816581 </v>
   <v>       0.42459715       0.13108394       0.16816581 </v>
   <v>       0.09126381       0.46441728       0.16816581 </v>
   <v>       0.09126381       0.13108394       0.16816581 </v>
   <v>       0.39684232      -0.39684232       0.00000000 </v>
   <v>       0.06350899      -0.39684232       0.00000000 </v>
   <v>       0.06350899      -0.06350899       0.00000000 </v>
   <v>       0.39684232      -0.06350899       0.00000000 </v>
   <v>       0.00253935      -0.46009370      -0.37079665 </v>
   <v>       0.33587268      -0.46009370      -0.37079665 </v>
   <v>       0.29027274       0.17214940       0.39352170 </v>
   <v>       0.00253935      -0.12676037      -0.37079665 </v>
   <v>       0.33587268      -0.12676037      -0.37079665 </v>
   <v>       0.49451727       0.04306059      -0.39352170 </v>
   <v>      -0.04306059       0.17214940       0.39352170 </v>
   <v>       0.49451727       0.37639393      -0.39352170 </v>
   <v>      -0.17214940       0.04306059      -0.39352170 </v>
   <v>      -0.17214940       0.37639393      -0.39352170 </v>
   <v>       0.12676037       0.33079399       0.37079665 </v>
   <v>       0.12676037      -0.00253935       0.37079665 </v>
   <v>       0.25602027      -0.37094724       0.15457223 </v>
   <v>      -0.41064640       0.29571943       0.15457223 </v>
   <v>      -0.07731307       0.29571943       0.15457223 </v>
   <v>       0.25602027      -0.03761391       0.15457223 </v>
   <v>      -0.46441728      -0.42459715      -0.16816581 </v>
   <v>      -0.13108394      -0.09126381      -0.16816581 </v>
   <v>      -0.13108394      -0.42459715      -0.16816581 </v>
   <v>      -0.46441728      -0.09126381      -0.16816581 </v>
   <v>      -0.40355659       0.46932149       0.19686089 </v>
   <v>      -0.07022326       0.13598816       0.19686089 </v>
   <v>      -0.07022326       0.46932149       0.19686089 </v>
   <v>      -0.40355659       0.13598816       0.19686089 </v>
   <v>       0.46009370       0.33079399       0.37079665 </v>
   <v>       0.19734517      -0.26311007      -0.19686089 </v>
   <v>       0.29027274      -0.49451727       0.39352170 </v>
   <v>      -0.26982435       0.26982435       0.00000000 </v>
   <v>       0.37094724      -0.25602027      -0.15457223 </v>
   <v>      -0.29571943       0.41064640      -0.15457223 </v>
   <v>       0.03761391      -0.25602027      -0.15457223 </v>
   <v>      -0.29571943       0.07731307      -0.15457223 </v>
   <v>       0.29027274      -0.16118393       0.39352170 </v>
   <v>      -0.33079399       0.20657296      -0.37079665 </v>
   <v>      -0.04306059      -0.16118393       0.39352170 </v>
   <v>       0.16118393      -0.29027274      -0.39352170 </v>
   <v>      -0.04306059      -0.49451727       0.39352170 </v>
   <v>      -0.20657296       0.33079399       0.37079665 </v>
   <v>      -0.20657296      -0.00253935       0.37079665 </v>
   <v>      -0.41064640      -0.37094724       0.15457223 </v>
   <v>       0.46009370      -0.00253935       0.37079665 </v>
   <v>      -0.07731307      -0.03761391       0.15457223 </v>
   <v>      -0.07731307      -0.37094724       0.15457223 </v>
   <v>      -0.41064640      -0.03761391       0.15457223 </v>
   <v>       0.26311007      -0.19734517       0.19686089 </v>
   <v>       0.12676037      -0.33587268       0.37079665 </v>
   <v>       0.46009370      -0.33587268       0.37079665 </v>
   <v>      -0.46932149      -0.26311007      -0.19686089 </v>
   <v>      -0.13598816      -0.26311007      -0.19686089 </v>
   <v>       0.42459715      -0.20224939       0.16816581 </v>
   <v>      -0.24206952       0.46441728       0.16816581 </v>
   <v>       0.09126381      -0.20224939       0.16816581 </v>
   <v>      -0.24206952       0.13108394       0.16816581 </v>
   <v>      -0.37639393       0.17214940       0.39352170 </v>
   <v>      -0.37639393      -0.49451727       0.39352170 </v>
   <v>      -0.26982435      -0.39684232       0.00000000 </v>
   <v>      -0.26982435      -0.06350899       0.00000000 </v>
   <v>      -0.33079399      -0.46009370      -0.37079665 </v>
   <v>      -0.33079399      -0.12676037      -0.37079665 </v>
   <v>       0.49451727      -0.29027274      -0.39352170 </v>
   <v>      -0.17214940      -0.29027274      -0.39352170 </v>
   <v>      -0.07022326      -0.19734517       0.19686089 </v>
   <v>      -0.40355659      -0.19734517       0.19686089 </v>
   <v>      -0.37639393      -0.16118393       0.39352170 </v>
   <v>      -0.29571943      -0.25602027      -0.15457223 </v>
   <v>      -0.20657296      -0.33587268       0.37079665 </v>
   <v>      -0.24206952      -0.20224939       0.16816581 </v>
  </varray>
 </structure>
 <varray name="primitive_index" >
  <v type="int" >        1 </v>
  <v type="int" >       31 </v>
  <v type="int" >       28 </v>
  <v type="int" >       56 </v>
  <v type="int" >       55 </v>
  <v type="int" >       86 </v>
  <v type="int" >       85 </v>
  <v type="int" >       82 </v>
  <v type="int" >       83 </v>
  <v type="int" >       37 </v>
  <v type="int" >       38 </v>
  <v type="int" >       73 </v>
  <v type="int" >       76 </v>
  <v type="int" >       91 </v>
  <v type="int" >        4 </v>
  <v type="int" >        7 </v>
  <v type="int" >        3 </v>
  <v type="int" >        2 </v>
  <v type="int" >       22 </v>
  <v type="int" >       19 </v>
  <v type="int" >       32 </v>
  <v type="int" >       30 </v>
  <v type="int" >       33 </v>
  <v type="int" >       29 </v>
  <v type="int" >       14 </v>
  <v type="int" >       11 </v>
  <v type="int" >       13 </v>
  <v type="int" >       10 </v>
  <v type="int" >       59 </v>
  <v type="int" >       58 </v>
  <v type="int" >       61 </v>
  <v type="int" >       62 </v>
  <v type="int" >       40 </v>
  <v type="int" >       41 </v>
  <v type="int" >       64 </v>
  <v type="int" >       43 </v>
  <v type="int" >       44 </v>
  <v type="int" >       74 </v>
  <v type="int" >       66 </v>
  <v type="int" >       77 </v>
  <v type="int" >       75 </v>
  <v type="int" >       78 </v>
  <v type="int" >       46 </v>
  <v type="int" >       52 </v>
  <v type="int" >       94 </v>
  <v type="int" >       92 </v>
  <v type="int" >       93 </v>
  <v type="int" >       97 </v>
  <v type="int" >        5 </v>
  <v type="int" >        9 </v>
  <v type="int" >        6 </v>
  <v type="int" >        8 </v>
  <v type="int" >       23 </v>
  <v type="int" >       21 </v>
  <v type="int" >       24 </v>
  <v type="int" >       20 </v>
  <v type="int" >       47 </v>
  <v type="int" >       34 </v>
  <v type="int" >       67 </v>
  <v type="int" >       57 </v>
  <v type="int" >       89 </v>
  <v type="int" >       87 </v>
  <v type="int" >       88 </v>
  <v type="int" >       84 </v>
  <v type="int" >       70 </v>
  <v type="int" >       39 </v>
  <v type="int" >       72 </v>
  <v type="int" >       79 </v>
  <v type="int" >       69 </v>
  <v type="int" >       48 </v>
  <v type="int" >       54 </v>
  <v type="int" >       95 </v>
  <v type="int" >       53 </v>
  <v type="int" >       99 </v>
  <v type="int" >       96 </v>
  <v type="int" >       98 </v>
  <v type="int" >       25 </v>
  <v type="int" >       49 </v>
  <v type="int" >       50 </v>
  <v type="int" >       35 </v>
  <v type="int" >       36 </v>
  <v type="int" >       17 </v>
  <v type="int" >       15 </v>
  <v type="int" >       16 </v>
  <v type="int" >       12 </v>
  <v type="int" >       65 </v>
  <v type="int" >       68 </v>
  <v type="int" >       60 </v>
  <v type="int" >       63 </v>
  <v type="int" >       42 </v>
  <v type="int" >       45 </v>
  <v type="int" >       80 </v>
  <v type="int" >       81 </v>
  <v type="int" >       27 </v>
  <v type="int" >       26 </v>
  <v type="int" >       71 </v>
  <v type="int" >       90 </v>
  <v type="int" >       51 </v>
  <v type="int" >       18 </v>
 </varray>
 <kpoints>
  <generation param="Gamma">
   <v type="int" name="divisions">       3        3        3 </v>
   <v name="usershift">      0.00000000       0.00000000       0.00000000 </v>
   <v name="genvec1">      0.33333333       0.00000000       0.00000000 </v>
   <v name="genvec2">      0.00000000       0.33333333       0.00000000 </v>
   <v name="genvec3">      0.00000000       0.00000000       0.33333333 </v>
   <v name="shift">      0.00000000       0.00000000       0.00000000 </v>
  </generation>
  <varray name="kpointlist" >
   <v>       0.00000000       0.00000000       0.00000000 </v>
   <v>       0.33333333      -0.00000000      -0.00000000 </v>
   <v>       0.00000000       0.33333333       0.00000000 </v>
   <v>       0.33333333       0.33333333       0.00000000 </v>
   <v>      -0.33333333       0.33333333       0.00000000 </v>
   <v>      -0.00000000      -0.00000000       0.33333333 </v>
   <v>       0.33333333      -0.00000000       0.33333333 </v>
   <v>      -0.33333333      -0.00000000       0.33333333 </v>
   <v>      -0.00000000       0.33333333       0.33333333 </v>
   <v>       0.33333333       0.33333333       0.33333333 </v>
   <v>      -0.33333333       0.33333333       0.33333333 </v>
   <v>      -0.00000000      -0.33333333       0.33333333 </v>
   <v>       0.33333333      -0.33333333       0.33333333 </v>
   <v>      -0.33333333      -0.33333333       0.33333333 </v>
  </varray>
  <varray name="weights" >
   <v>       0.03703704 </v>
   <v>       0.07407407 </v>
   <v>       0.07407407 </v>
   <v>       0.07407407 </v>
   <v>       0.07407407 </v>
   <v>       0.07407407 </v>
   <v>       0.07407407 </v>
   <v>       0.07407407 </v>
   <v>       0.07407407 </v>
   <v>       0.07407407 </v>
   <v>       0.07407407 </v>
   <v>       0.07407407 </v>
   <v>       0.07407407 </v>
   <v>       0.07407407 </v>
  </varray>
 </kpoints>
 <parameters>
  <separator name="general" >
   <i type="string" name="SYSTEM">unknown system</i>
   <i type="logical" name="LCOMPAT"> F  </i>
  </separator>
  <separator name="electronic" >
   <i type="string" name="PREC">accura</i>
   <i name="ENMAX">    650.00000000</i>
   <i name="ENAUG">    628.94500000</i>
   <i name="EDIFF">      0.00000100</i>
   <i type="int" name="IALGO">    38</i>
   <i type="int" name="IWAVPR">    10</i>
   <i type="int" name="NBANDS">   606</i>
   <i name="NELECT">    828.00000000</i>
   <i type="int" name="TURBO">     0</i>
   <i type="int" name="IRESTART">     0</i>
   <i type="int" name="NREBOOT">     0</i>
   <i type="int" name="NMIN">     0</i>
   <i name="EREF">      0.00000000</i>
   <separator name="electronic smearing" >
    <i type="int" name="ISMEAR">     0</i>
    <i name="SIGMA">      0.05000000</i>
    <i name="KSPACING">      0.50000000</i>
    <i type="logical" name="KGAMMA"> T  </i>
   </separator>
   <separator name="electronic projectors" >
    <i type="logical" name="LREAL"> F  </i>
    <v name="ROPT">      0.00000000      0.00000000      0.00000000      0.00000000</v>
    <i type="int" name="LMAXPAW">  -100</i>
    <i type="int" name="LMAXMIX">     4</i>
    <i type="logical" name="NLSPLINE"> F  </i>
   </separator>
   <separator name="electronic startup" >
    <i type="int" name="ISTART">     0</i>
    <i type="int" name="ICHARG">     1</i>
    <i type="int" name="INIWAV">     1</i>
   </separator>
   <separator name="electronic spin" >
    <i type="int" name="ISPIN">     2</i>
    <i type="logical" name="LNONCOLLINEAR"> F  </i>
    <v name="MAGMOM">      0.60000000      0.60000000      0.60000000      0.60000000      0.60000000      0.60000000      0.60000000      0.60000000      0.60000000      0.60000000      0.60000000      0.60000000      0.60000000      0.60000000      0.60000000      0.60000000      0.60000000      0.60000000      0.60000000      0.60000000
      0.60000000      0.60000000      0.60000000      0.60000000      0.60000000      0.60000000      0.60000000      0.60000000      0.60000000      0.60000000      0.60000000      0.60000000      0.60000000      0.60000000      0.60000000      0.60000000      0.60000000      0.60000000      0.60000000      0.60000000
      0.60000000      0.60000000      0.60000000      0.60000000      0.60000000      0.60000000      0.60000000      0.60000000      0.60000000      0.60000000      0.60000000      0.60000000      0.60000000      0.60000000      0.60000000      0.60000000      0.60000000      0.60000000      0.60000000      0.60000000
      0.60000000      0.60000000      0.60000000      5.00000000      5.00000000      5.00000000      5.00000000      5.00000000      5.00000000      5.00000000      5.00000000      5.00000000      5.00000000      5.00000000      5.00000000      5.00000000      5.00000000      5.00000000      5.00000000      5.00000000
      5.00000000      5.00000000      5.00000000      5.00000000      5.00000000      5.00000000      5.00000000      5.00000000      5.00000000      5.00000000      5.00000000      5.00000000      5.00000000      5.00000000      5.00000000      5.00000000      5.00000000      5.00000000      5.00000000</v>
    <i name="NUPDOWN">     -1.00000000</i>
    <i type="logical" name="LSORBIT"> F  </i>
    <v name="SAXIS">      0.00000000      0.00000000      1.00000000</v>
    <i type="logical" name="LSPIRAL"> F  </i>
    <v name="QSPIRAL">      0.00000000      0.00000000      0.00000000</v>
    <i type="logical" name="LZEROZ"> F  </i>
   </separator>
   <separator name="electronic exchange-correlation" >
    <i type="logical" name="LASPH"> T  </i>
    <i type="logical" name="LMETAGGA"> F  </i>
   </separator>
   <separator name="electronic convergence" >
    <i type="int" name="NELM">   200</i>
    <i type="int" name="NELMDL">     0</i>
    <i type="int" name="NELMIN">     8</i>
    <i name="ENINI">    650.00000000</i>
    <separator name="electronic convergence detail" >
     <i type="logical" name="LDIAG"> T  </i>
     <i type="logical" name="LSUBROT"> F  </i>
     <i name="WEIMIN">      0.00000000</i>
     <i name="EBREAK">      0.00000000</i>
     <i name="DEPER">      0.30000000</i>
     <i type="int" name="NRMM">     4</i>
     <i name="TIME">      0.40000000</i>
    </separator>
   </separator>
   <separator name="electronic mixer" >
    <i name="AMIX">      0.40000000</i>
    <i name="BMIX">      1.00000000</i>
    <i name="AMIN">      0.10000000</i>
    <i name="AMIX_MAG">      1.60000000</i>
    <i name="BMIX_MAG">      1.00000000</i>
    <separator name="electronic mixer details" >
     <i type="int" name="IMIX">     4</i>
     <i type="logical" name="MIXFIRST"> F  </i>
     <i type="int" name="MAXMIX">   -45</i>
     <i name="WC">    100.00000000</i>
     <i type="int" name="INIMIX">     1</i>
     <i type="int" name="MIXPRE">     1</i>
     <i type="int" name="MREMOVE">     5</i>
    </separator>
   </separator>
   <separator name="electronic dipolcorrection" >
    <i type="logical" name="LDIPOL"> F  </i>
    <i type="logical" name="LMONO"> F  </i>
    <i type="int" name="IDIPOL">     0</i>
    <i name="EPSILON">      1.00000000</i>
    <v name="DIPOL">   -100.00000000   -100.00000000   -100.00000000</v>
    <i name="EFIELD">      0.00000000</i>
   </separator>
  </separator>
  <separator name="grids" >
   <i type="int" name="NGX">    98</i>
   <i type="int" name="NGY">    98</i>
   <i type="int" name="NGZ">    90</i>
   <i type="int" name="NGXF">   196</i>
   <i type="int" name="NGYF">   196</i>
   <i type="int" name="NGZF">   180</i>
   <i type="logical" name="ADDGRID"> T  </i>
  </separator>
  <separator name="ionic" >
   <i type="int" name="NSW">     0</i>
   <i type="int" name="IBRION">    -1</i>
   <i type="int" name="MDALGO">     0</i>
   <i type="int" name="ISIF">     2</i>
   <i name="PSTRESS">      0.00000000</i>
   <i name="EDIFFG">      0.00001000</i>
   <i type="int" name="NFREE">     0</i>
   <i name="POTIM">      0.50000000</i>
   <i name="SMASS">     -3.00000000</i>
   <i name="SCALEE">      1.00000000</i>
  </separator>
  <separator name="ionic md" >
   <i name="TEBEG">      0.00010000</i>
   <i name="TEEND">      0.00010000</i>
   <i type="int" name="NBLOCK">     1</i>
   <i type="int" name="KBLOCK">     1</i>
   <i type="int" name="NPACO">   256</i>
   <i name="APACO">     16.00000000</i>
  </separator>
  <separator name="symmetry" >
   <i type="int" name="ISYM">     0</i>
   <i name="SYMPREC">      0.00001000</i>
  </separator>
  <separator name="dos" >
   <i type="int" name="LORBIT">     0</i>
   <v name="RWIGS">     -1.00000000     -1.00000000     -1.00000000     -1.00000000</v>
   <i type="int" name="NEDOS">   301</i>
   <i name="EMIN">     10.00000000</i>
   <i name="EMAX">    -10.00000000</i>
   <i name="EFERMI">      0.00000000</i>
  </separator>
  <separator name="writing" >
   <i type="int" name="NWRITE">     1</i>
   <i type="logical" name="LWAVE"> F  </i>
   <i type="logical" name="LDOWNSAMPLE"> F  </i>
   <i type="logical" name="LCHARG"> T  </i>
   <i type="logical" name="LPARD"> F  </i>
   <i type="logical" name="LVTOT"> F  </i>
   <i type="logical" name="LVHAR"> F  </i>
   <i type="logical" name="LELF"> F  </i>
   <i type="logical" name="LOPTICS"> F  </i>
   <v name="STM">      0.00000000      0.00000000      0.00000000      0.00000000      0.00000000      0.00000000      0.00000000</v>
  </separator>
  <separator name="performance" >
   <i type="int" name="NPAR">     2</i>
   <i type="int" name="NSIM">     4</i>
   <i type="int" name="NBLK">    -1</i>
   <i type="logical" name="LPLANE"> T  </i>
   <i type="logical" name="LSCALAPACK"> T  </i>
   <i type="logical" name="LSCAAWARE"> F  </i>
   <i type="logical" name="LSCALU"> F  </i>
   <i type="logical" name="LASYNC"> F  </i>
   <i type="logical" name="LORBITALREAL"> F  </i>
  </separator>
  <separator name="miscellaneous" >
   <i type="int" name="IDIOT">     3</i>
   <i type="int" name="ISPECIAL">     0</i>
   <i type="logical" name="LMUSIC"> F  </i>
   <v name="POMASS">      7.01000000     16.00000000     32.06600000     55.84700000</v>
   <v name="DARWINR">      0.00000000      0.00000000      0.00000000      0.00000000</v>
   <v name="DARWINV">      1.00000000      1.00000000      1.00000000      1.00000000</v>
   <i type="logical" name="LCORR"> T  </i>
  </separator>
  <i type="logical" name="GGA_COMPAT"> T  </i>
  <i type="logical" name="LBERRY"> F  </i>
  <i type="int" name="ICORELEVEL">     0</i>
  <i type="logical" name="LDAU"> T  </i>
  <v type="int" name="LDAUTYPE">     2</v>
  <v type="int" name="LDAUL">    -1</v>
  <v name="LDAUU">      0.00000000</v>
  <v name="LDAUJ">      0.00000000</v>
  <i type="int" name="LDAUPRINT">     0</i>
  <i type="int" name="I_CONSTRAINED_M">     0</i>
  <separator name="electronic exchange-correlation" >
   <i type="string" name="GGA">PE</i>
   <i type="int" name="VOSKOWN">     0</i>
   <i type="logical" name="LHFCALC"> F  </i>
   <i type="string" name="PRECFOCK"></i>
   <i type="logical" name="LSYMGRAD"> F  </i>
   <i type="logical" name="LHFONE"> F  </i>
   <i type="logical" name="LRHFCALC"> F  </i>
   <i type="logical" name="LTHOMAS"> F  </i>
   <i type="logical" name="LMODELHF"> F  </i>
   <i name="ENCUT4O">     -1.00000000</i>
   <i type="int" name="EXXOEP">     0</i>
   <i type="int" name="FOURORBIT">     0</i>
   <i name="AEXX">      0.00000000</i>
   <i name="HFALPHA">      0.00000000</i>
   <i name="MCALPHA">      0.00000000</i>
   <i name="ALDAX">      1.00000000</i>
   <i name="AGGAX">      1.00000000</i>
   <i name="ALDAC">      1.00000000</i>
   <i name="AGGAC">      1.00000000</i>
   <i type="int" name="NKREDX">     1</i>
   <i type="int" name="NKREDY">     1</i>
   <i type="int" name="NKREDZ">     1</i>
   <i type="logical" name="SHIFTRED"> F  </i>
   <i type="logical" name="ODDONLY"> F  </i>
   <i type="logical" name="EVENONLY"> F  </i>
   <i type="int" name="LMAXFOCK">     0</i>
   <i type="int" name="NMAXFOCKAE">     0</i>
   <i type="logical" name="LFOCKAEDFT"> F  </i>
   <i name="HFSCREEN">      0.00000000</i>
   <i name="HFSCREENC">      0.00000000</i>
   <i type="int" name="NBANDSGWLOW">     0</i>
  </separator>
  <separator name="vdW DFT" >
   <i type="logical" name="LUSE_VDW"> F  </i>
   <i name="Zab_VDW">     -0.84910000</i>
   <i name="PARAM1">      0.12340000</i>
   <i name="PARAM2">      1.00000000</i>
   <i name="PARAM3">      0.00000000</i>
  </separator>
  <separator name="model GW" >
   <i type="int" name="MODEL_GW">     0</i>
   <i name="MODEL_EPS0">      8.58245767</i>
   <i name="MODEL_ALPHA">      1.00000000</i>
  </separator>
  <separator name="linear response parameters" >
   <i type="logical" name="LEPSILON"> F  </i>
   <i type="logical" name="LRPA"> F  </i>
   <i type="logical" name="LNABLA"> F  </i>
   <i type="logical" name="LVEL"> F  </i>
   <i type="int" name="KINTER">     0</i>
   <i name="CSHIFT">      0.10000000</i>
   <i name="OMEGAMAX">     -1.00000000</i>
   <i name="DEG_THRESHOLD">      0.00200000</i>
   <i name="RTIME">     -0.10000000</i>
   <i name="WPLASMAI">      0.00000000</i>
   <v name="DFIELD">      0.00000000      0.00000000      0.00000000</v>
   <v name="WPLASMA">      0.00000000      0.00000000      0.00000000      0.00000000      0.00000000      0.00000000      0.00000000      0.00000000      0.00000000</v>
  </separator>
  <separator name="orbital magnetization" >
   <i type="logical" name="NUCIND"> F  </i>
   <v name="MAGPOS">      0.00000000      0.00000000      0.00000000</v>
   <i type="logical" name="LNICSALL"> T  </i>
   <i type="logical" name="ORBITALMAG"> F  </i>
   <i type="logical" name="LMAGBLOCH"> F  </i>
   <i type="logical" name="LCHIMAG"> F  </i>
   <i type="logical" name="LGAUGE"> T  </i>
   <i type="int" name="MAGATOM">     0</i>
   <v name="MAGDIPOL">      0.00000000      0.00000000      0.00000000</v>
   <v name="AVECCONST">      0.00000000      0.00000000      0.00000000</v>
  </separator>
  <separator name="response functions" >
   <i type="logical" name="LADDER"> F  </i>
   <i type="logical" name="LRPAFORCE"> F  </i>
   <i type="logical" name="LFXC"> F  </i>
   <i type="logical" name="LHARTREE"> T  </i>
   <i type="int" name="IBSE">     0</i>
   <v type="int" name="KPOINT">    -1     0     0     0</v>
   <i type="logical" name="LTCTE"> F  </i>
   <i type="logical" name="LTETE"> F  </i>
   <i type="logical" name="LTRIPLET"> F  </i>
   <i type="logical" name="LFXCEPS"> F  </i>
   <i type="logical" name="LFXHEG"> F  </i>
   <i type="int" name="NATURALO">     2</i>
   <i type="logical" name="L2ORDER"> F  </i>
   <i type="logical" name="LMP2LT"> F  </i>
   <i type="logical" name="LUSEW"> F  </i>
   <i name="ENCUTGW">     -2.00000000</i>
   <i name="ENCUTGWSOFT">     -2.00000000</i>
   <i name="ENCUTLF">     -1.00000000</i>
   <i type="int" name="LMAXMP2">    -1</i>
   <i name="SCISSOR">      0.00000000</i>
   <i type="int" name="NOMEGA">     0</i>
   <i type="int" name="NOMEGAR">     0</i>
   <i type="int" name="NBANDSGW">    -1</i>
   <i type="int" name="NBANDSO">    -1</i>
   <i type="int" name="NBANDSV">    -1</i>
   <i type="int" name="NELM">   200</i>
   <i type="int" name="NELMHF">     1</i>
   <i type="int" name="DIM">     3</i>
   <i type="int" name="ANTIRES">     0</i>
   <i name="OMEGAMAX">    -30.00000000</i>
   <i name="OMEGAMIN">    -30.00000000</i>
   <i name="OMEGATL">   -200.00000000</i>
   <i type="int" name="OMEGAGRID">   140</i>
   <i name="CSHIFT">     -0.10000000</i>
   <i type="logical" name="SELFENERGY"> F  </i>
   <i type="logical" name="LSPECTRAL"> F  </i>
   <i type="logical" name="LSPECTRALGW"> F  </i>
   <i type="logical" name="LSINGLES"> F  </i>
   <i type="logical" name="LFERMIGW"> F  </i>
   <i type="logical" name="ODDONLYGW"> F  </i>
   <i type="logical" name="EVENONLYGW"> F  </i>
   <i type="int" name="NKREDLFX">     1</i>
   <i type="int" name="NKREDLFY">     1</i>
   <i type="int" name="NKREDLFZ">     1</i>
   <i type="int" name="MAXMEM">  2800</i>
   <i type="int" name="TELESCOPE">     0</i>
   <i type="int" name="TAUPAR">     1</i>
   <i type="int" name="OMEGAPAR">    -1</i>
   <i name="LAMBDA">      1.00000000</i>
  </separator>
  <separator name="External order field" >
   <i name="OFIELD_KAPPA">      0.00000000</i>
   <v name="OFIELD_K">      0.00000000      0.00000000      0.00000000</v>
   <i name="OFIELD_Q6_NEAR">      0.00000000</i>
   <i name="OFIELD_Q6_FAR">      0.00000000</i>
   <i name="OFIELD_A">      0.00000000</i>
  </separator>
 </parameters>
 <atominfo>
  <atoms>      99 </atoms>
  <types>       4 </types>
  <array name="atoms" >
   <dimension dim="1">ion</dimension>
   <field type="string">element</field>
   <field type="int">atomtype</field>
   <set>
    <rc><c>Li</c><c>   1</c></rc>
    <rc><c>Li</c><c>   1</c></rc>
    <rc><c>Li</c><c>   1</c></rc>
    <rc><c>Li</c><c>   1</c></rc>
    <rc><c>Li</c><c>   1</c></rc>
    <rc><c>Li</c><c>   1</c></rc>
    <rc><c>Li</c><c>   1</c></rc>
    <rc><c>Li</c><c>   1</c></rc>
    <rc><c>Li</c><c>   1</c></rc>
    <rc><c>Li</c><c>   1</c></rc>
    <rc><c>Li</c><c>   1</c></rc>
    <rc><c>Li</c><c>   1</c></rc>
    <rc><c>Li</c><c>   1</c></rc>
    <rc><c>Li</c><c>   1</c></rc>
    <rc><c>Li</c><c>   1</c></rc>
    <rc><c>Li</c><c>   1</c></rc>
    <rc><c>Li</c><c>   1</c></rc>
    <rc><c>Li</c><c>   1</c></rc>
    <rc><c>O </c><c>   2</c></rc>
    <rc><c>O </c><c>   2</c></rc>
    <rc><c>O </c><c>   2</c></rc>
    <rc><c>O </c><c>   2</c></rc>
    <rc><c>O </c><c>   2</c></rc>
    <rc><c>O </c><c>   2</c></rc>
    <rc><c>O </c><c>   2</c></rc>
    <rc><c>O </c><c>   2</c></rc>
    <rc><c>O </c><c>   2</c></rc>
    <rc><c>O </c><c>   2</c></rc>
    <rc><c>O </c><c>   2</c></rc>
    <rc><c>O </c><c>   2</c></rc>
    <rc><c>O </c><c>   2</c></rc>
    <rc><c>O </c><c>   2</c></rc>
    <rc><c>O </c><c>   2</c></rc>
    <rc><c>O </c><c>   2</c></rc>
    <rc><c>O </c><c>   2</c></rc>
    <rc><c>O </c><c>   2</c></rc>
    <rc><c>S </c><c>   3</c></rc>
    <rc><c>S </c><c>   3</c></rc>
    <rc><c>S </c><c>   3</c></rc>
    <rc><c>S </c><c>   3</c></rc>
    <rc><c>S </c><c>   3</c></rc>
    <rc><c>S </c><c>   3</c></rc>
    <rc><c>S </c><c>   3</c></rc>
    <rc><c>S </c><c>   3</c></rc>
    <rc><c>S </c><c>   3</c></rc>
    <rc><c>S </c><c>   3</c></rc>
    <rc><c>S </c><c>   3</c></rc>
    <rc><c>S </c><c>   3</c></rc>
    <rc><c>S </c><c>   3</c></rc>
    <rc><c>S </c><c>   3</c></rc>
    <rc><c>S </c><c>   3</c></rc>
    <rc><c>S </c><c>   3</c></rc>
    <rc><c>S </c><c>   3</c></rc>
    <rc><c>S </c><c>   3</c></rc>
    <rc><c>S </c><c>   3</c></rc>
    <rc><c>S </c><c>   3</c></rc>
    <rc><c>S </c><c>   3</c></rc>
    <rc><c>S </c><c>   3</c></rc>
    <rc><c>S </c><c>   3</c></rc>
    <rc><c>S </c><c>   3</c></rc>
    <rc><c>S </c><c>   3</c></rc>
    <rc><c>S </c><c>   3</c></rc>
    <rc><c>S </c><c>   3</c></rc>
    <rc><c>Fe</c><c>   4</c></rc>
    <rc><c>Fe</c><c>   4</c></rc>
    <rc><c>Fe</c><c>   4</c></rc>
    <rc><c>Fe</c><c>   4</c></rc>
    <rc><c>Fe</c><c>   4</c></rc>
    <rc><c>Fe</c><c>   4</c></rc>
    <rc><c>Fe</c><c>   4</c></rc>
    <rc><c>Fe</c><c>   4</c></rc>
    <rc><c>Fe</c><c>   4</c></rc>
    <rc><c>Fe</c><c>   4</c></rc>
    <rc><c>Fe</c><c>   4</c></rc>
    <rc><c>Fe</c><c>   4</c></rc>
    <rc><c>Fe</c><c>   4</c></rc>
    <rc><c>Fe</c><c>   4</c></rc>
    <rc><c>Fe</c><c>   4</c></rc>
    <rc><c>Fe</c><c>   4</c></rc>
    <rc><c>Fe</c><c>   4</c></rc>
    <rc><c>Fe</c><c>   4</c></rc>
    <rc><c>Fe</c><c>   4</c></rc>
    <rc><c>Fe</c><c>   4</c></rc>
    <rc><c>Fe</c><c>   4</c></rc>
    <rc><c>Fe</c><c>   4</c></rc>
    <rc><c>Fe</c><c>   4</c></rc>
    <rc><c>Fe</c><c>   4</c></rc>
    <rc><c>Fe</c><c>   4</c></rc>
    <rc><c>Fe</c><c>   4</c></rc>
    <rc><c>Fe</c><c>   4</c></rc>
    <rc><c>Fe</c><c>   4</c></rc>
    <rc><c>Fe</c><c>   4</c></rc>
    <rc><c>Fe</c><c>   4</c></rc>
    <rc><c>Fe</c><c>   4</c></rc>
    <rc><c>Fe</c><c>   4</c></rc>
    <rc><c>Fe</c><c>   4</c></rc>
    <rc><c>Fe</c><c>   4</c></rc>
    <rc><c>Fe</c><c>   4</c></rc>
    <rc><c>Fe</c><c>   4</c></rc>
   </set>
  </array>
  <array name="atomtypes" >
   <dimension dim="1">type</dimension>
   <field type="int">atomspertype</field>
   <field type="string">element</field>
   <field>mass</field>
   <field>valence</field>
   <field type="string">pseudopotential</field>
   <set>
    <rc><c>  18</c><c>Li</c><c>      7.01000000</c><c>      3.00000000</c><c>  PAW_PBE Li_sv 10Sep2004               </c></rc>
    <rc><c>  18</c><c>O </c><c>     16.00000000</c><c>      6.00000000</c><c>  PAW_PBE O 08Apr2002                   </c></rc>
    <rc><c>  27</c><c>S </c><c>     32.06600000</c><c>      6.00000000</c><c>  PAW_PBE S 06Sep2000                   </c></rc>
    <rc><c>  36</c><c>Fe</c><c>     55.84700000</c><c>     14.00000000</c><c>  PAW_PBE Fe_pv 02Aug2007               </c></rc>
   </set>
  </array>
 </atominfo>
 <structure name="initialpos" >
  <crystal>
   <varray name="basis" >
    <v>      11.77726974       0.00848871       0.06923316 </v>
    <v>      -0.03028248      11.77723386       0.06923316 </v>
    <v>      -2.02000231      -2.02666320      10.18574622 </v>
   </varray>
   <i name="volume">   1416.10551572 </i>
   <varray name="rec_basis" >
    <v>       0.08481023       0.00011906       0.01684296 </v>
    <v>      -0.00016014       0.08481016       0.01684296 </v>
    <v>      -0.00057537      -0.00057727       0.09794744 </v>
   </varray>
  </crystal>
  <varray name="positions" >
   <v>       0.20224939       0.24206952       0.83183419 </v>
   <v>       0.53558272       0.24206952       0.83183419 </v>
   <v>       0.86891606       0.24206952       0.83183419 </v>
   <v>       0.20224939       0.57540285       0.83183419 </v>
   <v>       0.53558272       0.57540285       0.83183419 </v>
   <v>       0.86891606       0.57540285       0.83183419 </v>
   <v>       0.20224939       0.90873619       0.83183419 </v>
   <v>       0.53558272       0.90873619       0.83183419 </v>
   <v>       0.86891606       0.90873619       0.83183419 </v>
   <v>       0.09126381       0.13108394       0.16816581 </v>
   <v>       0.42459715       0.13108394       0.16816581 </v>
   <v>       0.75793048       0.13108394       0.16816581 </v>
   <v>       0.09126381       0.46441728       0.16816581 </v>
   <v>       0.42459715       0.46441728       0.16816581 </v>
   <v>       0.75793048       0.46441728       0.16816581 </v>
   <v>       0.09126381       0.79775061       0.16816581 </v>
   <v>       0.42459715       0.79775061       0.16816581 </v>
   <v>       0.75793048       0.79775061       0.16816581 </v>
   <v>       0.26311007       0.13598816       0.19686089 </v>
   <v>       0.59644341       0.13598816       0.19686089 </v>
   <v>       0.92977674       0.13598816       0.19686089 </v>
   <v>       0.26311007       0.46932149       0.19686089 </v>
   <v>       0.59644341       0.46932149       0.19686089 </v>
   <v>       0.92977674       0.46932149       0.19686089 </v>
   <v>       0.26311007       0.80265483       0.19686089 </v>
   <v>       0.59644341       0.80265483       0.19686089 </v>
   <v>       0.92977674       0.80265483       0.19686089 </v>
   <v>       0.19734517       0.07022326       0.80313911 </v>
   <v>       0.53067851       0.07022326       0.80313911 </v>
   <v>       0.86401184       0.07022326       0.80313911 </v>
   <v>       0.19734517       0.40355659       0.80313911 </v>
   <v>       0.53067851       0.40355659       0.80313911 </v>
   <v>       0.86401184       0.40355659       0.80313911 </v>
   <v>       0.19734517       0.73688993       0.80313911 </v>
   <v>       0.53067851       0.73688993       0.80313911 </v>
   <v>       0.86401184       0.73688993       0.80313911 </v>
   <v>       0.00169027       0.20657296       0.62920335 </v>
   <v>       0.33587268       0.20657296       0.62920335 </v>
   <v>       0.66920601       0.20657296       0.62920335 </v>
   <v>       0.00253935       0.53990630       0.62920335 </v>
   <v>       0.33587268       0.53990630       0.62920335 </v>
   <v>       0.66920601       0.53990630       0.62920335 </v>
   <v>       0.00253935       0.87323963       0.62920335 </v>
   <v>       0.33587268       0.87323963       0.62920335 </v>
   <v>       0.66920601       0.87323963       0.62920335 </v>
   <v>       0.12676037       0.33079399       0.37079665 </v>
   <v>       0.46009370       0.33079399       0.37079665 </v>
   <v>       0.79342704       0.33079399       0.37079665 </v>
   <v>       0.12676037       0.66412732       0.37079665 </v>
   <v>       0.46009370       0.66412732       0.37079665 </v>
   <v>       0.79342704       0.66412732       0.37079665 </v>
   <v>       0.12676037       0.99746065       0.37079665 </v>
   <v>       0.46009370       0.99746065       0.37079665 </v>
   <v>       0.79342704       0.99746065       0.37079665 </v>
   <v>       0.06350899       0.26982435       0.00000000 </v>
   <v>       0.39684232       0.26982435       0.00000000 </v>
   <v>       0.73017565       0.26982435       0.00000000 </v>
   <v>       0.06350899       0.60315768       0.00000000 </v>
   <v>       0.39684232       0.60315768       0.00000000 </v>
   <v>       0.73017565       0.60315768       0.00000000 </v>
   <v>       0.06350899       0.93649101       0.00000000 </v>
   <v>       0.39684232       0.93649101       0.00000000 </v>
   <v>       0.73017565       0.93649101       0.00000000 </v>
   <v>       0.29027274       0.17214940       0.39352170 </v>
   <v>       0.62360607       0.17214940       0.39352170 </v>
   <v>       0.95693941       0.17214940       0.39352170 </v>
   <v>       0.29027274       0.50548273       0.39352170 </v>
   <v>       0.62360607       0.50548273       0.39352170 </v>
   <v>       0.95693941       0.50548273       0.39352170 </v>
   <v>       0.29027274       0.83881607       0.39352170 </v>
   <v>       0.62360607       0.83881607       0.39352170 </v>
   <v>       0.95693941       0.83881607       0.39352170 </v>
   <v>       0.16118393       0.04306059       0.60647830 </v>
   <v>       0.49451727       0.04306059       0.60647830 </v>
   <v>       0.82785060       0.04306059       0.60647830 </v>
   <v>       0.16118393       0.37639393       0.60647830 </v>
   <v>       0.49451727       0.37639393       0.60647830 </v>
   <v>       0.82785060       0.37639393       0.60647830 </v>
   <v>       0.16118393       0.70972726       0.60647830 </v>
   <v>       0.49451727       0.70972726       0.60647830 </v>
   <v>       0.82785060       0.70972726       0.60647830 </v>
   <v>       0.03761391       0.07731307       0.84542777 </v>
   <v>       0.37094724       0.07731307       0.84542777 </v>
   <v>       0.70428057       0.07731307       0.84542777 </v>
   <v>       0.03761391       0.41064640       0.84542777 </v>
   <v>       0.37094724       0.41064640       0.84542777 </v>
   <v>       0.70428057       0.41064640       0.84542777 </v>
   <v>       0.03761391       0.74397973       0.84542777 </v>
   <v>       0.37094724       0.74397973       0.84542777 </v>
   <v>       0.70428057       0.74397973       0.84542777 </v>
   <v>       0.25602027       0.29571943       0.15457223 </v>
   <v>       0.58935360       0.29571943       0.15457223 </v>
   <v>       0.92268693       0.29571943       0.15457223 </v>
   <v>       0.25602027       0.62905276       0.15457223 </v>
   <v>       0.58935360       0.62905276       0.15457223 </v>
   <v>       0.92268693       0.62905276       0.15457223 </v>
   <v>       0.25602027       0.96238609       0.15457223 </v>
   <v>       0.58935360       0.96238609       0.15457223 </v>
   <v>       0.92268693       0.96238609       0.15457223 </v>
  </varray>
 </structure>
 <calculation>
  <scstep>
   <time name="dav">  429.61  433.75</time>
   <time name="total">  433.31  437.51</time>
   <energy>
    <i name="alphaZ">   2606.24521607 </i>
    <i name="ewald"> -65007.74952555 </i>
    <i name="hartreedc"> -34081.86943308 </i>
    <i name="XCdc">   3632.83605723 </i>
    <i name="pawpsdc"> 104149.30743192 </i>
    <i name="pawaedc">-107360.85880398 </i>
    <i name="eentropy">     -0.01705958 </i>
    <i name="bandstr">    394.17117573 </i>
    <i name="atom"> 107373.91467324 </i>
    <i name="e_fr_energy">  11705.97973200 </i>
    <i name="e_wo_entrp">  11705.99679158 </i>
    <i name="e_0_energy">  11705.98826179 </i>
   </energy>
  </scstep>
  <scstep>
   <time name="dav">  420.42  424.30</time>
   <time name="total">  420.43  424.31</time>
   <energy>
    <i name="e_fr_energy">   1328.70194010 </i>
    <i name="e_wo_entrp">   1328.76942463 </i>
    <i name="e_0_energy">   1328.73568237 </i>
   </energy>
  </scstep>
  <scstep>
   <time name="dav">  443.47  447.68</time>
   <time name="total">  443.47  447.68</time>
   <energy>
    <i name="e_fr_energy">   -345.49205340 </i>
    <i name="e_wo_entrp">   -345.49205340 </i>
    <i name="e_0_energy">   -345.49205340 </i>
   </energy>
  </scstep>
  <scstep>
   <time name="dav">  476.72  481.22</time>
   <time name="total">  476.72  481.23</time>
   <energy>
    <i name="e_fr_energy">   -535.88267869 </i>
    <i name="e_wo_entrp">   -535.88267869 </i>
    <i name="e_0_energy">   -535.88267869 </i>
   </energy>
  </scstep>
  <scstep>
   <time name="dav">  622.68  628.35</time>
   <time name="total">  635.21  641.14</time>
   <energy>
    <i name="e_fr_energy">   -549.79355460 </i>
    <i name="e_wo_entrp">   -549.79355460 </i>
    <i name="e_0_energy">   -549.79355460 </i>
   </energy>
  </scstep>
  <scstep>
   <time name="dav">  555.20  561.01</time>
   <time name="total">  571.01  577.06</time>
   <energy>
    <i name="e_fr_energy">   -550.32307024 </i>
    <i name="e_wo_entrp">   -550.32307024 </i>
    <i name="e_0_energy">   -550.32307024 </i>
   </energy>
  </scstep>
  <scstep>
   <time name="dav">  591.82  597.22</time>
   <time name="total">  607.85  613.35</time>
   <energy>
    <i name="e_fr_energy">   -550.34127628 </i>
    <i name="e_wo_entrp">   -550.34127628 </i>
    <i name="e_0_energy">   -550.34127628 </i>
   </energy>
  </scstep>
  <scstep>
   <time name="dav">  557.55  562.09</time>
   <time name="total">  573.38  578.01</time>
   <energy>
    <i name="e_fr_energy">   -550.34077484 </i>
    <i name="e_wo_entrp">   -550.34077484 </i>
    <i name="e_0_energy">   -550.34077484 </i>
   </energy>
  </scstep>
  <scstep>
   <time name="dav">  601.88  607.32</time>
   <time name="total">  617.96  623.43</time>
   <energy>
    <i name="e_fr_energy">   -550.34040035 </i>
    <i name="e_wo_entrp">   -550.34040035 </i>
    <i name="e_0_energy">   -550.34040035 </i>
   </energy>
  </scstep>
  <scstep>
   <time name="dav">  580.27  585.34</time>
   <time name="total">  596.15  601.30</time>
   <energy>
    <i name="e_fr_energy">   -550.33987924 </i>
    <i name="e_wo_entrp">   -550.33987924 </i>
    <i name="e_0_energy">   -550.33987924 </i>
   </energy>
  </scstep>
  <scstep>
   <time name="dav">  563.75  568.87</time>
   <time name="total">  579.60  584.87</time>
   <energy>
    <i name="e_fr_energy">   -550.33916307 </i>
    <i name="e_wo_entrp">   -550.33916307 </i>
    <i name="e_0_energy">   -550.33916307 </i>
   </energy>
  </scstep>
  <scstep>
   <time name="dav">  512.01  516.40</time>
   <time name="total">  527.90  532.41</time>
   <energy>
    <i name="e_fr_energy">   -550.33911970 </i>
    <i name="e_wo_entrp">   -550.33911970 </i>
    <i name="e_0_energy">   -550.33911970 </i>
   </energy>
  </scstep>
  <scstep>
   <time name="dav">  516.22  520.38</time>
   <time name="total">  532.40  536.63</time>
   <energy>
    <i name="e_fr_energy">   -550.33912551 </i>
    <i name="e_wo_entrp">   -550.33912551 </i>
    <i name="e_0_energy">   -550.33912551 </i>
   </energy>
  </scstep>
  <scstep>
   <time name="dav">  338.92  342.42</time>
   <time name="total">  355.12  358.70</time>
   <energy>
    <i name="e_fr_energy">   -550.33912662 </i>
    <i name="e_wo_entrp">   -550.33912662 </i>
    <i name="e_0_energy">   -550.33912662 </i>
   </energy>
  </scstep>
  <scstep>
   <time name="dav">  501.70  506.27</time>
   <time name="total">  518.03  522.63</time>
   <energy>
    <i name="e_fr_energy">   -550.33908918 </i>
    <i name="e_wo_entrp">   -550.33908918 </i>
    <i name="e_0_energy">   -550.33908918 </i>
   </energy>
  </scstep>
  <scstep>
   <time name="dav">  433.89  437.80</time>
   <time name="total">  449.65  453.61</time>
   <energy>
    <i name="e_fr_energy">   -550.33909047 </i>
    <i name="e_wo_entrp">   -550.33909047 </i>
    <i name="e_0_energy">   -550.33909047 </i>
   </energy>
  </scstep>
  <scstep>
   <time name="dav">  326.40  328.95</time>
   <time name="total">  330.10  332.66</time>
   <energy>
    <i name="alphaZ">   2606.24521607 </i>
    <i name="ewald"> -65007.74952555 </i>
    <i name="hartreedc"> -34081.85103464 </i>
    <i name="XCdc">   3632.83555690 </i>
    <i name="pawpsdc"> 104148.59018455 </i>
    <i name="pawaedc">-107360.13288468 </i>
    <i name="eentropy">     -0.00000000 </i>
    <i name="bandstr"> -11862.19127664 </i>
    <i name="atom"> 107373.91467324 </i>
    <i name="e_fr_energy">   -550.33909075 </i>
    <i name="e_wo_entrp">   -550.33909075 </i>
    <i name="e_0_energy">   -550.33909075 </i>
   </energy>
  </scstep>
  <structure>
   <crystal>
    <varray name="basis" >
     <v>      11.77726974       0.00848871       0.06923316 </v>
     <v>      -0.03028248      11.77723386       0.06923316 </v>
     <v>      -2.02000231      -2.02666320      10.18574622 </v>
    </varray>
    <i name="volume">   1416.10551572 </i>
    <varray name="rec_basis" >
     <v>       0.08481023       0.00011906       0.01684296 </v>
     <v>      -0.00016014       0.08481016       0.01684296 </v>
     <v>      -0.00057537      -0.00057727       0.09794744 </v>
    </varray>
   </crystal>
   <varray name="positions" >
    <v>       0.20224939       0.24206952       0.83183419 </v>
    <v>       0.53558272       0.24206952       0.83183419 </v>
    <v>       0.86891606       0.24206952       0.83183419 </v>
    <v>       0.20224939       0.57540285       0.83183419 </v>
    <v>       0.53558272       0.57540285       0.83183419 </v>
    <v>       0.86891606       0.57540285       0.83183419 </v>
    <v>       0.20224939       0.90873619       0.83183419 </v>
    <v>       0.53558272       0.90873619       0.83183419 </v>
    <v>       0.86891606       0.90873619       0.83183419 </v>
    <v>       0.09126381       0.13108394       0.16816581 </v>
    <v>       0.42459715       0.13108394       0.16816581 </v>
    <v>       0.75793048       0.13108394       0.16816581 </v>
    <v>       0.09126381       0.46441728       0.16816581 </v>
    <v>       0.42459715       0.46441728       0.16816581 </v>
    <v>       0.75793048       0.46441728       0.16816581 </v>
    <v>       0.09126381       0.79775061       0.16816581 </v>
    <v>       0.42459715       0.79775061       0.16816581 </v>
    <v>       0.75793048       0.79775061       0.16816581 </v>
    <v>       0.26311007       0.13598816       0.19686089 </v>
    <v>       0.59644341       0.13598816       0.19686089 </v>
    <v>       0.92977674       0.13598816       0.19686089 </v>
    <v>       0.26311007       0.46932149       0.19686089 </v>
    <v>       0.59644341       0.46932149       0.19686089 </v>
    <v>       0.92977674       0.46932149       0.19686089 </v>
    <v>       0.26311007       0.80265483       0.19686089 </v>
    <v>       0.59644341       0.80265483       0.19686089 </v>
    <v>       0.92977674       0.80265483       0.19686089 </v>
    <v>       0.19734517       0.07022326       0.80313911 </v>
    <v>       0.53067851       0.07022326       0.80313911 </v>
    <v>       0.86401184       0.07022326       0.80313911 </v>
    <v>       0.19734517       0.40355659       0.80313911 </v>
    <v>       0.53067851       0.40355659       0.80313911 </v>
    <v>       0.86401184       0.40355659       0.80313911 </v>
    <v>       0.19734517       0.73688993       0.80313911 </v>
    <v>       0.53067851       0.73688993       0.80313911 </v>
    <v>       0.86401184       0.73688993       0.80313911 </v>
    <v>       0.00169027       0.20657296       0.62920335 </v>
    <v>       0.33587268       0.20657296       0.62920335 </v>
    <v>       0.66920601       0.20657296       0.62920335 </v>
    <v>       0.00253935       0.53990630       0.62920335 </v>
    <v>       0.33587268       0.53990630       0.62920335 </v>
    <v>       0.66920601       0.53990630       0.62920335 </v>
    <v>       0.00253935       0.87323963       0.62920335 </v>
    <v>       0.33587268       0.87323963       0.62920335 </v>
    <v>       0.66920601       0.87323963       0.62920335 </v>
    <v>       0.12676037       0.33079399       0.37079665 </v>
    <v>       0.46009370       0.33079399       0.37079665 </v>
    <v>       0.79342704       0.33079399       0.37079665 </v>
    <v>       0.12676037       0.66412732       0.37079665 </v>
    <v>       0.46009370       0.66412732       0.37079665 </v>
    <v>       0.79342704       0.66412732       0.37079665 </v>
    <v>       0.12676037       0.99746065       0.37079665 </v>
    <v>       0.46009370       0.99746065       0.37079665 </v>
    <v>       0.79342704       0.99746065       0.37079665 </v>
    <v>       0.06350899       0.26982435       0.00000000 </v>
    <v>       0.39684232       0.26982435       0.00000000 </v>
    <v>       0.73017565       0.26982435       0.00000000 </v>
    <v>       0.06350899       0.60315768       0.00000000 </v>
    <v>       0.39684232       0.60315768       0.00000000 </v>
    <v>       0.73017565       0.60315768       0.00000000 </v>
    <v>       0.06350899       0.93649101       0.00000000 </v>
    <v>       0.39684232       0.93649101       0.00000000 </v>
    <v>       0.73017565       0.93649101       0.00000000 </v>
    <v>       0.29027274       0.17214940       0.39352170 </v>
    <v>       0.62360607       0.17214940       0.39352170 </v>
    <v>       0.95693941       0.17214940       0.39352170 </v>
    <v>       0.29027274       0.50548273       0.39352170 </v>
    <v>       0.62360607       0.50548273       0.39352170 </v>
    <v>       0.95693941       0.50548273       0.39352170 </v>
    <v>       0.29027274       0.83881607       0.39352170 </v>
    <v>       0.62360607       0.83881607       0.39352170 </v>
    <v>       0.95693941       0.83881607       0.39352170 </v>
    <v>       0.16118393       0.04306059       0.60647830 </v>
    <v>       0.49451727       0.04306059       0.60647830 </v>
    <v>       0.82785060       0.04306059       0.60647830 </v>
    <v>       0.16118393       0.37639393       0.60647830 </v>
    <v>       0.49451727       0.37639393       0.60647830 </v>
    <v>       0.82785060       0.37639393       0.60647830 </v>
    <v>       0.16118393       0.70972726       0.60647830 </v>
    <v>       0.49451727       0.70972726       0.60647830 </v>
    <v>       0.82785060       0.70972726       0.60647830 </v>
    <v>       0.03761391       0.07731307       0.84542777 </v>
    <v>       0.37094724       0.07731307       0.84542777 </v>
    <v>       0.70428057       0.07731307       0.84542777 </v>
    <v>       0.03761391       0.41064640       0.84542777 </v>
    <v>       0.37094724       0.41064640       0.84542777 </v>
    <v>       0.70428057       0.41064640       0.84542777 </v>
    <v>       0.03761391       0.74397973       0.84542777 </v>
    <v>       0.37094724       0.74397973       0.84542777 </v>
    <v>       0.70428057       0.74397973       0.84542777 </v>
    <v>       0.25602027       0.29571943       0.15457223 </v>
    <v>       0.58935360       0.29571943       0.15457223 </v>
    <v>       0.92268693       0.29571943       0.15457223 </v>
    <v>       0.25602027       0.62905276       0.15457223 </v>
    <v>       0.58935360       0.62905276       0.15457223 </v>
    <v>       0.92268693       0.62905276       0.15457223 </v>
    <v>       0.25602027       0.96238609       0.15457223 </v>
    <v>       0.58935360       0.96238609       0.15457223 </v>
    <v>       0.92268693       0.96238609       0.15457223 </v>
   </varray>
  </structure>
  <varray name="forces" >
   <v>      -0.00003332       0.00054352       0.00173571 </v>
   <v>       0.00093979       0.00051898       0.00017265 </v>
   <v>      -0.00030159       0.00052049      -0.00148018 </v>
   <v>      -0.00012836       0.00007819       0.00003900 </v>
   <v>       0.00042417      -0.00057992      -0.00002138 </v>
   <v>      -0.00034659      -0.00125681      -0.00011581 </v>
   <v>      -0.00008537      -0.00029599       0.00015146 </v>
   <v>       0.00044786       0.00039093       0.00014249 </v>
   <v>      -0.00042328       0.00106649       0.00003419 </v>
   <v>      -0.00058939       0.00008323      -0.00048915 </v>
   <v>       0.00093894       0.00004045       0.00028625 </v>
   <v>      -0.00059814       0.00010703       0.00021861 </v>
   <v>      -0.00057563       0.00031974      -0.00039533 </v>
   <v>       0.00084991      -0.00000473       0.00028124 </v>
   <v>      -0.00062617      -0.00047442       0.00013268 </v>
   <v>      -0.00055344      -0.00044254      -0.00043880 </v>
   <v>       0.00083394      -0.00006089       0.00024933 </v>
   <v>      -0.00065319       0.00034307       0.00017009 </v>
   <v>      -0.00058469      -0.00001267       0.00027313 </v>
   <v>      -0.00082038       0.00001452      -0.00043190 </v>
   <v>       0.00089977       0.00001386       0.00003030 </v>
   <v>      -0.00064572      -0.00060073       0.00017005 </v>
   <v>      -0.00088621       0.00054539      -0.00035482 </v>
   <v>       0.00044280       0.00001270       0.00007238 </v>
   <v>      -0.00068093       0.00058029       0.00026015 </v>
   <v>      -0.00093918      -0.00061565      -0.00036983 </v>
   <v>       0.00048461      -0.00004597       0.00003474 </v>
   <v>      -0.00344221       0.00564436      -0.00585025 </v>
   <v>      -0.00182794       0.00038878      -0.00003199 </v>
   <v>      -0.00312854      -0.00481808       0.00588523 </v>
   <v>      -0.00336808      -0.00483878      -0.00573130 </v>
   <v>      -0.00179935       0.00017254      -0.00004434 </v>
   <v>      -0.00318084       0.00501321       0.00555457 </v>
   <v>       0.00040804       0.00024397       0.00016912 </v>
   <v>      -0.00091107       0.00020060      -0.00002475 </v>
   <v>       0.00064512       0.00023039      -0.00011670 </v>
   <v>       0.03497012      -0.00061670       0.00179521 </v>
   <v>      -0.00583084       0.00002898       0.00023473 </v>
   <v>      -0.00590267       0.00011978      -0.00044829 </v>
   <v>       0.00188727       0.00006267       0.00004892 </v>
   <v>      -0.00079768      -0.00077802       0.00002229 </v>
   <v>      -0.00078674       0.00091115      -0.00009135 </v>
   <v>       0.00188716       0.00012975       0.00007815 </v>
   <v>      -0.00078965       0.00090702       0.00002161 </v>
   <v>      -0.00079673      -0.00076850      -0.00011933 </v>
   <v>      -0.00148012      -0.00219282       0.00382247 </v>
   <v>      -0.00100775       0.00005359      -0.00005301 </v>
   <v>      -0.00146056       0.00243256      -0.00373505 </v>
   <v>       0.00039883       0.00005349      -0.00004327 </v>
   <v>      -0.00067638       0.00002569      -0.00002401 </v>
   <v>       0.00034508       0.00003551       0.00022864 </v>
   <v>      -0.00153331       0.00237370       0.00392739 </v>
   <v>      -0.00101268       0.00003299      -0.00003094 </v>
   <v>      -0.00149842      -0.00247020      -0.00395295 </v>
   <v>       0.00127393      -0.00001633       0.00032922 </v>
   <v>      -0.00058133      -0.00000720      -0.00063717 </v>
   <v>      -0.00024966       0.00001619       0.00027485 </v>
   <v>       0.00044884      -0.00001029       0.00006745 </v>
   <v>      -0.00042721      -0.00028212      -0.00039923 </v>
   <v>      -0.00019751       0.00023771       0.00031725 </v>
   <v>       0.00051971      -0.00001302       0.00035109 </v>
   <v>      -0.00048561       0.00026870      -0.00040182 </v>
   <v>      -0.00014498      -0.00029373       0.00002379 </v>
   <v>       0.00102289      -0.00008761      -0.00103361 </v>
   <v>       0.00109454      -0.00015548       0.00103147 </v>
   <v>      -0.00258260      -0.00005325      -0.00124968 </v>
   <v>       0.00079103       0.00043307      -0.00012337 </v>
   <v>       0.00085852      -0.00057491       0.00006837 </v>
   <v>      -0.00116426      -0.00019687      -0.00025961 </v>
   <v>       0.00085670      -0.00047704      -0.00008044 </v>
   <v>       0.00090698       0.00055228       0.00007313 </v>
   <v>      -0.00128151       0.00012603      -0.00020775 </v>
   <v>      -0.00257749      -0.00046798       0.00027249 </v>
   <v>       0.00180979      -0.00015801       0.00019458 </v>
   <v>      -0.00091474       0.00155908      -0.00000088 </v>
   <v>       0.00032774       0.00279014      -0.00010364 </v>
   <v>       0.00174129      -0.00021361       0.00012811 </v>
   <v>       0.00131505      -0.00380667       0.00024256 </v>
   <v>      -0.00079403      -0.00030202       0.00012912 </v>
   <v>       0.00131760      -0.00021971       0.00013805 </v>
   <v>      -0.00068409      -0.00020760      -0.00001299 </v>
   <v>      -0.00437816      -0.00011489      -0.00021454 </v>
   <v>       0.00225628      -0.00031013       0.00056417 </v>
   <v>       0.00220431       0.00017174      -0.00043077 </v>
   <v>      -0.00442458      -0.00000004      -0.00019181 </v>
   <v>       0.00217235       0.00019285       0.00056530 </v>
   <v>       0.00218644      -0.00033561      -0.00041311 </v>
   <v>      -0.00007971      -0.00013337      -0.00010204 </v>
   <v>       0.00024011      -0.00007588       0.00010004 </v>
   <v>       0.00028972      -0.00000157      -0.00002677 </v>
   <v>       0.00046772      -0.00016188      -0.00051396 </v>
   <v>       0.00119906      -0.00024427       0.00040948 </v>
   <v>      -0.00118774      -0.00023685      -0.00024392 </v>
   <v>      -0.00000190      -0.00005132      -0.00005311 </v>
   <v>       0.00042698      -0.00009861      -0.00000372 </v>
   <v>      -0.00024298      -0.00017329      -0.00017860 </v>
   <v>       0.00061067      -0.00017701      -0.00054132 </v>
   <v>       0.00104467      -0.00006701       0.00045587 </v>
   <v>      -0.00108311       0.00001124      -0.00016059 </v>
  </varray>
  <varray name="stress" >
   <v>      -0.15249763       0.00936303      -0.01957439 </v>
   <v>       0.00983861      -0.13374078      -0.00740074 </v>
   <v>      -0.00993979       0.00252263      -0.13538080 </v>
  </varray>
  <energy>
   <i name="e_fr_energy">   -550.33909075 </i>
   <i name="e_wo_entrp">   -550.33909075 </i>
   <i name="e_0_energy">     -0.00000000 </i>
  </energy>
  <time name="totalsc"> 9396.03 9480.69</time>
  <eigenvalues>
   <array>
    <dimension dim="1">band</dimension>
    <dimension dim="2">kpoint</dimension>
    <dimension dim="3">spin</dimension>
    <field>eigene</field>
    <field>occ</field>
    <set>
     <set comment="spin 1">
      <set comment="kpoint 1">
       <r>  -51.0538    1.0000 </r>
       <r>  -51.0532    1.0000 </r>
       <r>  -51.0506    1.0000 </r>
       <r>  -51.0503    1.0000 </r>
       <r>  -51.0499    1.0000 </r>
       <r>  -51.0497    1.0000 </r>
       <r>  -51.0496    1.0000 </r>
       <r>  -51.0494    1.0000 </r>
       <r>  -51.0493    1.0000 </r>
       <r>  -51.0492    1.0000 </r>
       <r>  -51.0489    1.0000 </r>
       <r>  -51.0489    1.0000 </r>
       <r>  -51.0481    1.0000 </r>
       <r>  -51.0475    1.0000 </r>
       <r>  -51.0469    1.0000 </r>
       <r>  -51.0465    1.0000 </r>
       <r>  -51.0450    1.0000 </r>
       <r>  -51.0444    1.0000 </r>
       <r>  -51.0376    1.0000 </r>
       <r>  -51.0376    1.0000 </r>
       <r>  -51.0376    1.0000 </r>
       <r>  -51.0371    1.0000 </r>
       <r>  -51.0370    1.0000 </r>
       <r>  -51.0367    1.0000 </r>
       <r>  -51.0366    1.0000 </r>
       <r>  -51.0365    1.0000 </r>
       <r>  -51.0365    1.0000 </r>
       <r>  -51.0364    1.0000 </r>
       <r>  -51.0361    1.0000 </r>
       <r>  -51.0359    1.0000 </r>
       <r>  -51.0358    1.0000 </r>
       <r>  -51.0357    1.0000 </r>
       <r>  -51.0356    1.0000 </r>
       <r>  -51.0354    1.0000 </r>
       <r>  -51.0346    1.0000 </r>
       <r>  -51.0345    1.0000 </r>
       <r>  -49.6905    1.0000 </r>
       <r>  -49.6902    1.0000 </r>
       <r>  -49.6900    1.0000 </r>
       <r>  -49.6899    1.0000 </r>
       <r>  -49.6897    1.0000 </r>
       <r>  -49.6895    1.0000 </r>
       <r>  -49.6895    1.0000 </r>
       <r>  -49.6894    1.0000 </r>
       <r>  -49.6893    1.0000 </r>
       <r>  -49.6892    1.0000 </r>
       <r>  -49.6891    1.0000 </r>
       <r>  -49.6888    1.0000 </r>
       <r>  -49.6888    1.0000 </r>
       <r>  -49.6887    1.0000 </r>
       <r>  -49.6885    1.0000 </r>
       <r>  -49.6885    1.0000 </r>
       <r>  -49.6882    1.0000 </r>
       <r>  -49.6876    1.0000 </r>
       <r>  -49.5952    1.0000 </r>
       <r>  -49.5944    1.0000 </r>
       <r>  -49.5910    1.0000 </r>
       <r>  -49.5910    1.0000 </r>
       <r>  -49.5908    1.0000 </r>
       <r>  -49.5905    1.0000 </r>
       <r>  -49.5901    1.0000 </r>
       <r>  -49.5896    1.0000 </r>
       <r>  -49.5892    1.0000 </r>
       <r>  -49.5889    1.0000 </r>
       <r>  -49.5887    1.0000 </r>
       <r>  -49.5884    1.0000 </r>
       <r>  -49.5884    1.0000 </r>
       <r>  -49.5881    1.0000 </r>
       <r>  -49.5879    1.0000 </r>
       <r>  -49.5876    1.0000 </r>
       <r>  -49.5865    1.0000 </r>
       <r>  -49.5856    1.0000 </r>
       <r>  -49.5646    1.0000 </r>
       <r>  -49.5639    1.0000 </r>
       <r>  -49.5619    1.0000 </r>
       <r>  -49.5618    1.0000 </r>
       <r>  -49.5612    1.0000 </r>
       <r>  -49.5609    1.0000 </r>
       <r>  -49.5608    1.0000 </r>
       <r>  -49.5606    1.0000 </r>
       <r>  -49.5599    1.0000 </r>
       <r>  -49.5595    1.0000 </r>
       <r>  -49.5593    1.0000 </r>
       <r>  -49.5589    1.0000 </r>
       <r>  -49.5589    1.0000 </r>
       <r>  -49.5588    1.0000 </r>
       <r>  -49.5584    1.0000 </r>
       <r>  -49.5574    1.0000 </r>
       <r>  -49.5546    1.0000 </r>
       <r>  -49.5540    1.0000 </r>
       <r>  -49.5490    1.0000 </r>
       <r>  -49.5487    1.0000 </r>
       <r>  -49.5487    1.0000 </r>
       <r>  -49.5485    1.0000 </r>
       <r>  -49.5483    1.0000 </r>
       <r>  -49.5481    1.0000 </r>
       <r>  -49.5476    1.0000 </r>
       <r>  -49.5475    1.0000 </r>
       <r>  -49.5474    1.0000 </r>
       <r>  -49.5474    1.0000 </r>
       <r>  -49.5470    1.0000 </r>
       <r>  -49.5469    1.0000 </r>
       <r>  -49.5468    1.0000 </r>
       <r>  -49.5467    1.0000 </r>
       <r>  -49.5465    1.0000 </r>
       <r>  -49.5465    1.0000 </r>
       <r>  -49.5456    1.0000 </r>
       <r>  -49.5454    1.0000 </r>
       <r>  -39.8661    1.0000 </r>
       <r>  -39.8640    1.0000 </r>
       <r>  -39.8638    1.0000 </r>
       <r>  -39.8635    1.0000 </r>
       <r>  -39.8635    1.0000 </r>
       <r>  -39.8635    1.0000 </r>
       <r>  -39.8632    1.0000 </r>
       <r>  -39.8631    1.0000 </r>
       <r>  -39.8629    1.0000 </r>
       <r>  -39.8627    1.0000 </r>
       <r>  -39.8626    1.0000 </r>
       <r>  -39.8624    1.0000 </r>
       <r>  -39.8623    1.0000 </r>
       <r>  -39.8621    1.0000 </r>
       <r>  -39.8618    1.0000 </r>
       <r>  -39.8618    1.0000 </r>
       <r>  -39.8617    1.0000 </r>
       <r>  -39.8596    1.0000 </r>
       <r>  -13.2352    1.0000 </r>
       <r>  -13.2349    1.0000 </r>
       <r>  -13.2349    1.0000 </r>
       <r>  -13.2345    1.0000 </r>
       <r>  -13.2259    1.0000 </r>
       <r>  -13.1987    1.0000 </r>
       <r>  -13.0560    1.0000 </r>
       <r>  -13.0554    1.0000 </r>
       <r>  -13.0542    1.0000 </r>
       <r>  -13.0537    1.0000 </r>
       <r>  -13.0427    1.0000 </r>
       <r>  -13.0422    1.0000 </r>
       <r>  -13.0411    1.0000 </r>
       <r>  -13.0405    1.0000 </r>
       <r>  -13.0197    1.0000 </r>
       <r>  -13.0186    1.0000 </r>
       <r>  -13.0186    1.0000 </r>
       <r>  -13.0175    1.0000 </r>
       <r>   -7.6148    1.0000 </r>
       <r>   -7.4115    1.0000 </r>
       <r>   -7.3755    1.0000 </r>
       <r>   -7.3751    1.0000 </r>
       <r>   -7.3751    1.0000 </r>
       <r>   -7.3746    1.0000 </r>
       <r>   -7.1815    1.0000 </r>
       <r>   -7.1812    1.0000 </r>
       <r>   -7.1717    1.0000 </r>
       <r>   -7.1716    1.0000 </r>
       <r>   -7.1517    1.0000 </r>
       <r>   -7.1512    1.0000 </r>
       <r>   -7.1512    1.0000 </r>
       <r>   -7.1509    1.0000 </r>
       <r>   -6.9846    1.0000 </r>
       <r>   -6.9657    1.0000 </r>
       <r>   -6.9645    1.0000 </r>
       <r>   -6.9309    1.0000 </r>
       <r>   -6.9298    1.0000 </r>
       <r>   -6.8719    1.0000 </r>
       <r>   -6.8714    1.0000 </r>
       <r>   -6.8711    1.0000 </r>
       <r>   -6.8708    1.0000 </r>
       <r>   -6.8076    1.0000 </r>
       <r>   -6.8068    1.0000 </r>
       <r>   -6.7807    1.0000 </r>
       <r>   -6.7801    1.0000 </r>
       <r>   -1.8372    1.0000 </r>
       <r>   -1.8367    1.0000 </r>
       <r>   -1.8367    1.0000 </r>
       <r>   -1.8362    1.0000 </r>
       <r>   -1.8163    1.0000 </r>
       <r>   -1.8161    1.0000 </r>
       <r>   -1.8036    1.0000 </r>
       <r>   -1.8034    1.0000 </r>
       <r>   -1.7664    1.0000 </r>
       <r>   -1.7662    1.0000 </r>
       <r>   -1.7536    1.0000 </r>
       <r>   -1.7534    1.0000 </r>
       <r>   -1.2808    1.0000 </r>
       <r>   -1.1977    1.0000 </r>
       <r>   -1.1973    1.0000 </r>
       <r>   -1.1973    1.0000 </r>
       <r>   -1.1968    1.0000 </r>
       <r>   -1.0050    1.0000 </r>
       <r>   -1.0048    1.0000 </r>
       <r>   -0.9742    1.0000 </r>
       <r>   -0.9741    1.0000 </r>
       <r>   -0.9588    1.0000 </r>
       <r>   -0.9586    1.0000 </r>
       <r>   -0.9469    1.0000 </r>
       <r>   -0.9385    1.0000 </r>
       <r>   -0.9311    1.0000 </r>
       <r>   -0.9282    1.0000 </r>
       <r>   -0.9281    1.0000 </r>
       <r>   -0.8848    1.0000 </r>
       <r>   -0.8844    1.0000 </r>
       <r>   -0.8844    1.0000 </r>
       <r>   -0.8842    1.0000 </r>
       <r>   -0.8714    1.0000 </r>
       <r>   -0.8714    1.0000 </r>
       <r>   -0.8676    1.0000 </r>
       <r>   -0.8672    1.0000 </r>
       <r>   -0.8672    1.0000 </r>
       <r>   -0.8666    1.0000 </r>
       <r>   -0.8595    1.0000 </r>
       <r>   -0.8594    1.0000 </r>
       <r>   -0.7010    1.0000 </r>
       <r>   -0.7001    1.0000 </r>
       <r>   -0.7001    1.0000 </r>
       <r>   -0.6994    1.0000 </r>
       <r>   -0.6713    1.0000 </r>
       <r>   -0.6712    1.0000 </r>
       <r>   -0.6229    1.0000 </r>
       <r>   -0.6228    1.0000 </r>
       <r>   -0.6227    1.0000 </r>
       <r>   -0.6224    1.0000 </r>
       <r>   -0.6221    1.0000 </r>
       <r>   -0.6217    1.0000 </r>
       <r>   -0.3523    1.0000 </r>
       <r>   -0.3521    1.0000 </r>
       <r>   -0.3519    1.0000 </r>
       <r>   -0.3518    1.0000 </r>
       <r>   -0.3219    1.0000 </r>
       <r>   -0.3217    1.0000 </r>
       <r>   -0.2915    1.0000 </r>
       <r>   -0.2912    1.0000 </r>
       <r>   -0.2649    1.0000 </r>
       <r>   -0.2638    1.0000 </r>
       <r>   -0.2638    1.0000 </r>
       <r>   -0.2634    1.0000 </r>
       <r>   -0.2606    1.0000 </r>
       <r>   -0.2605    1.0000 </r>
       <r>   -0.2578    1.0000 </r>
       <r>   -0.2486    1.0000 </r>
       <r>   -0.2484    1.0000 </r>
       <r>   -0.2426    1.0000 </r>
       <r>   -0.2204    1.0000 </r>
       <r>   -0.1404    1.0000 </r>
       <r>   -0.1403    1.0000 </r>
       <r>   -0.1402    1.0000 </r>
       <r>   -0.1398    1.0000 </r>
       <r>   -0.1395    1.0000 </r>
       <r>   -0.1391    1.0000 </r>
       <r>   -0.1232    1.0000 </r>
       <r>   -0.1229    1.0000 </r>
       <r>   -0.1228    1.0000 </r>
       <r>   -0.1224    1.0000 </r>
       <r>   -0.1204    1.0000 </r>
       <r>   -0.1197    1.0000 </r>
       <r>   -0.0778    1.0000 </r>
       <r>   -0.0776    1.0000 </r>
       <r>   -0.0595    1.0000 </r>
       <r>   -0.0118    1.0000 </r>
       <r>   -0.0115    1.0000 </r>
       <r>    0.0158    1.0000 </r>
       <r>    0.0160    1.0000 </r>
       <r>    0.0261    1.0000 </r>
       <r>    0.0263    1.0000 </r>
       <r>    0.0425    1.0000 </r>
       <r>    0.0432    1.0000 </r>
       <r>    0.0432    1.0000 </r>
       <r>    0.0437    1.0000 </r>
       <r>    0.0607    1.0000 </r>
       <r>    0.0609    1.0000 </r>
       <r>    0.1493    1.0000 </r>
       <r>    0.1501    1.0000 </r>
       <r>    0.1502    1.0000 </r>
       <r>    0.1506    1.0000 </r>
       <r>    0.1583    1.0000 </r>
       <r>    0.1639    1.0000 </r>
       <r>    0.1656    1.0000 </r>
       <r>    0.1826    1.0000 </r>
       <r>    0.1826    1.0000 </r>
       <r>    0.1923    1.0000 </r>
       <r>    0.1966    1.0000 </r>
       <r>    0.1969    1.0000 </r>
       <r>    0.2077    1.0000 </r>
       <r>    0.2082    1.0000 </r>
       <r>    0.2578    1.0000 </r>
       <r>    0.2582    1.0000 </r>
       <r>    0.2583    1.0000 </r>
       <r>    0.2588    1.0000 </r>
       <r>    0.2784    1.0000 </r>
       <r>    0.2786    1.0000 </r>
       <r>    0.3392    1.0000 </r>
       <r>    0.3395    1.0000 </r>
       <r>    0.3596    1.0000 </r>
       <r>    0.3600    1.0000 </r>
       <r>    0.3600    1.0000 </r>
       <r>    0.3603    1.0000 </r>
       <r>    0.3802    1.0000 </r>
       <r>    0.3832    1.0000 </r>
       <r>    0.4896    1.0000 </r>
       <r>    0.4898    1.0000 </r>
       <r>    0.4899    1.0000 </r>
       <r>    0.4901    1.0000 </r>
       <r>    0.5163    1.0000 </r>
       <r>    0.5171    1.0000 </r>
       <r>    0.5174    1.0000 </r>
       <r>    0.5178    1.0000 </r>
       <r>    0.5588    1.0000 </r>
       <r>    0.5589    1.0000 </r>
       <r>    0.6089    1.0000 </r>
       <r>    0.6090    1.0000 </r>
       <r>    0.6148    1.0000 </r>
       <r>    0.6303    1.0000 </r>
       <r>    0.6311    1.0000 </r>
       <r>    0.6312    1.0000 </r>
       <r>    0.6316    1.0000 </r>
       <r>    0.7522    1.0000 </r>
       <r>    0.7524    1.0000 </r>
       <r>    0.7612    1.0000 </r>
       <r>    0.7614    1.0000 </r>
       <r>    0.7621    1.0000 </r>
       <r>    0.7624    1.0000 </r>
       <r>    0.7904    1.0000 </r>
       <r>    0.7910    1.0000 </r>
       <r>    0.7933    1.0000 </r>
       <r>    0.8459    1.0000 </r>
       <r>    0.8464    1.0000 </r>
       <r>    0.8548    1.0000 </r>
       <r>    0.8553    1.0000 </r>
       <r>    0.9690    1.0000 </r>
       <r>    0.9691    1.0000 </r>
       <r>    0.9691    1.0000 </r>
       <r>    0.9695    1.0000 </r>
       <r>    0.9793    1.0000 </r>
       <r>    1.2399    1.0000 </r>
       <r>    1.2399    1.0000 </r>
       <r>    1.2400    1.0000 </r>
       <r>    1.2403    1.0000 </r>
       <r>    1.2639    1.0000 </r>
       <r>    1.2926    1.0000 </r>
       <r>    1.2928    1.0000 </r>
       <r>    1.3304    1.0000 </r>
       <r>    1.3308    1.0000 </r>
       <r>    1.3587    1.0000 </r>
       <r>    1.3588    1.0000 </r>
       <r>    1.3588    1.0000 </r>
       <r>    1.3592    1.0000 </r>
       <r>    1.4364    1.0000 </r>
       <r>    1.4372    1.0000 </r>
       <r>    1.4642    1.0000 </r>
       <r>    1.4755    1.0000 </r>
       <r>    1.4872    1.0000 </r>
       <r>    1.4877    1.0000 </r>
       <r>    1.5476    1.0000 </r>
       <r>    1.6788    1.0000 </r>
       <r>    1.6801    1.0000 </r>
       <r>    1.6802    1.0000 </r>
       <r>    1.7236    1.0000 </r>
       <r>    1.7237    1.0000 </r>
       <r>    1.7238    1.0000 </r>
       <r>    1.7241    1.0000 </r>
       <r>    1.7655    1.0000 </r>
       <r>    1.7657    1.0000 </r>
       <r>    1.8142    1.0000 </r>
       <r>    1.8143    1.0000 </r>
       <r>    1.8149    1.0000 </r>
       <r>    1.8150    1.0000 </r>
       <r>    1.8263    1.0000 </r>
       <r>    1.8273    1.0000 </r>
       <r>    1.8277    1.0000 </r>
       <r>    1.8284    1.0000 </r>
       <r>    1.8395    1.0000 </r>
       <r>    1.8760    1.0000 </r>
       <r>    1.8865    1.0000 </r>
       <r>    1.9030    1.0000 </r>
       <r>    1.9031    1.0000 </r>
       <r>    1.9176    1.0000 </r>
       <r>    1.9178    1.0000 </r>
       <r>    1.9633    1.0000 </r>
       <r>    1.9636    1.0000 </r>
       <r>    1.9898    1.0000 </r>
       <r>    1.9901    1.0000 </r>
       <r>    1.9990    1.0000 </r>
       <r>    1.9992    1.0000 </r>
       <r>    1.9994    1.0000 </r>
       <r>    1.9995    1.0000 </r>
       <r>    2.0714    1.0000 </r>
       <r>    2.0714    1.0000 </r>
       <r>    2.0813    1.0000 </r>
       <r>    2.0816    1.0000 </r>
       <r>    2.0816    1.0000 </r>
       <r>    2.0818    1.0000 </r>
       <r>    2.0943    1.0000 </r>
       <r>    2.0946    1.0000 </r>
       <r>    2.1156    1.0000 </r>
       <r>    2.1162    1.0000 </r>
       <r>    2.1163    1.0000 </r>
       <r>    2.1173    1.0000 </r>
       <r>    2.1956    1.0000 </r>
       <r>    2.1958    1.0000 </r>
       <r>    2.2886    1.0000 </r>
       <r>    2.2887    1.0000 </r>
       <r>    2.4162    1.0000 </r>
       <r>    2.4165    1.0000 </r>
       <r>    2.4402    1.0000 </r>
       <r>    2.4409    1.0000 </r>
       <r>    2.4410    1.0000 </r>
       <r>    2.4415    1.0000 </r>
       <r>    2.4996    1.0000 </r>
       <r>    2.5160    1.0000 </r>
       <r>    2.5164    1.0000 </r>
       <r>    2.5166    1.0000 </r>
       <r>    2.5171    1.0000 </r>
       <r>    2.5594    1.0000 </r>
       <r>    2.5596    1.0000 </r>
       <r>    2.5653    1.0000 </r>
       <r>    2.7183    1.0000 </r>
       <r>    2.7188    1.0000 </r>
       <r>    2.7189    1.0000 </r>
       <r>    2.7192    1.0000 </r>
       <r>    2.7331    1.0000 </r>
       <r>    2.7338    1.0000 </r>
       <r>    2.7999    1.0000 </r>
       <r>    2.8008    1.0000 </r>
       <r>    3.0021    1.0000 </r>
       <r>    3.0026    1.0000 </r>
       <r>    3.0064    1.0000 </r>
       <r>    3.0068    1.0000 </r>
       <r>    3.1702    1.0000 </r>
       <r>    3.2186    1.0000 </r>
       <r>    3.2197    1.0000 </r>
       <r>    3.2215    1.0000 </r>
       <r>    3.2226    1.0000 </r>
       <r>    3.3590    1.0000 </r>
       <r>    3.3598    1.0000 </r>
       <r>    3.3599    1.0000 </r>
       <r>    3.3601    1.0000 </r>
       <r>    3.3930    1.0000 </r>
       <r>    3.4017    1.0000 </r>
       <r>    3.5015    1.0000 </r>
       <r>    3.5021    1.0000 </r>
       <r>    3.5875    1.0000 </r>
       <r>    3.5877    1.0000 </r>
       <r>    3.8159    1.0000 </r>
       <r>    3.8160    1.0000 </r>
       <r>    3.8300    1.0000 </r>
       <r>    3.8309    1.0000 </r>
       <r>    4.0025    1.0000 </r>
       <r>    4.0029    1.0000 </r>
       <r>    4.0033    1.0000 </r>
       <r>    4.0034    1.0000 </r>
       <r>    4.0312    1.0000 </r>
       <r>    4.0316    1.0000 </r>
       <r>    4.0317    1.0000 </r>
       <r>    4.0322    1.0000 </r>
       <r>    4.1062    1.0000 </r>
       <r>    4.1168    1.0000 </r>
       <r>    4.1219    1.0000 </r>
       <r>    4.1593    1.0000 </r>
       <r>    4.1603    1.0000 </r>
       <r>    4.2587    1.0000 </r>
       <r>    4.2593    1.0000 </r>
       <r>    4.2766    1.0000 </r>
       <r>    4.2773    1.0000 </r>
       <r>    4.3297    1.0000 </r>
       <r>    4.3308    1.0000 </r>
       <r>    4.3581    1.0000 </r>
       <r>    4.3587    1.0000 </r>
       <r>    4.3588    1.0000 </r>
       <r>    4.3593    1.0000 </r>
       <r>    4.4113    1.0000 </r>
       <r>    4.4119    1.0000 </r>
       <r>    4.4336    1.0000 </r>
       <r>    4.4343    1.0000 </r>
       <r>    4.5228    1.0000 </r>
       <r>    4.5236    1.0000 </r>
       <r>    4.5237    1.0000 </r>
       <r>    4.5240    1.0000 </r>
       <r>    4.5507    1.0000 </r>
       <r>    4.5511    1.0000 </r>
       <r>    4.8110    1.0000 </r>
       <r>    4.8120    1.0000 </r>
       <r>    4.8121    1.0000 </r>
       <r>    4.8129    1.0000 </r>
       <r>    4.8744    1.0000 </r>
       <r>    4.8751    1.0000 </r>
       <r>    4.8752    1.0000 </r>
       <r>    4.8756    1.0000 </r>
       <r>    7.3645    0.0000 </r>
       <r>    8.4303    0.0000 </r>
       <r>    8.6648    0.0000 </r>
       <r>    8.6657    0.0000 </r>
       <r>    8.8411    0.0000 </r>
       <r>    8.8418    0.0000 </r>
       <r>    8.8421    0.0000 </r>
       <r>    8.8422    0.0000 </r>
       <r>    8.9860    0.0000 </r>
       <r>    8.9870    0.0000 </r>
       <r>    9.3091    0.0000 </r>
       <r>    9.3111    0.0000 </r>
       <r>    9.3114    0.0000 </r>
       <r>    9.3129    0.0000 </r>
       <r>    9.3208    0.0000 </r>
       <r>    9.3220    0.0000 </r>
       <r>    9.4440    0.0000 </r>
       <r>    9.4459    0.0000 </r>
       <r>    9.5146    0.0000 </r>
       <r>    9.5157    0.0000 </r>
       <r>    9.5159    0.0000 </r>
       <r>    9.5172    0.0000 </r>
       <r>    9.8732    0.0000 </r>
       <r>    9.8787    0.0000 </r>
       <r>    9.9186    0.0000 </r>
       <r>    9.9191    0.0000 </r>
       <r>    9.9192    0.0000 </r>
       <r>    9.9194    0.0000 </r>
       <r>    9.9668    0.0000 </r>
       <r>    9.9681    0.0000 </r>
       <r>   10.0692    0.0000 </r>
       <r>   10.0697    0.0000 </r>
       <r>   10.4890    0.0000 </r>
       <r>   10.5025    0.0000 </r>
       <r>   10.5027    0.0000 </r>
       <r>   10.5194    0.0000 </r>
       <r>   10.5204    0.0000 </r>
       <r>   10.8004    0.0000 </r>
       <r>   10.8015    0.0000 </r>
       <r>   10.8017    0.0000 </r>
       <r>   10.8030    0.0000 </r>
       <r>   10.8751    0.0000 </r>
       <r>   10.8761    0.0000 </r>
       <r>   11.0176    0.0000 </r>
       <r>   11.0197    0.0000 </r>
       <r>   11.0512    0.0000 </r>
       <r>   11.2654    0.0000 </r>
       <r>   11.2662    0.0000 </r>
       <r>   11.3727    0.0000 </r>
       <r>   11.3735    0.0000 </r>
       <r>   11.3738    0.0000 </r>
       <r>   11.3747    0.0000 </r>
       <r>   11.3876    0.0000 </r>
       <r>   11.3882    0.0000 </r>
       <r>   11.3939    0.0000 </r>
[...]
       <r>   -45.9057    67.8629    52.3445 </r>
       <r>   -45.6647   230.9583   108.0000 </r>
       <r>   -45.4237     0.0000   108.0000 </r>
       <r>   -45.1828     0.0000   108.0000 </r>
       <r>   -44.9418     0.0000   108.0000 </r>
       <r>   -44.7008     0.0000   108.0000 </r>
       <r>   -44.4598     0.0000   108.0000 </r>
       <r>   -44.2188     0.0000   108.0000 </r>
       <r>   -43.9779     0.0000   108.0000 </r>
       <r>   -43.7369     0.0000   108.0000 </r>
       <r>   -43.4959     0.0000   108.0000 </r>
       <r>   -43.2549     0.0000   108.0000 </r>
       <r>   -43.0140     0.0000   108.0000 </r>
       <r>   -42.7730     0.0000   108.0000 </r>
       <r>   -42.5320     0.0000   108.0000 </r>
       <r>   -42.2910     0.0000   108.0000 </r>
       <r>   -42.0501     0.0000   108.0000 </r>
       <r>   -41.8091     0.0000   108.0000 </r>
       <r>   -41.5681     0.0000   108.0000 </r>
       <r>   -41.3271     0.0000   108.0000 </r>
       <r>   -41.0862     0.0000   108.0000 </r>
       <r>   -40.8452     0.0000   108.0000 </r>
       <r>   -40.6042     0.0000   108.0000 </r>
       <r>   -40.3632     0.0000   108.0000 </r>
       <r>   -40.1223     0.0000   108.0000 </r>
       <r>   -39.8813    20.9592   113.0507 </r>
       <r>   -39.6403    53.7369   126.0000 </r>
       <r>   -39.3993     0.0000   126.0000 </r>
       <r>   -39.1583     0.0000   126.0000 </r>
       <r>   -38.9174     0.0000   126.0000 </r>
       <r>   -38.6764     0.0000   126.0000 </r>
       <r>   -38.4354     0.0000   126.0000 </r>
       <r>   -38.1944     0.0000   126.0000 </r>
       <r>   -37.9535     0.0000   126.0000 </r>
       <r>   -37.7125     0.0000   126.0000 </r>
       <r>   -37.4715     0.0000   126.0000 </r>
       <r>   -37.2305     0.0000   126.0000 </r>
       <r>   -36.9896     0.0000   126.0000 </r>
       <r>   -36.7486     0.0000   126.0000 </r>
       <r>   -36.5076     0.0000   126.0000 </r>
       <r>   -36.2666     0.0000   126.0000 </r>
       <r>   -36.0257     0.0000   126.0000 </r>
       <r>   -35.7847     0.0000   126.0000 </r>
       <r>   -35.5437     0.0000   126.0000 </r>
       <r>   -35.3027     0.0000   126.0000 </r>
       <r>   -35.0617     0.0000   126.0000 </r>
       <r>   -34.8208     0.0000   126.0000 </r>
       <r>   -34.5798     0.0000   126.0000 </r>
       <r>   -34.3388     0.0000   126.0000 </r>
       <r>   -34.0978     0.0000   126.0000 </r>
       <r>   -33.8569     0.0000   126.0000 </r>
       <r>   -33.6159     0.0000   126.0000 </r>
       <r>   -33.3749     0.0000   126.0000 </r>
       <r>   -33.1339     0.0000   126.0000 </r>
       <r>   -32.8930     0.0000   126.0000 </r>
       <r>   -32.6520     0.0000   126.0000 </r>
       <r>   -32.4110     0.0000   126.0000 </r>
       <r>   -32.1700     0.0000   126.0000 </r>
       <r>   -31.9291     0.0000   126.0000 </r>
       <r>   -31.6881     0.0000   126.0000 </r>
       <r>   -31.4471     0.0000   126.0000 </r>
       <r>   -31.2061     0.0000   126.0000 </r>
       <r>   -30.9651     0.0000   126.0000 </r>
       <r>   -30.7242     0.0000   126.0000 </r>
       <r>   -30.4832     0.0000   126.0000 </r>
       <r>   -30.2422     0.0000   126.0000 </r>
       <r>   -30.0012     0.0000   126.0000 </r>
       <r>   -29.7603     0.0000   126.0000 </r>
       <r>   -29.5193     0.0000   126.0000 </r>
       <r>   -29.2783     0.0000   126.0000 </r>
       <r>   -29.0373     0.0000   126.0000 </r>
       <r>   -28.7964     0.0000   126.0000 </r>
       <r>   -28.5554     0.0000   126.0000 </r>
       <r>   -28.3144     0.0000   126.0000 </r>
       <r>   -28.0734     0.0000   126.0000 </r>
       <r>   -27.8325     0.0000   126.0000 </r>
       <r>   -27.5915     0.0000   126.0000 </r>
       <r>   -27.3505     0.0000   126.0000 </r>
       <r>   -27.1095     0.0000   126.0000 </r>
       <r>   -26.8686     0.0000   126.0000 </r>
       <r>   -26.6276     0.0000   126.0000 </r>
       <r>   -26.3866     0.0000   126.0000 </r>
       <r>   -26.1456     0.0000   126.0000 </r>
       <r>   -25.9046     0.0000   126.0000 </r>
       <r>   -25.6637     0.0000   126.0000 </r>
       <r>   -25.4227     0.0000   126.0000 </r>
       <r>   -25.1817     0.0000   126.0000 </r>
       <r>   -24.9407     0.0000   126.0000 </r>
       <r>   -24.6998     0.0000   126.0000 </r>
       <r>   -24.4588     0.0000   126.0000 </r>
       <r>   -24.2178     0.0000   126.0000 </r>
       <r>   -23.9768     0.0000   126.0000 </r>
       <r>   -23.7359     0.0000   126.0000 </r>
       <r>   -23.4949     0.0000   126.0000 </r>
       <r>   -23.2539     0.0000   126.0000 </r>
       <r>   -23.0129     0.0000   126.0000 </r>
       <r>   -22.7720     0.0000   126.0000 </r>
       <r>   -22.5310     0.0000   126.0000 </r>
       <r>   -22.2900     0.0000   126.0000 </r>
       <r>   -22.0490     0.0000   126.0000 </r>
       <r>   -21.8080     0.0000   126.0000 </r>
       <r>   -21.5671     0.0000   126.0000 </r>
       <r>   -21.3261     0.0000   126.0000 </r>
       <r>   -21.0851     0.0000   126.0000 </r>
       <r>   -20.8441     0.0000   126.0000 </r>
       <r>   -20.6032     0.0000   126.0000 </r>
       <r>   -20.3622     0.0000   126.0000 </r>
       <r>   -20.1212     0.0000   126.0000 </r>
       <r>   -19.8802     0.0000   126.0000 </r>
       <r>   -19.6393     0.0000   126.0000 </r>
       <r>   -19.3983     0.0000   126.0000 </r>
       <r>   -19.1573     0.0000   126.0000 </r>
       <r>   -18.9163     0.0000   126.0000 </r>
       <r>   -18.6754     0.0000   126.0000 </r>
       <r>   -18.4344     0.0000   126.0000 </r>
       <r>   -18.1934     0.0000   126.0000 </r>
       <r>   -17.9524     0.0000   126.0000 </r>
       <r>   -17.7115     0.0000   126.0000 </r>
       <r>   -17.4705     0.0000   126.0000 </r>
       <r>   -17.2295     0.0000   126.0000 </r>
       <r>   -16.9885     0.0000   126.0000 </r>
       <r>   -16.7475     0.0000   126.0000 </r>
       <r>   -16.5066     0.0000   126.0000 </r>
       <r>   -16.2656     0.0000   126.0000 </r>
       <r>   -16.0246     0.0000   126.0000 </r>
       <r>   -15.7836     0.0000   126.0000 </r>
       <r>   -15.5427     0.0000   126.0000 </r>
       <r>   -15.3017     0.0000   126.0000 </r>
       <r>   -15.0607     0.0000   126.0000 </r>
       <r>   -14.8197     0.0000   126.0000 </r>
       <r>   -14.5788     0.0000   126.0000 </r>
       <r>   -14.3378     0.0000   126.0000 </r>
       <r>   -14.0968     0.0000   126.0000 </r>
       <r>   -13.8558     0.0000   126.0000 </r>
       <r>   -13.6149     0.0000   126.0000 </r>
       <r>   -13.3739     0.0000   126.0000 </r>
       <r>   -13.1329     0.0000   126.0000 </r>
       <r>   -12.8919     0.2993   126.0721 </r>
       <r>   -12.6509    59.5438   140.4208 </r>
       <r>   -12.4100    14.8530   144.0000 </r>
       <r>   -12.1690     0.0000   144.0000 </r>
       <r>   -11.9280     0.0000   144.0000 </r>
       <r>   -11.6870     0.0000   144.0000 </r>
       <r>   -11.4461     0.0000   144.0000 </r>
       <r>   -11.2051     0.0000   144.0000 </r>
       <r>   -10.9641     0.0000   144.0000 </r>
       <r>   -10.7231     0.0000   144.0000 </r>
       <r>   -10.4822     0.0000   144.0000 </r>
       <r>   -10.2412     0.0000   144.0000 </r>
       <r>   -10.0002     0.0000   144.0000 </r>
       <r>    -9.7592     0.0000   144.0000 </r>
       <r>    -9.5183     0.0000   144.0000 </r>
       <r>    -9.2773     0.0000   144.0000 </r>
       <r>    -9.0363     0.0000   144.0000 </r>
       <r>    -8.7953     0.0000   144.0000 </r>
       <r>    -8.5543     0.0000   144.0000 </r>
       <r>    -8.3134     0.0000   144.0000 </r>
       <r>    -8.0724     0.0000   144.0000 </r>
       <r>    -7.8314     0.0000   144.0000 </r>
       <r>    -7.5904     0.0000   144.0000 </r>
       <r>    -7.3495     0.5474   144.1319 </r>
       <r>    -7.1085    19.5848   148.8514 </r>
       <r>    -6.8675    30.7630   156.2645 </r>
       <r>    -6.6265    25.5389   162.4188 </r>
       <r>    -6.3856    35.5238   170.9792 </r>
       <r>    -6.1446     0.0864   171.0000 </r>
       <r>    -5.9036     0.0000   171.0000 </r>
       <r>    -5.6626     0.0000   171.0000 </r>
       <r>    -5.4217     0.0000   171.0000 </r>
       <r>    -5.1807     0.0000   171.0000 </r>
       <r>    -4.9397     0.0000   171.0000 </r>
       <r>    -4.6987     0.0000   171.0000 </r>
       <r>    -4.4578     0.0000   171.0000 </r>
       <r>    -4.2168     0.0000   171.0000 </r>
       <r>    -3.9758     0.0000   171.0000 </r>
       <r>    -3.7348     0.0000   171.0000 </r>
       <r>    -3.4938     0.0000   171.0000 </r>
       <r>    -3.2529     0.0000   171.0000 </r>
       <r>    -3.0119     0.0000   171.0000 </r>
       <r>    -2.7709     0.0000   171.0000 </r>
       <r>    -2.5299     0.0000   171.0000 </r>
       <r>    -2.2890     0.0000   171.0000 </r>
       <r>    -2.0480     0.0000   171.0000 </r>
       <r>    -1.8070     0.0000   171.0000 </r>
       <r>    -1.5660     0.0000   171.0000 </r>
       <r>    -1.3251     0.0000   171.0000 </r>
       <r>    -1.0841     0.0000   171.0000 </r>
       <r>    -0.8431     0.0000   171.0000 </r>
       <r>    -0.6021     0.0003   171.0001 </r>
       <r>    -0.3612     9.3703   173.2581 </r>
       <r>    -0.1202    21.4044   178.4160 </r>
       <r>     0.1208    13.0804   181.5681 </r>
       <r>     0.3618    23.6772   187.2738 </r>
       <r>     0.6028    31.2175   194.7964 </r>
       <r>     0.8437    47.7713   206.3082 </r>
       <r>     1.0847    40.7296   216.1230 </r>
       <r>     1.3257    33.4783   224.1905 </r>
       <r>     1.5667    24.4025   230.0709 </r>
       <r>     1.8076    32.8735   237.9927 </r>
       <r>     2.0486    40.9222   247.8540 </r>
       <r>     2.2896    27.9372   254.5862 </r>
       <r>     2.5306    29.4085   261.6729 </r>
       <r>     2.7715    39.3121   271.1462 </r>
       <r>     3.0125    45.8815   282.2026 </r>
       <r>     3.2535    48.2819   293.8374 </r>
       <r>     3.4945    41.4715   303.8310 </r>
       <r>     3.7354     7.2237   305.5718 </r>
       <r>     3.9764    22.3314   310.9531 </r>
       <r>     4.2174    73.4536   328.6537 </r>
       <r>     4.4584    44.3854   339.3495 </r>
       <r>     4.6993    10.9989   342.0000 </r>
       <r>     4.9403     0.0000   342.0000 </r>
       <r>     5.1813     0.0000   342.0000 </r>
       <r>     5.4223     0.0000   342.0000 </r>
       <r>     5.6633     0.0000   342.0000 </r>
       <r>     5.9042     0.0000   342.0000 </r>
       <r>     6.1452     0.0000   342.0000 </r>
       <r>     6.3862     1.3332   342.3213 </r>
       <r>     6.6272     5.0761   343.5445 </r>
       <r>     6.8681    10.1617   345.9932 </r>
       <r>     7.1091    20.5176   350.9375 </r>
       <r>     7.3501    60.4609   365.5071 </r>
       <r>     7.5911    61.0472   380.2181 </r>
       <r>     7.8320    62.8805   395.3708 </r>
       <r>     8.0730    74.9683   413.4363 </r>
       <r>     8.3140    79.7940   432.6648 </r>
       <r>     8.5550    69.5027   449.4133 </r>
       <r>     8.7959    66.0067   465.3194 </r>
       <r>     9.0369    46.2834   476.4726 </r>
       <r>     9.2779    32.7751   484.3706 </r>
       <r>     9.5189     8.8293   486.4983 </r>
       <r>     9.7599     5.6825   487.8676 </r>
       <r>    10.0008    11.5299   490.6461 </r>
       <r>    10.2418    16.6588   494.6605 </r>
       <r>    10.4828    23.7393   500.3811 </r>
       <r>    10.7238    21.9925   505.6807 </r>
       <r>    10.9647    22.3297   511.0616 </r>
       <r>    11.2057    31.5247   518.6583 </r>
       <r>    11.4467    20.0526   523.4906 </r>
       <r>    11.6877    18.3125   527.9034 </r>
       <r>    11.9286    11.6785   530.7177 </r>
       <r>    12.1696    24.9698   536.7348 </r>
       <r>    12.4106    45.0041   547.5798 </r>
       <r>    12.6516    35.2383   556.0714 </r>
       <r>    12.8925    32.5732   563.9208 </r>
       <r>    13.1335    20.5366   568.8696 </r>
       <r>    13.3745    23.9964   574.6522 </r>
       <r>    13.6155    33.0974   582.6278 </r>
       <r>    13.8565    26.3345   588.9738 </r>
       <r>    14.0974    26.2330   595.2954 </r>
       <r>    14.3384    22.9421   600.8239 </r>
       <r>    14.5794    19.3135   605.4780 </r>
       <r>    14.8204     2.1663   606.0000 </r>
       <r>    15.0613     0.0000   606.0000 </r>
       <r>    15.3023     0.0000   606.0000 </r>
       <r>    15.5433     0.0000   606.0000 </r>
       <r>    15.7843     0.0000   606.0000 </r>
       <r>    16.0252     0.0000   606.0000 </r>
       <r>    16.2662     0.0000   606.0000 </r>
       <r>    16.5072     0.0000   606.0000 </r>
       <r>    16.7482     0.0000   606.0000 </r>
       <r>    16.9891     0.0000   606.0000 </r>
       <r>    17.2301     0.0000   606.0000 </r>
       <r>    17.4711     0.0000   606.0000 </r>
       <r>    17.7121     0.0000   606.0000 </r>
       <r>    17.9530     0.0000   606.0000 </r>
      </set>
     </set>
    </array>
   </total>
  </dos>
 </calculation>
 <structure name="finalpos" >
  <crystal>
   <varray name="basis" >
    <v>      11.77726974       0.00848871       0.06923316 </v>
    <v>      -0.03028248      11.77723386       0.06923316 </v>
    <v>      -2.02000231      -2.02666320      10.18574622 </v>
   </varray>
   <i name="volume">   1416.10551572 </i>
   <varray name="rec_basis" >
    <v>       0.08481023       0.00011906       0.01684296 </v>
    <v>      -0.00016014       0.08481016       0.01684296 </v>
    <v>      -0.00057537      -0.00057727       0.09794744 </v>
   </varray>
  </crystal>
  <varray name="positions" >
   <v>       0.20224939       0.24206952       0.83183419 </v>
   <v>       0.53558272       0.24206952       0.83183419 </v>
   <v>       0.86891606       0.24206952       0.83183419 </v>
   <v>       0.20224939       0.57540285       0.83183419 </v>
   <v>       0.53558272       0.57540285       0.83183419 </v>
   <v>       0.86891606       0.57540285       0.83183419 </v>
   <v>       0.20224939       0.90873619       0.83183419 </v>
   <v>       0.53558272       0.90873619       0.83183419 </v>
   <v>       0.86891606       0.90873619       0.83183419 </v>
   <v>       0.09126381       0.13108394       0.16816581 </v>
   <v>       0.42459715       0.13108394       0.16816581 </v>
   <v>       0.75793048       0.13108394       0.16816581 </v>
   <v>       0.09126381       0.46441728       0.16816581 </v>
   <v>       0.42459715       0.46441728       0.16816581 </v>
   <v>       0.75793048       0.46441728       0.16816581 </v>
   <v>       0.09126381       0.79775061       0.16816581 </v>
   <v>       0.42459715       0.79775061       0.16816581 </v>
   <v>       0.75793048       0.79775061       0.16816581 </v>
   <v>       0.26311007       0.13598816       0.19686089 </v>
   <v>       0.59644341       0.13598816       0.19686089 </v>
   <v>       0.92977674       0.13598816       0.19686089 </v>
   <v>       0.26311007       0.46932149       0.19686089 </v>
   <v>       0.59644341       0.46932149       0.19686089 </v>
   <v>       0.92977674       0.46932149       0.19686089 </v>
   <v>       0.26311007       0.80265483       0.19686089 </v>
   <v>       0.59644341       0.80265483       0.19686089 </v>
   <v>       0.92977674       0.80265483       0.19686089 </v>
   <v>       0.19734517       0.07022326       0.80313911 </v>
   <v>       0.53067851       0.07022326       0.80313911 </v>
   <v>       0.86401184       0.07022326       0.80313911 </v>
   <v>       0.19734517       0.40355659       0.80313911 </v>
   <v>       0.53067851       0.40355659       0.80313911 </v>
   <v>       0.86401184       0.40355659       0.80313911 </v>
   <v>       0.19734517       0.73688993       0.80313911 </v>
   <v>       0.53067851       0.73688993       0.80313911 </v>
   <v>       0.86401184       0.73688993       0.80313911 </v>
   <v>       0.00169027       0.20657296       0.62920335 </v>
   <v>       0.33587268       0.20657296       0.62920335 </v>
   <v>       0.66920601       0.20657296       0.62920335 </v>
   <v>       0.00253935       0.53990630       0.62920335 </v>
   <v>       0.33587268       0.53990630       0.62920335 </v>
   <v>       0.66920601       0.53990630       0.62920335 </v>
   <v>       0.00253935       0.87323963       0.62920335 </v>
   <v>       0.33587268       0.87323963       0.62920335 </v>
   <v>       0.66920601       0.87323963       0.62920335 </v>
   <v>       0.12676037       0.33079399       0.37079665 </v>
   <v>       0.46009370       0.33079399       0.37079665 </v>
   <v>       0.79342704       0.33079399       0.37079665 </v>
   <v>       0.12676037       0.66412732       0.37079665 </v>
   <v>       0.46009370       0.66412732       0.37079665 </v>
   <v>       0.79342704       0.66412732       0.37079665 </v>
   <v>       0.12676037       0.99746065       0.37079665 </v>
   <v>       0.46009370       0.99746065       0.37079665 </v>
   <v>       0.79342704       0.99746065       0.37079665 </v>
   <v>       0.06350899       0.26982435       0.00000000 </v>
   <v>       0.39684232       0.26982435       0.00000000 </v>
   <v>       0.73017565       0.26982435       0.00000000 </v>
   <v>       0.06350899       0.60315768       0.00000000 </v>
   <v>       0.39684232       0.60315768       0.00000000 </v>
   <v>       0.73017565       0.60315768       0.00000000 </v>
   <v>       0.06350899       0.93649101       0.00000000 </v>
   <v>       0.39684232       0.93649101       0.00000000 </v>
   <v>       0.73017565       0.93649101       0.00000000 </v>
   <v>       0.29027274       0.17214940       0.39352170 </v>
   <v>       0.62360607       0.17214940       0.39352170 </v>
   <v>       0.95693941       0.17214940       0.39352170 </v>
   <v>       0.29027274       0.50548273       0.39352170 </v>
   <v>       0.62360607       0.50548273       0.39352170 </v>
   <v>       0.95693941       0.50548273       0.39352170 </v>
   <v>       0.29027274       0.83881607       0.39352170 </v>
   <v>       0.62360607       0.83881607       0.39352170 </v>
   <v>       0.95693941       0.83881607       0.39352170 </v>
   <v>       0.16118393       0.04306059       0.60647830 </v>
   <v>       0.49451727       0.04306059       0.60647830 </v>
   <v>       0.82785060       0.04306059       0.60647830 </v>
   <v>       0.16118393       0.37639393       0.60647830 </v>
   <v>       0.49451727       0.37639393       0.60647830 </v>
   <v>       0.82785060       0.37639393       0.60647830 </v>
   <v>       0.16118393       0.70972726       0.60647830 </v>
   <v>       0.49451727       0.70972726       0.60647830 </v>
   <v>       0.82785060       0.70972726       0.60647830 </v>
   <v>       0.03761391       0.07731307       0.84542777 </v>
   <v>       0.37094724       0.07731307       0.84542777 </v>
   <v>       0.70428057       0.07731307       0.84542777 </v>
   <v>       0.03761391       0.41064640       0.84542777 </v>
   <v>       0.37094724       0.41064640       0.84542777 </v>
   <v>       0.70428057       0.41064640       0.84542777 </v>
   <v>       0.03761391       0.74397973       0.84542777 </v>
   <v>       0.37094724       0.74397973       0.84542777 </v>
   <v>       0.70428057       0.74397973       0.84542777 </v>
   <v>       0.25602027       0.29571943       0.15457223 </v>
   <v>       0.58935360       0.29571943       0.15457223 </v>
   <v>       0.92268693       0.29571943       0.15457223 </v>
   <v>       0.25602027       0.62905276       0.15457223 </v>
   <v>       0.58935360       0.62905276       0.15457223 </v>
   <v>       0.92268693       0.62905276       0.15457223 </v>
   <v>       0.25602027       0.96238609       0.15457223 </v>
   <v>       0.58935360       0.96238609       0.15457223 </v>
   <v>       0.92268693       0.96238609       0.15457223 </v>
  </varray>
 </structure>
</modeling>
