    9    9   60    2
  0.1367340E+02  0.3836789E-09  0.5663702E-09  0.5663702E-09  0.5000000E-15
  1.000000000000000E-004
  CAR 
 unknown system                          
     72     28     52
 
  0.0000000E+00  0.0000000E+00  0.0000000E+00  0.1041667E-01
    1      -56.034871    -49.458705   1.000000   1.000000
    2      -56.032575    -49.454872   1.000000   1.000000
    3      -55.728052    -49.421538   1.000000   1.000000
    4      -54.758996    -49.382808   1.000000   1.000000
    5      -54.756671    -49.379698   1.000000   1.000000
    6      -54.443122    -49.376415   1.000000   1.000000
    7      -54.413371    -49.061960   1.000000   1.000000
    8      -54.303439    -49.031114   1.000000   1.000000
    9      -54.158770    -49.022185   1.000000   1.000000
   10      -43.493917    -43.500573   1.000000   1.000000
   11      -43.492819    -43.499390   1.000000   1.000000
   12      -16.168395    -15.665847   1.000000   1.000000
   13      -16.044148    -15.545927   1.000000   1.000000
   14       -9.238167     -8.879776   1.000000   1.000000
   15       -8.684735     -8.339450   1.000000   1.000000
   16       -2.783198     -1.659880   1.000000   1.000000
   17       -2.246376     -0.862037   1.000000   1.000000
   18       -2.076737     -0.471667   1.000000   1.000000
   19       -1.929210     -0.376074   1.000000   1.000000
   20       -1.650396     -0.314719   1.000000   1.000000
   21       -1.223561     -0.167752   1.000000   1.000000
   22       -0.707642      1.011387   1.000000   1.000000
   23       -0.627253      2.540956   1.000000   1.000000
   24       -0.580619      2.678793   1.000000   1.000000
   25       -0.269889      2.739374   1.000000   1.000000
   26       -0.203679      2.784010   1.000000   1.000000
   27        0.034121      3.140993   1.000000   1.000000
   28        0.103643      3.360618   1.000000   1.000000
   29        0.123362      3.834874   1.000000   1.000000
   30        0.292549      4.892374   1.000000   1.000000
   31        0.611381      7.269180   1.000000   0.000000
   32        0.724800      7.494151   1.000000   0.000000
   33        0.840890      7.557428   1.000000   0.000000
   34        1.254437      7.563256   1.000000   0.000000
   35        2.030992      8.354814   1.000000   0.000000
   36        2.109653      8.360632   1.000000   0.000000
   37        2.420529      8.692378   1.000000   0.000000
   38        3.402782      8.781048   1.000000   0.000000
   39        3.568321      9.209604   1.000000   0.000000
   40        3.579559      9.268910   1.000000   0.000000
   41        4.353401      9.372957   1.000000   0.000000
   42        4.409149      9.541324   1.000000   0.000000
   43        7.772422      9.904088   0.000000   0.000000
   44        8.239776     10.426771   0.000000   0.000000
   45        9.834248     10.498323   0.000000   0.000000
   46       10.268896     11.303144   0.000000   0.000000
   47       11.668371     12.426914   0.000000   0.000000
   48       12.604251     13.623424   0.000000   0.000000
   49       13.270156     14.519256   0.000000   0.000000
   50       15.199266     15.905938   0.000000   0.000000
   51       15.263731     16.075232   0.000000   0.000000
   52       16.737637     17.154281   0.000000   0.000000
 
  0.1666667E+00  0.0000000E+00  0.0000000E+00  0.2083333E-01
    1      -56.035486    -49.458474   1.000000   1.000000
    2      -56.033208    -49.454604   1.000000   1.000000
    3      -55.727949    -49.421653   1.000000   1.000000
    4      -54.758980    -49.382771   1.000000   1.000000
    5      -54.756656    -49.380725   1.000000   1.000000
    6      -54.443140    -49.377517   1.000000   1.000000
    7      -54.413380    -49.061870   1.000000   1.000000
    8      -54.303398    -49.031482   1.000000   1.000000
    9      -54.159072    -49.022120   1.000000   1.000000
   10      -43.493711    -43.500339   1.000000   1.000000
   11      -43.492561    -43.499155   1.000000   1.000000
   12      -16.108254    -15.605608   1.000000   1.000000
   13      -15.989141    -15.491986   1.000000   1.000000
   14       -9.179634     -8.827847   1.000000   1.000000
   15       -8.619457     -8.263663   1.000000   1.000000
   16       -2.907731     -1.495547   1.000000   1.000000
   17       -2.558287     -0.723249   1.000000   1.000000
   18       -1.957749     -0.684569   1.000000   1.000000
   19       -1.904201     -0.676272   1.000000   1.000000
   20       -1.325345     -0.159712   1.000000   1.000000
   21       -1.294856     -0.140660   1.000000   1.000000
   22       -1.082372      1.016657   1.000000   1.000000
   23       -0.534624      2.334460   1.000000   1.000000
   24       -0.493366      2.367953   1.000000   1.000000
   25       -0.084604      2.481221   1.000000   1.000000
   26       -0.065961      2.511924   1.000000   1.000000
   27        0.012475      2.649841   1.000000   1.000000
   28        0.097801      2.729161   1.000000   1.000000
   29        0.100759      4.131712   1.000000   1.000000
   30        0.235081      4.928570   1.000000   1.000000
   31        0.490172      7.285398   1.000000   0.000000
   32        0.753136      7.471161   1.000000   0.000000
   33        0.886146      7.570724   1.000000   0.000000
   34        1.321275      7.792105   1.000000   0.000000
   35        1.332562      7.800946   1.000000   0.000000
   36        2.292603      8.453994   1.000000   0.000000
   37        2.344238      8.698646   1.000000   0.000000
   38        2.720256      8.870171   1.000000   0.000000
   39        3.237225      9.010786   1.000000   0.000000
   40        3.590161      9.209460   1.000000   0.000000
   41        3.718961      9.565338   1.000000   0.000000
   42        4.227498      9.646217   1.000000   0.000000
   43        8.486528     10.206768   0.000000   0.000000
   44        8.999688     11.189933   0.000000   0.000000
   45       10.222342     11.471018   0.000000   0.000000
   46       11.651768     12.041048   0.000000   0.000000
   47       12.313171     13.112455   0.000000   0.000000
   48       12.576346     13.588027   0.000000   0.000000
   49       12.701767     14.016218   0.000000   0.000000
   50       14.560037     14.928703   0.000000   0.000000
   51       15.251706     15.712269   0.000000   0.000000
   52       15.413169     16.095263   0.000000   0.000000
 
  0.3333333E+00  0.0000000E+00  0.0000000E+00  0.2083333E-01
    1      -56.036704    -49.458032   1.000000   1.000000
    2      -56.034484    -49.454074   1.000000   1.000000
    3      -55.727753    -49.421869   1.000000   1.000000
    4      -54.758961    -49.382779   1.000000   1.000000
    5      -54.756628    -49.382689   1.000000   1.000000
    6      -54.443180    -49.379711   1.000000   1.000000
    7      -54.413406    -49.061688   1.000000   1.000000
    8      -54.303317    -49.032222   1.000000   1.000000
    9      -54.159674    -49.021998   1.000000   1.000000
   10      -43.493281    -43.499852   1.000000   1.000000
   11      -43.492167    -43.498809   1.000000   1.000000
   12      -15.984325    -15.481642   1.000000   1.000000
   13      -15.876553    -15.381896   1.000000   1.000000
   14       -9.061595     -8.724683   1.000000   1.000000
   15       -8.482472     -8.102698   1.000000   1.000000
   16       -2.953187     -1.211895   1.000000   1.000000
   17       -2.905272     -1.199282   1.000000   1.000000
   18       -2.022936     -0.823119   1.000000   1.000000
   19       -2.001129     -0.334010   1.000000   1.000000
   20       -1.755832     -0.081052   1.000000   1.000000
   21       -0.934110      0.219616   1.000000   1.000000
   22       -0.752105      0.784569   1.000000   1.000000
   23       -0.643334      1.137072   1.000000   1.000000
   24       -0.390313      1.495430   1.000000   1.000000
   25       -0.369403      1.508079   1.000000   1.000000
   26       -0.311983      2.273240   1.000000   1.000000
   27        0.073968      2.300858   1.000000   1.000000
   28        0.224270      2.798964   1.000000   1.000000
   29        0.461267      4.260703   1.000000   1.000000
   30        0.501002      5.004136   1.000000   1.000000
   31        0.614754      6.842930   1.000000   0.000000
   32        0.633424      7.143770   1.000000   0.000000
   33        0.745556      7.336045   1.000000   0.000000
   34        0.764187      8.013075   1.000000   0.000000
   35        1.215783      8.311056   1.000000   0.000000
   36        2.000819      8.520200   1.000000   0.000000
   37        2.066617      8.747424   1.000000   0.000000
   38        2.209662      8.754620   1.000000   0.000000
   39        2.210255      9.073619   1.000000   0.000000
   40        3.460314      9.382942   1.000000   0.000000
   41        3.609581      9.594600   1.000000   0.000000
   42        3.680285      9.904996   1.000000   0.000000
   43        9.757521     11.283009   0.000000   0.000000
   44       10.562966     11.623593   0.000000   0.000000
   45       10.605419     12.495143   0.000000   0.000000
   46       11.900928     13.353065   0.000000   0.000000
   47       12.687572     13.503933   0.000000   0.000000
   48       13.053579     13.604171   0.000000   0.000000
   49       13.710210     14.515064   0.000000   0.000000
   50       14.039323     14.525609   0.000000   0.000000
   51       14.710906     15.208078   0.000000   0.000000
   52       14.717790     15.409592   0.000000   0.000000
 
  0.5000000E+00  0.0000000E+00  0.0000000E+00  0.1041667E-01
    1      -56.037307    -49.457802   1.000000   1.000000
    2      -56.035131    -49.453813   1.000000   1.000000
    3      -55.727653    -49.421976   1.000000   1.000000
    4      -54.758943    -49.383803   1.000000   1.000000
    5      -54.756617    -49.382618   1.000000   1.000000
    6      -54.443209    -49.380831   1.000000   1.000000
    7      -54.413410    -49.061587   1.000000   1.000000
    8      -54.303275    -49.032604   1.000000   1.000000
    9      -54.159978    -49.021936   1.000000   1.000000
   10      -43.493068    -43.499610   1.000000   1.000000
   11      -43.492011    -43.498677   1.000000   1.000000
   12      -15.920449    -15.417835   1.000000   1.000000
   13      -15.818884    -15.325660   1.000000   1.000000
   14       -9.002355     -8.673815   1.000000   1.000000
   15       -8.410374     -8.016810   1.000000   1.000000
   16       -3.039972     -1.438089   1.000000   1.000000
   17       -2.855770     -1.203713   1.000000   1.000000
   18       -2.286861     -0.567523   1.000000   1.000000
   19       -2.058221     -0.048975   1.000000   1.000000
   20       -1.904951      0.033509   1.000000   1.000000
   21       -0.805836      0.422059   1.000000   1.000000
   22       -0.671333      0.492772   1.000000   1.000000
   23       -0.564096      0.680450   1.000000   1.000000
   24       -0.523626      0.953582   1.000000   1.000000
   25       -0.372859      1.062416   1.000000   1.000000
   26       -0.210729      2.028425   1.000000   1.000000
   27        0.015034      2.144786   1.000000   1.000000
   28        0.187509      2.824173   1.000000   1.000000
   29        0.454051      4.294174   1.000000   1.000000
   30        0.485125      5.041211   1.000000   1.000000
   31        0.515186      6.688063   1.000000   0.000000
   32        0.651313      7.059007   1.000000   0.000000
   33        0.699818      7.104385   1.000000   0.000000
   34        0.817782      8.189120   1.000000   0.000000
   35        1.494103      8.408296   1.000000   0.000000
   36        1.687542      8.737857   1.000000   0.000000
   37        1.783973      8.775456   1.000000   0.000000
   38        1.927285      8.802815   1.000000   0.000000
   39        2.155580      8.953694   1.000000   0.000000
   40        2.966796      9.545539   1.000000   0.000000
   41        3.627615      9.574506   1.000000   0.000000
   42        3.702439     10.113832   1.000000   0.000000
   43       10.422653     11.355804   0.000000   0.000000
   44       10.728710     12.275845   0.000000   0.000000
   45       11.661166     12.731396   0.000000   0.000000
   46       11.689758     13.351983   0.000000   0.000000
   47       12.506577     13.574806   0.000000   0.000000
   48       12.870147     13.683167   0.000000   0.000000
   49       13.466323     14.294397   0.000000   0.000000
   50       13.829749     14.588184   0.000000   0.000000
   51       14.325302     14.859966   0.000000   0.000000
   52       15.470232     15.943525   0.000000   0.000000
 
  0.0000000E+00  0.2500000E+00  0.4620509E-15  0.4166667E-01
    1      -56.034874    -49.458727   1.000000   1.000000
    2      -56.032603    -49.454709   1.000000   1.000000
    3      -55.728057    -49.421702   1.000000   1.000000
    4      -54.759080    -49.382451   1.000000   1.000000
    5      -54.756599    -49.379626   1.000000   1.000000
    6      -54.443126    -49.376505   1.000000   1.000000
    7      -54.413393    -49.061970   1.000000   1.000000
    8      -54.303438    -49.031133   1.000000   1.000000
    9      -54.158772    -49.022226   1.000000   1.000000
   10      -43.493699    -43.500327   1.000000   1.000000
   11      -43.492927    -43.499494   1.000000   1.000000
   12      -16.166244    -15.662675   1.000000   1.000000
   13      -16.042624    -15.544785   1.000000   1.000000
   14       -9.170951     -8.822153   1.000000   1.000000
   15       -8.768429     -8.433777   1.000000   1.000000
   16       -2.706134     -1.421036   1.000000   1.000000
   17       -2.288771     -0.644229   1.000000   1.000000
   18       -2.030459     -0.443026   1.000000   1.000000
   19       -1.892951     -0.439812   1.000000   1.000000
   20       -1.732492     -0.320773   1.000000   1.000000
   21       -1.289257     -0.064615   1.000000   1.000000
   22       -0.842095      0.897655   1.000000   1.000000
   23       -0.669121      1.866395   1.000000   1.000000
   24       -0.570016      2.157395   1.000000   1.000000
   25       -0.238636      2.539247   1.000000   1.000000
   26       -0.223552      3.016314   1.000000   1.000000
   27       -0.061044      3.144060   1.000000   1.000000
   28        0.061923      3.346718   1.000000   1.000000
   29        0.125820      3.820343   1.000000   1.000000
   30        0.423738      4.793468   1.000000   1.000000
   31        0.656710      7.427549   1.000000   0.000000
   32        0.917433      7.662221   1.000000   0.000000
   33        1.122204      7.947947   1.000000   0.000000
   34        1.222890      8.100071   1.000000   0.000000
   35        1.930332      8.295069   1.000000   0.000000
   36        2.161423      8.590360   1.000000   0.000000
   37        2.278283      8.710691   1.000000   0.000000
   38        3.168436      8.822149   1.000000   0.000000
   39        3.353041      8.951135   1.000000   0.000000
   40        3.470486      9.261631   1.000000   0.000000
   41        4.241700      9.662564   1.000000   0.000000
   42        4.326132      9.903829   1.000000   0.000000
   43        8.700793      9.946744   0.000000   0.000000
   44        8.902920     10.479810   0.000000   0.000000
   45       10.369545     11.001925   0.000000   0.000000
   46       10.584149     11.689570   0.000000   0.000000
   47       11.787026     12.503799   0.000000   0.000000
   48       12.913614     13.753486   0.000000   0.000000
   49       13.630313     14.713892   0.000000   0.000000
   50       14.016512     14.735188   0.000000   0.000000
   51       14.488855     15.153926   0.000000   0.000000
   52       15.125298     15.722790   0.000000   0.000000
 
  0.1666667E+00  0.2500000E+00  0.4620509E-15  0.8333333E-01
    1      -56.035504    -49.458497   1.000000   1.000000
    2      -56.033212    -49.454442   1.000000   1.000000
    3      -55.727960    -49.421740   1.000000   1.000000
    4      -54.759071    -49.382530   1.000000   1.000000
    5      -54.756585    -49.380698   1.000000   1.000000
    6      -54.443138    -49.377528   1.000000   1.000000
    7      -54.413415    -49.061878   1.000000   1.000000
    8      -54.303397    -49.031489   1.000000   1.000000
    9      -54.159069    -49.022157   1.000000   1.000000
   10      -43.493512    -43.500119   1.000000   1.000000
   11      -43.492733    -43.499315   1.000000   1.000000
   12      -16.108372    -15.604863   1.000000   1.000000
   13      -15.986128    -15.489322   1.000000   1.000000
   14       -9.103082     -8.758853   1.000000   1.000000
   15       -8.699303     -8.355397   1.000000   1.000000
   16       -2.853521     -1.311637   1.000000   1.000000
   17       -2.596574     -0.799982   1.000000   1.000000
   18       -1.937926     -0.721211   1.000000   1.000000
   19       -1.879838     -0.482834   1.000000   1.000000
   20       -1.442226     -0.254322   1.000000   1.000000
   21       -1.316821      0.004429   1.000000   1.000000
   22       -1.146516      0.987087   1.000000   1.000000
   23       -0.755070      1.771109   1.000000   1.000000
   24       -0.533792      1.926929   1.000000   1.000000
   25       -0.211828      2.311027   1.000000   1.000000
   26       -0.070019      2.517735   1.000000   1.000000
   27       -0.021793      2.664613   1.000000   1.000000
   28        0.168434      3.107370   1.000000   1.000000
   29        0.229130      4.152689   1.000000   1.000000
   30        0.383885      4.790025   1.000000   1.000000
   31        0.585301      7.576096   1.000000   0.000000
   32        0.798350      7.626487   1.000000   0.000000
   33        1.030956      7.861170   1.000000   0.000000
   34        1.224846      7.883656   1.000000   0.000000
   35        1.349888      8.050539   1.000000   0.000000
   36        2.079358      8.559897   1.000000   0.000000
   37        2.464512      8.743303   1.000000   0.000000
   38        2.760374      8.929605   1.000000   0.000000
   39        3.265438      8.985161   1.000000   0.000000
   40        3.510677      9.164416   1.000000   0.000000
   41        3.631407      9.510728   1.000000   0.000000
   42        4.273024      9.833842   1.000000   0.000000
   43        9.209900     10.669047   0.000000   0.000000
   44        9.461132     11.178136   0.000000   0.000000
   45       10.819889     11.917506   0.000000   0.000000
   46       11.703618     12.178976   0.000000   0.000000
   47       12.361190     13.145433   0.000000   0.000000
   48       12.802790     13.647723   0.000000   0.000000
   49       12.897456     14.097415   0.000000   0.000000
   50       13.843448     14.306041   0.000000   0.000000
   51       14.092894     14.698211   0.000000   0.000000
   52       14.505881     15.172782   0.000000   0.000000
 
  0.3333333E+00  0.2500000E+00  0.4620509E-15  0.8333333E-01
    1      -56.036769    -49.458036   1.000000   1.000000
    2      -56.034443    -49.453914   1.000000   1.000000
    3      -55.727763    -49.421804   1.000000   1.000000
    4      -54.759046    -49.382927   1.000000   1.000000
    5      -54.756560    -49.382564   1.000000   1.000000
    6      -54.443165    -49.379595   1.000000   1.000000
    7      -54.413454    -49.061684   1.000000   1.000000
    8      -54.303317    -49.032219   1.000000   1.000000
    9      -54.159669    -49.022018   1.000000   1.000000
   10      -43.493110    -43.499676   1.000000   1.000000
   11      -43.492331    -43.498945   1.000000   1.000000
   12      -15.989498    -15.486337   1.000000   1.000000
   13      -15.869944    -15.375501   1.000000   1.000000
   14       -8.965617     -8.630903   1.000000   1.000000
   15       -8.551031     -8.187041   1.000000   1.000000
   16       -2.980539     -1.379172   1.000000   1.000000
   17       -2.899467     -1.278744   1.000000   1.000000
   18       -2.082336     -0.751533   1.000000   1.000000
   19       -1.940596     -0.302279   1.000000   1.000000
   20       -1.730762     -0.146418   1.000000   1.000000
   21       -1.210110      0.035906   1.000000   1.000000
   22       -0.962948      0.992210   1.000000   1.000000
   23       -0.936471      1.212721   1.000000   1.000000
   24       -0.567228      1.332097   1.000000   1.000000
   25       -0.251858      1.789896   1.000000   1.000000
   26       -0.225078      2.042271   1.000000   1.000000
   27        0.022822      2.210888   1.000000   1.000000
   28        0.201276      3.034447   1.000000   1.000000
   29        0.391672      4.278201   1.000000   1.000000
   30        0.460565      4.787151   1.000000   1.000000
   31        0.531934      7.188355   1.000000   0.000000
   32        0.639352      7.417531   1.000000   0.000000
   33        0.841187      7.763835   1.000000   0.000000
   34        1.085562      8.027117   1.000000   0.000000
   35        1.495438      8.306342   1.000000   0.000000
   36        1.852174      8.537007   1.000000   0.000000
   37        2.169095      8.694056   1.000000   0.000000
   38        2.319776      8.821473   1.000000   0.000000
   39        2.735516      8.962968   1.000000   0.000000
   40        3.369798      9.432774   1.000000   0.000000
   41        3.488913      9.668939   1.000000   0.000000
   42        4.070212      9.757853   1.000000   0.000000
   43       10.114219     11.591866   0.000000   0.000000
   44       10.553702     11.989059   0.000000   0.000000
   45       11.138654     12.104464   0.000000   0.000000
   46       11.908020     12.973435   0.000000   0.000000
   47       12.416343     13.452106   0.000000   0.000000
   48       12.504392     13.520239   0.000000   0.000000
   49       13.095907     14.047502   0.000000   0.000000
   50       13.618453     14.283745   0.000000   0.000000
   51       14.211020     14.907000   0.000000   0.000000
   52       14.629722     15.368142   0.000000   0.000000
 
  0.5000000E+00  0.2500000E+00  0.4620509E-15  0.4166667E-01
    1      -56.037399    -49.457808   1.000000   1.000000
    2      -56.035062    -49.453661   1.000000   1.000000
    3      -55.727670    -49.421831   1.000000   1.000000
    4      -54.759034    -49.383967   1.000000   1.000000
    5      -54.756557    -49.382609   1.000000   1.000000
    6      -54.443183    -49.380675   1.000000   1.000000
    7      -54.413480    -49.061586   1.000000   1.000000
    8      -54.303281    -49.032594   1.000000   1.000000
    9      -54.159970    -49.021956   1.000000   1.000000
   10      -43.492899    -43.499445   1.000000   1.000000
   11      -43.492136    -43.498767   1.000000   1.000000
   12      -15.928451    -15.425601   1.000000   1.000000
   13      -15.810179    -15.317077   1.000000   1.000000
   14       -8.896228     -8.566413   1.000000   1.000000
   15       -8.471265     -8.096293   1.000000   1.000000
   16       -3.085004     -1.605242   1.000000   1.000000
   17       -2.853648     -1.350551   1.000000   1.000000
   18       -2.192596     -0.690326   1.000000   1.000000
   19       -2.177532     -0.359187   1.000000   1.000000
   20       -1.883276     -0.117607   1.000000   1.000000
   21       -1.218317      0.199234   1.000000   1.000000
   22       -0.964080      0.842120   1.000000   1.000000
   23       -0.905926      1.052111   1.000000   1.000000
   24       -0.622506      1.153766   1.000000   1.000000
   25       -0.254582      1.551837   1.000000   1.000000
   26       -0.208411      1.783833   1.000000   1.000000
   27       -0.014757      2.009374   1.000000   1.000000
   28       -0.003885      3.005318   1.000000   1.000000
   29        0.201470      4.297319   1.000000   1.000000
   30        0.568784      4.788691   1.000000   1.000000
   31        0.646502      7.042512   1.000000   0.000000
   32        0.826063      7.309810   1.000000   0.000000
   33        0.974241      7.683446   1.000000   0.000000
   34        1.160621      8.049689   1.000000   0.000000
   35        1.479171      8.596642   1.000000   0.000000
   36        1.690574      8.630352   1.000000   0.000000
   37        1.955115      8.682500   1.000000   0.000000
   38        2.135251      8.686364   1.000000   0.000000
   39        2.657199      8.968326   1.000000   0.000000
   40        3.281889      9.541333   1.000000   0.000000
   41        3.293971      9.643820   1.000000   0.000000
   42        4.071209      9.865268   1.000000   0.000000
   43       10.658544     12.077449   0.000000   0.000000
   44       11.114685     12.158874   0.000000   0.000000
   45       11.310778     12.294333   0.000000   0.000000
   46       11.600985     12.564305   0.000000   0.000000
   47       11.768956     13.335368   0.000000   0.000000
   48       12.462397     13.372588   0.000000   0.000000
   49       12.657886     13.503598   0.000000   0.000000
   50       13.425181     14.195317   0.000000   0.000000
   51       14.255402     15.048100   0.000000   0.000000
   52       15.035174     15.964905   0.000000   0.000000
 
  0.0000000E+00  0.5000000E+00  0.9241019E-15  0.2083333E-01
    1      -56.034869    -49.458751   1.000000   1.000000
    2      -56.032619    -49.454550   1.000000   1.000000
    3      -55.728062    -49.421870   1.000000   1.000000
    4      -54.759168    -49.382097   1.000000   1.000000
    5      -54.756536    -49.379544   1.000000   1.000000
    6      -54.443132    -49.376592   1.000000   1.000000
    7      -54.413418    -49.061983   1.000000   1.000000
    8      -54.303441    -49.031148   1.000000   1.000000
    9      -54.158772    -49.022269   1.000000   1.000000
   10      -43.493313    -43.499923   1.000000   1.000000
   11      -43.493264    -43.499816   1.000000   1.000000
   12      -16.164145    -15.659545   1.000000   1.000000
   13      -16.041125    -15.543689   1.000000   1.000000
   14       -9.048052     -8.707339   1.000000   1.000000
   15       -8.907628     -8.584468   1.000000   1.000000
   16       -2.624676     -1.142718   1.000000   1.000000
   17       -2.319253     -0.602763   1.000000   1.000000
   18       -1.996350     -0.395094   1.000000   1.000000
   19       -1.831898     -0.339563   1.000000   1.000000
   20       -1.831020     -0.200724   1.000000   1.000000
   21       -1.365649      0.241614   1.000000   1.000000
   22       -0.944633      0.653992   1.000000   1.000000
   23       -0.685408      0.956982   1.000000   1.000000
   24       -0.594885      1.833352   1.000000   1.000000
   25       -0.251867      2.414472   1.000000   1.000000
   26       -0.241422      2.913696   1.000000   1.000000
   27        0.025652      3.315042   1.000000   1.000000
   28        0.078868      3.343943   1.000000   1.000000
   29        0.131697      3.794752   1.000000   1.000000
   30        0.333414      4.754052   1.000000   1.000000
   31        0.685954      7.597375   1.000000   0.000000
   32        1.157493      7.815860   1.000000   0.000000
   33        1.202336      8.092573   1.000000   0.000000
   34        1.541718      8.157927   1.000000   0.000000
   35        1.668734      8.319974   1.000000   0.000000
   36        2.107791      8.573915   1.000000   0.000000
   37        2.165031      8.730903   1.000000   0.000000
   38        3.075720      9.157080   1.000000   0.000000
   39        3.159874      9.255111   1.000000   0.000000
   40        3.354778      9.276187   1.000000   0.000000
   41        4.062187      9.611261   1.000000   0.000000
   42        4.309442      9.910270   1.000000   0.000000
   43        9.676887     10.475669   0.000000   0.000000
   44       10.019460     11.156720   0.000000   0.000000
   45       11.001079     11.722785   0.000000   0.000000
   46       11.255955     12.379859   0.000000   0.000000
   47       11.801717     12.406055   0.000000   0.000000
   48       12.758187     13.454471   0.000000   0.000000
   49       13.120643     14.038296   0.000000   0.000000
   50       13.423968     14.108322   0.000000   0.000000
   51       13.501213     14.350354   0.000000   0.000000
   52       14.033849     14.702770   0.000000   0.000000
 
  0.1666667E+00  0.5000000E+00  0.9241019E-15  0.4166667E-01
    1      -56.035522    -49.458517   1.000000   1.000000
    2      -56.033211    -49.454288   1.000000   1.000000
    3      -55.727965    -49.421830   1.000000   1.000000
    4      -54.759155    -49.382274   1.000000   1.000000
    5      -54.756527    -49.380691   1.000000   1.000000
    6      -54.443139    -49.377529   1.000000   1.000000
    7      -54.413450    -49.061888   1.000000   1.000000
    8      -54.303403    -49.031498   1.000000   1.000000
    9      -54.159068    -49.022192   1.000000   1.000000
   10      -43.493114    -43.499723   1.000000   1.000000
   11      -43.493064    -43.499613   1.000000   1.000000
   12      -16.108459    -15.604112   1.000000   1.000000
   13      -15.983054    -15.486568   1.000000   1.000000
   14       -8.957158     -8.619432   1.000000   1.000000
   15       -8.848614     -8.517184   1.000000   1.000000
   16       -2.776684     -1.085420   1.000000   1.000000
   17       -2.656726     -0.860449   1.000000   1.000000
   18       -1.909468     -0.693855   1.000000   1.000000
   19       -1.851356     -0.422473   1.000000   1.000000
   20       -1.536768     -0.206768   1.000000   1.000000
   21       -1.303054      0.113873   1.000000   1.000000
   22       -1.287447      0.996152   1.000000   1.000000
   23       -0.801085      1.136888   1.000000   1.000000
   24       -0.724199      1.649823   1.000000   1.000000
   25       -0.238175      2.283291   1.000000   1.000000
   26       -0.142717      2.446778   1.000000   1.000000
   27        0.007926      2.634042   1.000000   1.000000
   28        0.245736      3.289797   1.000000   1.000000
   29        0.336549      4.154870   1.000000   1.000000
   30        0.558096      4.734276   1.000000   1.000000
   31        0.653529      7.632698   1.000000   0.000000
   32        0.870850      7.765284   1.000000   0.000000
   33        0.918193      7.905614   1.000000   0.000000
   34        1.143494      8.177501   1.000000   0.000000
   35        1.442804      8.251904   1.000000   0.000000