 vasp.6.2.0 18Jan21 (build Jan 29 2021 15:03:46) complex                        
  
 executed on             LinuxIFC date 2021.03.29  14:26:16
 running on  112 total cores
 distrk:  each k-point on    4 cores,   28 groups
 distr:  one band on NCORE=   1 cores,    4 groups


--------------------------------------------------------------------------------------------------------


 INCAR:
   AEXX = 0.25
   ALGO = all
   EDIFF = 9e-06
   EDIFFG = -0.03
   ENCUT = 520
   GGA = pe
   HFSCREEN = 0.207
   IBRION = 2
   ISIF = 3
   ISMEAR = 0
   ISPIN = 2
   KPAR = 28
   LASPH = .TRUE.
   LHFCALC = .TRUE.
   LMAXFOCK = 4
   LORBIT = 11
   LREAL = .FALSE.
   LVHAR = .TRUE.
   LWAVE = .TRUE.
   MAGMOM = 0.6 0.6 0.6 0.6 0.6 0.6 5 5 5
   NCORE = 1
   NEDOS = 2000
   NELM = 200
   NELMIN = 4
   NSW = 60
   NWRITE = 1
   PREC = accurate
   PRECFOCK = fast
   SIGMA = 0.05
   TIME = 0.3

 POTCAR:    PAW_PBE Li_sv 10Sep2004               
 POTCAR:    PAW_PBE O 08Apr2002                   
 POTCAR:    PAW_PBE S 06Sep2000                   
 POTCAR:    PAW_PBE Fe_pv 02Aug2007               
 -----------------------------------------------------------------------------
|                                                                             |
|           W    W    AA    RRRRR   N    N  II  N    N   GGGG   !!!           |
|           W    W   A  A   R    R  NN   N  II  NN   N  G    G  !!!           |
|           W    W  A    A  R    R  N N  N  II  N N  N  G       !!!           |
|           W WW W  AAAAAA  RRRRR   N  N N  II  N  N N  G  GGG   !            |
|           WW  WW  A    A  R   R   N   NN  II  N   NN  G    G                |
|           W    W  A    A  R    R  N    N  II  N    N   GGGG   !!!           |
|                                                                             |
|     For optimal performance we recommend to set                             |
|       NCORE = 2 up to number-of-cores-per-socket                            |
|     NCORE specifies how many cores store one orbital (NPAR=cpu/NCORE).      |
|     This setting can greatly improve the performance of VASP for DFT.       |
|     The default, NCORE=1 might be grossly inefficient on modern             |
|     multi-core architectures or massively parallel machines. Do your        |
|     own testing! More info at https://www.vasp.at/wiki/index.php/NCORE      |
|     Unfortunately you need to use the default for GW and RPA                |
|     calculations (for HF NCORE is supported but not extensively tested      |
|     yet).                                                                   |
|                                                                             |
 -----------------------------------------------------------------------------

 POTCAR:    PAW_PBE Li_sv 10Sep2004               
  local pseudopotential read in
  atomic valenz-charges read in
  non local Contribution for L=           0  read in
    real space projection operators read in
  non local Contribution for L=           0  read in
    real space projection operators read in
  non local Contribution for L=           1  read in
    real space projection operators read in
    PAW grid and wavefunctions read in
 
   number of l-projection  operators is LMAX  =           3
   number of lm-projection operators is LMMAX =           5
 
 POTCAR:    PAW_PBE O 08Apr2002                   
  local pseudopotential read in
  partial core-charges read in
  partial kinetic energy density read in
  kinetic energy density of atom read in
  atomic valenz-charges read in
  non local Contribution for L=           0  read in
    real space projection operators read in
  non local Contribution for L=           0  read in
    real space projection operators read in
  non local Contribution for L=           1  read in
    real space projection operators read in
  non local Contribution for L=           1  read in
    real space projection operators read in
    PAW grid and wavefunctions read in
 
   number of l-projection  operators is LMAX  =           4
   number of lm-projection operators is LMMAX =           8
 
 POTCAR:    PAW_PBE S 06Sep2000                   
  local pseudopotential read in
  partial core-charges read in
  partial kinetic energy density read in
  atomic valenz-charges read in
  non local Contribution for L=           0  read in
    real space projection operators read in
  non local Contribution for L=           0  read in
    real space projection operators read in
  non local Contribution for L=           1  read in
    real space projection operators read in
  non local Contribution for L=           1  read in
    real space projection operators read in
    PAW grid and wavefunctions read in
 
   number of l-projection  operators is LMAX  =           4
   number of lm-projection operators is LMMAX =           8
 
 POTCAR:    PAW_PBE Fe_pv 02Aug2007               
  local pseudopotential read in
  partial core-charges read in
  partial kinetic energy density read in
  atomic valenz-charges read in
  non local Contribution for L=           1  read in
    real space projection operators read in
  non local Contribution for L=           1  read in
    real space projection operators read in
  non local Contribution for L=           2  read in
    real space projection operators read in
  non local Contribution for L=           2  read in
    real space projection operators read in
  non local Contribution for L=           0  read in
    real space projection operators read in
  non local Contribution for L=           0  read in
    real space projection operators read in
    PAW grid and wavefunctions read in
 
   number of l-projection  operators is LMAX  =           6
   number of lm-projection operators is LMMAX =          18
 
  PAW_PBE Li_sv 10Sep2004               :
 energy of atom  1       EATOM= -202.7858
 kinetic energy error for atom=    0.0130 (will be added to EATOM!!)
  PAW_PBE O 08Apr2002                   :
 energy of atom  2       EATOM= -432.3788
 kinetic energy error for atom=    0.0208 (will be added to EATOM!!)
  PAW_PBE S 06Sep2000                   :
 energy of atom  3       EATOM= -276.8230
 kinetic energy error for atom=    0.0016 (will be added to EATOM!!)
  PAW_PBE Fe_pv 02Aug2007               :
 energy of atom  4       EATOM=-2457.4239
 kinetic energy error for atom=    0.0062 (will be added to EATOM!!)
 
 
 POSCAR: # Compound: Li2O2S2Fe3. Old comment: LFS
  positions in direct lattice
  No initial velocities read in
 exchange correlation table for  LEXCH =        8
   RHO(1)=    0.500       N(1)  =     2000
   RHO(2)=  100.500       N(2)  =     4000
 


--------------------------------------------------------------------------------------------------------


 ion  position               nearest neighbor table
   1  0.315  0.500  0.000-   3 1.99   4 1.99
   2  0.315  0.000  0.500-   3 1.99   4 1.99
   3  0.318  0.251  0.749-   2 1.99   1 1.99   8 2.00   8 2.00   9 2.02
   4  0.318  0.749  0.251-   2 1.99   1 1.99   7 2.00   7 2.00   9 2.02
   5  0.818  0.236  0.236-   7 2.54   8 2.54   9 2.67   9 2.69
   6  0.818  0.764  0.764-   8 2.54   7 2.54   9 2.67   9 2.69
   7  0.819  0.678  0.322-   4 2.00   4 2.00   5 2.54   6 2.54
   8  0.819  0.322  0.678-   3 2.00   3 2.00   6 2.54   5 2.54
   9  0.322  0.000  0.000-   3 2.02   4 2.02   5 2.67   6 2.67   5 2.69   6 2.69
 
  LATTYP: Found a base centered orthorhombic cell.
 ALAT       =     7.9488661091
 B/A-ratio  =     1.0152447194
 C/A-ratio  =     0.4826838743
  
  Lattice vectors:
  
 A1 = (   0.0000000000,   5.6633545800,   0.0627447000)
 A2 = (   0.0000000000,  -0.1484157600,   5.6617572200)
 A3 = (   3.8367894900,   0.0000000000,   0.0000000000)


Analysis of symmetry for initial positions (statically):
=====================================================================
 Subroutine PRICEL returns:
 Original cell was already a primitive cell.
 

 Routine SETGRP: Setting up the symmetry group for a 
 base centered orthorhombic supercell.


 Subroutine GETGRP returns: Found  4 space group operations
 (whereof  4 operations were pure point group operations)
 out of a pool of  8 trial point group operations.


The static configuration has the point symmetry C_2v.


Analysis of symmetry for dynamics (positions and initial velocities):
=====================================================================
 Subroutine PRICEL returns:
 Original cell was already a primitive cell.
 

 Routine SETGRP: Setting up the symmetry group for a 
 base centered orthorhombic supercell.


 Subroutine GETGRP returns: Found  4 space group operations
 (whereof  4 operations were pure point group operations)
 out of a pool of  8 trial point group operations.


The dynamic configuration has the point symmetry C_2v.


Analysis of structural, dynamic, and magnetic symmetry:
=====================================================================
 Subroutine PRICEL returns:
 Original cell was already a primitive cell.
 

 Routine SETGRP: Setting up the symmetry group for a 
 base centered orthorhombic supercell.


 Subroutine GETGRP returns: Found  4 space group operations
 (whereof  4 operations were pure point group operations)
 out of a pool of  8 trial point group operations.


The overall configuration has the point symmetry C_2v.


 Subroutine INISYM returns: Found  4 space group operations
 (whereof  4 operations are pure point group operations),
 and found     1 'primitive' translations


----------------------------------------------------------------------------------------

                                     Primitive cell                                     

  volume of cell :     123.0606

  direct lattice vectors                    reciprocal lattice vectors
     3.836789490  0.000000000  0.000000000     0.260634575  0.000000000  0.000000000
     0.000000000  5.663354580  0.062744700     0.000000000  0.176522527  0.004627313
     0.000000000 -0.148415760  5.661757220     0.000000000 -0.001956257  0.176572329

  length of vectors
     3.836789490  5.663702146  5.663702151     0.260634575  0.176583166  0.176583166

  position of ions in fractional coordinates (direct lattice)
     0.315398840  0.500000000  0.000000000
     0.315398840  0.000000000  0.500000000
     0.318447170  0.250553250  0.749446750
     0.318447170  0.749446750  0.250553250
     0.818396530  0.236189430  0.236189430
     0.818396530  0.763810570  0.763810570
     0.818614530  0.678148540  0.321851460
     0.818614530  0.321851460  0.678148540
     0.321933870  0.000000000  0.000000000

  ion indices of the primitive-cell ions
   primitive index   ion index
                 1           1
                 2           2
                 3           3
                 4           4
                 5           5
                 6           6
                 7           7
                 8           8
                 9           9

----------------------------------------------------------------------------------------

 
 
 KPOINTS: # No comment                            

Automatic generation of k-mesh.
 Grid dimensions read from file:
 generate k-points for:    6    4    4

 Generating k-lattice:

  Cartesian coordinates                     Fractional coordinates (reciprocal lattice)
     0.043439096  0.000000000  0.000000000     0.166666667  0.000000000  0.000000000
     0.000000000  0.044130632  0.001156828     0.000000000  0.250000000  0.000000000
     0.000000000 -0.000489064  0.044143082     0.000000000  0.000000000  0.250000000

  Length of vectors
     0.043439096  0.044145791  0.044145791

  Shift w.r.t. Gamma in fractional coordinates (k-lattice)
     0.000000000  0.000000000  0.000000000

 
 Subroutine IBZKPT returns following result:
 ===========================================
 
 Found     28 irreducible k-points:
 
 Following reciprocal coordinates:
            Coordinates               Weight
  0.000000  0.000000  0.000000      1.000000
  0.166667  0.000000  0.000000      2.000000
  0.333333  0.000000  0.000000      2.000000
  0.500000  0.000000  0.000000      1.000000
  0.000000  0.250000  0.000000      4.000000
  0.166667  0.250000  0.000000      8.000000
  0.333333  0.250000  0.000000      8.000000
  0.500000  0.250000  0.000000      4.000000
  0.000000  0.500000  0.000000      2.000000
  0.166667  0.500000  0.000000      4.000000
  0.333333  0.500000  0.000000      4.000000
  0.500000  0.500000  0.000000      2.000000
  0.000000  0.250000  0.250000      2.000000
  0.166667  0.250000  0.250000      4.000000
  0.333333  0.250000  0.250000      4.000000
  0.500000  0.250000  0.250000      2.000000
  0.000000  0.500000  0.250000      4.000000
  0.166667  0.500000  0.250000      8.000000
  0.333333  0.500000  0.250000      8.000000
  0.500000  0.500000  0.250000      4.000000
  0.000000 -0.250000  0.250000      2.000000
  0.166667 -0.250000  0.250000      4.000000
  0.333333 -0.250000  0.250000      4.000000
  0.500000 -0.250000  0.250000      2.000000
  0.000000  0.500000  0.500000      1.000000
  0.166667  0.500000  0.500000      2.000000
  0.333333  0.500000  0.500000      2.000000
  0.500000  0.500000  0.500000      1.000000
 
 Following cartesian coordinates:
            Coordinates               Weight
  0.000000  0.000000  0.000000      1.000000
  0.043439  0.000000  0.000000      2.000000
  0.086878  0.000000  0.000000      2.000000
  0.130317  0.000000  0.000000      1.000000
  0.000000  0.044131  0.001157      4.000000
  0.043439  0.044131  0.001157      8.000000
  0.086878  0.044131  0.001157      8.000000
  0.130317  0.044131  0.001157      4.000000
  0.000000  0.088261  0.002314      2.000000
  0.043439  0.088261  0.002314      4.000000
  0.086878  0.088261  0.002314      4.000000
  0.130317  0.088261  0.002314      2.000000
  0.000000  0.043642  0.045300      2.000000
  0.043439  0.043642  0.045300      4.000000
  0.086878  0.043642  0.045300      4.000000
  0.130317  0.043642  0.045300      2.000000
  0.000000  0.087772  0.046457      4.000000
  0.043439  0.087772  0.046457      8.000000
  0.086878  0.087772  0.046457      8.000000
  0.130317  0.087772  0.046457      4.000000
  0.000000 -0.044620  0.042986      2.000000
  0.043439 -0.044620  0.042986      4.000000
  0.086878 -0.044620  0.042986      4.000000
  0.130317 -0.044620  0.042986      2.000000
  0.000000  0.087283  0.090600      1.000000
  0.043439  0.087283  0.090600      2.000000
  0.086878  0.087283  0.090600      2.000000
  0.130317  0.087283  0.090600      1.000000
 
 
 Subroutine IBZKPT_HF returns following result:
 ==============================================
 
 Found     96 k-points in 1st BZ
 the following     96 k-points will be used (e.g. in the exchange kernel)
 Following reciprocal coordinates:   # in IRBZ
  0.000000  0.000000  0.000000    0.01041667   1 t-inv F
  0.166667  0.000000  0.000000    0.01041667   2 t-inv F
  0.333333  0.000000  0.000000    0.01041667   3 t-inv F
  0.500000  0.000000  0.000000    0.01041667   4 t-inv F
  0.000000  0.250000  0.000000    0.01041667   5 t-inv F
  0.166667  0.250000  0.000000    0.01041667   6 t-inv F
  0.333333  0.250000  0.000000    0.01041667   7 t-inv F
  0.500000  0.250000  0.000000    0.01041667   8 t-inv F
  0.000000  0.500000  0.000000    0.01041667   9 t-inv F
  0.166667  0.500000  0.000000    0.01041667  10 t-inv F
  0.333333  0.500000  0.000000    0.01041667  11 t-inv F
  0.500000  0.500000  0.000000    0.01041667  12 t-inv F
  0.000000  0.250000  0.250000    0.01041667  13 t-inv F
  0.166667  0.250000  0.250000    0.01041667  14 t-inv F
  0.333333  0.250000  0.250000    0.01041667  15 t-inv F
  0.500000  0.250000  0.250000    0.01041667  16 t-inv F
  0.000000  0.500000  0.250000    0.01041667  17 t-inv F
  0.166667  0.500000  0.250000    0.01041667  18 t-inv F
  0.333333  0.500000  0.250000    0.01041667  19 t-inv F
  0.500000  0.500000  0.250000    0.01041667  20 t-inv F
  0.000000 -0.250000  0.250000    0.01041667  21 t-inv F
  0.166667 -0.250000  0.250000    0.01041667  22 t-inv F
  0.333333 -0.250000  0.250000    0.01041667  23 t-inv F
  0.500000 -0.250000  0.250000    0.01041667  24 t-inv F
  0.000000  0.500000  0.500000    0.01041667  25 t-inv F
  0.166667  0.500000  0.500000    0.01041667  26 t-inv F
  0.333333  0.500000  0.500000    0.01041667  27 t-inv F
  0.500000  0.500000  0.500000    0.01041667  28 t-inv F
  0.000000 -0.250000 -0.000000    0.01041667   5 t-inv F
  0.000000  0.000000  0.250000    0.01041667   5 t-inv F
  0.000000 -0.000000 -0.250000    0.01041667   5 t-inv F
  0.166667 -0.250000 -0.000000    0.01041667   6 t-inv F
  0.166667  0.000000  0.250000    0.01041667   6 t-inv F
  0.166667 -0.000000 -0.250000    0.01041667   6 t-inv F
  0.333333 -0.250000 -0.000000    0.01041667   7 t-inv F
  0.333333  0.000000  0.250000    0.01041667   7 t-inv F
  0.333333 -0.000000 -0.250000    0.01041667   7 t-inv F
  0.500000 -0.250000 -0.000000    0.01041667   8 t-inv F
  0.500000  0.000000  0.250000    0.01041667   8 t-inv F
  0.500000 -0.000000 -0.250000    0.01041667   8 t-inv F
  0.000000  0.000000  0.500000    0.01041667   9 t-inv F
  0.166667  0.000000  0.500000    0.01041667  10 t-inv F
  0.333333  0.000000  0.500000    0.01041667  11 t-inv F
  0.500000  0.000000  0.500000    0.01041667  12 t-inv F
  0.000000 -0.250000 -0.250000    0.01041667  13 t-inv F
  0.166667 -0.250000 -0.250000    0.01041667  14 t-inv F
  0.333333 -0.250000 -0.250000    0.01041667  15 t-inv F
  0.500000 -0.250000 -0.250000    0.01041667  16 t-inv F
  0.000000 -0.500000 -0.250000    0.01041667  17 t-inv F
  0.000000  0.250000  0.500000    0.01041667  17 t-inv F
  0.000000 -0.250000 -0.500000    0.01041667  17 t-inv F
  0.166667 -0.500000 -0.250000    0.01041667  18 t-inv F
  0.166667  0.250000  0.500000    0.01041667  18 t-inv F
  0.166667 -0.250000 -0.500000    0.01041667  18 t-inv F
  0.333333 -0.500000 -0.250000    0.01041667  19 t-inv F
  0.333333  0.250000  0.500000    0.01041667  19 t-inv F
  0.333333 -0.250000 -0.500000    0.01041667  19 t-inv F
  0.500000 -0.500000 -0.250000    0.01041667  20 t-inv F
  0.500000  0.250000  0.500000    0.01041667  20 t-inv F
  0.500000 -0.250000 -0.500000    0.01041667  20 t-inv F
  0.000000  0.250000 -0.250000    0.01041667  21 t-inv F
  0.166667  0.250000 -0.250000    0.01041667  22 t-inv F
  0.333333  0.250000 -0.250000    0.01041667  23 t-inv F
  0.500000  0.250000 -0.250000    0.01041667  24 t-inv F
 -0.166667  0.000000  0.000000    0.01041667   2 t-inv T
 -0.333333  0.000000  0.000000    0.01041667   3 t-inv T
 -0.166667 -0.250000 -0.000000    0.01041667   6 t-inv T
 -0.166667  0.250000  0.000000    0.01041667   6 t-inv T
 -0.166667 -0.000000 -0.250000    0.01041667   6 t-inv T
 -0.166667  0.000000  0.250000    0.01041667   6 t-inv T
 -0.333333 -0.250000 -0.000000    0.01041667   7 t-inv T
 -0.333333  0.250000  0.000000    0.01041667   7 t-inv T
 -0.333333 -0.000000 -0.250000    0.01041667   7 t-inv T
 -0.333333  0.000000  0.250000    0.01041667   7 t-inv T
 -0.166667 -0.500000 -0.000000    0.01041667  10 t-inv T
 -0.166667 -0.000000 -0.500000    0.01041667  10 t-inv T
 -0.333333 -0.500000 -0.000000    0.01041667  11 t-inv T
 -0.333333 -0.000000 -0.500000    0.01041667  11 t-inv T
 -0.166667 -0.250000 -0.250000    0.01041667  14 t-inv T
 -0.166667  0.250000  0.250000    0.01041667  14 t-inv T
 -0.333333 -0.250000 -0.250000    0.01041667  15 t-inv T
 -0.333333  0.250000  0.250000    0.01041667  15 t-inv T
 -0.166667 -0.500000 -0.250000    0.01041667  18 t-inv T
 -0.166667  0.500000  0.250000    0.01041667  18 t-inv T
 -0.166667 -0.250000 -0.500000    0.01041667  18 t-inv T
 -0.166667  0.250000  0.500000    0.01041667  18 t-inv T
 -0.333333 -0.500000 -0.250000    0.01041667  19 t-inv T
 -0.333333  0.500000  0.250000    0.01041667  19 t-inv T
 -0.333333 -0.250000 -0.500000    0.01041667  19 t-inv T
 -0.333333  0.250000  0.500000    0.01041667  19 t-inv T
 -0.166667  0.250000 -0.250000    0.01041667  22 t-inv T
 -0.166667 -0.250000  0.250000    0.01041667  22 t-inv T
 -0.333333  0.250000 -0.250000    0.01041667  23 t-inv T
 -0.333333 -0.250000  0.250000    0.01041667  23 t-inv T
 -0.166667 -0.500000 -0.500000    0.01041667  26 t-inv T
 -0.333333 -0.500000 -0.500000    0.01041667  27 t-inv T


--------------------------------------------------------------------------------------------------------




 Dimension of arrays:
   k-points           NKPTS =     28   k-points in BZ     NKDIM =     96   number of bands    NBANDS=     52
   number of dos      NEDOS =   2000   number of ions     NIONS =      9
   non local maximal  LDIM  =      6   non local SUM 2l+1 LMDIM =     18
   total plane-waves  NPLWV =  52920
   max r-space proj   IRMAX =      1   max aug-charges    IRDMAX=  13746
   dimension x,y,z NGX =    30 NGY =   42 NGZ =   42
   dimension x,y,z NGXF=    60 NGYF=   84 NGZF=   84
   support grid    NGXF=    60 NGYF=   84 NGZF=   84
   ions per type =               2   2   2   3
   NGX,Y,Z   is equivalent  to a cutoff of  13.00, 12.33, 12.33 a.u.
   NGXF,Y,Z  is equivalent  to a cutoff of  26.00, 24.66, 24.66 a.u.

 SYSTEM =  unknown system                          
 POSCAR =  # Compound: Li2O2S2Fe3. Old comment: LFS

 Startparameter for this run:
   NWRITE =      1    write-flag & timer
   PREC   = accura    normal or accurate (medium, high low for compatibility)
   ISTART =      0    job   : 0-new  1-cont  2-samecut
   ICHARG =      2    charge: 1-file 2-atom 10-const
   ISPIN  =      2    spin polarized calculation?
   LNONCOLLINEAR =      F non collinear calculations
   LSORBIT =      F    spin-orbit coupling
   INIWAV =      1    electr: 0-lowe 1-rand  2-diag
   LASPH  =      T    aspherical Exc in radial PAW
   METAGGA=      F    non-selfconsistent MetaGGA calc.

 Electronic Relaxation 1
   ENCUT  =  520.0 eV  38.22 Ry    6.18 a.u.   7.13 10.53 10.53*2*pi/ulx,y,z
   ENINI  =  520.0     initial cutoff
   ENAUG  =  628.9 eV  augmentation charge cutoff
   NELM   =    200;   NELMIN=  4; NELMDL= -5     # of ELM steps 
   EDIFF  = 0.9E-05   stopping-criterion for ELM
   LREAL  =      F    real-space projection
   NLSPLINE    = F    spline interpolate recip. space projectors
   LCOMPAT=      F    compatible to vasp.4.4
   GGA_COMPAT  = T    GGA compatible to vasp.4.4-vasp.4.6
   LMAXPAW     = -100 max onsite density
   LMAXMIX     =    2 max onsite mixed and CHGCAR
   VOSKOWN=      0    Vosko Wilk Nusair interpolation
   ROPT   =    0.00000   0.00000   0.00000   0.00000
 Ionic relaxation
   EDIFFG = -.3E-01   stopping-criterion for IOM
   NSW    =     60    number of steps for IOM
   NBLOCK =      1;   KBLOCK =     60    inner block; outer block 
   IBRION =      2    ionic relax: 0-MD 1-quasi-New 2-CG
   NFREE  =      1    steps in history (QN), initial steepest desc. (CG)
   ISIF   =      3    stress and relaxation
   IWAVPR =     11    prediction:  0-non 1-charg 2-wave 3-comb
   ISYM   =      3    0-nonsym 1-usesym 2-fastsym
   LCORR  =      T    Harris-Foulkes like correction to forces

   POTIM  = 0.5000    time-step for ionic-motion
   TEIN   =    0.0    initial temperature
   TEBEG  =    0.0;   TEEND  =   0.0 temperature during run
   SMASS  =  -3.00    Nose mass-parameter (am)
   estimated Nose-frequenzy (Omega)   =  0.10E-29 period in steps = 0.13E+47 mass=  -0.336E-27a.u.
   SCALEE = 1.0000    scale energy and forces
   NPACO  =    256;   APACO  = 16.0  distance and # of slots for P.C.
   PSTRESS=    0.0 pullay stress

  Mass of Ions in am
   POMASS =   7.01 16.00 32.07 55.85
  Ionic Valenz
   ZVAL   =   3.00  6.00  6.00 14.00
  Atomic Wigner-Seitz radii
   RWIGS  =  -1.00 -1.00 -1.00 -1.00
  virtual crystal weights 
   VCA    =   1.00  1.00  1.00  1.00
   NELECT =      72.0000    total number of electrons
   NUPDOWN=      -1.0000    fix difference up-down

 DOS related values:
   EMIN   =  10.00;   EMAX   =-10.00  energy-range for DOS
   EFERMI =   0.00
   ISMEAR =     0;   SIGMA  =   0.05  broadening in eV -4-tet -1-fermi 0-gaus

 Electronic relaxation 2 (details)
   IALGO  =     58    algorithm
   LDIAG  =      T    sub-space diagonalisation (order eigenvalues)
   LSUBROT=      F    optimize rotation matrix (better conditioning)
   TURBO    =      0    0=normal 1=particle mesh
   IRESTART =      0    0=no restart 2=restart with 2 vectors
   NREBOOT  =      0    no. of reboots
   NMIN     =      0    reboot dimension
   EREF     =   0.00    reference energy to select bands
   IMIX   =      4    mixing-type and parameters
     AMIX     =   0.40;   BMIX     =  1.00
     AMIX_MAG =   1.60;   BMIX_MAG =  1.00
     AMIN     =   0.10
     WC   =   100.;   INIMIX=   1;  MIXPRE=   1;  MAXMIX= -45

 Intra band minimization:
   WEIMIN = 0.0010     energy-eigenvalue tresh-hold
   EBREAK =  0.43E-07  absolut break condition
   DEPER  =   0.30     relativ break condition  

   TIME   =   0.30     timestep for ELM

  volume/ion in A,a.u.               =      13.67        92.27
  Fermi-wavevector in a.u.,A,eV,Ry     =   1.369239  2.587487 25.508418  1.874816
  Thomas-Fermi vector in A             =   2.495132
 
 Write flags
   LWAVE        =      T    write WAVECAR
   LDOWNSAMPLE  =      F    k-point downsampling of WAVECAR
   LCHARG       =      T    write CHGCAR
   LVTOT        =      F    write LOCPOT, total local potential
   LVHAR        =      T    write LOCPOT, Hartree potential only
   LELF         =      F    write electronic localiz. function (ELF)
   LORBIT       =     11    0 simple, 1 ext, 2 COOP (PROOUT), +10 PAW based schemes


 Dipole corrections
   LMONO  =      F    monopole corrections only (constant potential shift)
   LDIPOL =      F    correct potential (dipole corrections)
   IDIPOL =      0    1-x, 2-y, 3-z, 4-all directions 
   EPSILON=  1.0000000 bulk dielectric constant

 Exchange correlation treatment:
   GGA     =    PE    GGA type
   LEXCH   =     8    internal setting for exchange type
   VOSKOWN=      0    Vosko Wilk Nusair interpolation
   EXXOEP  =     0    0=HF, 1=EXX-LHF (local Hartree Fock) 2=EXX OEP
   LHFCALC =     T    Hartree Fock is set to
   LSYMGRAD=     F    symmetrize gradient (conserves proper symmetry)
   PRECFOCK=fast      Normal, Fast or Accurate (Low or Medium for compatibility)
   LRHFCALC=     F    long range Hartree Fock
   LRSCOR  =     F    long range correlation only (use DFT for short range part)
   LTHOMAS =     F    Thomas Fermi screening in HF
   LMODELHF=     F    short range full HF, long range fraction AEXX
   LFOCKACE=     T    use Adeptively-Compressed-Exchange operator
   ENCUT4O =  -1.0   cutoff for four orbital integrals eV
   LMAXFOCK=     4    L truncation for augmentation on plane wave grid
   LMAXFOCKAE=  -1    L truncation for all-electron charge restoration on plane wave grid
   NMAXFOCKAE=   1    number of basis functions for all-electron charge restoration
   LFOCKAEDFT=     F  apply the AE augmentation even for DFT
   NKREDX  =     1    reduce k-point grid by
   NKREDY  =     1    reduce k-point grid by
   NKREDZ  =     1    reduce k-point grid by
   SHIFTRED=     F    shift reduced grid of Gamma
   HFKIDENT=     F    idential grid for each k-point
   ODDONLY =     F    use only odd q-grid points
   EVENONLY=     F    use only even q-grid points
   HFALPHA =   -1.0000 decay constant for conv. correction
   MCALPHA =    0.0000 extent of test-charge in conv. correction in multipole expansion
   AEXX    =    0.2500 exact exchange contribution
   HFSCREEN=    0.2070 screening length (either q_TF or 0.3 A-1)
   HFSCREENC=   0.2070 screening length for correlation (either q_TF or 0.3 A-1)
   HFRCUT  =    0.0000 spherical cutoff for potential kernel
   ALDAX   =    0.7500 LDA exchange part
   AGGAX   =    0.7500 GGA exchange part
   ALDAC   =    1.0000 LDA correlation
   AGGAC   =    1.0000 GGA correlation
   ENCUTFOCK=  -1.0 apply spherical cutoff to Coloumb kernel
   NBANDSGWLOW=     1    first orbital included in HF term
   NBLOCK_FOCK=    64    blocking factor in FOCK_ACC
 Linear response parameters
   LEPSILON=     F    determine dielectric tensor
   LRPA    =     F    only Hartree local field effects (RPA)
   LNABLA  =     F    use nabla operator in PAW spheres
   LVEL    =     F    velocity operator in full k-point grid
   LINTERFAST=   F  fast interpolation
   KINTER  =     0    interpolate to denser k-point grid
   CSHIFT  =0.1000    complex shift for real part using Kramers Kronig
   OMEGAMAX=  -1.0    maximum frequency
   DEG_THRESHOLD= 0.2000000E-02 threshold for treating states as degnerate
   RTIME   =   -0.100 relaxation time in fs
  (WPLASMAI=    0.000 imaginary part of plasma frequency in eV, 0.658/RTIME)
   DFIELD  = 0.0000000 0.0000000 0.0000000 field for delta impulse in time
 
 Orbital magnetization related:
   ORBITALMAG=     F  switch on orbital magnetization
   LCHIMAG   =     F  perturbation theory with respect to B field
   DQ        =  0.001000  dq finite difference perturbation B field
   LLRAUG    =     F  two centre corrections for induced B field



--------------------------------------------------------------------------------------------------------


 conjugate gradient relaxation of ions
 charge density and potential will be updated during run
 spin polarized calculation
 Conjugate gradient for all bands (Freysoldt, et al. PRB 79, 241103 (2009))
 preconditioned conjugated gradient                                        
 perform sub-space diagonalisation
    before iterative eigenvector-optimisation
 modified Broyden-mixing scheme, WC =      100.0
 initial mixing is a Kerker type mixing with AMIX =  0.4000 and BMIX =      1.0000
 Hartree-type preconditioning will be used
 using additional bands           16
 reciprocal scheme for non local part
 use partial core corrections
 no Harris-corrections to forces 
 use gradient corrections 
 use of overlap-Matrix (Vanderbilt PP)
 Gauss-broadening in eV      SIGMA  =   0.05


--------------------------------------------------------------------------------------------------------


  energy-cutoff  :      520.00
  volume of cell :      123.06
      direct lattice vectors                 reciprocal lattice vectors
     3.836789490  0.000000000  0.000000000     0.260634575  0.000000000  0.000000000
     0.000000000  5.663354580  0.062744700     0.000000000  0.176522527  0.004627313
     0.000000000 -0.148415760  5.661757220     0.000000000 -0.001956257  0.176572329

  length of vectors
     3.836789490  5.663702146  5.663702151     0.260634575  0.176583166  0.176583166


 
 k-points in units of 2pi/SCALE and weight: # No comment                            
   0.00000000  0.00000000  0.00000000       0.010
   0.04343910  0.00000000  0.00000000       0.021
   0.08687819  0.00000000  0.00000000       0.021
   0.13031729  0.00000000  0.00000000       0.010
   0.00000000  0.04413063  0.00115683       0.042
   0.04343910  0.04413063  0.00115683       0.083
   0.08687819  0.04413063  0.00115683       0.083
   0.13031729  0.04413063  0.00115683       0.042
   0.00000000  0.08826126  0.00231366       0.021
   0.04343910  0.08826126  0.00231366       0.042
   0.08687819  0.08826126  0.00231366       0.042
   0.13031729  0.08826126  0.00231366       0.021
   0.00000000  0.04364157  0.04529991       0.021
   0.04343910  0.04364157  0.04529991       0.042
   0.08687819  0.04364157  0.04529991       0.042
   0.13031729  0.04364157  0.04529991       0.021
   0.00000000  0.08777220  0.04645674       0.042
   0.04343910  0.08777220  0.04645674       0.083
   0.08687819  0.08777220  0.04645674       0.083
   0.13031729  0.08777220  0.04645674       0.042
   0.00000000 -0.04461970  0.04298625       0.021
   0.04343910 -0.04461970  0.04298625       0.042
   0.08687819 -0.04461970  0.04298625       0.042
   0.13031729 -0.04461970  0.04298625       0.021
   0.00000000  0.08728313  0.09059982       0.010
   0.04343910  0.08728313  0.09059982       0.021
   0.08687819  0.08728313  0.09059982       0.021
   0.13031729  0.08728313  0.09059982       0.010
 
 k-points in reciprocal lattice and weights: # No comment                            
   0.00000000  0.00000000  0.00000000       0.010
   0.16666667  0.00000000  0.00000000       0.021
   0.33333333  0.00000000  0.00000000       0.021
   0.50000000  0.00000000  0.00000000       0.010
   0.00000000  0.25000000  0.00000000       0.042
   0.16666667  0.25000000  0.00000000       0.083
   0.33333333  0.25000000  0.00000000       0.083
   0.50000000  0.25000000  0.00000000       0.042
   0.00000000  0.50000000  0.00000000       0.021
   0.16666667  0.50000000  0.00000000       0.042
   0.33333333  0.50000000  0.00000000       0.042
   0.50000000  0.50000000  0.00000000       0.021
   0.00000000  0.25000000  0.25000000       0.021
   0.16666667  0.25000000  0.25000000       0.042
   0.33333333  0.25000000  0.25000000       0.042
   0.50000000  0.25000000  0.25000000       0.021
   0.00000000  0.50000000  0.25000000       0.042
   0.16666667  0.50000000  0.25000000       0.083
   0.33333333  0.50000000  0.25000000       0.083
   0.50000000  0.50000000  0.25000000       0.042
   0.00000000 -0.25000000  0.25000000       0.021
   0.16666667 -0.25000000  0.25000000       0.042
   0.33333333 -0.25000000  0.25000000       0.042
   0.50000000 -0.25000000  0.25000000       0.021
   0.00000000  0.50000000  0.50000000       0.010
   0.16666667  0.50000000  0.50000000       0.021
   0.33333333  0.50000000  0.50000000       0.021
   0.50000000  0.50000000  0.50000000       0.010
 
 position of ions in fractional coordinates (direct lattice) 
   0.31539884  0.50000000  0.00000000
   0.31539884  0.00000000  0.50000000
   0.31844717  0.25055325  0.74944675
   0.31844717  0.74944675  0.25055325
   0.81839653  0.23618943  0.23618943
   0.81839653  0.76381057  0.76381057
   0.81861453  0.67814854  0.32185146
   0.81861453  0.32185146  0.67814854
   0.32193387  0.00000000  0.00000000
 
 position of ions in cartesian coordinates  (Angst):
   1.21011895  2.83167729  0.03137235
   1.21011895 -0.07420788  2.83087861
   1.22181475  1.30774219  4.25890644
   1.22181475  4.20719663  1.46559548
   3.14001520  1.30257026  1.35206685
   3.14001520  4.21236856  4.37243507
   3.14085163  3.79282781  1.86479505
   3.14085163  1.72211101  3.85970687
   1.23519249  0.00000000  0.00000000
 


--------------------------------------------------------------------------------------------------------


 k-point   1 :   0.0000 0.0000 0.0000  plane waves:    3335
 k-point   2 :   0.1667 0.0000 0.0000  plane waves:    3308
 k-point   3 :   0.3333 0.0000 0.0000  plane waves:    3304
 k-point   4 :   0.5000 0.0000 0.0000  plane waves:    3330
 k-point   5 :   0.0000 0.2500 0.0000  plane waves:    3311
 k-point   6 :   0.1667 0.2500 0.0000  plane waves:    3314
 k-point   7 :   0.3333 0.2500 0.0000  plane waves:    3316
 k-point   8 :   0.5000 0.2500 0.0000  plane waves:    3326
 k-point   9 :   0.0000 0.5000 0.0000  plane waves:    3308
 k-point  10 :   0.1667 0.5000 0.0000  plane waves:    3306
 k-point  11 :   0.3333 0.5000 0.0000  plane waves:    3316
 k-point  12 :   0.5000 0.5000 0.0000  plane waves:    3332
 k-point  13 :   0.0000 0.2500 0.2500  plane waves:    3299
 k-point  14 :   0.1667 0.2500 0.2500  plane waves:    3309
 k-point  15 :   0.3333 0.2500 0.2500  plane waves:    3317
 k-point  16 :   0.5000 0.2500 0.2500  plane waves:    3308
 k-point  17 :   0.0000 0.5000 0.2500  plane waves:    3310
 k-point  18 :   0.1667 0.5000 0.2500  plane waves:    3302
 k-point  19 :   0.3333 0.5000 0.2500  plane waves:    3313
 k-point  20 :   0.5000 0.5000 0.2500  plane waves:    3320
 k-point  21 :   0.0000-0.2500 0.2500  plane waves:    3307
 k-point  22 :   0.1667-0.2500 0.2500  plane waves:    3304
 k-point  23 :   0.3333-0.2500 0.2500  plane waves:    3326
 k-point  24 :   0.5000-0.2500 0.2500  plane waves:    3326
 k-point  25 :   0.0000 0.5000 0.5000  plane waves:    3298
 k-point  26 :   0.1667 0.5000 0.5000  plane waves:    3300
 k-point  27 :   0.3333 0.5000 0.5000  plane waves:    3298
 k-point  28 :   0.5000 0.5000 0.5000  plane waves:    3316

 maximum and minimum number of plane-waves per node :      3335     3298

 maximum number of plane-waves:      3335
 maximum index in each direction: 
   IXMAX=    7   IYMAX=   10   IZMAX=   10
   IXMIN=   -7   IYMIN=  -11   IZMIN=  -11


 serial   3D FFT for wavefunctions
 parallel 3D FFT for charge:
    minimum data exchange during FFTs selected (reduces bandwidth)


 FFT grid for exact exchange (Hartree Fock) 
  NGX = 16; NGY = 24; NGZ = 24

 
 Radii for the augmentation spheres in the non-local exchange
 for species   1 augmentation radius   0.956 (default was   0.708)
       energy cutoff for augmentation   2080.0
 for species   2 augmentation radius   0.974 (default was   0.722)
       energy cutoff for augmentation   2080.0
 for species   3 augmentation radius   1.309 (default was   0.970)
       energy cutoff for augmentation   2080.0
 for species   4 augmentation radius   1.283 (default was   0.950)
       energy cutoff for augmentation   2080.0
 Maximum index for augmentation-charges in exchange          710
  SETUP_FOCK is finished

 total amount of memory used by VASP MPI-rank0   223993. kBytes
=======================================================================

   base      :      30000. kBytes
   nonl-proj :      54283. kBytes
   fftplans  :       3861. kBytes
   grid      :      14636. kBytes
   one-center:        279. kBytes
   HF        :        259. kBytes
   nonlr-proj:        750. kBytes
   wavefun   :     119925. kBytes
 
     INWAV:  cpu time    0.0000: real time    0.0000
 Broyden mixing: mesh for mixing (old mesh)
   NGX = 15   NGY = 21   NGZ = 21
  (NGX  = 60   NGY  = 84   NGZ  = 84)
  gives a total of   6615 points

 initial charge density was supplied:
 charge density of overlapping atoms calculated
 number of electron      72.0000000 magnetization      18.6000000
 keeping initial charge density in first step


--------------------------------------------------------------------------------------------------------


 Maximum index for augmentation-charges         3285 (set IRDMAX)


--------------------------------------------------------------------------------------------------------


 First call to EWALD:  gamma=   0.356
 Maximum number of real-space cells 3x 2x 2
 Maximum number of reciprocal cells 2x 3x 3

    FEWALD:  cpu time    0.0018: real time    0.0021


--------------------------------------- Iteration      1(   1)  ---------------------------------------


    POTLOK:  cpu time    0.1202: real time    0.1224
    SETDIJ:  cpu time    0.5542: real time    0.5555
    TRIAL :  cpu time    0.2719: real time    0.2959
    CORREC:  cpu time    0.0017: real time    0.0017
    --------------------------------------------
      LOOP:  cpu time    0.9795: real time    1.0082

 eigenvalue-minimisations  :  5984
 total energy-change (2. order) :-0.4967570E+03  (-0.4006404E+04)
 number of electron      72.0000000 magnetization      18.6000000
 augmentation part       72.0000000 magnetization      18.6000000

 Free energy of the ion-electron system (eV)
  ---------------------------------------------------
  alpha Z        PSCENC =       222.66638933
  Ewald energy   TEWEN  =     -5465.69280175
  -Hartree energ DENC   =     -3076.33599250
  -exchange      EXHF   =         0.00000000
  -V(xc)+E(xc)   XCENC  =       323.36829416
  PAW double counting   =      7284.16531602    -8730.36174070
  entropy T*S    EENTRO =        -0.00434897
  eigenvalues    EBANDS =      -223.33341048
  atomic energy  EATOM  =      9168.77127541
  ---------------------------------------------------
  free energy    TOTEN  =      -496.75701949 eV

  energy without entropy =     -496.75267052  energy(sigma->0) =     -496.75484500
  exchange ACFDT corr.  =         0.00000000  see jH, gK, PRB 81, 115126


--------------------------------------------------------------------------------------------------------




--------------------------------------- Iteration      1(   2)  ---------------------------------------


    TRIAL :  cpu time    0.2477: real time    0.2483
    CORREC:  cpu time    0.0015: real time    0.0015
    --------------------------------------------
      LOOP:  cpu time    0.2509: real time    0.2546

 eigenvalue-minimisations  :  5848
 total energy-change (2. order) :-0.8042215E+03  (-0.7503687E+03)
 number of electron      72.0000000 magnetization      18.6000000
 augmentation part       72.0000000 magnetization      18.6000000

 Free energy of the ion-electron system (eV)
  ---------------------------------------------------
  alpha Z        PSCENC =       222.66638933
  Ewald energy   TEWEN  =     -5465.69280175
  -Hartree energ DENC   =     -3076.33599250
  -exchange      EXHF   =         0.00000000
  -V(xc)+E(xc)   XCENC  =       323.36829416
  PAW double counting   =      7284.16531602    -8730.36174070
  entropy T*S    EENTRO =        -0.01038037
  eigenvalues    EBANDS =     -1027.54890111
  atomic energy  EATOM  =      9168.77127541
  ---------------------------------------------------
  free energy    TOTEN  =     -1300.97854152 eV

  energy without entropy =    -1300.96816115  energy(sigma->0) =    -1300.97335133
  exchange ACFDT corr.  =         0.00000000  see jH, gK, PRB 81, 115126


--------------------------------------------------------------------------------------------------------




--------------------------------------- Iteration      1(   3)  ---------------------------------------


    TRIAL :  cpu time    0.2617: real time    0.2623
    CORREC:  cpu time    0.0015: real time    0.0015
    --------------------------------------------
      LOOP:  cpu time    0.2637: real time    0.2680

 eigenvalue-minimisations  :  6500
 total energy-change (2. order) :-0.1023285E+03  (-0.9725579E+02)
 number of electron      72.0000000 magnetization      18.6000000
 augmentation part       72.0000000 magnetization      18.6000000

 Free energy of the ion-electron system (eV)
  ---------------------------------------------------
  alpha Z        PSCENC =       222.66638933
  Ewald energy   TEWEN  =     -5465.69280175
  -Hartree energ DENC   =     -3076.33599250
  -exchange      EXHF   =         0.00000000
  -V(xc)+E(xc)   XCENC  =       323.36829416
  PAW double counting   =      7284.16531602    -8730.36174070
  entropy T*S    EENTRO =        -0.01168138
  eigenvalues    EBANDS =     -1129.87614715
  atomic energy  EATOM  =      9168.77127541
  ---------------------------------------------------
  free energy    TOTEN  =     -1403.30708856 eV

  energy without entropy =    -1403.29540718  energy(sigma->0) =    -1403.30124787
  exchange ACFDT corr.  =         0.00000000  see jH, gK, PRB 81, 115126


--------------------------------------------------------------------------------------------------------




--------------------------------------- Iteration      1(   4)  ---------------------------------------


    TRIAL :  cpu time    0.3153: real time    0.3161
    CORREC:  cpu time    0.0015: real time    0.0015
    --------------------------------------------
      LOOP:  cpu time    0.3172: real time    0.3219

 eigenvalue-minimisations  :  8604
 total energy-change (2. order) :-0.9596651E+01  (-0.9524991E+01)
 number of electron      72.0000000 magnetization      18.6000000
 augmentation part       72.0000000 magnetization      18.6000000

 Free energy of the ion-electron system (eV)
  ---------------------------------------------------
  alpha Z        PSCENC =       222.66638933
  Ewald energy   TEWEN  =     -5465.69280175
  -Hartree energ DENC   =     -3076.33599250
  -exchange      EXHF   =         0.00000000
  -V(xc)+E(xc)   XCENC  =       323.36829416
  PAW double counting   =      7284.16531602    -8730.36174070
  entropy T*S    EENTRO =        -0.01115674
  eigenvalues    EBANDS =     -1139.47332274
  atomic energy  EATOM  =      9168.77127541
  ---------------------------------------------------
  free energy    TOTEN  =     -1412.90373951 eV

  energy without entropy =    -1412.89258277  energy(sigma->0) =    -1412.89816114
  exchange ACFDT corr.  =         0.00000000  see jH, gK, PRB 81, 115126


--------------------------------------------------------------------------------------------------------




--------------------------------------- Iteration      1(   5)  ---------------------------------------


    POTLOK:  cpu time    0.2699: real time    0.2707
    SETDIJ:  cpu time    1.0560: real time    1.0585
    TRIAL :  cpu time   35.1563: real time   35.2479
    CORREC:  cpu time    0.0015: real time    0.0015
    CHARGE:  cpu time    0.0625: real time    0.0627
    --------------------------------------------
      LOOP:  cpu time   36.5471: real time   36.6457

 eigenvalue-minimisations  :  6684
 total energy-change (2. order) : 0.1328472E+04  (-0.3424027E+01)
 number of electron      72.0000018 magnetization      12.9336260
 augmentation part       25.4914903 magnetization       9.0123029

 Free energy of the ion-electron system (eV)
  ---------------------------------------------------
  alpha Z        PSCENC =       222.66638933
  Ewald energy   TEWEN  =     -5465.69280175
  -Hartree energ DENC   =     -3076.33599250
  -exchange      EXHF   =       215.44746573
  -V(xc)+E(xc)   XCENC  =       245.80574885
  PAW double counting   =      7358.64912680    -7608.43644432
  entropy T*S    EENTRO =        -0.00716938
  eigenvalues    EBANDS =     -1145.29952139
  atomic energy  EATOM  =      9168.77127541
  ---------------------------------------------------
  free energy    TOTEN  =       -84.43192323 eV

  energy without entropy =      -84.42475385  energy(sigma->0) =      -84.42833854
  exchange ACFDT corr.  =        -0.02861812  see jH, gK, PRB 81, 115126


--------------------------------------------------------------------------------------------------------




--------------------------------------- Iteration      1(   6)  ---------------------------------------


    POTLOK:  cpu time    0.2683: real time    0.2689
    SETDIJ:  cpu time    1.0745: real time    1.0770
    TRIAL :  cpu time   34.6879: real time   34.7781
    CORREC:  cpu time   36.0866: real time   36.1783
    CHARGE:  cpu time    0.0642: real time    0.0644
    --------------------------------------------
      LOOP:  cpu time   72.1821: real time   72.3701

 eigenvalue-minimisations  :     0
 total energy-change (2. order) : 0.4560426E+02  (-0.2686398E+02)
 number of electron      72.0000021 magnetization      12.3958168
 augmentation part       27.2045830 magnetization       9.1721509

 Free energy of the ion-electron system (eV)
  ---------------------------------------------------
  alpha Z        PSCENC =       222.66638933
  Ewald energy   TEWEN  =     -5465.69280175
  -Hartree energ DENC   =     -2730.40281377
  -exchange      EXHF   =       212.33620807
  -V(xc)+E(xc)   XCENC  =       240.73394114
  PAW double counting   =      8466.21081036    -8703.45273416
  entropy T*S    EENTRO =        -0.00483153
  eigenvalues    EBANDS =     -1449.99076694
  atomic energy  EATOM  =      9168.77127541
  ---------------------------------------------------
  free energy    TOTEN  =       -38.82766168 eV

  energy without entropy =      -38.82283015  energy(sigma->0) =      -38.82524592
  exchange ACFDT corr.  =        -0.00649915  see jH, gK, PRB 81, 115126


--------------------------------------------------------------------------------------------------------




--------------------------------------- Iteration      1(   7)  ---------------------------------------


    POTLOK:  cpu time    0.2874: real time    0.2882
    SETDIJ:  cpu time    1.0884: real time    1.0910
    TRIAL :  cpu time   34.7155: real time   34.8029
    CORREC:  cpu time   35.9665: real time   36.0572
    CHARGE:  cpu time    0.0616: real time    0.0617
    --------------------------------------------
      LOOP:  cpu time   72.1202: real time   72.3041

 eigenvalue-minimisations  :     0
 total energy-change (2. order) :-0.2682405E+02  (-0.4312017E+01)
 number of electron      72.0000022 magnetization      12.1663534
 augmentation part       26.9898210 magnetization       9.0195823

 Free energy of the ion-electron system (eV)
  ---------------------------------------------------
  alpha Z        PSCENC =       222.66638933
  Ewald energy   TEWEN  =     -5465.69280175
  -Hartree energ DENC   =     -2947.77911843
  -exchange      EXHF   =       212.13760473
  -V(xc)+E(xc)   XCENC  =       244.80822062
  PAW double counting   =      9362.12022654    -9647.45016121
  entropy T*S    EENTRO =        -0.00485757
  eigenvalues    EBANDS =     -1215.22851132
  atomic energy  EATOM  =      9168.77127541
  ---------------------------------------------------
  free energy    TOTEN  =       -65.65170761 eV

  energy without entropy =      -65.64685003  energy(sigma->0) =      -65.64927882
  exchange ACFDT corr.  =        -0.08075337  see jH, gK, PRB 81, 115126


--------------------------------------------------------------------------------------------------------




--------------------------------------- Iteration      1(   8)  ---------------------------------------


    POTLOK:  cpu time    0.2737: real time    0.2743
    SETDIJ:  cpu time    1.0711: real time    1.0736
    TRIAL :  cpu time   34.6568: real time   34.7449
    CORREC:  cpu time   35.9832: real time   36.0747
    CHARGE:  cpu time    0.0609: real time    0.0611
    --------------------------------------------
      LOOP:  cpu time   72.0462: real time   72.2323

 eigenvalue-minimisations  :     0
 total energy-change (2. order) :-0.4306656E+01  (-0.2409553E+01)
 number of electron      72.0000021 magnetization      12.0208346
 augmentation part       26.7669286 magnetization       8.6658557

 Free energy of the ion-electron system (eV)
  ---------------------------------------------------
  alpha Z        PSCENC =       222.66638933
  Ewald energy   TEWEN  =     -5465.69280175
  -Hartree energ DENC   =     -2940.99324926
  -exchange      EXHF   =       210.37528868
  -V(xc)+E(xc)   XCENC  =       243.20820742
  PAW double counting   =      9523.49577485    -9799.23353776
  entropy T*S    EENTRO =        -0.00277203
  eigenvalues    EBANDS =     -1232.55085285
  atomic energy  EATOM  =      9168.77127541
  ---------------------------------------------------
  free energy    TOTEN  =       -69.95836351 eV

  energy without entropy =      -69.95559148  energy(sigma->0) =      -69.95697749
  exchange ACFDT corr.  =        -0.08454829  see jH, gK, PRB 81, 115126


--------------------------------------------------------------------------------------------------------




--------------------------------------- Iteration      1(   9)  ---------------------------------------


    POTLOK:  cpu time    0.2715: real time    0.2721
    SETDIJ:  cpu time    1.0772: real time    1.0798
    TRIAL :  cpu time   34.5784: real time   34.6661
    CORREC:  cpu time   35.9141: real time   36.0048
    CHARGE:  cpu time    0.0587: real time    0.0588
    --------------------------------------------
      LOOP:  cpu time   71.9017: real time   72.0858

 eigenvalue-minimisations  :     0
 total energy-change (2. order) :-0.1955908E+01  (-0.1010227E+01)
 number of electron      72.0000021 magnetization      12.0000013
 augmentation part       26.9375160 magnetization       8.4307590

 Free energy of the ion-electron system (eV)
  ---------------------------------------------------
  alpha Z        PSCENC =       222.66638933
  Ewald energy   TEWEN  =     -5465.69280175
  -Hartree energ DENC   =     -2938.75295815
  -exchange      EXHF   =       209.64428053
  -V(xc)+E(xc)   XCENC  =       242.31573181
  PAW double counting   =      9376.83069319    -9638.51532485
  entropy T*S    EENTRO =        -0.00465663
  eigenvalues    EBANDS =     -1249.17878538
  atomic energy  EATOM  =      9168.77127541
  ---------------------------------------------------
  free energy    TOTEN  =       -71.91427188 eV

  energy without entropy =      -71.90961525  energy(sigma->0) =      -71.91194356
  exchange ACFDT corr.  =        -0.09129446  see jH, gK, PRB 81, 115126


--------------------------------------------------------------------------------------------------------




--------------------------------------- Iteration      1(  10)  ---------------------------------------


    POTLOK:  cpu time    0.2721: real time    0.2727
    SETDIJ:  cpu time    1.0804: real time    1.0830
    TRIAL :  cpu time   34.6198: real time   34.7078
    CORREC:  cpu time   35.9940: real time   36.0848
    CHARGE:  cpu time    0.0682: real time    0.0683
    --------------------------------------------
      LOOP:  cpu time   72.0352: real time   72.2198

 eigenvalue-minimisations  :     0
 total energy-change (2. order) :-0.1015454E+01  (-0.5191605E+00)
 number of electron      72.0000021 magnetization      12.0000013
 augmentation part       27.1024599 magnetization       8.3317948

 Free energy of the ion-electron system (eV)
  ---------------------------------------------------
  alpha Z        PSCENC =       222.66638933
  Ewald energy   TEWEN  =     -5465.69280175
  -Hartree energ DENC   =     -2971.13330250
  -exchange      EXHF   =       209.78246551
  -V(xc)+E(xc)   XCENC  =       242.94211124
  PAW double counting   =      9313.80288426    -9576.93886375
  entropy T*S    EENTRO =        -0.00463564
  eigenvalues    EBANDS =     -1217.12522708
  atomic energy  EATOM  =      9168.77127541
  ---------------------------------------------------
  free energy    TOTEN  =       -72.92972596 eV

  energy without entropy =      -72.92509031  energy(sigma->0) =      -72.92740814
  exchange ACFDT corr.  =        -0.17191911  see jH, gK, PRB 81, 115126


--------------------------------------------------------------------------------------------------------




--------------------------------------- Iteration      1(  11)  ---------------------------------------


    POTLOK:  cpu time    0.2715: real time    0.2724
    SETDIJ:  cpu time    1.0742: real time    1.0768
    TRIAL :  cpu time   34.6102: real time   34.6980
    CORREC:  cpu time   35.7884: real time   35.8785
    CHARGE:  cpu time    0.0622: real time    0.0623
    --------------------------------------------
      LOOP:  cpu time   71.8098: real time   71.9914

 eigenvalue-minimisations  :     0
 total energy-change (2. order) :-0.5185324E+00  (-0.2761336E+00)
 number of electron      72.0000021 magnetization      12.0000012
 augmentation part       27.1299868 magnetization       8.2701607

 Free energy of the ion-electron system (eV)
  ---------------------------------------------------
  alpha Z        PSCENC =       222.66638933
  Ewald energy   TEWEN  =     -5465.69280175
  -Hartree energ DENC   =     -2992.93596801
  -exchange      EXHF   =       210.11911156
  -V(xc)+E(xc)   XCENC  =       243.49151547
  PAW double counting   =      9258.54920117    -9525.81423747
  entropy T*S    EENTRO =        -0.00318781
  eigenvalues    EBANDS =     -1192.59810845
  atomic energy  EATOM  =      9168.77127541
  ---------------------------------------------------
  free energy    TOTEN  =       -73.44825838 eV

  energy without entropy =      -73.44507056  energy(sigma->0) =      -73.44666447
  exchange ACFDT corr.  =        -0.14388906  see jH, gK, PRB 81, 115126


--------------------------------------------------------------------------------------------------------




--------------------------------------- Iteration      1(  12)  ---------------------------------------


    POTLOK:  cpu time    0.2785: real time    0.2793
    SETDIJ:  cpu time    1.0695: real time    1.0721
    TRIAL :  cpu time   34.6841: real time   34.7718
    CORREC:  cpu time   35.9417: real time   36.0335
    CHARGE:  cpu time    0.0598: real time    0.0601
    --------------------------------------------
      LOOP:  cpu time   72.0357: real time   72.2202

 eigenvalue-minimisations  :     0
 total energy-change (2. order) :-0.2751867E+00  ( 0.6941837E+01)
 number of electron      72.0000021 magnetization      12.0000012
 augmentation part       27.0870799 magnetization       8.2318089

 Free energy of the ion-electron system (eV)
  ---------------------------------------------------
  alpha Z        PSCENC =       222.66638933
  Ewald energy   TEWEN  =     -5465.69280175
  -Hartree energ DENC   =     -2992.98494090
  -exchange      EXHF   =       210.16837756
  -V(xc)+E(xc)   XCENC  =       243.50507476
  PAW double counting   =      9164.68892557    -9432.71363353
  entropy T*S    EENTRO =        -0.00361382
  eigenvalues    EBANDS =     -1192.12892370
  atomic energy  EATOM  =      9168.77127541
  ---------------------------------------------------
  free energy    TOTEN  =       -73.72344505 eV

  energy without entropy =      -73.71983124  energy(sigma->0) =      -73.72163814
  exchange ACFDT corr.  =        -0.14693054  see jH, gK, PRB 81, 115126


--------------------------------------------------------------------------------------------------------




--------------------------------------- Iteration      1(  13)  ---------------------------------------


    POTLOK:  cpu time    0.2706: real time    0.2712
    SETDIJ:  cpu time    1.0687: real time    1.0712
    TRIAL :  cpu time   34.5873: real time   34.6752
    CORREC:  cpu time   36.1399: real time   36.2313
    CHARGE:  cpu time    0.0599: real time    0.0601
    --------------------------------------------
      LOOP:  cpu time   72.1270: real time   72.3127

 eigenvalue-minimisations  :     0
 total energy-change (2. order) :-0.3025360E+00  ( 0.1525824E+00)
 number of electron      72.0000021 magnetization      12.0000012
 augmentation part       27.0672400 magnetization       8.1988698

 Free energy of the ion-electron system (eV)
  ---------------------------------------------------
  alpha Z        PSCENC =       222.66638933
  Ewald energy   TEWEN  =     -5465.69280175
  -Hartree energ DENC   =     -2985.73400410
  -exchange      EXHF   =       210.34327655
  -V(xc)+E(xc)   XCENC  =       243.34121332
  PAW double counting   =      9095.27773008    -9361.94327695
  entropy T*S    EENTRO =        -0.00196552
  eigenvalues    EBANDS =     -1201.05216915
  atomic energy  EATOM  =      9168.77127541
  ---------------------------------------------------
  free energy    TOTEN  =       -74.02598107 eV

  energy without entropy =      -74.02401555  energy(sigma->0) =      -74.02499831
  exchange ACFDT corr.  =        -0.12256345  see jH, gK, PRB 81, 115126


--------------------------------------------------------------------------------------------------------




--------------------------------------- Iteration      1(  14)  ---------------------------------------


    POTLOK:  cpu time    0.2703: real time    0.2709
    SETDIJ:  cpu time    1.0770: real time    1.0795
    TRIAL :  cpu time   34.7310: real time   34.8193
    CORREC:  cpu time   35.9103: real time   36.0006
    CHARGE:  cpu time    0.0596: real time    0.0598
    --------------------------------------------
      LOOP:  cpu time   72.0491: real time   72.2336

 eigenvalue-minimisations  :     0
 total energy-change (2. order) :-0.4665522E+00  (-0.7279063E+00)
 number of electron      72.0000021 magnetization      12.0000012
 augmentation part       27.1964312 magnetization       8.1785885

 Free energy of the ion-electron system (eV)
  ---------------------------------------------------
  alpha Z        PSCENC =       222.66638933
  Ewald energy   TEWEN  =     -5465.69280175
  -Hartree energ DENC   =     -2983.69764325
  -exchange      EXHF   =       210.93411473
  -V(xc)+E(xc)   XCENC  =       243.32717731
  PAW double counting   =      9076.07712702    -9341.89853845
  entropy T*S    EENTRO =        -0.00000001
  eigenvalues    EBANDS =     -1204.97766807
  atomic energy  EATOM  =      9168.77127541
  ---------------------------------------------------
  free energy    TOTEN  =       -74.49253323 eV

  energy without entropy =      -74.49253323  energy(sigma->0) =      -74.49253323
  exchange ACFDT corr.  =        -0.08922076  see jH, gK, PRB 81, 115126


--------------------------------------------------------------------------------------------------------




--------------------------------------- Iteration      1(  15)  ---------------------------------------


    POTLOK:  cpu time    0.2718: real time    0.2725
    SETDIJ:  cpu time    1.0762: real time    1.0788
    TRIAL :  cpu time   34.7923: real time   34.8811
    CORREC:  cpu time   36.0363: real time   36.1271
    CHARGE:  cpu time    0.0583: real time    0.0586
    --------------------------------------------
      LOOP:  cpu time   72.2362: real time   72.4218

 eigenvalue-minimisations  :     0
 total energy-change (2. order) :-0.4867083E+00  (-0.3150522E+00)
 number of electron      72.0000021 magnetization      12.0000012
 augmentation part       27.1222469 magnetization       8.1372646

 Free energy of the ion-electron system (eV)
  ---------------------------------------------------
  alpha Z        PSCENC =       222.66638933
  Ewald energy   TEWEN  =     -5465.69280175
  -Hartree energ DENC   =     -3003.87431589
  -exchange      EXHF   =       212.25263088
  -V(xc)+E(xc)   XCENC  =       243.91242004
  PAW double counting   =      9226.67609599    -9495.96635404
  entropy T*S    EENTRO =        -0.00000000
  eigenvalues    EBANDS =     -1183.72458147
  atomic energy  EATOM  =      9168.77127541
  ---------------------------------------------------
  free energy    TOTEN  =       -74.97924152 eV

  energy without entropy =      -74.97924152  energy(sigma->0) =      -74.97924152
  exchange ACFDT corr.  =        -0.00089099  see jH, gK, PRB 81, 115126


--------------------------------------------------------------------------------------------------------




--------------------------------------- Iteration      1(  16)  ---------------------------------------


    POTLOK:  cpu time    0.2722: real time    0.2729
    SETDIJ:  cpu time    1.0732: real time    1.0759
    TRIAL :  cpu time   34.5895: real time   34.6808
    CORREC:  cpu time   35.9473: real time   36.0379
    CHARGE:  cpu time    0.0679: real time    0.0681
    --------------------------------------------
      LOOP:  cpu time   71.9516: real time   72.1392

 eigenvalue-minimisations  :     0
 total energy-change (2. order) :-0.3213413E+00  (-0.8942589E-01)
 number of electron      72.0000021 magnetization      12.0000012
 augmentation part       27.0855680 magnetization       8.1134489

 Free energy of the ion-electron system (eV)
  ---------------------------------------------------
  alpha Z        PSCENC =       222.66638933
  Ewald energy   TEWEN  =     -5465.69280175
  -Hartree energ DENC   =     -2993.77108267
  -exchange      EXHF   =       212.41717525
  -V(xc)+E(xc)   XCENC  =       243.64539693
  PAW double counting   =      9218.06353379    -9485.07668050
  entropy T*S    EENTRO =        -0.00000000
  eigenvalues    EBANDS =     -1196.32378860
  atomic energy  EATOM  =      9168.77127541
  ---------------------------------------------------
  free energy    TOTEN  =       -75.30058282 eV

  energy without entropy =      -75.30058282  energy(sigma->0) =      -75.30058282
  exchange ACFDT corr.  =        -0.00000000  see jH, gK, PRB 81, 115126


--------------------------------------------------------------------------------------------------------




--------------------------------------- Iteration      1(  17)  ---------------------------------------


    POTLOK:  cpu time    0.2803: real time    0.2810
    SETDIJ:  cpu time    1.0667: real time    1.0693
    TRIAL :  cpu time   34.3814: real time   34.4684
    CORREC:  cpu time   35.8931: real time   35.9839
    CHARGE:  cpu time    0.0595: real time    0.0597
    --------------------------------------------
      LOOP:  cpu time   71.6821: real time   71.8661

 eigenvalue-minimisations  :     0
 total energy-change (2. order) :-0.8974486E-01  (-0.2643495E-01)
 number of electron      72.0000021 magnetization      12.0000012
 augmentation part       27.1186865 magnetization       8.1085297

 Free energy of the ion-electron system (eV)
  ---------------------------------------------------
  alpha Z        PSCENC =       222.66638933
  Ewald energy   TEWEN  =     -5465.69280175
  -Hartree energ DENC   =     -2987.57289165
  -exchange      EXHF   =       212.44623287
  -V(xc)+E(xc)   XCENC  =       243.51048100
  PAW double counting   =      9173.78728300    -9439.84532082
  entropy T*S    EENTRO =        -0.00000000
  eigenvalues    EBANDS =     -1203.46097508
  atomic energy  EATOM  =      9168.77127541
  ---------------------------------------------------
  free energy    TOTEN  =       -75.39032768 eV

  energy without entropy =      -75.39032768  energy(sigma->0) =      -75.39032768
  exchange ACFDT corr.  =        -0.00000000  see jH, gK, PRB 81, 115126


--------------------------------------------------------------------------------------------------------




--------------------------------------- Iteration      1(  18)  ---------------------------------------


    POTLOK:  cpu time    0.2719: real time    0.2726
    SETDIJ:  cpu time    1.0751: real time    1.0778
    TRIAL :  cpu time   34.6494: real time   34.7374
    CORREC:  cpu time   35.7846: real time   35.8776
    CHARGE:  cpu time    0.0596: real time    0.0598
    --------------------------------------------
      LOOP:  cpu time   71.8411: real time   72.0284

 eigenvalue-minimisations  :     0
 total energy-change (2. order) :-0.2671452E-01  (-0.1281903E-01)
 number of electron      72.0000021 magnetization      12.0000012
 augmentation part       27.1255445 magnetization       8.0957654

 Free energy of the ion-electron system (eV)
  ---------------------------------------------------
  alpha Z        PSCENC =       222.66638933
  Ewald energy   TEWEN  =     -5465.69280175
  -Hartree energ DENC   =     -2991.93062794
  -exchange      EXHF   =       212.61409741
  -V(xc)+E(xc)   XCENC  =       243.66341578
  PAW double counting   =      9176.13999913    -9443.19083989
  entropy T*S    EENTRO =        -0.00000000
  eigenvalues    EBANDS =     -1198.45794969
  atomic energy  EATOM  =      9168.77127541
  ---------------------------------------------------
  free energy    TOTEN  =       -75.41704220 eV

  energy without entropy =      -75.41704220  energy(sigma->0) =      -75.41704220
  exchange ACFDT corr.  =        -0.00000000  see jH, gK, PRB 81, 115126


--------------------------------------------------------------------------------------------------------




--------------------------------------- Iteration      1(  19)  ---------------------------------------


    POTLOK:  cpu time    0.2734: real time    0.2740
    SETDIJ:  cpu time    1.0905: real time    1.0933
    TRIAL :  cpu time   34.4507: real time   34.5383
    CORREC:  cpu time   35.8004: real time   35.8904
    CHARGE:  cpu time    0.0591: real time    0.0592
    --------------------------------------------
      LOOP:  cpu time   71.6749: real time   71.8584

 eigenvalue-minimisations  :     0
 total energy-change (2. order) :-0.1290598E-01  (-0.7263536E-02)
 number of electron      72.0000021 magnetization      12.0000012
 augmentation part       27.1103910 magnetization       8.0783716

 Free energy of the ion-electron system (eV)
  ---------------------------------------------------
  alpha Z        PSCENC =       222.66638933
  Ewald energy   TEWEN  =     -5465.69280175
  -Hartree energ DENC   =     -2992.75652042
  -exchange      EXHF   =       212.68616257
  -V(xc)+E(xc)   XCENC  =       243.69586073
  PAW double counting   =      9179.74808863    -9446.96815103
  entropy T*S    EENTRO =        -0.00000000
  eigenvalues    EBANDS =     -1197.58025165
  atomic energy  EATOM  =      9168.77127541
  ---------------------------------------------------
  free energy    TOTEN  =       -75.42994818 eV

  energy without entropy =      -75.42994818  energy(sigma->0) =      -75.42994818
  exchange ACFDT corr.  =        -0.00000000  see jH, gK, PRB 81, 115126


--------------------------------------------------------------------------------------------------------




--------------------------------------- Iteration      1(  20)  ---------------------------------------


    POTLOK:  cpu time    0.2730: real time    0.2738
    SETDIJ:  cpu time    1.0803: real time    1.0829
    TRIAL :  cpu time   34.5387: real time   34.6268
    CORREC:  cpu time   35.8652: real time   35.9573
    CHARGE:  cpu time    0.0584: real time    0.0586
    --------------------------------------------
      LOOP:  cpu time   71.8189: real time   72.0026

 eigenvalue-minimisations  :     0
 total energy-change (2. order) :-0.7299461E-02  (-0.2375144E-02)
 number of electron      72.0000021 magnetization      12.0000012
 augmentation part       27.1164306 magnetization       8.0776007

 Free energy of the ion-electron system (eV)
  ---------------------------------------------------
  alpha Z        PSCENC =       222.66638933
  Ewald energy   TEWEN  =     -5465.69280175
  -Hartree energ DENC   =     -2990.34568636
  -exchange      EXHF   =       212.64830408
  -V(xc)+E(xc)   XCENC  =       243.60956710
  PAW double counting   =      9180.19498542    -9447.03783358
  entropy T*S    EENTRO =        -0.00000000
  eigenvalues    EBANDS =     -1200.25144729
  atomic energy  EATOM  =      9168.77127541
  ---------------------------------------------------
  free energy    TOTEN  =       -75.43724764 eV

  energy without entropy =      -75.43724764  energy(sigma->0) =      -75.43724764
  exchange ACFDT corr.  =        -0.00000000  see jH, gK, PRB 81, 115126


--------------------------------------------------------------------------------------------------------




--------------------------------------- Iteration      1(  21)  ---------------------------------------


    POTLOK:  cpu time    0.2760: real time    0.2767
    SETDIJ:  cpu time    1.0678: real time    1.0704
    TRIAL :  cpu time   34.6325: real time   34.7217
    CORREC:  cpu time   35.9107: real time   36.0013
    CHARGE:  cpu time    0.0626: real time    0.0628
    --------------------------------------------
      LOOP:  cpu time   71.9504: real time   72.1362

 eigenvalue-minimisations  :     0
 total energy-change (2. order) :-0.2381896E-02  (-0.1175463E-02)
 number of electron      72.0000021 magnetization      12.0000012
 augmentation part       27.1168705 magnetization       8.0771238

 Free energy of the ion-electron system (eV)
  ---------------------------------------------------
  alpha Z        PSCENC =       222.66638933
  Ewald energy   TEWEN  =     -5465.69280175
  -Hartree energ DENC   =     -2991.53464301
  -exchange      EXHF   =       212.67620870
  -V(xc)+E(xc)   XCENC  =       243.63746590
  PAW double counting   =      9187.52633958    -9454.56368815
  entropy T*S    EENTRO =        -0.00000000
  eigenvalues    EBANDS =     -1198.92617555
  atomic energy  EATOM  =      9168.77127541
  ---------------------------------------------------
  free energy    TOTEN  =       -75.43962954 eV

  energy without entropy =      -75.43962954  energy(sigma->0) =      -75.43962954
  exchange ACFDT corr.  =        -0.00000000  see jH, gK, PRB 81, 115126


--------------------------------------------------------------------------------------------------------




--------------------------------------- Iteration      1(  22)  ---------------------------------------


    POTLOK:  cpu time    0.2856: real time    0.2863
    SETDIJ:  cpu time    1.0679: real time    1.0706
    TRIAL :  cpu time   34.4631: real time   34.5499
    CORREC:  cpu time   35.9308: real time   36.0219
    CHARGE:  cpu time    0.0595: real time    0.0598
    --------------------------------------------
      LOOP:  cpu time   71.8076: real time   71.9918

 eigenvalue-minimisations  :     0
 total energy-change (2. order) :-0.1180996E-02  (-0.6857069E-03)
 number of electron      72.0000021 magnetization      12.0000012
 augmentation part       27.1130540 magnetization       8.0741936

 Free energy of the ion-electron system (eV)
  ---------------------------------------------------
  alpha Z        PSCENC =       222.66638933
  Ewald energy   TEWEN  =     -5465.69280175
  -Hartree energ DENC   =     -2991.96814600
  -exchange      EXHF   =       212.70088748
  -V(xc)+E(xc)   XCENC  =       243.65305996
  PAW double counting   =      9188.38845149    -9455.41373810
  entropy T*S    EENTRO =        -0.00000000
  eigenvalues    EBANDS =     -1198.54618836
  atomic energy  EATOM  =      9168.77127541
  ---------------------------------------------------
  free energy    TOTEN  =       -75.44081053 eV

  energy without entropy =      -75.44081053  energy(sigma->0) =      -75.44081053
  exchange ACFDT corr.  =        -0.00000000  see jH, gK, PRB 81, 115126


--------------------------------------------------------------------------------------------------------




--------------------------------------- Iteration      1(  23)  ---------------------------------------


    POTLOK:  cpu time    0.2674: real time    0.2680
    SETDIJ:  cpu time    1.0776: real time    1.0802
    TRIAL :  cpu time   34.4821: real time   34.5695
    CORREC:  cpu time   35.8920: real time   35.9827
    CHARGE:  cpu time    0.0602: real time    0.0604
    --------------------------------------------
      LOOP:  cpu time   71.7801: real time   71.9644

 eigenvalue-minimisations  :     0
 total energy-change (2. order) :-0.6880634E-03  (-0.6691328E-03)
 number of electron      72.0000021 magnetization      12.0000012
 augmentation part       27.1150660 magnetization       8.0732578

 Free energy of the ion-electron system (eV)
  ---------------------------------------------------
  alpha Z        PSCENC =       222.66638933
  Ewald energy   TEWEN  =     -5465.69280175
  -Hartree energ DENC   =     -2991.39864269
  -exchange      EXHF   =       212.69701076
  -V(xc)+E(xc)   XCENC  =       243.63914234
  PAW double counting   =      9185.09122535    -9452.00379525
  entropy T*S    EENTRO =        -0.00000000
  eigenvalues    EBANDS =     -1199.21130210
  atomic energy  EATOM  =      9168.77127541
  ---------------------------------------------------
  free energy    TOTEN  =       -75.44149859 eV

  energy without entropy =      -75.44149859  energy(sigma->0) =      -75.44149859
  exchange ACFDT corr.  =        -0.00000000  see jH, gK, PRB 81, 115126


--------------------------------------------------------------------------------------------------------




--------------------------------------- Iteration      1(  24)  ---------------------------------------


    POTLOK:  cpu time    0.2715: real time    0.2722
    SETDIJ:  cpu time    1.0753: real time    1.0780
    TRIAL :  cpu time   34.4312: real time   34.5183
    CORREC:  cpu time   35.8257: real time   35.9166
    CHARGE:  cpu time    0.0645: real time    0.0647
    --------------------------------------------
      LOOP:  cpu time   71.6694: real time   71.8527

 eigenvalue-minimisations  :     0
 total energy-change (2. order) :-0.6684047E-03  (-0.5053793E-03)
 number of electron      72.0000021 magnetization      12.0000012
 augmentation part       27.1164125 magnetization       8.0740113

 Free energy of the ion-electron system (eV)
  ---------------------------------------------------
  alpha Z        PSCENC =       222.66638933
  Ewald energy   TEWEN  =     -5465.69280175
  -Hartree energ DENC   =     -2991.56529155
  -exchange      EXHF   =       212.69295939
  -V(xc)+E(xc)   XCENC  =       243.64075838
  PAW double counting   =      9185.60399476    -9452.61284786
  entropy T*S    EENTRO =        -0.00000000
  eigenvalues    EBANDS =     -1198.94660310
  atomic energy  EATOM  =      9168.77127541
  ---------------------------------------------------
  free energy    TOTEN  =       -75.44216700 eV

  energy without entropy =      -75.44216700  energy(sigma->0) =      -75.44216700
  exchange ACFDT corr.  =        -0.00000000  see jH, gK, PRB 81, 115126


--------------------------------------------------------------------------------------------------------




--------------------------------------- Iteration      1(  25)  ---------------------------------------


    POTLOK:  cpu time    0.2700: real time    0.2708
    SETDIJ:  cpu time    1.0843: real time    1.0868
    TRIAL :  cpu time   34.5463: real time   34.6370
    CORREC:  cpu time   36.0222: real time   36.1154
    CHARGE:  cpu time    0.0582: real time    0.0585
    --------------------------------------------
      LOOP:  cpu time   71.9814: real time   72.1720

 eigenvalue-minimisations  :     0
 total energy-change (2. order) :-0.5050879E-03  (-0.2672050E-03)
 number of electron      72.0000021 magnetization      12.0000012
 augmentation part       27.1136853 magnetization       8.0742328

 Free energy of the ion-electron system (eV)
  ---------------------------------------------------
  alpha Z        PSCENC =       222.66638933
  Ewald energy   TEWEN  =     -5465.69280175
  -Hartree energ DENC   =     -2991.81143924
  -exchange      EXHF   =       212.69241038
  -V(xc)+E(xc)   XCENC  =       243.64560046
  PAW double counting   =      9186.43317764    -9453.49772314
  entropy T*S    EENTRO =        -0.00000000
  eigenvalues    EBANDS =     -1198.64956117
  atomic energy  EATOM  =      9168.77127541
  ---------------------------------------------------
  free energy    TOTEN  =       -75.44267209 eV

  energy without entropy =      -75.44267209  energy(sigma->0) =      -75.44267209
  exchange ACFDT corr.  =        -0.00000000  see jH, gK, PRB 81, 115126


--------------------------------------------------------------------------------------------------------




--------------------------------------- Iteration      1(  26)  ---------------------------------------


    POTLOK:  cpu time    0.2702: real time    0.2708
    SETDIJ:  cpu time    1.0752: real time    1.0779
    TRIAL :  cpu time   34.6914: real time   34.7794
    CORREC:  cpu time   35.7622: real time   35.8526
    CHARGE:  cpu time    0.0682: real time    0.0684
    --------------------------------------------
      LOOP:  cpu time   71.8690: real time   72.0524

 eigenvalue-minimisations  :     0
 total energy-change (2. order) :-0.2676067E-03  (-0.1564434E-03)
 number of electron      72.0000021 magnetization      12.0000012
 augmentation part       27.1142874 magnetization       8.0751004

 Free energy of the ion-electron system (eV)
  ---------------------------------------------------
  alpha Z        PSCENC =       222.66638933
  Ewald energy   TEWEN  =     -5465.69280175
  -Hartree energ DENC   =     -2991.51227337
  -exchange      EXHF   =       212.68832377
  -V(xc)+E(xc)   XCENC  =       243.63818788
  PAW double counting   =      9185.25684023    -9452.23705304
  entropy T*S    EENTRO =        -0.00000000
  eigenvalues    EBANDS =     -1199.02182814
  atomic energy  EATOM  =      9168.77127541
  ---------------------------------------------------
  free energy    TOTEN  =       -75.44293969 eV

  energy without entropy =      -75.44293969  energy(sigma->0) =      -75.44293969
  exchange ACFDT corr.  =        -0.00000000  see jH, gK, PRB 81, 115126


--------------------------------------------------------------------------------------------------------




--------------------------------------- Iteration      1(  27)  ---------------------------------------


    POTLOK:  cpu time    0.2787: real time    0.2793
    SETDIJ:  cpu time    1.0695: real time    1.0722
    TRIAL :  cpu time   34.4401: real time   34.5270
    CORREC:  cpu time   35.9105: real time   36.0038
    CHARGE:  cpu time    0.0598: real time    0.0600
    --------------------------------------------
      LOOP:  cpu time   71.7592: real time   71.9452

 eigenvalue-minimisations  :     0
[...]
      2     -49.4535      1.00000
      3     -49.4217      1.00000
      4     -49.3841      1.00000
      5     -49.3826      1.00000
      6     -49.3805      1.00000
      7     -49.0616      1.00000
      8     -49.0326      1.00000
      9     -49.0220      1.00000
     10     -43.4993      1.00000
     11     -43.4989      1.00000
     12     -15.4384      1.00000
     13     -15.3032      1.00000
     14      -8.4802      1.00000
     15      -8.1397      1.00000
     16      -1.7826      1.00000
     17      -1.5569      1.00000
     18      -0.8829      1.00000
     19      -0.4950      1.00000
     20      -0.0707      1.00000
     21       0.0394      1.00000
     22       0.8022      1.00000
     23       1.3554      1.00000
     24       1.4538      1.00000
     25       1.7752      1.00000
     26       1.9549      1.00000
     27       2.1173      1.00000
     28       3.0249      1.00000
     29       4.2943      1.00000
     30       4.4772      1.00000
     31       7.4000      0.00000
     32       7.4577      0.00000
     33       7.9844      0.00000
     34       8.3341      0.00000
     35       8.4020      0.00000
     36       8.4950      0.00000
     37       8.5815      0.00000
     38       9.0330      0.00000
     39       9.0957      0.00000
     40       9.4472      0.00000
     41       9.4676      0.00000
     42      10.1934      0.00000
     43      11.2567      0.00000
     44      11.5331      0.00000
     45      11.9238      0.00000
     46      12.4766      0.00000
     47      13.1570      0.00000
     48      13.4043      0.00000
     49      13.7838      0.00000
     50      14.2083      0.00000
     51      14.5459      0.00000
     52      15.4174      0.00000

 k-point    25 :       0.0000    0.5000    0.5000
  band No.  band energies     occupation 
      1     -49.4588      1.00000
      2     -49.4542      1.00000
      3     -49.4213      1.00000
      4     -49.3824      1.00000
      5     -49.3796      1.00000
      6     -49.3765      1.00000
      7     -49.0620      1.00000
      8     -49.0312      1.00000
      9     -49.0223      1.00000
     10     -43.5001      1.00000
     11     -43.4995      1.00000
     12     -15.6983      1.00000
     13     -15.4939      1.00000
     14      -8.7584      1.00000
     15      -8.5638      1.00000
     16      -0.8230      1.00000
     17      -0.4657      1.00000
     18      -0.4310      1.00000
     19      -0.2382      1.00000
     20      -0.0669      1.00000
     21       0.0166      1.00000
     22       0.2753      1.00000
     23       0.6208      1.00000
     24       2.0953      1.00000
     25       2.4165      1.00000
     26       2.6643      1.00000
     27       3.3071      1.00000
     28       3.3117      1.00000
     29       3.6665      1.00000
     30       4.3787      1.00000
     31       7.7789      0.00000
     32       7.8120      0.00000
     33       8.1926      0.00000
     34       8.5134      0.00000
     35       8.6320      0.00000
     36       8.7278      0.00000
     37       8.8950      0.00000
     38       8.9468      0.00000
     39       9.1887      0.00000
     40       9.2500      0.00000
     41       9.7252      0.00000
     42       9.8242      0.00000
     43      11.7112      0.00000
     44      11.8050      0.00000
     45      12.2276      0.00000
     46      12.4482      0.00000
     47      12.9905      0.00000
     48      13.1572      0.00000
     49      13.2001      0.00000
     50      13.6582      0.00000
     51      14.6104      0.00000
     52      14.6645      0.00000

 k-point    26 :       0.1667    0.5000    0.5000
  band No.  band energies     occupation 
      1     -49.4586      1.00000
      2     -49.4540      1.00000
      3     -49.4214      1.00000
      4     -49.3824      1.00000
      5     -49.3806      1.00000
      6     -49.3777      1.00000
      7     -49.0619      1.00000
      8     -49.0315      1.00000
      9     -49.0222      1.00000
     10     -43.4998      1.00000
     11     -43.4994      1.00000
     12     -15.6430      1.00000
     13     -15.4384      1.00000
     14      -8.6455      1.00000
     15      -8.4915      1.00000
     16      -1.1494      1.00000
     17      -1.0895      1.00000
     18      -0.8563      1.00000
     19      -0.0098      1.00000
     20       0.1012      1.00000
     21       0.2418      1.00000
     22       0.3379      1.00000
     23       0.6950      1.00000
     24       2.0269      1.00000
     25       2.4512      1.00000
     26       2.5245      1.00000
     27       2.7399      1.00000
     28       3.3374      1.00000
     29       4.0172      1.00000
     30       4.3655      1.00000
     31       7.7530      0.00000
     32       7.8691      0.00000
     33       8.1373      0.00000
     34       8.4444      0.00000
     35       8.6018      0.00000
     36       8.6393      0.00000
     37       8.7975      0.00000
     38       8.8748      0.00000
     39       9.0334      0.00000
     40       9.6586      0.00000
     41       9.6854      0.00000
     42       9.7056      0.00000
     43      11.3693      0.00000
     44      11.9843      0.00000
     45      12.2643      0.00000
     46      12.3019      0.00000
     47      13.1415      0.00000
     48      13.1634      0.00000
     49      13.3355      0.00000
     50      13.8127      0.00000
     51      14.6310      0.00000
     52      14.7902      0.00000

 k-point    27 :       0.3333    0.5000    0.5000
  band No.  band energies     occupation 
      1     -49.4580      1.00000
      2     -49.4535      1.00000
      3     -49.4216      1.00000
      4     -49.3826      1.00000
      5     -49.3823      1.00000
      6     -49.3800      1.00000
      7     -49.0617      1.00000
      8     -49.0322      1.00000
      9     -49.0221      1.00000
     10     -43.4992      1.00000
     11     -43.4992      1.00000
     12     -15.5298      1.00000
     13     -15.3247      1.00000
     14      -8.3986      1.00000
     15      -8.3372      1.00000
     16      -1.8286      1.00000
     17      -1.7531      1.00000
     18      -1.1540      1.00000
     19      -0.4569      1.00000
     20      -0.0655      1.00000
     21       0.4142      1.00000
     22       0.7651      1.00000
     23       1.0008      1.00000
     24       1.7359      1.00000
     25       2.0253      1.00000
     26       2.7274      1.00000
     27       2.7787      1.00000
     28       3.3694      1.00000
     29       4.2161      1.00000
     30       4.2242      1.00000
     31       7.6410      0.00000
     32       7.7462      0.00000
     33       7.7498      0.00000
     34       8.2574      0.00000
     35       8.6332      0.00000
     36       8.7824      0.00000
     37       8.8893      0.00000
     38       8.9292      0.00000
     39       9.1908      0.00000
     40       9.6269      0.00000
     41       9.7650      0.00000
     42       9.7949      0.00000
     43      10.3308      0.00000
     44      11.2028      0.00000
     45      11.5635      0.00000
     46      11.7351      0.00000
     47      12.7704      0.00000
     48      13.7921      0.00000
     49      14.4982      0.00000
     50      14.5925      0.00000
     51      15.1402      0.00000
     52      15.3275      0.00000

 k-point    28 :       0.5000    0.5000    0.5000
  band No.  band energies     occupation 
      1     -49.4578      1.00000
      2     -49.4532      1.00000
      3     -49.4217      1.00000
      4     -49.3836      1.00000
      5     -49.3822      1.00000
      6     -49.3811      1.00000
      7     -49.0616      1.00000
      8     -49.0326      1.00000
      9     -49.0220      1.00000
     10     -43.4991      1.00000
     11     -43.4988      1.00000
     12     -15.4719      1.00000
     13     -15.2664      1.00000
     14      -8.2623      1.00000
     15      -8.2546      1.00000
     16      -2.1217      1.00000
     17      -1.9554      1.00000
     18      -1.4448      1.00000
     19      -0.7816      1.00000
     20      -0.0946      1.00000
     21       0.6436      1.00000
     22       0.9375      1.00000
     23       1.0171      1.00000
     24       1.5805      1.00000
     25       2.0496      1.00000
     26       2.6845      1.00000
     27       2.9296      1.00000
     28       3.3869      1.00000
     29       4.0810      1.00000
     30       4.2897      1.00000
     31       7.3953      0.00000
     32       7.5811      0.00000
     33       7.7759      0.00000
     34       8.3346      0.00000
     35       8.5311      0.00000
     36       8.7494      0.00000
     37       9.1246      0.00000
     38       9.1582      0.00000
     39       9.1825      0.00000
     40       9.5020      0.00000
     41       9.7693      0.00000
     42       9.9510      0.00000
     43       9.9652      0.00000
     44      10.6994      0.00000
     45      11.1916      0.00000
     46      11.6807      0.00000
     47      12.5867      0.00000
     48      13.2699      0.00000
     49      13.8435      0.00000
     50      14.6322      0.00000
     51      15.4697      0.00000
     52      16.1433      0.00000


--------------------------------------------------------------------------------------------------------


 soft charge-density along one line, spin component           1
         0         1         2         3         4         5         6         7         8         9
 total charge-density along one line
 
 soft charge-density along one line, spin component           2
         0         1         2         3         4         5         6         7         8         9
 total charge-density along one line
 
 pseudopotential strength for first ion, spin component:           1
-34.964   4.796   0.000   0.000   0.000
  4.796 -11.396  -0.000  -0.000   0.000
  0.000  -0.000   0.034  -0.005   0.000
  0.000  -0.000  -0.005   0.034   0.000
  0.000   0.000   0.000   0.000   0.039
 pseudopotential strength for first ion, spin component:           2
-34.967   4.795  -0.000  -0.000   0.000
  4.795 -11.394   0.000  -0.000   0.000
 -0.000   0.000   0.032  -0.005   0.000
 -0.000  -0.000  -0.005   0.032   0.000
  0.000   0.000   0.000   0.000   0.037
 total augmentation occupancy for first ion, spin component:           1
  1.999  -0.029  -0.000  -0.000  -0.000
 -0.029   0.675   0.000   0.000  -0.001
 -0.000   0.000   0.034   0.015  -0.000
 -0.000   0.000   0.015   0.034  -0.000
 -0.000  -0.001  -0.000  -0.000   0.020
 total augmentation occupancy for first ion, spin component:           2
  0.000   0.000  -0.000  -0.000   0.000
  0.000  -0.018   0.000   0.000  -0.000
 -0.000   0.000  -0.001  -0.001  -0.000
 -0.000   0.000  -0.001  -0.000  -0.000
  0.000  -0.000  -0.000  -0.000  -0.000


------------------------ aborting loop because EDIFF is reached ----------------------------------------





 total charge

# of ion       s       p       d       tot
------------------------------------------
    1        2.019   0.063   0.000   2.082
    2        2.019   0.063   0.000   2.082
    3        1.554   3.543   0.000   5.097
    4        1.554   3.543   0.000   5.097
    5        1.308   2.447   0.000   3.755
    6        1.308   2.447   0.000   3.755
    7        0.260   6.256   5.905  12.421
    8        0.260   6.256   5.905  12.421
    9        0.247   6.242   5.916  12.405
--------------------------------------------------
tot         10.529  30.860  17.727  59.116



 magnetization (x)

# of ion       s       p       d       tot
------------------------------------------
    1       -0.001  -0.001   0.000  -0.002
    2       -0.001  -0.001   0.000  -0.002
    3        0.013   0.148   0.000   0.161
    4        0.013   0.148   0.000   0.161
    5        0.022   0.111   0.000   0.132
    6        0.022   0.111   0.000   0.132
    7        0.034   0.036   3.563   3.633
    8        0.034   0.036   3.563   3.633
    9        0.035   0.023   3.583   3.640
--------------------------------------------------
tot          0.169   0.610  10.709  11.489
 
    FORLOC:  cpu time    0.0069: real time    0.0070
    FORHF :  cpu time   84.0209: real time   84.2319
    FORNL :  cpu time    0.0526: real time    0.0527
    STRESS:  cpu time    0.4570: real time    0.4583
    FORCOR:  cpu time    0.2703: real time    0.2709
    OFIELD:  cpu time    0.0009: real time    0.0009

  FORCE on cell =-STRESS in cart. coord.  units (eV):
  Direction    XX          YY          ZZ          XY          YZ          ZX
  --------------------------------------------------------------------------------------
  Alpha Z   230.06134   230.06134   230.06134
  Ewald   -1434.10613 -2026.60978 -2060.65585     0.00000  -456.33715     0.00000
  Hartree  1294.53810   848.83613   820.47799     0.00000  -380.10595    -0.00000
  E(xc)    -303.53560  -303.94248  -303.94317     0.00000    -0.00922    -0.00000
  Local   -1009.56205     0.99849    63.10390    -0.00001   832.44904    -0.00000
  n-local   287.38093   285.13259   285.94085    -0.11529    -2.68172    -0.26291
  augment   386.09494   404.07154   404.31820    -0.00000     3.29824     0.00000
  Kinetic   908.04801   927.40200   928.68194    -0.73726     4.74942    -1.47169
  Fock     -359.01713  -366.91759  -366.86812    -0.00323    -1.31132    -0.00639
  -------------------------------------------------------------------------------------
  Total      -0.09760     0.07149     0.07782     0.00000     0.08475     0.00000
  in kB      -1.31290     0.96173     1.04679     0.00000     1.14002     0.00000
  external pressure =        0.23 kB  Pullay stress =        0.00 kB


 VOLUME and BASIS-vectors are now :
 -----------------------------------------------------------------------------
  energy-cutoff  :      520.00
  volume of cell :      119.11
      direct lattice vectors                 reciprocal lattice vectors
     3.782571595  0.000000000  0.000000000     0.264370409  0.000000000  0.000000000
     0.000000000  5.611261899  0.066743328     0.000000000  0.178159212  0.004524857
     0.000000000 -0.142478016  5.609849805     0.000000000 -0.002119654  0.178204057

  length of vectors
     3.782571595  5.611658825  5.611658830     0.264370409  0.178216663  0.178216663


 FORCES acting on ions:
    Electron-Ion                     Ewald-Force                    Non-Local-Force
 -----------------------------------------------------------------------------------------------
   -.235E+00 0.532E-06 -.311E-05   0.238E+00 -.197E-13 -.142E-13   0.136E-01 0.875E-21 -.981E-20
   -.235E+00 -.386E-05 0.794E-06   0.238E+00 0.142E-13 -.154E-13   0.136E-01 -.342E-20 -.234E-21
   0.740E+00 -.634E+02 0.611E+02   -.761E+00 0.662E+02 -.638E+02   0.134E-01 -.244E+01 0.235E+01
   0.740E+00 0.634E+02 -.611E+02   -.761E+00 -.662E+02 0.638E+02   0.134E-01 0.244E+01 -.235E+01
   -.778E+00 -.403E+01 -.418E+01   0.808E+00 0.302E+01 0.313E+01   -.157E-01 0.951E+00 0.987E+00
   -.778E+00 0.403E+01 0.418E+01   0.808E+00 -.302E+01 -.313E+01   -.157E-01 -.951E+00 -.987E+00
   -.186E+00 0.697E+02 -.672E+02   0.142E+00 -.707E+02 0.682E+02   0.262E-01 0.901E+00 -.868E+00
   -.186E+00 -.697E+02 0.672E+02   0.142E+00 0.707E+02 -.682E+02   0.262E-01 -.901E+00 0.868E+00
   0.895E+00 -.229E-05 -.213E-05   -.856E+00 -.114E-12 0.571E-13   -.626E-01 -.354E-20 0.247E-19
 -----------------------------------------------------------------------------------------------
   -.234E-01 -.369E-05 0.804E-05   -.211E-14 -.141E-13 -.140E-13   0.123E-01 0.555E-15 -.444E-15
 
 
 POSITION                                       TOTAL-FORCE (eV/Angst)
 -----------------------------------------------------------------------------------
      1.19368      2.80563      0.03337         0.016330      0.000000     -0.000000
      1.19368     -0.07124      2.80492         0.016330      0.000000     -0.000000
      1.20454      1.29580      4.22423        -0.005802      0.006151     -0.005925
      1.20454      4.17299      1.45237        -0.005802     -0.006151      0.005925
      3.09627      1.29330      1.34244         0.013638      0.005527      0.005737
      3.09627      4.17548      4.33415         0.013638     -0.005527     -0.005737
      3.09571      3.76165      1.84864        -0.011677      0.013350     -0.012861
      3.09571      1.70713      3.82795        -0.011677     -0.013350      0.012861
      1.21671     -0.00000     -0.00000        -0.024978      0.000000     -0.000000
 -----------------------------------------------------------------------------------
    total drift:                               -0.005197     -0.000004      0.000008


--------------------------------------------------------------------------------------------------------



  FREE ENERGIE OF THE ION-ELECTRON SYSTEM (eV)
  ---------------------------------------------------
  free  energy   TOTEN  =       -75.48723464 eV

  energy  without entropy=      -75.48723464  energy(sigma->0) =      -75.48723464
 
 d Force = 0.6309089E-05[-0.359E-04, 0.485E-04]  d Energy = 0.2399239E-02-0.239E-02
 d Force = 0.3334171E+00[ 0.332E+00, 0.335E+00]  d Ewald  =-0.1276224E+02 0.131E+02


--------------------------------------------------------------------------------------------------------


    POTLOK:  cpu time    1.3475: real time    1.3508


--------------------------------------------------------------------------------------------------------




--------------------------------------------------------------------------------------------------------


  
 reached required accuracy - stopping structural energy minimisation
 writing wavefunctions
     LOOP+:  cpu time  922.7596: real time  925.1633
    4ORBIT:  cpu time    0.0000: real time    0.0000



 total charge

# of ion       s       p       d       tot
------------------------------------------
    1        2.019   0.063   0.000   2.082
    2        2.019   0.063   0.000   2.082
    3        1.554   3.543   0.000   5.097
    4        1.554   3.543   0.000   5.097
    5        1.308   2.447   0.000   3.755
    6        1.308   2.447   0.000   3.755
    7        0.260   6.256   5.905  12.421
    8        0.260   6.256   5.905  12.421
    9        0.247   6.242   5.916  12.405
--------------------------------------------------
tot         10.529  30.860  17.727  59.116



 magnetization (x)

# of ion       s       p       d       tot
------------------------------------------
    1       -0.001  -0.001   0.000  -0.002
    2       -0.001  -0.001   0.000  -0.002
    3        0.013   0.148   0.000   0.161
    4        0.013   0.148   0.000   0.161
    5        0.022   0.111   0.000   0.132
    6        0.022   0.111   0.000   0.132
    7        0.034   0.036   3.563   3.633
    8        0.034   0.036   3.563   3.633
    9        0.035   0.023   3.583   3.640
--------------------------------------------------
tot          0.169   0.610  10.709  11.489
 

 total amount of memory used by VASP MPI-rank0   248063. kBytes
=======================================================================

   base      :      30000. kBytes
   nonl-proj :      54283. kBytes
   fftplans  :       3861. kBytes
   grid      :      14636. kBytes
   one-center:        279. kBytes
   HF        :        259. kBytes
   nonlr-proj:       3774. kBytes
   wavefun   :     119925. kBytes
   fock_wrk  :      21046. kBytes
 
  
  
 General timing and accounting informations for this job:
 ========================================================
  
                  Total CPU time used (sec):     4282.453
                            User time (sec):     4275.566
                          System time (sec):        6.887
                         Elapsed time (sec):     4293.974
  
                   Maximum memory used (kb):      498280.
                   Average memory used (kb):          N/A
  
                          Minor page faults:      1034222
                          Major page faults:           12
                 Voluntary context switches:        53346
