  99  99   0   0
  0.1430410E+02  0.1177748E-08  0.1177748E-08  0.1058004E-08  0.5000000E-15
  1.000000000000000E-004
  CAR 
 unknown system                          
     17.98242713    -54.34764306  301      5.26438979      1.00000000
    -54.348  0.0000E+00  0.0000E+00  0.0000E+00  0.0000E+00
    -54.107  0.0000E+00  0.0000E+00  0.0000E+00  0.0000E+00
    -53.865  0.0000E+00  0.0000E+00  0.0000E+00  0.0000E+00
    -53.624  0.0000E+00  0.0000E+00  0.0000E+00  0.0000E+00
    -53.383  0.0000E+00  0.0000E+00  0.0000E+00  0.0000E+00
    -53.142  0.0000E+00  0.0000E+00  0.0000E+00  0.0000E+00
    -52.901  0.0000E+00  0.0000E+00  0.0000E+00  0.0000E+00
    -52.660  0.0000E+00  0.0000E+00  0.0000E+00  0.0000E+00
    -52.419  0.0000E+00  0.0000E+00  0.0000E+00  0.0000E+00
    -52.178  0.0000E+00  0.0000E+00  0.0000E+00  0.0000E+00
    -51.937  0.0000E+00  0.0000E+00  0.0000E+00  0.0000E+00
    -51.696  0.0000E+00  0.0000E+00  0.0000E+00  0.0000E+00
    -51.454  0.0000E+00  0.0000E+00  0.0000E+00  0.0000E+00
    -51.213  0.1706E-03  0.0000E+00  0.4113E-04  0.0000E+00
    -50.972  0.1455E+03  0.0000E+00  0.3509E+02  0.0000E+00
    -50.731  0.3769E+01  0.0000E+00  0.3600E+02  0.0000E+00
    -50.490  0.0000E+00  0.0000E+00  0.3600E+02  0.0000E+00
    -50.249  0.0000E+00  0.0000E+00  0.3600E+02  0.0000E+00
    -50.008  0.0000E+00  0.0000E+00  0.3600E+02  0.0000E+00
    -49.767  0.1020E+01  0.0000E+00  0.3625E+02  0.0000E+00
    -49.526  0.2624E+03  0.0000E+00  0.9952E+02  0.0000E+00
    -49.285  0.3518E+02  0.0000E+00  0.1080E+03  0.0000E+00
    -49.043  0.0000E+00  0.0000E+00  0.1080E+03  0.0000E+00
    -48.802  0.0000E+00  0.0000E+00  0.1080E+03  0.0000E+00
    -48.561  0.0000E+00  0.0000E+00  0.1080E+03  0.0000E+00
    -48.320  0.0000E+00  0.0000E+00  0.1080E+03  0.0000E+00
    -48.079  0.0000E+00  0.0000E+00  0.1080E+03  0.0000E+00
    -47.838  0.0000E+00  0.0000E+00  0.1080E+03  0.0000E+00
    -47.597  0.0000E+00  0.0000E+00  0.1080E+03  0.0000E+00
    -47.356  0.0000E+00  0.0000E+00  0.1080E+03  0.0000E+00
    -47.115  0.0000E+00  0.0000E+00  0.1080E+03  0.0000E+00
    -46.874  0.0000E+00  0.0000E+00  0.1080E+03  0.0000E+00
    -46.632  0.0000E+00  0.0000E+00  0.1080E+03  0.0000E+00
    -46.391  0.0000E+00  0.2523E+00  0.1080E+03  0.6083E-01
    -46.150  0.0000E+00  0.1490E+03  0.1080E+03  0.3599E+02
    -45.909  0.0000E+00  0.6321E+02  0.1080E+03  0.5123E+02
    -45.668  0.0000E+00  0.2355E+03  0.1080E+03  0.1080E+03
    -45.427  0.0000E+00  0.0000E+00  0.1080E+03  0.1080E+03
    -45.186  0.0000E+00  0.0000E+00  0.1080E+03  0.1080E+03
    -44.945  0.0000E+00  0.0000E+00  0.1080E+03  0.1080E+03
    -44.704  0.0000E+00  0.0000E+00  0.1080E+03  0.1080E+03
    -44.463  0.0000E+00  0.0000E+00  0.1080E+03  0.1080E+03
    -44.221  0.0000E+00  0.0000E+00  0.1080E+03  0.1080E+03
    -43.980  0.0000E+00  0.0000E+00  0.1080E+03  0.1080E+03
    -43.739  0.0000E+00  0.0000E+00  0.1080E+03  0.1080E+03
    -43.498  0.0000E+00  0.0000E+00  0.1080E+03  0.1080E+03
    -43.257  0.0000E+00  0.0000E+00  0.1080E+03  0.1080E+03
    -43.016  0.0000E+00  0.0000E+00  0.1080E+03  0.1080E+03
    -42.775  0.0000E+00  0.0000E+00  0.1080E+03  0.1080E+03
    -42.534  0.0000E+00  0.0000E+00  0.1080E+03  0.1080E+03
    -42.293  0.0000E+00  0.0000E+00  0.1080E+03  0.1080E+03
    -42.052  0.0000E+00  0.0000E+00  0.1080E+03  0.1080E+03
    -41.810  0.0000E+00  0.0000E+00  0.1080E+03  0.1080E+03
    -41.569  0.0000E+00  0.0000E+00  0.1080E+03  0.1080E+03
    -41.328  0.0000E+00  0.0000E+00  0.1080E+03  0.1080E+03
    -41.087  0.0000E+00  0.0000E+00  0.1080E+03  0.1080E+03
    -40.846  0.0000E+00  0.0000E+00  0.1080E+03  0.1080E+03
    -40.605  0.0000E+00  0.0000E+00  0.1080E+03  0.1080E+03
    -40.364  0.0000E+00  0.0000E+00  0.1080E+03  0.1080E+03
    -40.123  0.6279E-11  0.4030E-11  0.1080E+03  0.1080E+03
    -39.882  0.2156E+02  0.2008E+02  0.1132E+03  0.1128E+03
    -39.641  0.5310E+02  0.5458E+02  0.1260E+03  0.1260E+03
    -39.399  0.0000E+00  0.0000E+00  0.1260E+03  0.1260E+03
    -39.158  0.0000E+00  0.0000E+00  0.1260E+03  0.1260E+03
    -38.917  0.0000E+00  0.0000E+00  0.1260E+03  0.1260E+03
    -38.676  0.0000E+00  0.0000E+00  0.1260E+03  0.1260E+03
    -38.435  0.0000E+00  0.0000E+00  0.1260E+03  0.1260E+03
    -38.194  0.0000E+00  0.0000E+00  0.1260E+03  0.1260E+03
    -37.953  0.0000E+00  0.0000E+00  0.1260E+03  0.1260E+03
    -37.712  0.0000E+00  0.0000E+00  0.1260E+03  0.1260E+03
    -37.471  0.0000E+00  0.0000E+00  0.1260E+03  0.1260E+03
    -37.230  0.0000E+00  0.0000E+00  0.1260E+03  0.1260E+03
    -36.988  0.0000E+00  0.0000E+00  0.1260E+03  0.1260E+03
    -36.747  0.0000E+00  0.0000E+00  0.1260E+03  0.1260E+03
    -36.506  0.0000E+00  0.0000E+00  0.1260E+03  0.1260E+03
    -36.265  0.0000E+00  0.0000E+00  0.1260E+03  0.1260E+03
    -36.024  0.0000E+00  0.0000E+00  0.1260E+03  0.1260E+03
    -35.783  0.0000E+00  0.0000E+00  0.1260E+03  0.1260E+03
    -35.542  0.0000E+00  0.0000E+00  0.1260E+03  0.1260E+03
    -35.301  0.0000E+00  0.0000E+00  0.1260E+03  0.1260E+03
    -35.060  0.0000E+00  0.0000E+00  0.1260E+03  0.1260E+03
    -34.819  0.0000E+00  0.0000E+00  0.1260E+03  0.1260E+03
    -34.577  0.0000E+00  0.0000E+00  0.1260E+03  0.1260E+03
    -34.336  0.0000E+00  0.0000E+00  0.1260E+03  0.1260E+03
    -34.095  0.0000E+00  0.0000E+00  0.1260E+03  0.1260E+03
    -33.854  0.0000E+00  0.0000E+00  0.1260E+03  0.1260E+03
    -33.613  0.0000E+00  0.0000E+00  0.1260E+03  0.1260E+03
    -33.372  0.0000E+00  0.0000E+00  0.1260E+03  0.1260E+03
    -33.131  0.0000E+00  0.0000E+00  0.1260E+03  0.1260E+03
    -32.890  0.0000E+00  0.0000E+00  0.1260E+03  0.1260E+03
    -32.649  0.0000E+00  0.0000E+00  0.1260E+03  0.1260E+03
    -32.408  0.0000E+00  0.0000E+00  0.1260E+03  0.1260E+03
    -32.166  0.0000E+00  0.0000E+00  0.1260E+03  0.1260E+03
    -31.925  0.0000E+00  0.0000E+00  0.1260E+03  0.1260E+03
    -31.684  0.0000E+00  0.0000E+00  0.1260E+03  0.1260E+03
    -31.443  0.0000E+00  0.0000E+00  0.1260E+03  0.1260E+03
    -31.202  0.0000E+00  0.0000E+00  0.1260E+03  0.1260E+03
    -30.961  0.0000E+00  0.0000E+00  0.1260E+03  0.1260E+03
    -30.720  0.0000E+00  0.0000E+00  0.1260E+03  0.1260E+03
    -30.479  0.0000E+00  0.0000E+00  0.1260E+03  0.1260E+03
    -30.238  0.0000E+00  0.0000E+00  0.1260E+03  0.1260E+03
    -29.997  0.0000E+00  0.0000E+00  0.1260E+03  0.1260E+03
    -29.755  0.0000E+00  0.0000E+00  0.1260E+03  0.1260E+03
    -29.514  0.0000E+00  0.0000E+00  0.1260E+03  0.1260E+03
    -29.273  0.0000E+00  0.0000E+00  0.1260E+03  0.1260E+03
    -29.032  0.0000E+00  0.0000E+00  0.1260E+03  0.1260E+03
    -28.791  0.0000E+00  0.0000E+00  0.1260E+03  0.1260E+03
    -28.550  0.0000E+00  0.0000E+00  0.1260E+03  0.1260E+03
    -28.309  0.0000E+00  0.0000E+00  0.1260E+03  0.1260E+03
    -28.068  0.0000E+00  0.0000E+00  0.1260E+03  0.1260E+03
    -27.827  0.0000E+00  0.0000E+00  0.1260E+03  0.1260E+03
    -27.586  0.0000E+00  0.0000E+00  0.1260E+03  0.1260E+03
    -27.344  0.0000E+00  0.0000E+00  0.1260E+03  0.1260E+03
    -27.103  0.0000E+00  0.0000E+00  0.1260E+03  0.1260E+03
    -26.862  0.0000E+00  0.0000E+00  0.1260E+03  0.1260E+03
    -26.621  0.0000E+00  0.0000E+00  0.1260E+03  0.1260E+03
    -26.380  0.0000E+00  0.0000E+00  0.1260E+03  0.1260E+03
    -26.139  0.0000E+00  0.0000E+00  0.1260E+03  0.1260E+03
    -25.898  0.0000E+00  0.0000E+00  0.1260E+03  0.1260E+03
    -25.657  0.0000E+00  0.0000E+00  0.1260E+03  0.1260E+03
    -25.416  0.0000E+00  0.0000E+00  0.1260E+03  0.1260E+03
    -25.175  0.0000E+00  0.0000E+00  0.1260E+03  0.1260E+03
    -24.933  0.0000E+00  0.0000E+00  0.1260E+03  0.1260E+03
    -24.692  0.0000E+00  0.0000E+00  0.1260E+03  0.1260E+03
    -24.451  0.0000E+00  0.0000E+00  0.1260E+03  0.1260E+03
    -24.210  0.0000E+00  0.0000E+00  0.1260E+03  0.1260E+03
    -23.969  0.0000E+00  0.0000E+00  0.1260E+03  0.1260E+03
    -23.728  0.0000E+00  0.0000E+00  0.1260E+03  0.1260E+03
    -23.487  0.0000E+00  0.0000E+00  0.1260E+03  0.1260E+03
    -23.246  0.0000E+00  0.0000E+00  0.1260E+03  0.1260E+03
    -23.005  0.0000E+00  0.0000E+00  0.1260E+03  0.1260E+03
    -22.764  0.0000E+00  0.0000E+00  0.1260E+03  0.1260E+03
    -22.522  0.0000E+00  0.0000E+00  0.1260E+03  0.1260E+03
    -22.281  0.0000E+00  0.0000E+00  0.1260E+03  0.1260E+03
    -22.040  0.0000E+00  0.0000E+00  0.1260E+03  0.1260E+03
    -21.799  0.0000E+00  0.0000E+00  0.1260E+03  0.1260E+03
    -21.558  0.0000E+00  0.0000E+00  0.1260E+03  0.1260E+03
    -21.317  0.0000E+00  0.0000E+00  0.1260E+03  0.1260E+03
    -21.076  0.0000E+00  0.0000E+00  0.1260E+03  0.1260E+03
    -20.835  0.0000E+00  0.0000E+00  0.1260E+03  0.1260E+03
    -20.594  0.0000E+00  0.0000E+00  0.1260E+03  0.1260E+03
    -20.353  0.0000E+00  0.0000E+00  0.1260E+03  0.1260E+03
    -20.111  0.0000E+00  0.0000E+00  0.1260E+03  0.1260E+03
    -19.870  0.0000E+00  0.0000E+00  0.1260E+03  0.1260E+03
    -19.629  0.0000E+00  0.0000E+00  0.1260E+03  0.1260E+03
    -19.388  0.0000E+00  0.0000E+00  0.1260E+03  0.1260E+03
    -19.147  0.0000E+00  0.0000E+00  0.1260E+03  0.1260E+03
    -18.906  0.0000E+00  0.0000E+00  0.1260E+03  0.1260E+03
    -18.665  0.0000E+00  0.0000E+00  0.1260E+03  0.1260E+03
    -18.424  0.0000E+00  0.0000E+00  0.1260E+03  0.1260E+03
    -18.183  0.0000E+00  0.0000E+00  0.1260E+03  0.1260E+03
    -17.942  0.0000E+00  0.0000E+00  0.1260E+03  0.1260E+03
    -17.700  0.0000E+00  0.0000E+00  0.1260E+03  0.1260E+03
    -17.459  0.0000E+00  0.0000E+00  0.1260E+03  0.1260E+03
    -17.218  0.0000E+00  0.0000E+00  0.1260E+03  0.1260E+03
    -16.977  0.0000E+00  0.0000E+00  0.1260E+03  0.1260E+03
    -16.736  0.0000E+00  0.0000E+00  0.1260E+03  0.1260E+03
    -16.495  0.0000E+00  0.0000E+00  0.1260E+03  0.1260E+03
    -16.254  0.0000E+00  0.0000E+00  0.1260E+03  0.1260E+03
    -16.013  0.0000E+00  0.0000E+00  0.1260E+03  0.1260E+03
    -15.772  0.0000E+00  0.0000E+00  0.1260E+03  0.1260E+03
    -15.531  0.0000E+00  0.0000E+00  0.1260E+03  0.1260E+03
    -15.289  0.0000E+00  0.0000E+00  0.1260E+03  0.1260E+03
    -15.048  0.0000E+00  0.0000E+00  0.1260E+03  0.1260E+03
    -14.807  0.0000E+00  0.0000E+00  0.1260E+03  0.1260E+03
    -14.566  0.0000E+00  0.0000E+00  0.1260E+03  0.1260E+03
    -14.325  0.0000E+00  0.0000E+00  0.1260E+03  0.1260E+03
    -14.084  0.0000E+00  0.0000E+00  0.1260E+03  0.1260E+03
    -13.843  0.0000E+00  0.0000E+00  0.1260E+03  0.1260E+03
    -13.602  0.0000E+00  0.0000E+00  0.1260E+03  0.1260E+03
    -13.361  0.1274E-02  0.0000E+00  0.1260E+03  0.1260E+03
    -13.120  0.3398E+02  0.4605E-15  0.1342E+03  0.1260E+03
    -12.878  0.4061E+02  0.6988E+00  0.1440E+03  0.1262E+03
    -12.637  0.6501E-01  0.6293E+02  0.1440E+03  0.1413E+03
    -12.396  0.0000E+00  0.1103E+02  0.1440E+03  0.1440E+03
    -12.155  0.0000E+00  0.0000E+00  0.1440E+03  0.1440E+03
    -11.914  0.0000E+00  0.0000E+00  0.1440E+03  0.1440E+03
    -11.673  0.0000E+00  0.0000E+00  0.1440E+03  0.1440E+03
    -11.432  0.0000E+00  0.0000E+00  0.1440E+03  0.1440E+03
    -11.191  0.0000E+00  0.0000E+00  0.1440E+03  0.1440E+03
    -10.950  0.0000E+00  0.0000E+00  0.1440E+03  0.1440E+03
    -10.709  0.0000E+00  0.0000E+00  0.1440E+03  0.1440E+03
    -10.467  0.0000E+00  0.0000E+00  0.1440E+03  0.1440E+03
    -10.226  0.0000E+00  0.0000E+00  0.1440E+03  0.1440E+03
     -9.985  0.0000E+00  0.0000E+00  0.1440E+03  0.1440E+03
     -9.744  0.0000E+00  0.0000E+00  0.1440E+03  0.1440E+03
     -9.503  0.0000E+00  0.0000E+00  0.1440E+03  0.1440E+03
     -9.262  0.0000E+00  0.0000E+00  0.1440E+03  0.1440E+03
     -9.021  0.0000E+00  0.0000E+00  0.1440E+03  0.1440E+03
     -8.780  0.0000E+00  0.0000E+00  0.1440E+03  0.1440E+03
     -8.539  0.0000E+00  0.0000E+00  0.1440E+03  0.1440E+03
     -8.297  0.0000E+00  0.0000E+00  0.1440E+03  0.1440E+03
     -8.056  0.0000E+00  0.0000E+00  0.1440E+03  0.1440E+03
     -7.815  0.1092E-08  0.0000E+00  0.1440E+03  0.1440E+03
     -7.574  0.1030E+01  0.1711E-09  0.1442E+03  0.1440E+03
     -7.333  0.1985E+02  0.9202E+00  0.1490E+03  0.1442E+03
     -7.092  0.3129E+02  0.2187E+02  0.1566E+03  0.1495E+03
     -6.851  0.3774E+02  0.2958E+02  0.1657E+03  0.1566E+03
     -6.610  0.2207E+02  0.2826E+02  0.1710E+03  0.1634E+03
     -6.369  0.4135E-05  0.3133E+02  0.1710E+03  0.1710E+03
     -6.128  0.0000E+00  0.2619E-01  0.1710E+03  0.1710E+03
     -5.886  0.0000E+00  0.0000E+00  0.1710E+03  0.1710E+03
     -5.645  0.0000E+00  0.0000E+00  0.1710E+03  0.1710E+03
     -5.404  0.0000E+00  0.0000E+00  0.1710E+03  0.1710E+03
     -5.163  0.0000E+00  0.0000E+00  0.1710E+03  0.1710E+03
     -4.922  0.0000E+00  0.0000E+00  0.1710E+03  0.1710E+03
     -4.681  0.0000E+00  0.0000E+00  0.1710E+03  0.1710E+03
     -4.440  0.0000E+00  0.0000E+00  0.1710E+03  0.1710E+03
     -4.199  0.0000E+00  0.0000E+00  0.1710E+03  0.1710E+03
     -3.958  0.0000E+00  0.0000E+00  0.1710E+03  0.1710E+03
     -3.717  0.0000E+00  0.0000E+00  0.1710E+03  0.1710E+03
     -3.475  0.0000E+00  0.0000E+00  0.1710E+03  0.1710E+03
     -3.234  0.0000E+00  0.0000E+00  0.1710E+03  0.1710E+03
     -2.993  0.0000E+00  0.0000E+00  0.1710E+03  0.1710E+03
     -2.752  0.0000E+00  0.0000E+00  0.1710E+03  0.1710E+03
     -2.511  0.0000E+00  0.0000E+00  0.1710E+03  0.1710E+03
     -2.270  0.0000E+00  0.0000E+00  0.1710E+03  0.1710E+03
     -2.029  0.5578E-01  0.0000E+00  0.1710E+03  0.1710E+03
     -1.788  0.2704E+02  0.0000E+00  0.1775E+03  0.1710E+03
     -1.547  0.1843E+02  0.0000E+00  0.1820E+03  0.1710E+03
     -1.306  0.1493E+02  0.0000E+00  0.1856E+03  0.1710E+03
     -1.064  0.2447E+02  0.0000E+00  0.1915E+03  0.1710E+03
     -0.823  0.5738E+02  0.0000E+00  0.2053E+03  0.1710E+03
     -0.582  0.6237E+02  0.1915E-02  0.2203E+03  0.1710E+03
     -0.341  0.4198E+02  0.1174E+02  0.2305E+03  0.1738E+03
     -0.100  0.8200E+02  0.1998E+02  0.2502E+03  0.1786E+03
      0.141  0.9058E+02  0.1374E+02  0.2721E+03  0.1820E+03
      0.382  0.8244E+02  0.2406E+02  0.2920E+03  0.1878E+03
      0.623  0.7316E+02  0.3334E+02  0.3096E+03  0.1958E+03
      0.864  0.5758E+02  0.4707E+02  0.3235E+03  0.2072E+03
      1.105  0.3773E+02  0.4048E+02  0.3326E+03  0.2169E+03
      1.347  0.3774E+02  0.3260E+02  0.3417E+03  0.2248E+03
      1.588  0.4917E+02  0.2554E+02  0.3535E+03  0.2309E+03
      1.829  0.5715E+02  0.3263E+02  0.3673E+03  0.2388E+03
      2.070  0.7687E+02  0.4106E+02  0.3858E+03  0.2487E+03
      2.311  0.5795E+02  0.2592E+02  0.3998E+03  0.2549E+03
      2.552  0.3297E+02  0.2998E+02  0.4078E+03  0.2622E+03
      2.793  0.5085E+02  0.4189E+02  0.4200E+03  0.2723E+03
      3.034  0.2098E+02  0.4683E+02  0.4251E+03  0.2836E+03
      3.275  0.1155E+02  0.4645E+02  0.4279E+03  0.2948E+03
      3.516  0.3891E+02  0.3873E+02  0.4372E+03  0.3041E+03
      3.758  0.2567E+02  0.6837E+01  0.4434E+03  0.3058E+03
      3.999  0.3882E+02  0.2669E+02  0.4528E+03  0.3122E+03
      4.240  0.3843E+02  0.7591E+02  0.4621E+03  0.3305E+03
      4.481  0.3889E+02  0.3864E+02  0.4714E+03  0.3398E+03
      4.722  0.3494E+02  0.9104E+01  0.4799E+03  0.3420E+03
      4.963  0.2335E+02  0.0000E+00  0.4855E+03  0.3420E+03
      5.204  0.2113E+01  0.0000E+00  0.4860E+03  0.3420E+03
      5.445  0.0000E+00  0.0000E+00  0.4860E+03  0.3420E+03
      5.686  0.0000E+00  0.0000E+00  0.4860E+03  0.3420E+03
      5.927  0.0000E+00  0.0000E+00  0.4860E+03  0.3420E+03
      6.169  0.0000E+00  0.4436E-07  0.4860E+03  0.3420E+03
      6.410  0.0000E+00  0.1706E+01  0.4860E+03  0.3424E+03
      6.651  0.0000E+00  0.5102E+01  0.4860E+03  0.3436E+03
      6.892  0.0000E+00  0.1195E+02  0.4860E+03  0.3465E+03
      7.133  0.4603E-11  0.2262E+02  0.4860E+03  0.3520E+03
      7.374  0.9348E-01  0.6150E+02  0.4860E+03  0.3668E+03
      7.615  0.6014E-01  0.6275E+02  0.4860E+03  0.3819E+03
      7.856  0.6114E+00  0.6281E+02  0.4862E+03  0.3971E+03
      8.097  0.8423E+00  0.7572E+02  0.4864E+03  0.4153E+03
      8.338  0.2575E+01  0.8173E+02  0.4870E+03  0.4350E+03
      8.580  0.4694E+01  0.6776E+02  0.4881E+03  0.4514E+03
      8.821  0.1027E+02  0.6409E+02  0.4906E+03  0.4668E+03
      9.062  0.1456E+02  0.4367E+02  0.4941E+03  0.4774E+03
      9.303  0.1777E+02  0.3063E+02  0.4984E+03  0.4847E+03
      9.544  0.1882E+02  0.7920E+01  0.5029E+03  0.4867E+03
      9.785  0.1667E+02  0.6120E+01  0.5070E+03  0.4881E+03
     10.026  0.2477E+02  0.1189E+02  0.5129E+03  0.4910E+03
     10.267  0.1665E+02  0.1845E+02  0.5170E+03  0.4954E+03
     10.508  0.2176E+02  0.2233E+02  0.5222E+03  0.5008E+03
     10.749  0.1256E+02  0.2271E+02  0.5252E+03  0.5063E+03
     10.991  0.1597E+02  0.2392E+02  0.5291E+03  0.5121E+03
     11.232  0.2363E+02  0.2967E+02  0.5348E+03  0.5192E+03
     11.473  0.3270E+02  0.2003E+02  0.5427E+03  0.5240E+03
     11.714  0.2775E+02  0.1740E+02  0.5493E+03  0.5282E+03
     11.955  0.3383E+02  0.1133E+02  0.5575E+03  0.5310E+03
     12.196  0.3524E+02  0.2760E+02  0.5660E+03  0.5376E+03
     12.437  0.2207E+02  0.4594E+02  0.5713E+03  0.5487E+03
     12.678  0.1946E+02  0.3470E+02  0.5760E+03  0.5571E+03
     12.919  0.2456E+02  0.3025E+02  0.5819E+03  0.5644E+03
     13.160  0.2694E+02  0.2072E+02  0.5884E+03  0.5694E+03
     13.402  0.2849E+02  0.2539E+02  0.5953E+03  0.5755E+03
     13.643  0.2444E+02  0.3278E+02  0.6012E+03  0.5834E+03
     13.884  0.1717E+02  0.2592E+02  0.6053E+03  0.5896E+03
     14.125  0.2769E+01  0.2541E+02  0.6060E+03  0.5958E+03
     14.366  0.1299E-04  0.2339E+02  0.6060E+03  0.6014E+03
     14.607  0.0000E+00  0.1763E+02  0.6060E+03  0.6056E+03
     14.848  0.0000E+00  0.1456E+01  0.6060E+03  0.6060E+03
     15.089  0.0000E+00  0.2193E-05  0.6060E+03  0.6060E+03
     15.330  0.0000E+00  0.0000E+00  0.6060E+03  0.6060E+03
     15.571  0.0000E+00  0.0000E+00  0.6060E+03  0.6060E+03
     15.813  0.0000E+00  0.0000E+00  0.6060E+03  0.6060E+03
     16.054  0.0000E+00  0.0000E+00  0.6060E+03  0.6060E+03
     16.295  0.0000E+00  0.0000E+00  0.6060E+03  0.6060E+03
     16.536  0.0000E+00  0.0000E+00  0.6060E+03  0.6060E+03
     16.777  0.0000E+00  0.0000E+00  0.6060E+03  0.6060E+03
     17.018  0.0000E+00  0.0000E+00  0.6060E+03  0.6060E+03
     17.259  0.0000E+00  0.0000E+00  0.6060E+03  0.6060E+03
     17.500  0.0000E+00  0.0000E+00  0.6060E+03  0.6060E+03
     17.741  0.0000E+00  0.0000E+00  0.6060E+03  0.6060E+03
     17.982  0.0000E+00  0.0000E+00  0.6060E+03  0.6060E+03
