 144 144   0   0
  0.1325381E+02  0.1546422E-08  0.1214491E-08  0.1054520E-08  0.5000000E-15
  1.000000000000000E-004
  CAR 
 unknown system                          
     17.01002556    -54.87077989  301      5.08979199      1.00000000
    -54.871  0.0000E+00  0.0000E+00  0.0000E+00  0.0000E+00
    -54.631  0.0000E+00  0.0000E+00  0.0000E+00  0.0000E+00
    -54.392  0.0000E+00  0.0000E+00  0.0000E+00  0.0000E+00
    -54.152  0.0000E+00  0.0000E+00  0.0000E+00  0.0000E+00
    -53.912  0.0000E+00  0.0000E+00  0.0000E+00  0.0000E+00
    -53.673  0.0000E+00  0.0000E+00  0.0000E+00  0.0000E+00
    -53.433  0.0000E+00  0.0000E+00  0.0000E+00  0.0000E+00
    -53.194  0.0000E+00  0.0000E+00  0.0000E+00  0.0000E+00
    -52.954  0.0000E+00  0.0000E+00  0.0000E+00  0.0000E+00
    -52.714  0.0000E+00  0.0000E+00  0.0000E+00  0.0000E+00
    -52.475  0.0000E+00  0.0000E+00  0.0000E+00  0.0000E+00
    -52.235  0.0000E+00  0.0000E+00  0.0000E+00  0.0000E+00
    -51.996  0.0000E+00  0.0000E+00  0.0000E+00  0.0000E+00
    -51.756  0.3624E-03  0.0000E+00  0.8684E-04  0.0000E+00
    -51.516  0.4985E+02  0.0000E+00  0.1194E+02  0.0000E+00
    -51.277  0.8652E+02  0.0000E+00  0.3267E+02  0.0000E+00
    -51.037  0.1389E+02  0.0000E+00  0.3600E+02  0.0000E+00
    -50.798  0.0000E+00  0.0000E+00  0.3600E+02  0.0000E+00
    -50.558  0.0000E+00  0.0000E+00  0.3600E+02  0.0000E+00
    -50.318  0.1312E-03  0.0000E+00  0.3600E+02  0.0000E+00
    -50.079  0.6732E+02  0.0000E+00  0.5213E+02  0.0000E+00
    -49.839  0.2085E+03  0.0000E+00  0.1021E+03  0.0000E+00
    -49.600  0.2467E+02  0.0000E+00  0.1080E+03  0.0000E+00
    -49.360  0.0000E+00  0.0000E+00  0.1080E+03  0.0000E+00
    -49.120  0.0000E+00  0.0000E+00  0.1080E+03  0.0000E+00
    -48.881  0.0000E+00  0.0000E+00  0.1080E+03  0.0000E+00
    -48.641  0.0000E+00  0.0000E+00  0.1080E+03  0.0000E+00
    -48.402  0.0000E+00  0.0000E+00  0.1080E+03  0.0000E+00
    -48.162  0.0000E+00  0.0000E+00  0.1080E+03  0.0000E+00
    -47.922  0.0000E+00  0.0000E+00  0.1080E+03  0.0000E+00
    -47.683  0.0000E+00  0.0000E+00  0.1080E+03  0.0000E+00
    -47.443  0.0000E+00  0.0000E+00  0.1080E+03  0.0000E+00
    -47.203  0.0000E+00  0.0000E+00  0.1080E+03  0.0000E+00
    -46.964  0.0000E+00  0.6700E-01  0.1080E+03  0.1605E-01
    -46.724  0.0000E+00  0.5095E+02  0.1080E+03  0.1222E+02
    -46.485  0.0000E+00  0.9554E+02  0.1080E+03  0.3512E+02
    -46.245  0.0000E+00  0.1463E+03  0.1080E+03  0.7016E+02
    -46.005  0.0000E+00  0.1579E+03  0.1080E+03  0.1080E+03
    -45.766  0.0000E+00  0.4375E-02  0.1080E+03  0.1080E+03
    -45.526  0.0000E+00  0.0000E+00  0.1080E+03  0.1080E+03
    -45.287  0.0000E+00  0.0000E+00  0.1080E+03  0.1080E+03
    -45.047  0.0000E+00  0.0000E+00  0.1080E+03  0.1080E+03
    -44.807  0.0000E+00  0.0000E+00  0.1080E+03  0.1080E+03
    -44.568  0.0000E+00  0.0000E+00  0.1080E+03  0.1080E+03
    -44.328  0.0000E+00  0.0000E+00  0.1080E+03  0.1080E+03
    -44.089  0.0000E+00  0.0000E+00  0.1080E+03  0.1080E+03
    -43.849  0.0000E+00  0.0000E+00  0.1080E+03  0.1080E+03
    -43.609  0.0000E+00  0.0000E+00  0.1080E+03  0.1080E+03
    -43.370  0.0000E+00  0.0000E+00  0.1080E+03  0.1080E+03
    -43.130  0.0000E+00  0.0000E+00  0.1080E+03  0.1080E+03
    -42.891  0.0000E+00  0.0000E+00  0.1080E+03  0.1080E+03
    -42.651  0.0000E+00  0.0000E+00  0.1080E+03  0.1080E+03
    -42.411  0.0000E+00  0.0000E+00  0.1080E+03  0.1080E+03
    -42.172  0.0000E+00  0.0000E+00  0.1080E+03  0.1080E+03
    -41.932  0.0000E+00  0.0000E+00  0.1080E+03  0.1080E+03
    -41.693  0.0000E+00  0.0000E+00  0.1080E+03  0.1080E+03
    -41.453  0.0000E+00  0.0000E+00  0.1080E+03  0.1080E+03
    -41.213  0.0000E+00  0.0000E+00  0.1080E+03  0.1080E+03
    -40.974  0.0000E+00  0.0000E+00  0.1080E+03  0.1080E+03
    -40.734  0.1629E-08  0.5376E-09  0.1080E+03  0.1080E+03
    -40.495  0.2978E+02  0.2655E+02  0.1151E+03  0.1144E+03
    -40.255  0.4643E+02  0.5007E+02  0.1263E+03  0.1264E+03
    -40.015  0.1002E+03  0.1001E+03  0.1503E+03  0.1503E+03
    -39.776  0.2394E+02  0.2361E+02  0.1560E+03  0.1560E+03
    -39.536  0.0000E+00  0.0000E+00  0.1560E+03  0.1560E+03
    -39.297  0.0000E+00  0.0000E+00  0.1560E+03  0.1560E+03
    -39.057  0.0000E+00  0.0000E+00  0.1560E+03  0.1560E+03
    -38.817  0.0000E+00  0.0000E+00  0.1560E+03  0.1560E+03
    -38.578  0.0000E+00  0.0000E+00  0.1560E+03  0.1560E+03
    -38.338  0.0000E+00  0.0000E+00  0.1560E+03  0.1560E+03
    -38.099  0.0000E+00  0.0000E+00  0.1560E+03  0.1560E+03
    -37.859  0.0000E+00  0.0000E+00  0.1560E+03  0.1560E+03
    -37.619  0.0000E+00  0.0000E+00  0.1560E+03  0.1560E+03
    -37.380  0.0000E+00  0.0000E+00  0.1560E+03  0.1560E+03
    -37.140  0.0000E+00  0.0000E+00  0.1560E+03  0.1560E+03
    -36.901  0.0000E+00  0.0000E+00  0.1560E+03  0.1560E+03
    -36.661  0.0000E+00  0.0000E+00  0.1560E+03  0.1560E+03
    -36.421  0.0000E+00  0.0000E+00  0.1560E+03  0.1560E+03
    -36.182  0.0000E+00  0.0000E+00  0.1560E+03  0.1560E+03
    -35.942  0.0000E+00  0.0000E+00  0.1560E+03  0.1560E+03
    -35.703  0.0000E+00  0.0000E+00  0.1560E+03  0.1560E+03
    -35.463  0.0000E+00  0.0000E+00  0.1560E+03  0.1560E+03
    -35.223  0.0000E+00  0.0000E+00  0.1560E+03  0.1560E+03
    -34.984  0.0000E+00  0.0000E+00  0.1560E+03  0.1560E+03
    -34.744  0.0000E+00  0.0000E+00  0.1560E+03  0.1560E+03
    -34.505  0.0000E+00  0.0000E+00  0.1560E+03  0.1560E+03
    -34.265  0.0000E+00  0.0000E+00  0.1560E+03  0.1560E+03
    -34.025  0.0000E+00  0.0000E+00  0.1560E+03  0.1560E+03
    -33.786  0.0000E+00  0.0000E+00  0.1560E+03  0.1560E+03
    -33.546  0.0000E+00  0.0000E+00  0.1560E+03  0.1560E+03
    -33.307  0.0000E+00  0.0000E+00  0.1560E+03  0.1560E+03
    -33.067  0.0000E+00  0.0000E+00  0.1560E+03  0.1560E+03
    -32.827  0.0000E+00  0.0000E+00  0.1560E+03  0.1560E+03
    -32.588  0.0000E+00  0.0000E+00  0.1560E+03  0.1560E+03
    -32.348  0.0000E+00  0.0000E+00  0.1560E+03  0.1560E+03
    -32.109  0.0000E+00  0.0000E+00  0.1560E+03  0.1560E+03
    -31.869  0.0000E+00  0.0000E+00  0.1560E+03  0.1560E+03
    -31.629  0.0000E+00  0.0000E+00  0.1560E+03  0.1560E+03
    -31.390  0.0000E+00  0.0000E+00  0.1560E+03  0.1560E+03
    -31.150  0.0000E+00  0.0000E+00  0.1560E+03  0.1560E+03
    -30.911  0.0000E+00  0.0000E+00  0.1560E+03  0.1560E+03
    -30.671  0.0000E+00  0.0000E+00  0.1560E+03  0.1560E+03
    -30.431  0.0000E+00  0.0000E+00  0.1560E+03  0.1560E+03
    -30.192  0.0000E+00  0.0000E+00  0.1560E+03  0.1560E+03
    -29.952  0.0000E+00  0.0000E+00  0.1560E+03  0.1560E+03
    -29.712  0.0000E+00  0.0000E+00  0.1560E+03  0.1560E+03
    -29.473  0.0000E+00  0.0000E+00  0.1560E+03  0.1560E+03
    -29.233  0.0000E+00  0.0000E+00  0.1560E+03  0.1560E+03
    -28.994  0.0000E+00  0.0000E+00  0.1560E+03  0.1560E+03
    -28.754  0.0000E+00  0.0000E+00  0.1560E+03  0.1560E+03
    -28.514  0.0000E+00  0.0000E+00  0.1560E+03  0.1560E+03
    -28.275  0.0000E+00  0.0000E+00  0.1560E+03  0.1560E+03
    -28.035  0.0000E+00  0.0000E+00  0.1560E+03  0.1560E+03
    -27.796  0.0000E+00  0.0000E+00  0.1560E+03  0.1560E+03
    -27.556  0.0000E+00  0.0000E+00  0.1560E+03  0.1560E+03
    -27.316  0.0000E+00  0.0000E+00  0.1560E+03  0.1560E+03
    -27.077  0.0000E+00  0.0000E+00  0.1560E+03  0.1560E+03
    -26.837  0.0000E+00  0.0000E+00  0.1560E+03  0.1560E+03
    -26.598  0.0000E+00  0.0000E+00  0.1560E+03  0.1560E+03
    -26.358  0.0000E+00  0.0000E+00  0.1560E+03  0.1560E+03
    -26.118  0.0000E+00  0.0000E+00  0.1560E+03  0.1560E+03
    -25.879  0.0000E+00  0.0000E+00  0.1560E+03  0.1560E+03
    -25.639  0.0000E+00  0.0000E+00  0.1560E+03  0.1560E+03
    -25.400  0.0000E+00  0.0000E+00  0.1560E+03  0.1560E+03
    -25.160  0.0000E+00  0.0000E+00  0.1560E+03  0.1560E+03
    -24.920  0.0000E+00  0.0000E+00  0.1560E+03  0.1560E+03
    -24.681  0.0000E+00  0.0000E+00  0.1560E+03  0.1560E+03
    -24.441  0.0000E+00  0.0000E+00  0.1560E+03  0.1560E+03
    -24.202  0.0000E+00  0.0000E+00  0.1560E+03  0.1560E+03
    -23.962  0.0000E+00  0.0000E+00  0.1560E+03  0.1560E+03
    -23.722  0.0000E+00  0.0000E+00  0.1560E+03  0.1560E+03
    -23.483  0.0000E+00  0.0000E+00  0.1560E+03  0.1560E+03
    -23.243  0.0000E+00  0.0000E+00  0.1560E+03  0.1560E+03
    -23.004  0.0000E+00  0.0000E+00  0.1560E+03  0.1560E+03
    -22.764  0.0000E+00  0.0000E+00  0.1560E+03  0.1560E+03
    -22.524  0.0000E+00  0.0000E+00  0.1560E+03  0.1560E+03
    -22.285  0.0000E+00  0.0000E+00  0.1560E+03  0.1560E+03
    -22.045  0.0000E+00  0.0000E+00  0.1560E+03  0.1560E+03
    -21.806  0.0000E+00  0.0000E+00  0.1560E+03  0.1560E+03
    -21.566  0.0000E+00  0.0000E+00  0.1560E+03  0.1560E+03
    -21.326  0.0000E+00  0.0000E+00  0.1560E+03  0.1560E+03
    -21.087  0.0000E+00  0.0000E+00  0.1560E+03  0.1560E+03
    -20.847  0.0000E+00  0.0000E+00  0.1560E+03  0.1560E+03
    -20.608  0.0000E+00  0.0000E+00  0.1560E+03  0.1560E+03
    -20.368  0.0000E+00  0.0000E+00  0.1560E+03  0.1560E+03
    -20.128  0.0000E+00  0.0000E+00  0.1560E+03  0.1560E+03
    -19.889  0.0000E+00  0.0000E+00  0.1560E+03  0.1560E+03
    -19.649  0.0000E+00  0.0000E+00  0.1560E+03  0.1560E+03
    -19.410  0.0000E+00  0.0000E+00  0.1560E+03  0.1560E+03
    -19.170  0.0000E+00  0.0000E+00  0.1560E+03  0.1560E+03
    -18.930  0.0000E+00  0.0000E+00  0.1560E+03  0.1560E+03
    -18.691  0.0000E+00  0.0000E+00  0.1560E+03  0.1560E+03
    -18.451  0.0000E+00  0.0000E+00  0.1560E+03  0.1560E+03
    -18.212  0.0000E+00  0.0000E+00  0.1560E+03  0.1560E+03
    -17.972  0.0000E+00  0.0000E+00  0.1560E+03  0.1560E+03
    -17.732  0.0000E+00  0.0000E+00  0.1560E+03  0.1560E+03
    -17.493  0.0000E+00  0.0000E+00  0.1560E+03  0.1560E+03
    -17.253  0.0000E+00  0.0000E+00  0.1560E+03  0.1560E+03
    -17.014  0.0000E+00  0.0000E+00  0.1560E+03  0.1560E+03
    -16.774  0.0000E+00  0.0000E+00  0.1560E+03  0.1560E+03
    -16.534  0.0000E+00  0.0000E+00  0.1560E+03  0.1560E+03
    -16.295  0.0000E+00  0.0000E+00  0.1560E+03  0.1560E+03
    -16.055  0.0000E+00  0.0000E+00  0.1560E+03  0.1560E+03
    -15.816  0.0000E+00  0.0000E+00  0.1560E+03  0.1560E+03
    -15.576  0.0000E+00  0.0000E+00  0.1560E+03  0.1560E+03
    -15.336  0.0000E+00  0.0000E+00  0.1560E+03  0.1560E+03
    -15.097  0.0000E+00  0.0000E+00  0.1560E+03  0.1560E+03
    -14.857  0.0000E+00  0.0000E+00  0.1560E+03  0.1560E+03
    -14.618  0.0000E+00  0.0000E+00  0.1560E+03  0.1560E+03
    -14.378  0.0000E+00  0.0000E+00  0.1560E+03  0.1560E+03
    -14.138  0.0000E+00  0.0000E+00  0.1560E+03  0.1560E+03
    -13.899  0.1337E-02  0.0000E+00  0.1560E+03  0.1560E+03
    -13.659  0.2227E+02  0.6617E-13  0.1613E+03  0.1560E+03
    -13.420  0.2763E+02  0.1851E+01  0.1680E+03  0.1564E+03
    -13.180  0.9076E+01  0.4450E+02  0.1701E+03  0.1671E+03
    -12.940  0.3146E+02  0.4476E+01  0.1777E+03  0.1682E+03
    -12.701  0.9721E+01  0.4221E+02  0.1800E+03  0.1783E+03
    -12.461  0.0000E+00  0.7121E+01  0.1800E+03  0.1800E+03
    -12.222  0.0000E+00  0.0000E+00  0.1800E+03  0.1800E+03
    -11.982  0.0000E+00  0.0000E+00  0.1800E+03  0.1800E+03
    -11.742  0.0000E+00  0.0000E+00  0.1800E+03  0.1800E+03
    -11.503  0.0000E+00  0.0000E+00  0.1800E+03  0.1800E+03
    -11.263  0.0000E+00  0.0000E+00  0.1800E+03  0.1800E+03
    -11.023  0.0000E+00  0.0000E+00  0.1800E+03  0.1800E+03
    -10.784  0.0000E+00  0.0000E+00  0.1800E+03  0.1800E+03
    -10.544  0.0000E+00  0.0000E+00  0.1800E+03  0.1800E+03
    -10.305  0.0000E+00  0.0000E+00  0.1800E+03  0.1800E+03
    -10.065  0.0000E+00  0.0000E+00  0.1800E+03  0.1800E+03
     -9.825  0.0000E+00  0.0000E+00  0.1800E+03  0.1800E+03
     -9.586  0.0000E+00  0.0000E+00  0.1800E+03  0.1800E+03
     -9.346  0.0000E+00  0.0000E+00  0.1800E+03  0.1800E+03
     -9.107  0.0000E+00  0.0000E+00  0.1800E+03  0.1800E+03
     -8.867  0.0000E+00  0.0000E+00  0.1800E+03  0.1800E+03
     -8.627  0.0000E+00  0.0000E+00  0.1800E+03  0.1800E+03
     -8.388  0.0000E+00  0.0000E+00  0.1800E+03  0.1800E+03
     -8.148  0.0000E+00  0.0000E+00  0.1800E+03  0.1800E+03
     -7.909  0.2439E-02  0.0000E+00  0.1800E+03  0.1800E+03
     -7.669  0.9472E+01  0.1804E-01  0.1823E+03  0.1800E+03
     -7.429  0.2316E+02  0.1205E+02  0.1878E+03  0.1829E+03
     -7.190  0.5591E+02  0.2869E+02  0.2012E+03  0.1898E+03
     -6.950  0.5779E+02  0.6000E+02  0.2151E+03  0.2041E+03
     -6.711  0.3908E+01  0.4623E+02  0.2160E+03  0.2152E+03
     -6.471  0.0000E+00  0.3262E+01  0.2160E+03  0.2160E+03
     -6.231  0.0000E+00  0.0000E+00  0.2160E+03  0.2160E+03
     -5.992  0.0000E+00  0.0000E+00  0.2160E+03  0.2160E+03
     -5.752  0.0000E+00  0.0000E+00  0.2160E+03  0.2160E+03
     -5.513  0.0000E+00  0.0000E+00  0.2160E+03  0.2160E+03
     -5.273  0.0000E+00  0.0000E+00  0.2160E+03  0.2160E+03
     -5.033  0.0000E+00  0.0000E+00  0.2160E+03  0.2160E+03
     -4.794  0.0000E+00  0.0000E+00  0.2160E+03  0.2160E+03
     -4.554  0.0000E+00  0.0000E+00  0.2160E+03  0.2160E+03
     -4.315  0.0000E+00  0.0000E+00  0.2160E+03  0.2160E+03
     -4.075  0.0000E+00  0.0000E+00  0.2160E+03  0.2160E+03
     -3.835  0.0000E+00  0.0000E+00  0.2160E+03  0.2160E+03
     -3.596  0.0000E+00  0.0000E+00  0.2160E+03  0.2160E+03
     -3.356  0.0000E+00  0.0000E+00  0.2160E+03  0.2160E+03
     -3.117  0.0000E+00  0.0000E+00  0.2160E+03  0.2160E+03
     -2.877  0.2010E-13  0.0000E+00  0.2160E+03  0.2160E+03
     -2.637  0.8812E+00  0.0000E+00  0.2162E+03  0.2160E+03
     -2.398  0.1025E+02  0.0000E+00  0.2187E+03  0.2160E+03
     -2.158  0.2055E+02  0.0000E+00  0.2236E+03  0.2160E+03
     -1.919  0.1795E+01  0.0000E+00  0.2240E+03  0.2160E+03
     -1.679  0.3467E+02  0.0000E+00  0.2323E+03  0.2160E+03
     -1.439  0.1961E+02  0.5406E-15  0.2370E+03  0.2160E+03
     -1.200  0.4416E+02  0.9124E-01  0.2476E+03  0.2160E+03
     -0.960  0.4973E+02  0.4421E+01  0.2595E+03  0.2171E+03
     -0.721  0.7508E+02  0.1412E+02  0.2775E+03  0.2205E+03
     -0.481  0.1034E+03  0.1534E+02  0.3023E+03  0.2241E+03
     -0.241  0.8549E+02  0.1965E+02  0.3228E+03  0.2288E+03
     -0.002  0.1105E+03  0.4124E+02  0.3492E+03  0.2387E+03
      0.238  0.6956E+02  0.3394E+02  0.3659E+03  0.2469E+03
      0.477  0.3816E+02  0.4219E+02  0.3751E+03  0.2570E+03
      0.717  0.4571E+02  0.3367E+02  0.3860E+03  0.2650E+03
      0.957  0.4868E+02  0.5310E+02  0.3977E+03  0.2778E+03
      1.196  0.5559E+02  0.6034E+02  0.4110E+03  0.2922E+03
      1.436  0.6443E+02  0.4443E+02  0.4264E+03  0.3029E+03
      1.675  0.1008E+03  0.4000E+02  0.4506E+03  0.3124E+03
      1.915  0.5222E+02  0.3848E+02  0.4631E+03  0.3217E+03
      2.155  0.3889E+02  0.3736E+02  0.4724E+03  0.3306E+03
      2.394  0.4651E+02  0.3831E+02  0.4836E+03  0.3398E+03
      2.634  0.4783E+02  0.4953E+02  0.4950E+03  0.3517E+03
      2.873  0.4349E+02  0.6283E+02  0.5054E+03  0.3667E+03
      3.113  0.4011E+02  0.5876E+02  0.5151E+03  0.3808E+03
      3.353  0.4758E+02  0.4787E+02  0.5265E+03  0.3923E+03
      3.592  0.5247E+02  0.3008E+02  0.5390E+03  0.3995E+03
      3.832  0.4534E+02  0.6147E+02  0.5499E+03  0.4142E+03
      4.071  0.3200E+02  0.7293E+02  0.5576E+03  0.4317E+03
      4.311  0.4238E+02  0.1339E+01  0.5677E+03  0.4320E+03
      4.551  0.2355E+02  0.0000E+00  0.5734E+03  0.4320E+03
      4.790  0.1018E+02  0.0000E+00  0.5758E+03  0.4320E+03
      5.030  0.8713E+00  0.0000E+00  0.5760E+03  0.4320E+03
      5.269  0.0000E+00  0.0000E+00  0.5760E+03  0.4320E+03
      5.509  0.0000E+00  0.0000E+00  0.5760E+03  0.4320E+03
      5.749  0.0000E+00  0.0000E+00  0.5760E+03  0.4320E+03
      5.988  0.0000E+00  0.6203E-11  0.5760E+03  0.4320E+03
      6.228  0.0000E+00  0.1481E+00  0.5760E+03  0.4320E+03
      6.468  0.0000E+00  0.8198E+01  0.5760E+03  0.4340E+03
      6.707  0.0000E+00  0.3033E+02  0.5760E+03  0.4413E+03
      6.947  0.9110E-12  0.4354E+02  0.5760E+03  0.4517E+03
      7.186  0.1100E+00  0.7334E+02  0.5760E+03  0.4693E+03
      7.426  0.1288E+00  0.8076E+02  0.5761E+03  0.4886E+03
      7.666  0.9047E+00  0.6539E+02  0.5763E+03  0.5043E+03
      7.905  0.3512E+01  0.8789E+02  0.5771E+03  0.5253E+03
      8.145  0.4265E+01  0.7121E+02  0.5781E+03  0.5424E+03
      8.384  0.7060E+01  0.5435E+02  0.5798E+03  0.5554E+03
      8.624  0.1642E+02  0.3722E+02  0.5838E+03  0.5644E+03
      8.864  0.2525E+02  0.3907E+02  0.5898E+03  0.5737E+03
      9.103  0.1923E+02  0.1931E+02  0.5944E+03  0.5783E+03
      9.343  0.2543E+02  0.1395E+02  0.6005E+03  0.5817E+03
      9.582  0.3128E+02  0.2059E+02  0.6080E+03  0.5866E+03
      9.822  0.2657E+02  0.3002E+02  0.6144E+03  0.5938E+03
     10.062  0.2963E+02  0.2655E+02  0.6215E+03  0.6002E+03
     10.301  0.2276E+02  0.3481E+02  0.6269E+03  0.6085E+03
     10.541  0.2040E+02  0.3536E+02  0.6318E+03  0.6170E+03
     10.780  0.2862E+02  0.2797E+02  0.6387E+03  0.6237E+03
     11.020  0.3894E+02  0.2238E+02  0.6480E+03  0.6290E+03
     11.260  0.3941E+02  0.2165E+02  0.6574E+03  0.6342E+03
     11.499  0.3725E+02  0.3231E+02  0.6664E+03  0.6420E+03
     11.739  0.4489E+02  0.3873E+02  0.6771E+03  0.6513E+03
     11.978  0.3848E+02  0.4264E+02  0.6863E+03  0.6615E+03
     12.218  0.3857E+02  0.5200E+02  0.6956E+03  0.6739E+03
     12.458  0.3991E+02  0.4675E+02  0.7052E+03  0.6851E+03
     12.697  0.3648E+02  0.3597E+02  0.7139E+03  0.6938E+03
     12.937  0.3440E+02  0.4128E+02  0.7221E+03  0.7036E+03
     13.176  0.2272E+02  0.3968E+02  0.7276E+03  0.7132E+03
     13.416  0.1760E+01  0.3426E+02  0.7280E+03  0.7214E+03
     13.656  0.0000E+00  0.2388E+02  0.7280E+03  0.7271E+03
     13.895  0.0000E+00  0.3835E+01  0.7280E+03  0.7280E+03
     14.135  0.0000E+00  0.3741E-05  0.7280E+03  0.7280E+03
     14.374  0.0000E+00  0.0000E+00  0.7280E+03  0.7280E+03
     14.614  0.0000E+00  0.0000E+00  0.7280E+03  0.7280E+03
     14.854  0.0000E+00  0.0000E+00  0.7280E+03  0.7280E+03
     15.093  0.0000E+00  0.0000E+00  0.7280E+03  0.7280E+03
     15.333  0.0000E+00  0.0000E+00  0.7280E+03  0.7280E+03
     15.572  0.0000E+00  0.0000E+00  0.7280E+03  0.7280E+03
     15.812  0.0000E+00  0.0000E+00  0.7280E+03  0.7280E+03
     16.052  0.0000E+00  0.0000E+00  0.7280E+03  0.7280E+03
     16.291  0.0000E+00  0.0000E+00  0.7280E+03  0.7280E+03
     16.531  0.0000E+00  0.0000E+00  0.7280E+03  0.7280E+03
     16.770  0.0000E+00  0.0000E+00  0.7280E+03  0.7280E+03
     17.010  0.0000E+00  0.0000E+00  0.7280E+03  0.7280E+03
