 160 160   0   0
  0.1215613E+02  0.1537564E-08  0.1124787E-08  0.1124760E-08  0.5000000E-15
  1.000000000000000E-004
  CAR 
 unknown system                          
     17.05019512    -54.80301249  301      4.89502750      1.00000000
    -54.803  0.0000E+00  0.0000E+00  0.0000E+00  0.0000E+00
    -54.564  0.0000E+00  0.0000E+00  0.0000E+00  0.0000E+00
    -54.324  0.0000E+00  0.0000E+00  0.0000E+00  0.0000E+00
    -54.084  0.0000E+00  0.0000E+00  0.0000E+00  0.0000E+00
    -53.845  0.0000E+00  0.0000E+00  0.0000E+00  0.0000E+00
    -53.605  0.0000E+00  0.0000E+00  0.0000E+00  0.0000E+00
    -53.366  0.0000E+00  0.0000E+00  0.0000E+00  0.0000E+00
    -53.126  0.0000E+00  0.0000E+00  0.0000E+00  0.0000E+00
    -52.887  0.0000E+00  0.0000E+00  0.0000E+00  0.0000E+00
    -52.647  0.0000E+00  0.0000E+00  0.0000E+00  0.0000E+00
    -52.408  0.0000E+00  0.0000E+00  0.0000E+00  0.0000E+00
    -52.168  0.0000E+00  0.0000E+00  0.0000E+00  0.0000E+00
    -51.929  0.0000E+00  0.0000E+00  0.0000E+00  0.0000E+00
    -51.689  0.9699E-04  0.0000E+00  0.2323E-04  0.0000E+00
    -51.450  0.7472E+02  0.0000E+00  0.1790E+02  0.0000E+00
    -51.210  0.5888E+02  0.0000E+00  0.3200E+02  0.0000E+00
    -50.971  0.0000E+00  0.0000E+00  0.3200E+02  0.0000E+00
    -50.731  0.0000E+00  0.0000E+00  0.3200E+02  0.0000E+00
    -50.492  0.7417E-14  0.0000E+00  0.3200E+02  0.0000E+00
    -50.252  0.4218E+01  0.0000E+00  0.3301E+02  0.0000E+00
    -50.013  0.1523E+03  0.0000E+00  0.6950E+02  0.0000E+00
    -49.773  0.1107E+03  0.0000E+00  0.9600E+02  0.0000E+00
    -49.534  0.0000E+00  0.0000E+00  0.9600E+02  0.0000E+00
    -49.294  0.0000E+00  0.0000E+00  0.9600E+02  0.0000E+00
    -49.055  0.0000E+00  0.0000E+00  0.9600E+02  0.0000E+00
    -48.815  0.0000E+00  0.0000E+00  0.9600E+02  0.0000E+00
    -48.576  0.0000E+00  0.0000E+00  0.9600E+02  0.0000E+00
    -48.336  0.0000E+00  0.0000E+00  0.9600E+02  0.0000E+00
    -48.097  0.0000E+00  0.0000E+00  0.9600E+02  0.0000E+00
    -47.857  0.0000E+00  0.0000E+00  0.9600E+02  0.0000E+00
    -47.618  0.0000E+00  0.0000E+00  0.9600E+02  0.0000E+00
    -47.378  0.0000E+00  0.0000E+00  0.9600E+02  0.0000E+00
    -47.139  0.0000E+00  0.0000E+00  0.9600E+02  0.0000E+00
    -46.899  0.0000E+00  0.7457E-01  0.9600E+02  0.1786E-01
    -46.660  0.0000E+00  0.9747E+02  0.9600E+02  0.2336E+02
    -46.420  0.0000E+00  0.9937E+02  0.9600E+02  0.4716E+02
    -46.181  0.0000E+00  0.2031E+03  0.9600E+02  0.9581E+02
    -45.941  0.0000E+00  0.7972E+00  0.9600E+02  0.9600E+02
    -45.702  0.0000E+00  0.0000E+00  0.9600E+02  0.9600E+02
    -45.462  0.0000E+00  0.0000E+00  0.9600E+02  0.9600E+02
    -45.223  0.0000E+00  0.0000E+00  0.9600E+02  0.9600E+02
    -44.983  0.0000E+00  0.0000E+00  0.9600E+02  0.9600E+02
    -44.744  0.0000E+00  0.0000E+00  0.9600E+02  0.9600E+02
    -44.504  0.0000E+00  0.0000E+00  0.9600E+02  0.9600E+02
    -44.265  0.0000E+00  0.0000E+00  0.9600E+02  0.9600E+02
    -44.025  0.0000E+00  0.0000E+00  0.9600E+02  0.9600E+02
    -43.786  0.0000E+00  0.0000E+00  0.9600E+02  0.9600E+02
    -43.546  0.0000E+00  0.0000E+00  0.9600E+02  0.9600E+02
    -43.306  0.0000E+00  0.0000E+00  0.9600E+02  0.9600E+02
    -43.067  0.0000E+00  0.0000E+00  0.9600E+02  0.9600E+02
    -42.827  0.0000E+00  0.0000E+00  0.9600E+02  0.9600E+02
    -42.588  0.0000E+00  0.0000E+00  0.9600E+02  0.9600E+02
    -42.348  0.0000E+00  0.0000E+00  0.9600E+02  0.9600E+02
    -42.109  0.0000E+00  0.0000E+00  0.9600E+02  0.9600E+02
    -41.869  0.0000E+00  0.0000E+00  0.9600E+02  0.9600E+02
    -41.630  0.0000E+00  0.0000E+00  0.9600E+02  0.9600E+02
    -41.390  0.0000E+00  0.0000E+00  0.9600E+02  0.9600E+02
    -41.151  0.0000E+00  0.0000E+00  0.9600E+02  0.9600E+02
    -40.911  0.0000E+00  0.0000E+00  0.9600E+02  0.9600E+02
    -40.672  0.2318E-15  0.2318E-15  0.9600E+02  0.9600E+02
    -40.432  0.2046E+01  0.1775E+01  0.9649E+02  0.9643E+02
    -40.193  0.1673E+03  0.1693E+03  0.1366E+03  0.1370E+03
    -39.953  0.9790E+02  0.9610E+02  0.1600E+03  0.1600E+03
    -39.714  0.0000E+00  0.0000E+00  0.1600E+03  0.1600E+03
    -39.474  0.0000E+00  0.0000E+00  0.1600E+03  0.1600E+03
    -39.235  0.0000E+00  0.0000E+00  0.1600E+03  0.1600E+03
    -38.995  0.0000E+00  0.0000E+00  0.1600E+03  0.1600E+03
    -38.756  0.0000E+00  0.0000E+00  0.1600E+03  0.1600E+03
    -38.516  0.0000E+00  0.0000E+00  0.1600E+03  0.1600E+03
    -38.277  0.0000E+00  0.0000E+00  0.1600E+03  0.1600E+03
    -38.037  0.0000E+00  0.0000E+00  0.1600E+03  0.1600E+03
    -37.798  0.0000E+00  0.0000E+00  0.1600E+03  0.1600E+03
    -37.558  0.0000E+00  0.0000E+00  0.1600E+03  0.1600E+03
    -37.319  0.0000E+00  0.0000E+00  0.1600E+03  0.1600E+03
    -37.079  0.0000E+00  0.0000E+00  0.1600E+03  0.1600E+03
    -36.840  0.0000E+00  0.0000E+00  0.1600E+03  0.1600E+03
    -36.600  0.0000E+00  0.0000E+00  0.1600E+03  0.1600E+03
    -36.361  0.0000E+00  0.0000E+00  0.1600E+03  0.1600E+03
    -36.121  0.0000E+00  0.0000E+00  0.1600E+03  0.1600E+03
    -35.882  0.0000E+00  0.0000E+00  0.1600E+03  0.1600E+03
    -35.642  0.0000E+00  0.0000E+00  0.1600E+03  0.1600E+03
    -35.403  0.0000E+00  0.0000E+00  0.1600E+03  0.1600E+03
    -35.163  0.0000E+00  0.0000E+00  0.1600E+03  0.1600E+03
    -34.924  0.0000E+00  0.0000E+00  0.1600E+03  0.1600E+03
    -34.684  0.0000E+00  0.0000E+00  0.1600E+03  0.1600E+03
    -34.445  0.0000E+00  0.0000E+00  0.1600E+03  0.1600E+03
    -34.205  0.0000E+00  0.0000E+00  0.1600E+03  0.1600E+03
    -33.966  0.0000E+00  0.0000E+00  0.1600E+03  0.1600E+03
    -33.726  0.0000E+00  0.0000E+00  0.1600E+03  0.1600E+03
    -33.487  0.0000E+00  0.0000E+00  0.1600E+03  0.1600E+03
    -33.247  0.0000E+00  0.0000E+00  0.1600E+03  0.1600E+03
    -33.008  0.0000E+00  0.0000E+00  0.1600E+03  0.1600E+03
    -32.768  0.0000E+00  0.0000E+00  0.1600E+03  0.1600E+03
    -32.529  0.0000E+00  0.0000E+00  0.1600E+03  0.1600E+03
    -32.289  0.0000E+00  0.0000E+00  0.1600E+03  0.1600E+03
    -32.049  0.0000E+00  0.0000E+00  0.1600E+03  0.1600E+03
    -31.810  0.0000E+00  0.0000E+00  0.1600E+03  0.1600E+03
    -31.570  0.0000E+00  0.0000E+00  0.1600E+03  0.1600E+03
    -31.331  0.0000E+00  0.0000E+00  0.1600E+03  0.1600E+03
    -31.091  0.0000E+00  0.0000E+00  0.1600E+03  0.1600E+03
    -30.852  0.0000E+00  0.0000E+00  0.1600E+03  0.1600E+03
    -30.612  0.0000E+00  0.0000E+00  0.1600E+03  0.1600E+03
    -30.373  0.0000E+00  0.0000E+00  0.1600E+03  0.1600E+03
    -30.133  0.0000E+00  0.0000E+00  0.1600E+03  0.1600E+03
    -29.894  0.0000E+00  0.0000E+00  0.1600E+03  0.1600E+03
    -29.654  0.0000E+00  0.0000E+00  0.1600E+03  0.1600E+03
    -29.415  0.0000E+00  0.0000E+00  0.1600E+03  0.1600E+03
    -29.175  0.0000E+00  0.0000E+00  0.1600E+03  0.1600E+03
    -28.936  0.0000E+00  0.0000E+00  0.1600E+03  0.1600E+03
    -28.696  0.0000E+00  0.0000E+00  0.1600E+03  0.1600E+03
    -28.457  0.0000E+00  0.0000E+00  0.1600E+03  0.1600E+03
    -28.217  0.0000E+00  0.0000E+00  0.1600E+03  0.1600E+03
    -27.978  0.0000E+00  0.0000E+00  0.1600E+03  0.1600E+03
    -27.738  0.0000E+00  0.0000E+00  0.1600E+03  0.1600E+03
    -27.499  0.0000E+00  0.0000E+00  0.1600E+03  0.1600E+03
    -27.259  0.0000E+00  0.0000E+00  0.1600E+03  0.1600E+03
    -27.020  0.0000E+00  0.0000E+00  0.1600E+03  0.1600E+03
    -26.780  0.0000E+00  0.0000E+00  0.1600E+03  0.1600E+03
    -26.541  0.0000E+00  0.0000E+00  0.1600E+03  0.1600E+03
    -26.301  0.0000E+00  0.0000E+00  0.1600E+03  0.1600E+03
    -26.062  0.0000E+00  0.0000E+00  0.1600E+03  0.1600E+03
    -25.822  0.0000E+00  0.0000E+00  0.1600E+03  0.1600E+03
    -25.583  0.0000E+00  0.0000E+00  0.1600E+03  0.1600E+03
    -25.343  0.0000E+00  0.0000E+00  0.1600E+03  0.1600E+03
    -25.104  0.0000E+00  0.0000E+00  0.1600E+03  0.1600E+03
    -24.864  0.0000E+00  0.0000E+00  0.1600E+03  0.1600E+03
    -24.625  0.0000E+00  0.0000E+00  0.1600E+03  0.1600E+03
    -24.385  0.0000E+00  0.0000E+00  0.1600E+03  0.1600E+03
    -24.146  0.0000E+00  0.0000E+00  0.1600E+03  0.1600E+03
    -23.906  0.0000E+00  0.0000E+00  0.1600E+03  0.1600E+03
    -23.667  0.0000E+00  0.0000E+00  0.1600E+03  0.1600E+03
    -23.427  0.0000E+00  0.0000E+00  0.1600E+03  0.1600E+03
    -23.188  0.0000E+00  0.0000E+00  0.1600E+03  0.1600E+03
    -22.948  0.0000E+00  0.0000E+00  0.1600E+03  0.1600E+03
    -22.709  0.0000E+00  0.0000E+00  0.1600E+03  0.1600E+03
    -22.469  0.0000E+00  0.0000E+00  0.1600E+03  0.1600E+03
    -22.230  0.0000E+00  0.0000E+00  0.1600E+03  0.1600E+03
    -21.990  0.0000E+00  0.0000E+00  0.1600E+03  0.1600E+03
    -21.751  0.0000E+00  0.0000E+00  0.1600E+03  0.1600E+03
    -21.511  0.0000E+00  0.0000E+00  0.1600E+03  0.1600E+03
    -21.272  0.0000E+00  0.0000E+00  0.1600E+03  0.1600E+03
    -21.032  0.0000E+00  0.0000E+00  0.1600E+03  0.1600E+03
    -20.792  0.0000E+00  0.0000E+00  0.1600E+03  0.1600E+03
    -20.553  0.0000E+00  0.0000E+00  0.1600E+03  0.1600E+03
    -20.313  0.0000E+00  0.0000E+00  0.1600E+03  0.1600E+03
    -20.074  0.0000E+00  0.0000E+00  0.1600E+03  0.1600E+03
    -19.834  0.0000E+00  0.0000E+00  0.1600E+03  0.1600E+03
    -19.595  0.0000E+00  0.0000E+00  0.1600E+03  0.1600E+03
    -19.355  0.0000E+00  0.0000E+00  0.1600E+03  0.1600E+03
    -19.116  0.0000E+00  0.0000E+00  0.1600E+03  0.1600E+03
    -18.876  0.0000E+00  0.0000E+00  0.1600E+03  0.1600E+03
    -18.637  0.0000E+00  0.0000E+00  0.1600E+03  0.1600E+03
    -18.397  0.0000E+00  0.0000E+00  0.1600E+03  0.1600E+03
    -18.158  0.0000E+00  0.0000E+00  0.1600E+03  0.1600E+03
    -17.918  0.0000E+00  0.0000E+00  0.1600E+03  0.1600E+03
    -17.679  0.0000E+00  0.0000E+00  0.1600E+03  0.1600E+03
    -17.439  0.0000E+00  0.0000E+00  0.1600E+03  0.1600E+03
    -17.200  0.0000E+00  0.0000E+00  0.1600E+03  0.1600E+03
    -16.960  0.0000E+00  0.0000E+00  0.1600E+03  0.1600E+03
    -16.721  0.0000E+00  0.0000E+00  0.1600E+03  0.1600E+03
    -16.481  0.0000E+00  0.0000E+00  0.1600E+03  0.1600E+03
    -16.242  0.0000E+00  0.0000E+00  0.1600E+03  0.1600E+03
    -16.002  0.0000E+00  0.0000E+00  0.1600E+03  0.1600E+03
    -15.763  0.0000E+00  0.0000E+00  0.1600E+03  0.1600E+03
    -15.523  0.0000E+00  0.0000E+00  0.1600E+03  0.1600E+03
    -15.284  0.0000E+00  0.0000E+00  0.1600E+03  0.1600E+03
    -15.044  0.0000E+00  0.0000E+00  0.1600E+03  0.1600E+03
    -14.805  0.0000E+00  0.0000E+00  0.1600E+03  0.1600E+03
    -14.565  0.0000E+00  0.0000E+00  0.1600E+03  0.1600E+03
    -14.326  0.0000E+00  0.0000E+00  0.1600E+03  0.1600E+03
    -14.086  0.0000E+00  0.0000E+00  0.1600E+03  0.1600E+03
    -13.847  0.0000E+00  0.0000E+00  0.1600E+03  0.1600E+03
    -13.607  0.1193E-01  0.0000E+00  0.1600E+03  0.1600E+03
    -13.368  0.5140E+02  0.9960E-06  0.1723E+03  0.1600E+03
    -13.128  0.7268E+02  0.2669E+02  0.1897E+03  0.1664E+03
    -12.889  0.9509E+01  0.1013E+03  0.1920E+03  0.1906E+03
    -12.649  0.0000E+00  0.5650E+01  0.1920E+03  0.1920E+03
    -12.410  0.0000E+00  0.0000E+00  0.1920E+03  0.1920E+03
    -12.170  0.0000E+00  0.0000E+00  0.1920E+03  0.1920E+03
    -11.931  0.0000E+00  0.0000E+00  0.1920E+03  0.1920E+03
    -11.691  0.0000E+00  0.0000E+00  0.1920E+03  0.1920E+03
    -11.452  0.0000E+00  0.0000E+00  0.1920E+03  0.1920E+03
    -11.212  0.0000E+00  0.0000E+00  0.1920E+03  0.1920E+03
    -10.973  0.0000E+00  0.0000E+00  0.1920E+03  0.1920E+03
    -10.733  0.0000E+00  0.0000E+00  0.1920E+03  0.1920E+03
    -10.494  0.0000E+00  0.0000E+00  0.1920E+03  0.1920E+03
    -10.254  0.0000E+00  0.0000E+00  0.1920E+03  0.1920E+03
    -10.015  0.0000E+00  0.0000E+00  0.1920E+03  0.1920E+03
     -9.775  0.0000E+00  0.0000E+00  0.1920E+03  0.1920E+03
     -9.535  0.0000E+00  0.0000E+00  0.1920E+03  0.1920E+03
     -9.296  0.0000E+00  0.0000E+00  0.1920E+03  0.1920E+03
     -9.056  0.0000E+00  0.0000E+00  0.1920E+03  0.1920E+03
     -8.817  0.0000E+00  0.0000E+00  0.1920E+03  0.1920E+03
     -8.577  0.0000E+00  0.0000E+00  0.1920E+03  0.1920E+03
     -8.338  0.0000E+00  0.0000E+00  0.1920E+03  0.1920E+03
     -8.098  0.0000E+00  0.0000E+00  0.1920E+03  0.1920E+03
     -7.859  0.2099E-10  0.0000E+00  0.1920E+03  0.1920E+03
     -7.619  0.1350E+01  0.2258E-07  0.1923E+03  0.1920E+03
     -7.380  0.4607E+02  0.7014E+01  0.2034E+03  0.1937E+03
     -7.140  0.6535E+02  0.6036E+02  0.2190E+03  0.2081E+03
     -6.901  0.2083E+02  0.5491E+02  0.2240E+03  0.2213E+03
     -6.661  0.1322E-01  0.1132E+02  0.2240E+03  0.2240E+03
     -6.422  0.0000E+00  0.4945E-02  0.2240E+03  0.2240E+03
     -6.182  0.0000E+00  0.0000E+00  0.2240E+03  0.2240E+03
     -5.943  0.0000E+00  0.0000E+00  0.2240E+03  0.2240E+03
     -5.703  0.0000E+00  0.0000E+00  0.2240E+03  0.2240E+03
     -5.464  0.0000E+00  0.0000E+00  0.2240E+03  0.2240E+03
     -5.224  0.0000E+00  0.0000E+00  0.2240E+03  0.2240E+03
     -4.985  0.0000E+00  0.0000E+00  0.2240E+03  0.2240E+03
     -4.745  0.0000E+00  0.0000E+00  0.2240E+03  0.2240E+03
     -4.506  0.0000E+00  0.0000E+00  0.2240E+03  0.2240E+03
     -4.266  0.0000E+00  0.0000E+00  0.2240E+03  0.2240E+03
     -4.027  0.0000E+00  0.0000E+00  0.2240E+03  0.2240E+03
     -3.787  0.0000E+00  0.0000E+00  0.2240E+03  0.2240E+03
     -3.548  0.0000E+00  0.0000E+00  0.2240E+03  0.2240E+03
     -3.308  0.0000E+00  0.0000E+00  0.2240E+03  0.2240E+03
     -3.069  0.0000E+00  0.0000E+00  0.2240E+03  0.2240E+03
     -2.829  0.2189E-15  0.0000E+00  0.2240E+03  0.2240E+03
     -2.590  0.3393E+00  0.0000E+00  0.2241E+03  0.2240E+03
     -2.350  0.3071E+02  0.0000E+00  0.2314E+03  0.2240E+03
     -2.111  0.1144E+02  0.0000E+00  0.2342E+03  0.2240E+03
     -1.871  0.1318E+02  0.0000E+00  0.2373E+03  0.2240E+03
     -1.632  0.1122E+02  0.0000E+00  0.2400E+03  0.2240E+03
     -1.392  0.1545E+02  0.0000E+00  0.2437E+03  0.2240E+03
     -1.153  0.6253E+02  0.1602E-05  0.2587E+03  0.2240E+03
     -0.913  0.7631E+02  0.3223E+01  0.2770E+03  0.2248E+03
     -0.674  0.6768E+02  0.3275E+02  0.2932E+03  0.2326E+03
     -0.434  0.7760E+02  0.1901E+02  0.3118E+03  0.2372E+03
     -0.195  0.1059E+03  0.1912E+02  0.3371E+03  0.2417E+03
      0.045  0.7903E+02  0.1214E+02  0.3561E+03  0.2447E+03
      0.284  0.5358E+02  0.3161E+02  0.3689E+03  0.2522E+03
      0.524  0.4750E+02  0.8106E+02  0.3803E+03  0.2716E+03
      0.763  0.4642E+02  0.6832E+02  0.3914E+03  0.2880E+03
      1.003  0.4645E+02  0.6982E+02  0.4025E+03  0.3047E+03
      1.242  0.7655E+02  0.6381E+02  0.4209E+03  0.3200E+03
      1.482  0.8744E+02  0.2167E+02  0.4418E+03  0.3252E+03
      1.722  0.5862E+02  0.5062E+02  0.4558E+03  0.3373E+03
      1.961  0.4015E+02  0.5156E+02  0.4655E+03  0.3497E+03
      2.201  0.4703E+02  0.3069E+02  0.4767E+03  0.3570E+03
      2.440  0.4180E+02  0.3891E+02  0.4867E+03  0.3663E+03
      2.680  0.5323E+02  0.6439E+02  0.4995E+03  0.3818E+03
      2.919  0.5374E+02  0.7227E+02  0.5123E+03  0.3991E+03
      3.159  0.5665E+02  0.6026E+02  0.5259E+03  0.4135E+03
      3.398  0.5314E+02  0.1616E+02  0.5386E+03  0.4174E+03
      3.638  0.5327E+02  0.3597E+02  0.5514E+03  0.4260E+03
      3.877  0.4002E+02  0.5934E+02  0.5610E+03  0.4402E+03
      4.117  0.3555E+02  0.3248E+02  0.5695E+03  0.4480E+03
      4.356  0.1930E+02  0.4820E-01  0.5741E+03  0.4480E+03
      4.596  0.7506E+01  0.0000E+00  0.5759E+03  0.4480E+03
      4.835  0.3313E+00  0.0000E+00  0.5760E+03  0.4480E+03
      5.075  0.0000E+00  0.0000E+00  0.5760E+03  0.4480E+03
      5.314  0.0000E+00  0.0000E+00  0.5760E+03  0.4480E+03
      5.554  0.0000E+00  0.0000E+00  0.5760E+03  0.4480E+03
      5.793  0.0000E+00  0.0000E+00  0.5760E+03  0.4480E+03
      6.033  0.0000E+00  0.0000E+00  0.5760E+03  0.4480E+03
      6.272  0.0000E+00  0.1288E-15  0.5760E+03  0.4480E+03
      6.512  0.0000E+00  0.6375E-01  0.5760E+03  0.4480E+03
      6.751  0.0000E+00  0.2409E+02  0.5760E+03  0.4538E+03
      6.991  0.6186E-06  0.7761E+02  0.5760E+03  0.4724E+03
      7.230  0.2289E+00  0.6330E+02  0.5761E+03  0.4875E+03
      7.470  0.1829E+00  0.6376E+02  0.5761E+03  0.5028E+03
      7.709  0.1388E+01  0.6310E+02  0.5764E+03  0.5179E+03
      7.949  0.3005E+01  0.9492E+02  0.5772E+03  0.5407E+03
      8.188  0.6536E+01  0.7285E+02  0.5787E+03  0.5581E+03
      8.428  0.9487E+01  0.4924E+02  0.5810E+03  0.5699E+03
      8.667  0.1871E+02  0.2508E+02  0.5855E+03  0.5759E+03
      8.907  0.2337E+02  0.7268E+01  0.5911E+03  0.5776E+03
      9.146  0.3138E+02  0.8597E+01  0.5986E+03  0.5797E+03
      9.386  0.2851E+02  0.1780E+02  0.6054E+03  0.5840E+03
      9.625  0.2979E+02  0.2682E+02  0.6125E+03  0.5904E+03
      9.865  0.2621E+02  0.3191E+02  0.6188E+03  0.5980E+03
     10.104  0.1756E+02  0.3782E+02  0.6230E+03  0.6071E+03
     10.344  0.2595E+02  0.3350E+02  0.6292E+03  0.6151E+03
     10.583  0.3631E+02  0.2857E+02  0.6379E+03  0.6220E+03
     10.823  0.4023E+02  0.3309E+02  0.6476E+03  0.6299E+03
     11.062  0.3301E+02  0.2821E+02  0.6555E+03  0.6366E+03
     11.302  0.4923E+02  0.2601E+02  0.6673E+03  0.6429E+03
     11.541  0.4115E+02  0.2920E+02  0.6771E+03  0.6499E+03
     11.781  0.4151E+02  0.5096E+02  0.6871E+03  0.6621E+03
     12.020  0.3405E+02  0.5026E+02  0.6952E+03  0.6741E+03
     12.260  0.3278E+02  0.5601E+02  0.7031E+03  0.6875E+03
     12.499  0.3251E+02  0.3157E+02  0.7109E+03  0.6951E+03
     12.739  0.3679E+02  0.3267E+02  0.7197E+03  0.7029E+03
     12.979  0.3442E+02  0.3218E+02  0.7279E+03  0.7106E+03
     13.218  0.1558E+02  0.3808E+02  0.7316E+03  0.7197E+03
     13.458  0.1117E+01  0.3331E+02  0.7319E+03  0.7277E+03
     13.697  0.3644E+00  0.1712E+02  0.7320E+03  0.7318E+03
     13.937  0.0000E+00  0.7896E+00  0.7320E+03  0.7320E+03
     14.176  0.0000E+00  0.3233E-05  0.7320E+03  0.7320E+03
     14.416  0.0000E+00  0.0000E+00  0.7320E+03  0.7320E+03
     14.655  0.0000E+00  0.0000E+00  0.7320E+03  0.7320E+03
     14.895  0.0000E+00  0.0000E+00  0.7320E+03  0.7320E+03
     15.134  0.0000E+00  0.0000E+00  0.7320E+03  0.7320E+03
     15.374  0.0000E+00  0.0000E+00  0.7320E+03  0.7320E+03
     15.613  0.0000E+00  0.0000E+00  0.7320E+03  0.7320E+03
     15.853  0.0000E+00  0.0000E+00  0.7320E+03  0.7320E+03
     16.092  0.0000E+00  0.0000E+00  0.7320E+03  0.7320E+03
     16.332  0.0000E+00  0.0000E+00  0.7320E+03  0.7320E+03
     16.571  0.0000E+00  0.0000E+00  0.7320E+03  0.7320E+03
     16.811  0.0000E+00  0.0000E+00  0.7320E+03  0.7320E+03
     17.050  0.0000E+00  0.0000E+00  0.7320E+03  0.7320E+03
