# epsilon and Z* of atoms 1 2 5 6 9 10 13 15 16 19 20
   6.27872791    0.00000000    0.00018772    0.00000000    6.27480576    0.00000000    0.00019596    0.00000000    6.36544344 
   1.13184474    0.16465353    0.00007540    0.16599753    1.13815608   -0.00021017    0.00000633   -0.00011023    1.36185385 
   1.19952558    0.17523319    0.00005488    0.17407260    1.19447373   -0.00023114   -0.00003397   -0.00012350    1.40367968 
  -2.61875581    0.70188375    0.00744312    0.70153178   -2.61830222    0.01287125    0.04141465    0.04889479   -2.54216859 
  -2.61889822    0.70184552   -0.00764641    0.70144960   -2.61829763   -0.01327017   -0.04119729   -0.04932125   -2.54201904 
  -2.40783087    0.04259417    0.01172716    0.04257375   -2.40480879    0.00786402   -0.00481194   -0.00561869   -2.34972523 
  -2.40781224    0.04253143   -0.01233839    0.04262467   -2.40492378   -0.00821225    0.00416238    0.00519909   -2.34975714 
  -1.73213941   -0.00000004   -0.00023555    0.00000485   -1.73460568   -0.01382914   -0.00036034   -0.02795803   -2.57710845 
   2.37735436    0.01205104    0.07268865    0.01215249    2.37289577    0.07096887    0.02158807    0.02369236    2.36005337 
   2.37710026    0.01196553   -0.07190599    0.01226340    2.37294686   -0.07066440   -0.02078129   -0.02359760    2.36006168 
   2.40353500    0.22737958    0.00001751    0.23915270    2.30814629    0.00018222   -0.00002862    0.00027544    2.44850432 
   2.29607661    0.24489748    0.00011959    0.23341549    2.39431940    0.00012991    0.00004204    0.00034234    2.42662557 