  88   88
1 1
     4.179065626591198    -1.148471490399998     0.004376035464720
    -1.148340500000000     4.168218499999999     0.000832500000000
     0.004790451138613     0.000382426360877     1.455737955253894
1 2
    -0.036541053846630     0.005196490345129    -0.002222673551114
     0.004984500000000     0.028119500000000    -0.000588000000000
    -0.002060404140973    -0.000369590457091     0.012494264492344
1 3
     0.023610543308920     0.002801020767802     0.001603887258909
     0.002817500000000    -0.039940500000000     0.000712000000000
     0.001657261454720     0.000794813135629     0.014821607198379
1 4
    -0.017512049678184    -0.006673018308305    -0.002117375134537
    -0.006523500000000    -0.019577500000000    -0.000666500000000
    -0.001901113061109    -0.000700629786387     0.023915613123644
1 5
    -0.038978725508903    -0.070223737653300     0.024988427849740
    -0.069100500000000    -0.040302000000000     0.025388500000000
    -0.008630432556197    -0.009094829010948     0.112057780164671
1 6
    -0.058193738365046     0.083255234232756    -0.005246144222232
     0.081964500000000    -0.058773500000000     0.005106000000000
    -0.009122226967859     0.008963743682336     0.013616813448546
1 7
    -0.057473761846061     0.082652757059886     0.004888854346560
     0.083255500000000    -0.058836000000000    -0.004958000000000
     0.009115658335157    -0.009299169381505     0.013561904160467
1 8
    -0.039686768200499    -0.069622266268724    -0.024917064776308
    -0.070256000000000    -0.040360000000000    -0.025368500000000
     0.008872221437192     0.008946547687646     0.112340656698414
1 9
    -0.013595709879753     0.026843721721497     0.052346297895096
    -0.025798500000000     0.081193000000000     0.043821000000000
     0.049377176095473    -0.029787540328242    -0.065145643383058
1 10
    -0.032484795355784     0.031389776419870    -0.052234692162236
    -0.029971500000000     0.082301500000000    -0.043926500000000
    -0.049576954747444     0.029715643766452    -0.064763739645208
1 11
     0.005991130667097    -0.013962731567929     0.005574003013039
     0.011574000000000    -0.029635000000000    -0.010954000000000
     0.005000966452894     0.010273930134578    -0.019021341948380
1 12
    -0.013133627807781    -0.009102768562167    -0.005669247832940
     0.007650500000000    -0.028383000000000     0.010762500000000
    -0.004891438052320    -0.010278608019421    -0.009485279534300
1 13
     0.075929615200733    -0.029657455010791    -0.032432645725714
     0.028994500000000    -0.037842000000000    -0.053965000000000
     0.042681281306278    -0.055687495744133    -0.062986725207652
1 14
    -0.025978440427073     0.009531053345381     0.006757611129336
    -0.008944000000000    -0.010715000000000     0.000252000000000
    -0.016856203209819     0.002041572613915    -0.014883403394422
1 15
     0.075808649903000    -0.028849592001558     0.042522351537277
     0.029842000000000    -0.037876000000000     0.055655500000000
    -0.032536901976866     0.053888948201873    -0.063092458429447
1 16
    -0.026364326984804     0.008614498196808    -0.016678892085324
    -0.009887000000000    -0.010746500000000    -0.001706500000000
     0.006622185352384    -0.000069126438860    -0.015006132479015
1 17
    -0.029041375670873     0.085084892429997     0.056404828295336
    -0.023494500000000     0.086711000000000     0.024326500000000
    -0.033514325522606     0.072428193620158     0.069973931186357
1 18
     0.004537160161247    -0.004111585622604     0.000572384224843
    -0.013952500000000     0.026089500000000     0.006925000000000
     0.006129820216441    -0.003276995238959     0.033842085031462
1 19
    -0.037602624446299    -0.038512886361513     0.020510705853254
    -0.029562000000000    -0.057380000000000    -0.015599000000000
     0.090920474703443    -0.091333129610748     0.122697915919608
1 20
     0.067728522117209    -0.021822759228433    -0.004031369242052
     0.086157000000000    -0.044985500000000    -0.036208500000000
    -0.075700739780109     0.028351965209342     0.100687513045270
1 21
    -0.058381550789989    -0.034650981514996    -0.049874690391875
    -0.034179000000000    -0.057353500000000     0.002131000000000
    -0.097626069919299     0.096390870959973     0.145806451518134
1 22
     0.087917629640741    -0.026080869596217     0.032031028758164
     0.090571000000000    -0.045419000000000     0.048808000000000
     0.081506965030042    -0.033281867806977     0.077646598574931
1 23
    -0.047754955137747     0.089910078634515    -0.074110938590665
    -0.027394000000000     0.088981500000000    -0.026186500000000
     0.020854232456362    -0.073537932789675     0.078897649225913
1 24
     0.022479664538679    -0.009434879768881     0.015808646834688
    -0.010535500000000     0.023396000000000    -0.005899500000000
     0.006297124039044     0.004601749977334     0.024756210932662
1 25
    -0.035876775671391     0.032199046912507    -0.004106440623163
     0.075390500000000     0.175654500000000    -0.046828500000000
    -0.010550350807585     0.001795069965908    -0.093410344743609
1 26
     0.026848701207024    -0.006457634999298     0.005703228711515
    -0.005663500000000     0.028989500000000    -0.000834500000000
     0.007700480976067    -0.005166767428421    -0.029519733957964
1 27
    -0.938422810516786     0.301896742577024    -0.031512763175812
     0.304390000000000    -0.939742500000000     0.023278000000000
     0.217766848665319    -0.220358803419401    -0.526760030126217
1 28
     0.173600484992057     0.073436730481298     0.048680116596814
     0.030927000000000    -0.039306500000000     0.002092000000000
    -0.000576669578292     0.008820291750977    -0.091221044126044
1 29
    -0.937728283638134     0.301255251561105     0.025866668049108
     0.304227000000000    -0.938589500000000    -0.026624000000000
    -0.221345946091679     0.220126571302384    -0.529393020461946
1 30
     0.172428597224686     0.074199799382949    -0.041717309429934
     0.029551000000000    -0.039073500000000     0.001699500000000
     0.003718844831538    -0.007679220927075    -0.088388671938500
1 31
    -0.035505321911737     0.032131411881291    -0.000440961258070
     0.076176500000000     0.176050000000000     0.045389000000000
     0.006816467167795    -0.003373002574374    -0.094200156049849
1 32
     0.026029895388810    -0.005972825219506    -0.000082245512739
    -0.006897000000000     0.029097000000000     0.003099500000000
    -0.004004142474603     0.006689482549394    -0.028533138740917
1 33
    -0.101304362823518     0.085944407763162    -0.206238990157352
     0.085702500000000    -0.102126500000000    -0.200602000000000
    -0.128704610851011    -0.118350845644833     0.172608692990912
1 34
     0.094718265836477    -0.013329431159691     0.052089476878821
    -0.051581000000000    -0.032083500000000    -0.033553000000000
     0.029309756396210    -0.016501676333206    -0.000885601428786
1 35
    -0.030496471006164    -0.051142027066072    -0.045599557528955
    -0.012776000000000     0.095829500000000     0.042008500000000
    -0.018026503099992     0.018101351322214    -0.002201220081187
1 36
     0.029321536967993     0.012432008558330     0.009141849050542
     0.012119000000000     0.030375000000000     0.006650000000000
     0.020551087115498     0.019463979744585    -0.005777434530605
1 37
    -0.024998586069498    -0.053924109682946     0.037288327995167
    -0.010740500000000     0.092948000000000    -0.045775500000000
     0.015842761292235    -0.023333797847850    -0.006583658264469
1 38
     0.023419515433512     0.014644125311704    -0.000530031631659
     0.009695500000000     0.032767500000000    -0.002484500000000
    -0.018546204147846    -0.014340702195461    -0.001210637116997
1 39
    -0.089899439673772     0.088876705402382     0.197531884622051
     0.093721000000000    -0.099288500000000     0.197346500000000
     0.117129576956425     0.122679766477577     0.167810828206640
1 40
     0.083448039524212    -0.016573683005169    -0.043027898547801
    -0.059511000000000    -0.035084500000000     0.037201000000000
    -0.017624960770756     0.012132615288586     0.003883459914066
1 41
     0.029547025983276    -0.006046832420401     0.034014936571247
     0.024355500000000    -0.023127000000000     0.011585000000000
    -0.037279098933498     0.006413882384118     0.112391462023081
1 42
    -0.022042407417207    -0.025790120415647     0.025699078538835
    -0.015488500000000    -0.042693500000000    -0.026677500000000
     0.022680313144525    -0.023744939960036     0.079551945672647
1 43
     0.002272045844886     0.003855439516578    -0.000542279601559
    -0.006063000000000     0.023202000000000    -0.002021500000000
     0.001754599692532    -0.002314942970599     0.027571942971980
1 44
     0.001564416173932     0.039474017838164     0.025224202908401
     0.009505500000000     0.054398500000000     0.001719000000000
    -0.003208310227340     0.038955382885022     0.065175382369425
1 45
    -0.021822338051644     0.039242987149889    -0.046308801963171
    -0.001773000000000     0.052283000000000    -0.005733000000000
    -0.012938024775259    -0.038765502609142     0.064989866361509
1 46
     0.025372375138490     0.004407548071194     0.021051229220546
     0.005010500000000     0.025630000000000     0.005820500000000
     0.014357409774503     0.001839779654459     0.027909310855288
1 47
    -0.044146538914642    -0.029506016059864    -0.084342673889081
    -0.030278000000000    -0.043535500000000    -0.015768500000000
    -0.039761985572864     0.018522311166186     0.127301928458681
1 48
     0.051391917245554    -0.002022529760166     0.024120690784275
     0.038933000000000    -0.022031000000000     0.030707000000000
     0.054241816284890    -0.001138989637961     0.064711368001378
1 49
    -0.303818147001280    -0.090780886994515    -0.133563410748329
    -0.092277000000000    -0.292476500000000    -0.130355500000000
    -0.158714938229566    -0.148766436841255    -0.302767713405186
1 50
     0.093182284360858    -0.024205563317957    -0.038251908830963
    -0.022008500000000    -0.034434500000000     0.034397000000000
    -0.008254412060639     0.016713524640831    -0.015646759432664
1 51
    -0.032098040838560    -0.019163762759730     0.035212344624201
    -0.023481000000000     0.099315000000000    -0.041701500000000
     0.017573985675418    -0.010056398871174    -0.025083772910689
1 52
     0.038283096489620     0.021911605597028     0.008541705291540
     0.022060500000000     0.043179000000000     0.006410500000000
    -0.034580711392342    -0.034231928087007    -0.011279540162011
1 53
    -0.036224551171009    -0.020113740952322    -0.043986048109439
    -0.023949500000000     0.099079500000000     0.039652000000000
    -0.021094591463868     0.009914839996813    -0.020977314071744
1 54
     0.042806487930732     0.022682901772843     0.000124595055054
     0.022943500000000     0.043237000000000    -0.004358500000000
     0.037810686965549     0.034513413836406    -0.015498530567579
1 55
    -0.307754926803471    -0.091654103187697     0.124652646013746
    -0.093030500000000    -0.292629500000000     0.129259500000000
     0.155898185727233     0.149144578147352    -0.300598621924594
1 56
     0.097232298934317    -0.023834429922114     0.047361519886430
    -0.021411500000000    -0.034645500000000    -0.032703500000000
     0.011439895298044    -0.016454173101127    -0.018376089608290
1 57
    -0.005266575237483    -0.012205478345503    -0.023224041578662
    -0.000539500000000    -0.025363500000000    -0.013574000000000
     0.016257079102782     0.000828945829106    -0.039864219405986
1 58
     0.002439219755807    -0.005066864675387    -0.010377386532035
    -0.000429500000000    -0.012664000000000     0.024552500000000
    -0.010725867010926     0.005179368846933    -0.014793672805653
1 59
     0.004062822822863     0.008080121514911     0.018018760666278
     0.003991000000000     0.015952500000000    -0.002769000000000
    -0.006781184723761     0.004650655952814    -0.066570060020633
1 60
    -0.008072030657101     0.020053182826561    -0.100644774562422
     0.008593000000000     0.008975500000000    -0.091090500000000
     0.017963348541853     0.006997091075677    -0.201872937864228
1 61
     0.016334148748793     0.022843416524086     0.133245431079126
     0.025420500000000     0.011030500000000     0.106454000000000
     0.005692875241354    -0.022331774429052    -0.232278613793559
1 62
    -0.019845929847384     0.005496264975448    -0.049367452829894
    -0.012352000000000     0.013942000000000    -0.011973500000000
    -0.016451365063110     0.010141379985916    -0.036467180714186
1 63
     0.017530709638462    -0.011993826761145     0.046263034434834
     0.005930000000000    -0.019076000000000    -0.010082000000000
     0.008023300610501     0.006630557785580    -0.036955849345523
1 64
    -0.020456846092794    -0.004875341808169    -0.011560958661479
    -0.007275000000000    -0.018024500000000     0.000458500000000
    -0.013245802951738    -0.013082020303309    -0.017554280206619
1 65
     0.027034304589062    -0.048761236316550    -0.005135520596587
    -0.015538000000000    -0.077898500000000     0.041522500000000
    -0.007479350303103     0.086638990731502     0.018348357991119
1 66
    -0.017091022003186     0.008701962222813    -0.012694120837882
     0.009471500000000    -0.018804500000000    -0.002897000000000
    -0.000841908517201    -0.001445966605501    -0.004624683620991
1 67
     0.045989524917744     0.164722002850445     0.499435589697937
     0.161749500000000     0.051796500000000    -0.466015000000000
     0.345411658900113    -0.344351634906971    -0.398441841455060
1 68
    -0.076246345613748    -0.014747233273474    -0.051062527638116
    -0.048147000000000     0.030086000000000     0.009274500000000
    -0.089773090300461     0.010208663763925     0.018079456316483
1 69
     0.045116590210056     0.164257415267752    -0.478938841356701
     0.162476500000000     0.050778000000000     0.479111500000000
    -0.341006542655003     0.341213460487512    -0.376653714197114
1 70
    -0.075764796749674    -0.014970713857812     0.029187427992635
    -0.049148000000000     0.030288000000000    -0.024220500000000
     0.084326375968736    -0.008184821962492    -0.002756331805578
1 71
     0.025402259985355    -0.048603750323414     0.014492977314387
    -0.016242500000000    -0.077343000000000    -0.038782500000000
     0.009950133228344    -0.086126387744622     0.018268147929103
1 72
    -0.015623562760634     0.008107018403759     0.001886375558002
     0.010620500000000    -0.019663000000000    -0.000447500000000
    -0.002401844626359     0.000704264390787    -0.004762815054790
1 73
    -1.358203027163047    -0.038508857762102     0.048791351880839
     0.175647000000000     0.483299000000000     0.104482000000000
    -0.001021872297802     0.081990749903526     0.338788950516339
1 74
    -1.359616976818651    -0.041381638198795    -0.048978677578898
     0.173023500000000     0.482571000000000    -0.104780500000000
     0.000904986086259    -0.081835116872980     0.337662710093455
1 75
    -0.008690784078728    -0.006763208698291     0.000440940438314
    -0.016218000000000    -0.078858000000000    -0.017782000000000
     0.008264106238919    -0.007987457925599     0.035993554770831
1 76
    -0.009683721068540    -0.009053289458656    -0.000701046059298
    -0.018304000000000    -0.079495500000000     0.017359000000000
    -0.008460868493154     0.008058204045797     0.036510348950748
1 77
     0.474349188786301     0.176298074885596     0.105090300552026
    -0.042006000000000    -1.359080500000000     0.054450500000000
     0.083765605037485     0.002863806349608     0.336823698319620
1 78
    -0.074908817483450    -0.018734272709161    -0.020290601775606
    -0.005922500000000    -0.011257500000000    -0.000149000000000
    -0.012150121161596     0.008699386911705     0.034378164865699
1 79
     0.474226980328686     0.176186400373008    -0.099588167479508
    -0.042642000000000    -1.358812000000000    -0.052690500000000
    -0.077305429826652    -0.003815343057314     0.338049906985935
1 80
    -0.074845859662150    -0.018861193725968     0.014493879793936
    -0.005788000000000    -0.011044000000000    -0.002207500000000
     0.005372152932273    -0.007414261554948     0.033672318287728
1 81
     0.178264284110624     0.111981445071005     0.007014861966807
     0.103758000000000     0.211822500000000     0.000565500000000
     0.010871486873700    -0.002103770015470    -0.464561164969679
1 82
    -0.077069780478822    -0.011055442156773    -0.007431534499721
    -0.036825000000000     0.093380000000000    -0.000482500000000
    -0.010733808292202     0.002213988390669    -0.020456904491355
1 83
     0.060286825517641    -0.038896455335888     0.010189202965089
    -0.016696500000000    -0.084274000000000     0.002966000000000
     0.012457806179937     0.001709945529293    -0.011368602360893
1 84
    -0.030417804093458    -0.007388041277000    -0.010601563829105
    -0.004682500000000    -0.037462500000000    -0.003074000000000
    -0.011638224878801    -0.001579705350502    -0.040715979431265
1 85
     0.025102101532547     0.016175142972128     0.031540439271618
     0.023026500000000    -0.006369500000000    -0.023332000000000
     0.042158820434010    -0.032801389394958    -0.021461267759595
1 86
    -0.124623201878650    -0.064657881056797    -0.092544397130789
    -0.067625000000000    -0.119910500000000    -0.086024000000000
    -0.084271259660324    -0.071993172031723    -0.168290948907649
1 87
    -0.088998199924131    -0.066416585371980     0.095359396707649
    -0.060708000000000    -0.121059000000000     0.089311000000000
     0.088032369842886     0.073279761681779    -0.176183861343402
1 88
    -0.010390700671153     0.017861328960243    -0.033210865841308
     0.015728500000000    -0.005511500000000     0.020880500000000
    -0.045953361899329     0.031726707414968    -0.014001474685886
2 1
    -0.036541053846630     0.005196490345129    -0.002222673551114
     0.004984500000000     0.028119500000000    -0.000588000000000
    -0.002060404140973    -0.000369590457091     0.012494264492344
2 2
     4.179065626591198    -1.148471490399998     0.004376035464721
    -1.148340500000000     4.168218499999998     0.000832500000000
     0.004790451138614     0.000382426360877     1.455737955253894
2 3
    -0.017512049678184    -0.006673018308305    -0.002117375134537
    -0.006523500000000    -0.019577500000000    -0.000666500000000
    -0.001901113061109    -0.000700629786387     0.023915613123644
2 4
     0.023610543308920     0.002801020767802     0.001603887258909
     0.002817500000000    -0.039940500000000     0.000712000000000
     0.001657261454720     0.000794813135629     0.014821607198379
2 5
    -0.058193738365046     0.083255234232756    -0.005246144222232
     0.081964500000000    -0.058773500000000     0.005106000000000
    -0.009122226967859     0.008963743682336     0.013616813448546
2 6
    -0.038978725508903    -0.070223737653300     0.024988427849740
    -0.069100500000000    -0.040302000000000     0.025388500000000
    -0.008630432556197    -0.009094829010948     0.112057780164671
2 7
    -0.039686768200499    -0.069622266268724    -0.024917064776308
    -0.070256000000000    -0.040360000000000    -0.025368500000000
     0.008872221437192     0.008946547687646     0.112340656698414
2 8
    -0.057473761846061     0.082652757059886     0.004888854346560
     0.083255500000000    -0.058836000000000    -0.004958000000000
     0.009115658335157    -0.009299169381505     0.013561904160467
2 9
    -0.032484795355784     0.031389776419870    -0.052234692162236
    -0.029971500000000     0.082301500000000    -0.043926500000000
    -0.049576954747444     0.029715643766452    -0.064763739645208
2 10
    -0.013595709879753     0.026843721721497     0.052346297895096
    -0.025798500000000     0.081193000000000     0.043821000000000
     0.049377176095473    -0.029787540328242    -0.065145643383058
2 11
    -0.013133627807781    -0.009102768562167    -0.005669247832940
     0.007650500000000    -0.028383000000000     0.010762500000000
    -0.004891438052320    -0.010278608019421    -0.009485279534300
2 12
     0.005991130667097    -0.013962731567929     0.005574003013039
     0.011574000000000    -0.029635000000000    -0.010954000000000
     0.005000966452894     0.010273930134578    -0.019021341948380
2 13
    -0.025978440427073     0.009531053345381     0.006757611129336
    -0.008944000000000    -0.010715000000000     0.000252000000000
    -0.016856203209819     0.002041572613915    -0.014883403394422
2 14
     0.075929615200733    -0.029657455010791    -0.032432645725714
     0.028994500000000    -0.037842000000000    -0.053965000000000
     0.042681281306278    -0.055687495744133    -0.062986725207652
2 15
    -0.026364326984804     0.008614498196808    -0.016678892085324
    -0.009887000000000    -0.010746500000000    -0.001706500000000
     0.006622185352384    -0.000069126438860    -0.015006132479015
2 16
     0.075808649903000    -0.028849592001558     0.042522351537277
     0.029842000000000    -0.037876000000000     0.055655500000000
    -0.032536901976866     0.053888948201873    -0.063092458429447
2 17
     0.004537160161247    -0.004111585622604     0.000572384224843
    -0.013952500000000     0.026089500000000     0.006925000000000
     0.006129820216441    -0.003276995238959     0.033842085031462
2 18
    -0.029041375670873     0.085084892429997     0.056404828295336
    -0.023494500000000     0.086711000000000     0.024326500000000
    -0.033514325522606     0.072428193620158     0.069973931186357
2 19
     0.067728522117209    -0.021822759228433    -0.004031369242052
     0.086157000000000    -0.044985500000000    -0.036208500000000
    -0.075700739780109     0.028351965209342     0.100687513045270
2 20
    -0.037602624446299    -0.038512886361513     0.020510705853254
    -0.029562000000000    -0.057380000000000    -0.015599000000000
     0.090920474703443    -0.091333129610748     0.122697915919608
2 21
     0.087917629640741    -0.026080869596217     0.032031028758164
     0.090571000000000    -0.045419000000000     0.048808000000000
     0.081506965030042    -0.033281867806977     0.077646598574931
2 22
    -0.058381550789989    -0.034650981514996    -0.049874690391875
    -0.034179000000000    -0.057353500000000     0.002131000000000
    -0.097626069919299     0.096390870959973     0.145806451518134
2 23
     0.022479664538679    -0.009434879768881     0.015808646834688
    -0.010535500000000     0.023396000000000    -0.005899500000000
     0.006297124039044     0.004601749977334     0.024756210932662
2 24
    -0.047754955137747     0.089910078634515    -0.074110938590665
    -0.027394000000000     0.088981500000000    -0.026186500000000
     0.020854232456362    -0.073537932789675     0.078897649225913
2 25
     0.026848701207024    -0.006457634999298     0.005703228711515
    -0.005663500000000     0.028989500000000    -0.000834500000000
     0.007700480976067    -0.005166767428421    -0.029519733957964
2 26
    -0.035876775671391     0.032199046912507    -0.004106440623163
     0.075390500000000     0.175654500000000    -0.046828500000000
    -0.010550350807585     0.001795069965908    -0.093410344743609
2 27
     0.173600484992057     0.073436730481298     0.048680116596814
     0.030927000000000    -0.039306500000000     0.002092000000000
    -0.000576669578292     0.008820291750977    -0.091221044126044
2 28
    -0.938422810516786     0.301896742577023    -0.031512763175812
     0.304390000000000    -0.939742500000000     0.023278000000000
     0.217766848665319    -0.220358803419401    -0.526760030126217
2 29
     0.172428597224686     0.074199799382949    -0.041717309429934
     0.029551000000000    -0.039073500000000     0.001699500000000
     0.003718844831538    -0.007679220927075    -0.088388671938500
2 30
    -0.937728283638134     0.301255251561105     0.025866668049108
     0.304227000000000    -0.938589500000000    -0.026624000000000
    -0.221345946091679     0.220126571302384    -0.529393020461946
2 31
     0.026029895388810    -0.005972825219506    -0.000082245512739
    -0.006897000000000     0.029097000000000     0.003099500000000
    -0.004004142474603     0.006689482549394    -0.028533138740917
2 32
    -0.035505321911737     0.032131411881291    -0.000440961258070
     0.076176500000000     0.176050000000000     0.045389000000000
     0.006816467167795    -0.003373002574374    -0.094200156049849
2 33
     0.094718265836477    -0.013329431159691     0.052089476878821
    -0.051581000000000    -0.032083500000000    -0.033553000000000
     0.029309756396210    -0.016501676333206    -0.000885601428786
2 34
    -0.101304362823518     0.085944407763162    -0.206238990157352
     0.085702500000000    -0.102126500000000    -0.200602000000000
    -0.128704610851011    -0.118350845644833     0.172608692990912
2 35
     0.029321536967993     0.012432008558330     0.009141849050542
     0.012119000000000     0.030375000000000     0.006650000000000
     0.020551087115498     0.019463979744585    -0.005777434530605
2 36
    -0.030496471006164    -0.051142027066071    -0.045599557528955
    -0.012776000000000     0.095829500000000     0.042008500000000
    -0.018026503099992     0.018101351322214    -0.002201220081187
2 37
     0.023419515433512     0.014644125311704    -0.000530031631659
     0.009695500000000     0.032767500000000    -0.002484500000000
    -0.018546204147846    -0.014340702195461    -0.001210637116997
2 38
    -0.024998586069498    -0.053924109682946     0.037288327995167
    -0.010740500000000     0.092948000000000    -0.045775500000000
     0.015842761292235    -0.023333797847850    -0.006583658264469
2 39
     0.083448039524212    -0.016573683005169    -0.043027898547801
    -0.059511000000000    -0.035084500000000     0.037201000000000
    -0.017624960770756     0.012132615288586     0.003883459914066
2 40
    -0.089899439673772     0.088876705402382     0.197531884622051
     0.093721000000000    -0.099288500000000     0.197346500000000
     0.117129576956425     0.122679766477577     0.167810828206640
2 41
    -0.022042407417207    -0.025790120415647     0.025699078538835
    -0.015488500000000    -0.042693500000000    -0.026677500000000
     0.022680313144525    -0.023744939960036     0.079551945672647
2 42
     0.029547025983276    -0.006046832420401     0.034014936571247
     0.024355500000000    -0.023127000000000     0.011585000000000
    -0.037279098933498     0.006413882384118     0.112391462023081
2 43
     0.001564416173932     0.039474017838164     0.025224202908401
     0.009505500000000     0.054398500000000     0.001719000000000
    -0.003208310227340     0.038955382885022     0.065175382369425
2 44
     0.002272045844886     0.003855439516578    -0.000542279601559
    -0.006063000000000     0.023202000000000    -0.002021500000000
     0.001754599692532    -0.002314942970599     0.027571942971980
2 45
     0.025372375138490     0.004407548071194     0.021051229220546
     0.005010500000000     0.025630000000000     0.005820500000000
     0.014357409774503     0.001839779654459     0.027909310855288
2 46
    -0.021822338051644     0.039242987149889    -0.046308801963171
    -0.001773000000000     0.052283000000000    -0.005733000000000
    -0.012938024775259    -0.038765502609142     0.064989866361509
2 47
     0.051391917245554    -0.002022529760166     0.024120690784275
     0.038933000000000    -0.022031000000000     0.030707000000000
     0.054241816284890    -0.001138989637961     0.064711368001378
2 48
    -0.044146538914642    -0.029506016059864    -0.084342673889081
    -0.030278000000000    -0.043535500000000    -0.015768500000000
    -0.039761985572864     0.018522311166186     0.127301928458681
2 49
     0.093182284360858    -0.024205563317957    -0.038251908830963
    -0.022008500000000    -0.034434500000000     0.034397000000000
    -0.008254412060639     0.016713524640831    -0.015646759432664
2 50
    -0.303818147001280    -0.090780886994515    -0.133563410748329
    -0.092277000000000    -0.292476500000000    -0.130355500000000
    -0.158714938229566    -0.148766436841255    -0.302767713405186
2 51
     0.038283096489620     0.021911605597028     0.008541705291540
     0.022060500000000     0.043179000000000     0.006410500000000
    -0.034580711392342    -0.034231928087006    -0.011279540162011
2 52
    -0.032098040838560    -0.019163762759730     0.035212344624201
    -0.023481000000000     0.099315000000000    -0.041701500000000
     0.017573985675418    -0.010056398871174    -0.025083772910689
2 53
     0.042806487930732     0.022682901772843     0.000124595055054
     0.022943500000000     0.043237000000000    -0.004358500000000
     0.037810686965549     0.034513413836406    -0.015498530567579
2 54
    -0.036224551171009    -0.020113740952322    -0.043986048109439
    -0.023949500000000     0.099079500000000     0.039652000000000
    -0.021094591463868     0.009914839996813    -0.020977314071744
2 55
     0.097232298934317    -0.023834429922114     0.047361519886430
    -0.021411500000000    -0.034645500000000    -0.032703500000000
     0.011439895298044    -0.016454173101127    -0.018376089608290
2 56
    -0.307754926803471    -0.091654103187697     0.124652646013746
    -0.093030500000000    -0.292629500000000     0.129259500000000
     0.155898185727233     0.149144578147352    -0.300598621924594
2 57
     0.002439219755807    -0.005066864675387    -0.010377386532035
    -0.000429500000000    -0.012664000000000     0.024552500000000
    -0.010725867010926     0.005179368846933    -0.014793672805653
2 58
    -0.005266575237483    -0.012205478345503    -0.023224041578662