88   
66   

1    
  0.0099999999965866   0.0000000000000000  -0.0000002612796011
  -0.0417175000    0.0114999300   -0.0001198200
   0.0004228700   -0.0000270100   -0.0000061100
  -0.0001798100   -0.0000040900   -0.0000431400
   0.0002402500    0.0000917500   -0.0000060200
   0.0003427900    0.0007194000   -0.0002370100
   0.0005304200   -0.0008219900    0.0000662700
   0.0005226700   -0.0008092500   -0.0000336600
   0.0003458500    0.0007188900    0.0002619900
   0.0001862900   -0.0002485800   -0.0005382800
   0.0003763300   -0.0002971600    0.0005103900
  -0.0000080000    0.0001576400   -0.0000714000
   0.0001784600    0.0001080800    0.0000382100
  -0.0008181700    0.0003264400    0.0003518900
   0.0001991400   -0.0000666200   -0.0000399300
  -0.0008169200    0.0003143200   -0.0003984200
   0.0001991400   -0.0000629700    0.0002000500
   0.0004608500   -0.0008852100   -0.0006352800
   0.0001121200    0.0000297000   -0.0000790000
   0.0005302500    0.0003768000   -0.0002791100
  -0.0005008900    0.0001771700   -0.0000355800
   0.0004496900    0.0003746700    0.0004199000
  -0.0010113700    0.0002883600   -0.0003995500
   0.0003372500   -0.0008690400    0.0006654000
  -0.0003782300    0.0001400500   -0.0002303300
   0.0004987100   -0.0002806700    0.0001188200
  -0.0001241100    0.0000950700    0.0000134000
   0.0093343600   -0.0027741000    0.0004506500
  -0.0015954000   -0.0006909000   -0.0004156800
   0.0093893900   -0.0032430500   -0.0001241400
  -0.0018601200   -0.0007465700    0.0004884200
   0.0001946200   -0.0003310800    0.0000823100
  -0.0004244700    0.0000410900    0.0000754900
   0.0009583300   -0.0009789500    0.0021711400
  -0.0009946400    0.0000183700   -0.0003982800
   0.0002581100    0.0003944800    0.0005727800
  -0.0003358400   -0.0002466800    0.0000207400
   0.0003274800    0.0006707800   -0.0001685500
  -0.0001658500   -0.0000115700    0.0002115300
   0.0009727400   -0.0007535300   -0.0017694500
  -0.0007586400    0.0002962300    0.0006265000
  -0.0003760000    0.0001864100   -0.0005513000
   0.0001463500    0.0003965100   -0.0004621000
  -0.0000985700    0.0000964800   -0.0001997500
  -0.0000940500   -0.0002646900   -0.0004609100
   0.0002636700   -0.0005083400    0.0003560400
  -0.0002087400   -0.0001639100   -0.0003230200
   0.0004831600    0.0001745600    0.0007289600
  -0.0004706500   -0.0001006200   -0.0003518100
   0.0029966000    0.0008465200    0.0013737300
  -0.0009438200    0.0002161700    0.0004699000
   0.0003128700    0.0001632900   -0.0002684700
  -0.0003855700   -0.0002407000    0.0000005900
   0.0003669700    0.0001753400    0.0003557400
  -0.0004213200   -0.0002500600   -0.0000852300
   0.0031217100    0.0009230800   -0.0013696300
  -0.0009645900    0.0002140800   -0.0005551300
  -0.0002169500    0.0001459700    0.0003195500
  -0.0002821500    0.0000558900    0.0001874900
  -0.0002943300   -0.0000772000   -0.0000944600
  -0.0001970100   -0.0001722000    0.0010975600
   0.0000416000   -0.0002497900   -0.0012200500
   0.0003962700   -0.0000693700    0.0006085300
   0.0000322400    0.0001011300   -0.0003503700
   0.0004229900    0.0000198500    0.0002279600
  -0.0004780100    0.0004644400   -0.0000617100
  -0.0000345300   -0.0001115500    0.0000196900
  -0.0006627800   -0.0016669000   -0.0051190300
   0.0005443900    0.0001180200    0.0003998400
  -0.0001789000   -0.0016205900    0.0047049000
   0.0010035800    0.0001458300   -0.0003722200
   0.0000041300    0.0004978800   -0.0002297400
   0.0004180600   -0.0000686800   -0.0001022500
   0.0134236400    0.0004002100   -0.0004268100
   0.0136968900    0.0004003600    0.0005563400
   0.0000485000    0.0000658800    0.0000709400
   0.0000570100    0.0000879200    0.0000793500
  -0.0047129700   -0.0017687000   -0.0011131900
   0.0007875800    0.0001599100    0.0001618300
  -0.0047018300   -0.0018310300    0.0009381600
   0.0007936000    0.0001570300   -0.0002059200
  -0.0018211700   -0.0011502600   -0.0000098300
   0.0007425800    0.0000712100    0.0001228800
  -0.0006362900    0.0003525100   -0.0000490200
   0.0002600200    0.0000426000    0.0001672900
  -0.0002177200   -0.0001651300   -0.0003780200
   0.0012859800    0.0006431400    0.0008574100
   0.0009294300    0.0006534600   -0.0010249200
   0.0001400200   -0.0001861400    0.0002630500

1    
 -0.0099999999965866   0.0000000000000000   0.0000002612796011
   0.0418638100   -0.0114695000   -0.0000330600
  -0.0003079500    0.0000769200   -0.0000505700
   0.0002924000    0.0000519300   -0.0000110700
  -0.0001099900   -0.0000417100   -0.0000483800
  -0.0004367800   -0.0006850700    0.0002627000
  -0.0006334500    0.0008431100   -0.0000386600
  -0.0006268100    0.0008438100    0.0000641100
  -0.0004478900   -0.0006735600   -0.0002364100
  -0.0000856500    0.0002883100    0.0005086800
  -0.0002733400    0.0003306200   -0.0005342700
   0.0001118200   -0.0001216200    0.0000400900
  -0.0000842100   -0.0000739700   -0.0000751700
   0.0007004000   -0.0002666800   -0.0002967300
  -0.0003204200    0.0001240000    0.0000952300
   0.0006992700   -0.0002627000    0.0004520600
  -0.0003281500    0.0001093200   -0.0001335200
  -0.0001199600    0.0008164500    0.0004927800
   0.0002028600   -0.0000525300   -0.0000675700
  -0.0002218500   -0.0003934100    0.0001310400
   0.0008537200   -0.0002593000   -0.0001162600
  -0.0007178900   -0.0003184000   -0.0005776700
   0.0007469400   -0.0002332400    0.0002410300
  -0.0006178600    0.0009292000   -0.0008168600
   0.0000713600   -0.0000486500    0.0000858300
  -0.0002188200    0.0003633100    0.0000367400
   0.0004128600   -0.0000340800    0.0001274800
  -0.0094342100    0.0032639500   -0.0001793300
   0.0018766100    0.0007778300    0.0005579700
  -0.0093650600    0.0027819400    0.0003934700
   0.0015884500    0.0007374300   -0.0003458800
  -0.0005154900    0.0003115500    0.0000735400
   0.0000961300   -0.0000783700    0.0000738600
  -0.0010676900    0.0007400000   -0.0019537300
   0.0008997100   -0.0002482100    0.0006435100
  -0.0003518100   -0.0006283700   -0.0003392100
   0.0002505800    0.0000019500    0.0002035800
  -0.0001725000   -0.0004076900    0.0005772200
   0.0003025500    0.0002813200    0.0002009300
  -0.0008253100    0.0010239400    0.0021811000
   0.0009103300   -0.0000352500   -0.0002340600
   0.0002149600    0.0000654700    0.0001289400
  -0.0002945100   -0.0001192800    0.0000518400
  -0.0000531300    0.0001735900   -0.0002106100
  -0.0000627600    0.0005247700    0.0000435400
  -0.0001727700    0.0002765400   -0.0005701700
   0.0002987000   -0.0000757600    0.0000979900
  -0.0003997500   -0.0004155700   -0.0009579600
   0.0005571600   -0.0001410700    0.0001305700
  -0.0030796800   -0.0009690200   -0.0012973800
   0.0009198300   -0.0002679500   -0.0002951300
  -0.0003291000   -0.0002199800    0.0004357900
   0.0003801100    0.0001975500    0.0001714300
  -0.0003575100   -0.0002269400   -0.0005239700
   0.0004347900    0.0002035800   -0.0000827300
  -0.0030334700   -0.0009100800    0.0011235800
   0.0009800500   -0.0002626000    0.0003921100
  -0.0003222900   -0.0000981400   -0.0001449100
  -0.0002333600   -0.0000454500   -0.0000200500
  -0.0002130700    0.0000844000    0.0002659500
  -0.0003584600    0.0002288600   -0.0009152300
   0.0003682800    0.0002070900    0.0014449800
  -0.0000006400    0.0000405500   -0.0003788000
   0.0003828500   -0.0001387500    0.0005749100
   0.0000138600   -0.0000776500   -0.0000032500
   0.0000626800   -0.0005108300   -0.0001644300
  -0.0003763500    0.0000624900   -0.0002341900
   0.0002568300    0.0016277200    0.0048698900
  -0.0009804900   -0.0001769300   -0.0006214200
   0.0007236100    0.0016643800   -0.0048736800
  -0.0005117600   -0.0001535800    0.0002115300
   0.0005121700   -0.0004741500    0.0000601100
   0.0001055900    0.0000934600   -0.0000645200
  -0.0137404200   -0.0003700100    0.0005488400
  -0.0134954500   -0.0004272300   -0.0004234100
  -0.0001253200   -0.0000693800    0.0000797400
  -0.0001366600   -0.0000931500    0.0000653100
   0.0047739700    0.0017572600    0.0009884400
  -0.0007105900   -0.0002147800   -0.0002440000
   0.0047827500    0.0016927000   -0.0010537800
  -0.0007033200   -0.0002201900    0.0000839400
   0.0017441100    0.0010893700    0.0001307100
  -0.0007988100   -0.0001499000   -0.0000257400
   0.0005694400   -0.0004254200    0.0001547700
  -0.0003483300   -0.0001051600   -0.0000447200
   0.0002843000    0.0001583900    0.0002528000
  -0.0012064400   -0.0006499800   -0.0009933900
  -0.0008505800   -0.0006749100    0.0008823600
  -0.0000677700    0.0001710700   -0.0004011600

1    
  0.0000000000000000   0.0100000000000000   0.0000000000000000
   0.0115757400   -0.0416336800   -0.0000763200
   0.0000084600   -0.0002567200   -0.0000195700
   0.0000288200    0.0004214800   -0.0000308500
   0.0001293400    0.0002213800   -0.0000180400
   0.0006400800    0.0004238900   -0.0002400000
  -0.0008735600    0.0006081000   -0.0000351200
  -0.0008931900    0.0006070200    0.0000655900
   0.0006540900    0.0004239500    0.0002678000
   0.0003095100   -0.0007929900   -0.0004545300
   0.0003494500   -0.0008056100    0.0004254100
  -0.0000639800    0.0003149600    0.0000929000
  -0.0000283100    0.0003000800   -0.0001251300
  -0.0003502300    0.0004078500    0.0005655000
   0.0000275800    0.0001360400    0.0000216700
  -0.0003558900    0.0004042000   -0.0005318100
   0.0000341500    0.0001289000    0.0000440800
   0.0004059000   -0.0009039800   -0.0003161300
   0.0002969800   -0.0002709600   -0.0001436800
   0.0004492900    0.0005655900    0.0000805700
  -0.0006883000    0.0004095300    0.0002860200
   0.0002078300    0.0006004000   -0.0001002900
  -0.0010347400    0.0004816700   -0.0005669500
   0.0001323100   -0.0008584400    0.0001842400
  -0.0000477000   -0.0001872600   -0.0000145300
  -0.0006130300   -0.0017083800    0.0005447100
   0.0001986300   -0.0002606900    0.0000788400
  -0.0030899900    0.0096301500   -0.0000985900
  -0.0001630100    0.0004376700    0.0000532600
  -0.0030149400    0.0091520200    0.0004037800
  -0.0004366000    0.0003845700    0.0000569000
  -0.0009236000   -0.0017754400   -0.0003776000
  -0.0000937100   -0.0003089600    0.0000444000
  -0.0009049800    0.0008944000    0.0021147300
   0.0004675300    0.0002053200    0.0004596000
   0.0000807200   -0.0010752200   -0.0003058600
  -0.0001645600   -0.0004262200    0.0000452700
   0.0001846300   -0.0007973900    0.0006599600
  -0.0000282700   -0.0001927600    0.0002301800
  -0.0008702500    0.0011352900   -0.0017679600
   0.0006710700    0.0004820400   -0.0001745500
  -0.0003234600    0.0003581100   -0.0003277200
   0.0000804900    0.0005659800    0.0000621600
  -0.0000152100   -0.0000963500   -0.0001844000
  -0.0001738700   -0.0004122000   -0.0002248600
   0.0000636700   -0.0006400000   -0.0000488300
  -0.0000052200   -0.0003763500   -0.0001707200
   0.0003445300    0.0003141600    0.0000427900
  -0.0003470000    0.0000991000   -0.0004188100
   0.0008829400    0.0028636300    0.0013426800
   0.0002113400    0.0003185000   -0.0002577500
   0.0002270300   -0.0010242100    0.0005014700
  -0.0002232600   -0.0004534200    0.0000216200
   0.0002439900   -0.0010142700   -0.0004796700
  -0.0002231200   -0.0004558000   -0.0000407700
   0.0009703000    0.0029349100   -0.0014156900
   0.0002189500    0.0003216800    0.0002445800
  -0.0002652800    0.0002770000    0.0002227300
  -0.0002538400    0.0001311800   -0.0001608200
  -0.0002937800   -0.0001550300    0.0001121300
  -0.0003650600   -0.0000600900    0.0010011800
  -0.0000466000   -0.0001339400   -0.0009562200
   0.0003225900   -0.0001553400    0.0002309400
   0.0001486900    0.0001719500    0.0002109900
   0.0002926800    0.0001498300    0.0001043900
  -0.0000548900    0.0007559100   -0.0005216200
  -0.0002997000    0.0001633100   -0.0000745500
  -0.0018305200   -0.0005467800    0.0045472600
   0.0002659200   -0.0003312300   -0.0002023600
  -0.0013441300   -0.0004780400   -0.0048831800
   0.0007386900   -0.0003041100    0.0001581500
   0.0004202000    0.0007824800    0.0003067500
   0.0001553500    0.0002085100   -0.0000780000
  -0.0017561900   -0.0048328600   -0.0009846100
  -0.0018026700   -0.0048296500    0.0011138100
   0.0001205300    0.0007868200    0.0002508600
   0.0001444600    0.0007940600   -0.0001018800
   0.0004656400    0.0134203400   -0.0006088700
   0.0001018600    0.0000812700   -0.0000413500
   0.0004561900    0.0136864500    0.0004665100
   0.0000971800    0.0000730900   -0.0000337200
  -0.0010787300   -0.0021527800    0.0000545900
   0.0003362400   -0.0009763400    0.0000563600
   0.0001309800    0.0008038900    0.0000244800
   0.0000031300    0.0003392200    0.0000899800
  -0.0001954900    0.0000610400    0.0001720400
   0.0007178800    0.0011920200    0.0007903600
   0.0006454900    0.0012035200   -0.0009664700
  -0.0001221700    0.0000490200   -0.0002738300

1    
  0.0000000000000000  -0.0100000000000000   0.0000000000000000
  -0.0113910700    0.0417306900   -0.0000596700
   0.0001081500    0.0003056700   -0.0000313300
   0.0000851700   -0.0003773300   -0.0000166100
  -0.0000011300   -0.0001701700   -0.0000313700
  -0.0007419300   -0.0003821500    0.0002677700
   0.0007657300   -0.0005673700    0.0000670000
   0.0007719200   -0.0005697000   -0.0000335700
  -0.0007510300   -0.0003832500   -0.0002395700
  -0.0002064600    0.0008308700    0.0004218900
  -0.0002499800    0.0008404200   -0.0004531200
   0.0001675000   -0.0002777400   -0.0001261800
   0.0001247000   -0.0002675800    0.0000901200
   0.0002296600   -0.0003489900   -0.0005138000
  -0.0001513000   -0.0000782600    0.0000267100
   0.0002409500   -0.0003533200    0.0005813000
  -0.0001635900   -0.0000860300    0.0000099500
  -0.0000639900    0.0008302400    0.0001704000
   0.0000179300    0.0002508300   -0.0000051800
  -0.0001419500   -0.0005820100   -0.0002314100
   0.0010348400   -0.0004901800   -0.0004381500
  -0.0004757500   -0.0005466700   -0.0000576700
   0.0007766800   -0.0004267100    0.0004092100
  -0.0004155700    0.0009211900   -0.0003394900
  -0.0002584100    0.0002806600   -0.0001325200
   0.0008947800    0.0018047100   -0.0003918600
   0.0000853600    0.0003191000    0.0000621500
   0.0029978100   -0.0091647000    0.0003669700
   0.0004555300   -0.0003484600    0.0000951000
   0.0030696000   -0.0096197700   -0.0001287000
   0.0001544200   -0.0003969000    0.0000908900
   0.0005999300    0.0017455600    0.0005301800
  -0.0002316500    0.0002729800    0.0001063900
   0.0008090700   -0.0011481300   -0.0018973100
  -0.0005640900   -0.0004363500   -0.0002114600
  -0.0001748000    0.0008413700    0.0005343100
   0.0000778200    0.0001812800    0.0001782700
  -0.0000301800    0.0010615700   -0.0002555500
   0.0001656400    0.0004625900    0.0001804900
   0.0010041700   -0.0008504800    0.0021789700
  -0.0005191500   -0.0002196500    0.0005694700
   0.0001636500   -0.0001044300   -0.0000960200
  -0.0002292800   -0.0002878900   -0.0004713900
  -0.0001364700    0.0003676900   -0.0002248300
   0.0000162400    0.0006757700   -0.0001904800
   0.0000282100    0.0004056600   -0.0001634900
   0.0000949900    0.0001362500   -0.0000543100
  -0.0002610300   -0.0005565500   -0.0002725800
   0.0004316600   -0.0003415200    0.0001953300
  -0.0009626000   -0.0029859000   -0.0012644300
  -0.0002288300   -0.0003701900    0.0004301900
  -0.0002425900    0.0009620900   -0.0003325600
   0.0002179500    0.0004101600    0.0001498300
  -0.0002350000    0.0009673200    0.0003133700
   0.0002357500    0.0004089400   -0.0001279400
  -0.0008903100   -0.0029176800    0.0011695000
  -0.0002092800   -0.0003712300   -0.0004094900
  -0.0002760700   -0.0002302700   -0.0000487500
  -0.0002624300   -0.0001221000    0.0003302300
  -0.0002139600    0.0001640200    0.0000567500
  -0.0001932000    0.0001194200   -0.0008206300
   0.0004618100    0.0000866700    0.0011728600
   0.0000755500    0.0001235000   -0.0000085300
   0.0002672900   -0.0002095700    0.0000093500
   0.0001471800   -0.0002106600    0.0001135600
  -0.0003656500   -0.0008020600    0.0003088300
  -0.0001102700   -0.0002127800   -0.0001324900
   0.0014044700    0.0004891500   -0.0047730400
  -0.0006970200    0.0002704900   -0.0000168700
   0.0019054000    0.0005375200    0.0046990500
  -0.0002442700    0.0003016500   -0.0003262600
   0.0000953500   -0.0007643800   -0.0004689000
   0.0003677600   -0.0001847500   -0.0000869500
   0.0017567500    0.0048331200    0.0011050300
   0.0016578000    0.0048217700   -0.0009818000
  -0.0002038300   -0.0007903400   -0.0001047800
  -0.0002216200   -0.0007958500    0.0002453000
  -0.0003744800   -0.0137612700    0.0004801400
  -0.0000165900   -0.0001438800   -0.0000443300
  -0.0003966500   -0.0134897900   -0.0005873000
  -0.0000185800   -0.0001477900   -0.0000778700
   0.0009964300    0.0020836700    0.0000659000
  -0.0004002600    0.0008912600    0.0000467100
  -0.0002029500   -0.0008815900    0.0000838000
  -0.0000905200   -0.0004100300    0.0000285000
   0.0002650400   -0.0000663500   -0.0002946000
  -0.0006346200   -0.0012061900   -0.0009301200
  -0.0005686700   -0.0012176600    0.0008197500
   0.0001924000   -0.0000612100    0.0001437800

1    
 -0.0026255722762348   0.0000000000000000   0.0096491642240283
   0.0110187800   -0.0031438800   -0.0139792000
  -0.0000175900    0.0000429100   -0.0001668500
   0.0001014700    0.0000252600   -0.0001762400
   0.0000338300    0.0000182000   -0.0002749700
  -0.0000704600   -0.0000781100   -0.0010112700
  -0.0001207700    0.0001481300   -0.0001395300
  -0.0002908800    0.0003195300   -0.0001123500
  -0.0002394800   -0.0002497000   -0.0011427400
  -0.0004583900    0.0003773900    0.0007581700
   0.0004443700   -0.0001898500    0.0004822300
   0.0000188500   -0.0001162700    0.0001913400
   0.0000618400    0.0000898300    0.0000706100
  -0.0002742500    0.0004868300    0.0005604300
   0.0000348200    0.0000357100    0.0002033000
   0.0004553400   -0.0005668400    0.0007587100
  -0.0001941200    0.0000488400    0.0001422300
   0.0004164300   -0.0005130500   -0.0005929600
   0.0001084100    0.0000102000   -0.0003927600
  -0.0008181900    0.0007700900   -0.0011973100
   0.0010816700   -0.0003729400   -0.0010528300
   0.0006569600   -0.0009879500   -0.0016114200
  -0.0006830100    0.0002804900   -0.0007381100
  -0.0004646600    0.0009759300   -0.0010252200
  -0.0001507100   -0.0000232200   -0.0002639600
   0.0001410700    0.0001091800    0.0009677300
   0.0001361900    0.0000647100    0.0003625000
  -0.0044674900    0.0030132300    0.0050697000
   0.0006018700    0.0001545600    0.0010750100
  -0.0005188900   -0.0013473100    0.0052348600
   0.0002783400    0.0002614200    0.0008126900
  -0.0003148600    0.0001051500    0.0009797100
  -0.0000540500   -0.0001000600    0.0003442400
   0.0009266900    0.0012501600   -0.0020900000
  -0.0000809900    0.0000078400    0.0002689500
   0.0000466700   -0.0004270900    0.0000184600
  -0.0001647000   -0.0002795200    0.0001916200
  -0.0001402300    0.0002168000    0.0003652200
   0.0003103100    0.0003137900    0.0002162000
  -0.0013030100   -0.0008150700   -0.0008834200
   0.0004665300   -0.0000289300    0.0000486800
   0.0003588700    0.0000495000   -0.0012067800
  -0.0003529300    0.0003006900   -0.0009056600
  -0.0000872400    0.0001684600   -0.0004729300
  -0.0000433100   -0.0001398900   -0.0007700000
   0.0001129300    0.0003616900   -0.0008571800
  -0.0000269200   -0.0001276600   -0.0003258900
   0.0003089200   -0.0003802500   -0.0015659000
  -0.0003446500   -0.0001155400   -0.0006726600
   0.0006994900    0.0011439300    0.0026213100
   0.0003141500   -0.0002523400    0.0001365900
  -0.0002614000    0.0000183400    0.0004170700
   0.0004302300    0.0003650100    0.0002171300
   0.0001155100   -0.0001747700    0.0000018000
  -0.0002462200   -0.0002974100    0.0000667100
  -0.0022190600   -0.0016214600    0.0030543500
   0.0001509800    0.0000718700    0.0002195100
  -0.0004415700   -0.0000169000    0.0004122900
  -0.0001458700   -0.0000579400    0.0001992400
  -0.0001753100   -0.0000169800    0.0007717800
  -0.0004706700    0.0000165500    0.0017720900
   0.0001982700    0.0002515600    0.0027027400
   0.0003059700   -0.0001019700    0.0003296500
   0.0001745200   -0.0001160200    0.0005839700
   0.0002938800    0.0000806500    0.0002466400
  -0.0000689900   -0.0009979300   -0.0002971500
  -0.0002443300    0.0000094200   -0.0000890800
  -0.0034511600    0.0037617500    0.0050733900
   0.0004486600   -0.0001738700   -0.0004135700
   0.0037043100   -0.0028507800    0.0022931400
  -0.0007711900    0.0000386300    0.0000183300
   0.0002272600    0.0007161400   -0.0002229400
   0.0002430300    0.0000283100   -0.0000309100
  -0.0035677000   -0.0008842800   -0.0030852800
  -0.0036370300    0.0006728700   -0.0032957500
  -0.0001424400    0.0000589500   -0.0002685800
   0.0000147000   -0.0001029800   -0.0002794000
   0.0004713000    0.0004290300   -0.0030332600
  -0.0000420600   -0.0001586800   -0.0004257000
   0.0020216800    0.0004372000   -0.0035780800
  -0.0002098100   -0.0000099400   -0.0003414500
   0.0003253300    0.0002835500    0.0045167900
  -0.0001217400   -0.0000871200    0.0002255500
   0.0000076800   -0.0001523300    0.0001873700
  -0.0000065300   -0.0000335700    0.0004207500
  -0.0003032100    0.0003545400    0.0002201800
   0.0005302800    0.0005202900    0.0013088600
  -0.0010430100   -0.0008910600    0.0018757400
   0.0004526600   -0.0002636400   -0.0000262800

1    
  0.0026255722762348   0.0000000000000000  -0.0096491642240283
  -0.0108336500    0.0028942900    0.0140911300
   0.0001345300    0.0000084900    0.0000859400
   0.0000094700    0.0000258900    0.0001013700
   0.0000891000    0.0000397200    0.0001976800
  -0.0000323300    0.0001151300    0.0010200400
   0.0000087700   -0.0001160700    0.0001508000
   0.0001868400   -0.0002939500    0.0001237000
   0.0001401400    0.0002885500    0.0011560900
   0.0005659000   -0.0003384200   -0.0007739100
  -0.0003418000    0.0002187800   -0.0004933100
   0.0000839000    0.0001553200   -0.0002050100
   0.0000364100   -0.0000607300   -0.0000826700
   0.0001507100   -0.0004321100   -0.0004848000
  -0.0001540600    0.0000250600   -0.0001194100
  -0.0005706500    0.0006246200   -0.0006821600
   0.0000721200    0.0000022700   -0.0000597800
  -0.0000778400    0.0004379000    0.0004612300
   0.0002028800   -0.0000314500    0.0002573300
   0.0011338800   -0.0007902500    0.0010628500
  -0.0007348800    0.0002888000    0.0009114400
  -0.0009204900    0.0010541900    0.0014643000
   0.0004282700   -0.0002248400    0.0005921400
   0.0001885600   -0.0009153600    0.0008865400
  -0.0001472300    0.0001151300    0.0001307800
   0.0001258600   -0.0000252600   -0.0008133700
   0.0001438100   -0.0000010900   -0.0002371300
   0.0046628400   -0.0028246300   -0.0049304100
  -0.0003208600   -0.0000608500   -0.0009410300
   0.0001336500    0.0013188300   -0.0051173700
  -0.0005553400   -0.0002764100   -0.0006740000
   0.0000031300   -0.0001286700   -0.0008358800
  -0.0002680100    0.0000604000   -0.0002059700
  -0.0010251300   -0.0014851200    0.0023240500
  -0.0000127400   -0.0002406200   -0.0000216700
  -0.0001410700    0.0001907900    0.0002154300
   0.0000779300    0.0000308200    0.0000321200
   0.0002967800    0.0000496600    0.0000423600
  -0.0001705800   -0.0000398600    0.0001956200
   0.0014294700    0.0010857400    0.0013177800
  -0.0003118000    0.0002922400    0.0003495700
  -0.0005157100    0.0002050300    0.0007835700
   0.0002005100   -0.0000221200    0.0004946100
  -0.0000653100    0.0001035400    0.0000620100
  -0.0001134400    0.0004046000    0.0003553200
  -0.0000221600   -0.0005924900    0.0006401900
   0.0001169200   -0.0001153000    0.0001021700
  -0.0002266000    0.0001321400    0.0013337100
   0.0004322600   -0.0001269000    0.0004495000
  -0.0007680500   -0.0012503100   -0.0025202400
  -0.0003344600    0.0001973100    0.0000355000
   0.0002463000   -0.0000751000   -0.0002519100
  -0.0004381500   -0.0004106700   -0.0000454000
  -0.0001013600    0.0001221900   -0.0001720500
   0.0002586800    0.0002495300   -0.0002330400
   0.0024055800    0.0017380700   -0.0034012700
  -0.0001388300   -0.0001205100   -0.0003838200
  -0.0001001800    0.0000631900   -0.0002350700
  -0.0003656700    0.0000686200   -0.0000317600
  -0.0003275100    0.0000303400   -0.0006075300
  -0.0000816200    0.0000462800   -0.0015952200
   0.0002223600   -0.0002993600   -0.0024795400
   0.0000927000    0.0000648800   -0.0001148700
   0.0002373000    0.0000749200   -0.0003721500
   0.0001456800   -0.0001462100   -0.0000314200
  -0.0003552900    0.0009301100    0.0000839100
  -0.0001708300   -0.0000641800   -0.0001116700
   0.0029732100   -0.0037486400   -0.0052384800
  -0.0008834300    0.0001005800    0.0002034700
  -0.0031134600    0.0028715300   -0.0024606700
   0.0012540200   -0.0000407100   -0.0001881300
   0.0002858900   -0.0006907300    0.0000535000
   0.0002787200   -0.0000006700   -0.0001327300
   0.0035447000    0.0009002200    0.0031965700
   0.0035199800   -0.0006891100    0.0034777700
   0.0000626800   -0.0000596800    0.0004237200
  -0.0000977300    0.0001000700    0.0004288700
  -0.0004030400   -0.0004414700    0.0029150300
   0.0001168200    0.0001075800    0.0003442900
  -0.0019604200   -0.0005616100    0.0034686700
   0.0002868900   -0.0000539800    0.0002322600
  -0.0004009600   -0.0003450800   -0.0044853000
   0.0000758200    0.0000136600   -0.0001302100
  -0.0000684800    0.0000849200   -0.0000855300
  -0.0000714000   -0.0000252600   -0.0003093300
   0.0003785700   -0.0003634100   -0.0003596100
  -0.0004416000   -0.0005295300   -0.0014529100
   0.0011232100    0.0008718800   -0.0020250600
  -0.0003796000    0.0002548400   -0.0001220900

5    
  0.0099999999965866   0.0000000000000000  -0.0000002612796011
   0.0004368200    0.0006912500    0.0001265200
   0.0006727400   -0.0007869700    0.0001377600
   0.0006769100   -0.0008205300   -0.0000738800
   0.0004292500    0.0007245500   -0.0000774300
  -0.0404224800    0.0179722900   -0.0000626700
   0.0004323800   -0.0000675400    0.0000459100
  -0.0003590000   -0.0000273600   -0.0000046500
   0.0001548200    0.0000692500    0.0000378600
   0.0003015200   -0.0000484200    0.0001541100
  -0.0005132700    0.0002445300   -0.0004360100
   0.0003130800   -0.0000591900   -0.0000909400
  -0.0005285300    0.0002496800    0.0002594700
   0.0000754900   -0.0002275600   -0.0005263000
   0.0002712200   -0.0002759400    0.0004856900
  -0.0001131900    0.0001552000   -0.0000622400
   0.0000763600    0.0001067500    0.0000294800
   0.0007272900    0.0001339500    0.0004993500
  -0.0006279500    0.0001963100   -0.0003408900
   0.0006125600   -0.0008815800    0.0006316000
  -0.0000053100    0.0000138400   -0.0001974700
  -0.0007558600    0.0002648100   -0.0000763100
   0.0001681100    0.0003364100   -0.0002079900
  -0.0001746600    0.0001054900   -0.0000507000
   0.0000566900   -0.0006433800   -0.0004987400
   0.0102270700   -0.0037729000   -0.0008378900
  -0.0015222000   -0.0007456200    0.0003590200
   0.0005439500   -0.0002002900    0.0002368000
  -0.0001577500    0.0001617000    0.0000335900
  -0.0018962800   -0.0009478000   -0.0003444200
   0.0094932100   -0.0035013800    0.0010116400
  -0.0004874100    0.0000016700   -0.0000081800
   0.0001832900   -0.0003632400   -0.0001337200
   0.0014166900   -0.0009253300   -0.0011918900
  -0.0009575700    0.0000891200    0.0006226400
   0.0002121300    0.0004434500   -0.0002839100
  -0.0004214500   -0.0003596300    0.0001529600
  -0.0009049000    0.0003805100   -0.0003219900
   0.0016298800   -0.0005848400    0.0016338500
  -0.0003368700   -0.0000101800    0.0001525100
   0.0004197500    0.0007360400    0.0007456700
   0.0004265900    0.0004723600    0.0006254100
  -0.0006742100    0.0002035900   -0.0005193000
   0.0001336500   -0.0003212700    0.0003338100
  -0.0003545700    0.0001360000   -0.0004527500
   0.0003908400    0.0001211900   -0.0004466700
  -0.0003418900   -0.0000680200   -0.0004076600
   0.0000874300   -0.0006654500   -0.0005266100
  -0.0000174700   -0.0001680400   -0.0001289200
   0.0008789500   -0.0011541500    0.0012110000
  -0.0008457700    0.0001947700   -0.0004362600
   0.0003456800    0.0002474100    0.0005617700
  -0.0003379400   -0.0002609700    0.0000492000
  -0.0009306400    0.0002261800    0.0003375200
   0.0006623800   -0.0011731900   -0.0011545800
  -0.0004036200   -0.0002348700   -0.0001297600
   0.0001830200    0.0002411500   -0.0004629000
  -0.0007462900   -0.0004374500   -0.0015144400
  -0.0000201400   -0.0000321300    0.0005865700
  -0.0005110800    0.0002008100   -0.0004321800
  -0.0001010900    0.0000917400    0.0002074300
  -0.0000129600   -0.0005217100    0.0013068100
   0.0003367400   -0.0001784300   -0.0002327800
   0.0001106200    0.0000408900    0.0001866200
   0.0004052800   -0.0000131200    0.0001680600
   0.0002056500   -0.0025098600    0.0048617800
   0.0006809500    0.0000396600   -0.0003046600
  -0.0004346600    0.0008935300   -0.0002888900
  -0.0001215000   -0.0002697100   -0.0000693000
   0.0012864200    0.0001605500    0.0004444400
   0.0007097700   -0.0023483000   -0.0051301700
   0.0004664200   -0.0001423000    0.0000997300
   0.0000896200    0.0010192000    0.0001320800
  -0.0048516300   -0.0017706300    0.0010515900
   0.0007456400    0.0001981400   -0.0000041900
  -0.0048512600   -0.0017094100   -0.0008297300
   0.0007437000    0.0001978300    0.0003214900
   0.0132782600    0.0004486300   -0.0010184500
   0.0130482800    0.0004564000    0.0009154300
   0.0001082700    0.0000498600   -0.0000694300
   0.0001140300    0.0000222400   -0.0000221900
   0.0007138300    0.0006310900   -0.0008133300
   0.0000766500   -0.0001433400    0.0003626500
  -0.0003309800   -0.0001449100   -0.0002591700
   0.0011062600    0.0006319600    0.0008739500
   0.0007631100    0.0001392300   -0.0000507400
  -0.0013973900   -0.0009797600   -0.0002066400