phonopy:
  version: 2.9.3
  frequency_unit_conversion_factor: 15.633302
  symmetry_tolerance: 1.00000e-05
  nac_unit_conversion_factor: 14.399652

physical_unit:
  atomic_mass: "AMU"

primitive_matrix:
- [  1.000000000000000,  0.000000000000000,  0.000000000000000 ]
- [  0.000000000000000,  1.000000000000000,  0.000000000000000 ]
- [  0.000000000000000,  0.000000000000000,  1.000000000000000 ]

supercell_matrix:
- [   2,   0,   0 ]
- [   0,   2,   0 ]
- [   0,   0,   1 ]

primitive_cell:
  lattice:
  - [     5.556116870000000,     0.000000000000000,    -0.000145170000000 ] # a
  - [     0.000000000000000,     5.558725970000000,     0.000000000000000 ] # b
  - [    -2.775108980000000,     0.000000000000000,    10.198722210000000 ] # c
  points:
  - symbol: Li # 1
    coordinates: [  0.577899390000003,  0.938678190000001,  0.155836160000003 ]
    mass: 6.941000
  - symbol: Li # 2
    coordinates: [  0.092939430000002,  0.438699519999994,  0.185867700000004 ]
    mass: 6.941000
  - symbol: Li # 3
    coordinates: [  0.907060570000005,  0.938699519999994,  0.814132299999996 ]
    mass: 6.941000
  - symbol: Li # 4
    coordinates: [  0.422100609999998,  0.438678190000001,  0.844163839999997 ]
    mass: 6.941000
  - symbol: O  # 5
    coordinates: [  0.153099420000006,  0.190619910000007,  0.802505930000000 ]
    mass: 15.999400
  - symbol: O  # 6
    coordinates: [  0.649409329999998,  0.686763500000001,  0.802503829999997 ]
    mass: 15.999400
  - symbol: O  # 7
    coordinates: [  0.350590670000002,  0.186763500000001,  0.197496170000003 ]
    mass: 15.999400
  - symbol: O  # 8
    coordinates: [  0.846900579999994,  0.690619910000007,  0.197494070000000 ]
    mass: 15.999400
  - symbol: S  # 9
    coordinates: [  0.437369260000003,  0.690467900000007,  0.371024759999996 ]
    mass: 32.065000
  - symbol: S  # 10
    coordinates: [  0.933633200000010,  0.186897940000000,  0.371023990000003 ]
    mass: 32.065000
  - symbol: S  # 11
    coordinates: [  0.066366799999990,  0.686897940000000,  0.628976009999997 ]
    mass: 32.065000
  - symbol: S  # 12
    coordinates: [  0.562630739999997,  0.190467900000007,  0.628975240000004 ]
    mass: 32.065000
  - symbol: S  # 13
    coordinates: [  0.248785579999993,  0.688686119999993,  0.000004120000000 ]
    mass: 32.065000
  - symbol: S  # 14
    coordinates: [  0.751214420000007,  0.188686119999993,  0.999995880000000 ]
    mass: 32.065000
  - symbol: Fe # 15
    coordinates: [  0.076488510000004,  0.212695980000000,  0.606323060000003 ]
    mass: 55.845000
  - symbol: Fe # 16
    coordinates: [  0.529854250000004,  0.664653019999995,  0.606327630000001 ]
    mass: 55.845000
  - symbol: Fe # 17
    coordinates: [  0.470145749999996,  0.164653020000000,  0.393672369999999 ]
    mass: 55.845000
  - symbol: Fe # 18
    coordinates: [  0.923511489999996,  0.712695980000000,  0.393676939999997 ]
    mass: 55.845000
  - symbol: Fe # 19
    coordinates: [  0.076967960000002,  0.938728079999993,  0.153973310000004 ]
    mass: 55.845000
  - symbol: Fe # 20
    coordinates: [  0.577233150000000,  0.438713800000002,  0.154475249999998 ]
    mass: 55.845000
  - symbol: Fe # 21
    coordinates: [  0.422766850000001,  0.938713800000002,  0.845524750000001 ]
    mass: 55.845000
  - symbol: Fe # 22
    coordinates: [  0.923032039999991,  0.438728079999993,  0.846026689999996 ]
    mass: 55.845000
  reciprocal_lattice: # without 2pi
  - [     0.179983094841277,     0.000000000000000,     0.048974047185291 ] # a*
  - [     0.000000000000000,     0.179897337159076,     0.000000000000000 ] # b*
  - [     0.000002561903868,     0.000000000000000,     0.098052196046864 ] # c*

unit_cell:
  lattice:
  - [     5.556116870000000,     0.000000000000000,    -0.000145170000000 ] # a
  - [     0.000000000000000,     5.558725970000000,     0.000000000000000 ] # b
  - [    -2.775108980000000,     0.000000000000000,    10.198722210000000 ] # c
  points:
  - symbol: Li # 1
    coordinates: [  0.577899390000003,  0.938678190000001,  0.155836160000003 ]
    mass: 6.941000
    reduced_to: 1
  - symbol: Li # 2
    coordinates: [  0.092939430000002,  0.438699519999994,  0.185867700000004 ]
    mass: 6.941000
    reduced_to: 2
  - symbol: Li # 3
    coordinates: [  0.907060570000005,  0.938699519999994,  0.814132299999996 ]
    mass: 6.941000
    reduced_to: 3
  - symbol: Li # 4
    coordinates: [  0.422100609999998,  0.438678190000001,  0.844163839999997 ]
    mass: 6.941000
    reduced_to: 4
  - symbol: O  # 5
    coordinates: [  0.153099420000006,  0.190619910000007,  0.802505930000000 ]
    mass: 15.999400
    reduced_to: 5
  - symbol: O  # 6
    coordinates: [  0.649409329999998,  0.686763500000001,  0.802503829999997 ]
    mass: 15.999400
    reduced_to: 6
  - symbol: O  # 7
    coordinates: [  0.350590670000002,  0.186763500000001,  0.197496170000003 ]
    mass: 15.999400
    reduced_to: 7
  - symbol: O  # 8
    coordinates: [  0.846900579999994,  0.690619910000007,  0.197494070000000 ]
    mass: 15.999400
    reduced_to: 8
  - symbol: S  # 9
    coordinates: [  0.437369260000003,  0.690467900000007,  0.371024759999996 ]
    mass: 32.065000
    reduced_to: 9
  - symbol: S  # 10
    coordinates: [  0.933633200000010,  0.186897940000000,  0.371023990000003 ]
    mass: 32.065000
    reduced_to: 10
  - symbol: S  # 11
    coordinates: [  0.066366799999990,  0.686897940000000,  0.628976009999997 ]
    mass: 32.065000
    reduced_to: 11
  - symbol: S  # 12
    coordinates: [  0.562630739999997,  0.190467900000007,  0.628975240000004 ]
    mass: 32.065000
    reduced_to: 12
  - symbol: S  # 13
    coordinates: [  0.248785579999993,  0.688686119999993,  0.000004120000000 ]
    mass: 32.065000
    reduced_to: 13
  - symbol: S  # 14
    coordinates: [  0.751214420000007,  0.188686119999993, -0.000004120000000 ]
    mass: 32.065000
    reduced_to: 14
  - symbol: Fe # 15
    coordinates: [  0.076488510000004,  0.212695980000000,  0.606323060000003 ]
    mass: 55.845000
    reduced_to: 15
  - symbol: Fe # 16
    coordinates: [  0.529854250000004,  0.664653019999995,  0.606327630000001 ]
    mass: 55.845000
    reduced_to: 16
  - symbol: Fe # 17
    coordinates: [  0.470145749999996,  0.164653020000000,  0.393672369999999 ]
    mass: 55.845000
    reduced_to: 17
  - symbol: Fe # 18
    coordinates: [  0.923511489999996,  0.712695980000000,  0.393676939999997 ]
    mass: 55.845000
    reduced_to: 18
  - symbol: Fe # 19
    coordinates: [  0.076967960000002,  0.938728079999993,  0.153973310000004 ]
    mass: 55.845000
    reduced_to: 19
  - symbol: Fe # 20
    coordinates: [  0.577233150000000,  0.438713800000002,  0.154475249999998 ]
    mass: 55.845000
    reduced_to: 20
  - symbol: Fe # 21
    coordinates: [  0.422766850000001,  0.938713800000002,  0.845524750000001 ]
    mass: 55.845000
    reduced_to: 21
  - symbol: Fe # 22
    coordinates: [  0.923032039999991,  0.438728079999993,  0.846026689999996 ]
    mass: 55.845000
    reduced_to: 22

supercell:
  lattice:
  - [    11.112233740000001,     0.000000000000000,    -0.000290340000000 ] # a
  - [     0.000000000000000,    11.117451940000000,     0.000000000000000 ] # b
  - [    -2.775108980000000,     0.000000000000000,    10.198722210000000 ] # c
  points:
  - symbol: Li # 1
    coordinates: [  0.288949695000002,  0.469339095000000,  0.155836160000003 ]
    mass: 6.941000
    reduced_to: 1
  - symbol: Li # 2
    coordinates: [  0.788949695000001,  0.469339095000000,  0.155836160000003 ]
    mass: 6.941000
    reduced_to: 1
  - symbol: Li # 3
    coordinates: [  0.288949695000002,  0.969339095000000,  0.155836160000003 ]
    mass: 6.941000
    reduced_to: 1
  - symbol: Li # 4
    coordinates: [  0.788949695000001,  0.969339095000000,  0.155836160000003 ]
    mass: 6.941000
    reduced_to: 1
  - symbol: Li # 5
    coordinates: [  0.046469715000001,  0.219349759999997,  0.185867700000004 ]
    mass: 6.941000
    reduced_to: 5
  - symbol: Li # 6
    coordinates: [  0.546469715000001,  0.219349759999997,  0.185867700000004 ]
    mass: 6.941000
    reduced_to: 5
  - symbol: Li # 7
    coordinates: [  0.046469715000001,  0.719349759999997,  0.185867700000004 ]
    mass: 6.941000
    reduced_to: 5
  - symbol: Li # 8
    coordinates: [  0.546469715000001,  0.719349759999997,  0.185867700000004 ]
    mass: 6.941000
    reduced_to: 5
  - symbol: Li # 9
    coordinates: [  0.453530285000003,  0.469349759999997,  0.814132299999996 ]
    mass: 6.941000
    reduced_to: 9
  - symbol: Li # 10
    coordinates: [  0.953530285000003,  0.469349759999997,  0.814132299999996 ]
    mass: 6.941000
    reduced_to: 9
  - symbol: Li # 11
    coordinates: [  0.453530285000003,  0.969349759999997,  0.814132299999996 ]
    mass: 6.941000
    reduced_to: 9
  - symbol: Li # 12
    coordinates: [  0.953530285000003,  0.969349759999997,  0.814132299999996 ]
    mass: 6.941000
    reduced_to: 9
  - symbol: Li # 13
    coordinates: [  0.211050304999999,  0.219339095000000,  0.844163839999997 ]
    mass: 6.941000
    reduced_to: 13
  - symbol: Li # 14
    coordinates: [  0.711050304999999,  0.219339095000000,  0.844163839999997 ]
    mass: 6.941000
    reduced_to: 13
  - symbol: Li # 15
    coordinates: [  0.211050304999999,  0.719339095000000,  0.844163839999997 ]
    mass: 6.941000
    reduced_to: 13
  - symbol: Li # 16
    coordinates: [  0.711050304999999,  0.719339095000000,  0.844163839999997 ]
    mass: 6.941000
    reduced_to: 13
  - symbol: O  # 17
    coordinates: [  0.076549710000003,  0.095309955000003,  0.802505930000000 ]
    mass: 15.999400
    reduced_to: 17
  - symbol: O  # 18
    coordinates: [  0.576549710000003,  0.095309955000003,  0.802505930000000 ]
    mass: 15.999400
    reduced_to: 17
  - symbol: O  # 19
    coordinates: [  0.076549710000003,  0.595309955000003,  0.802505930000000 ]
    mass: 15.999400
    reduced_to: 17
  - symbol: O  # 20
    coordinates: [  0.576549710000003,  0.595309955000003,  0.802505930000000 ]
    mass: 15.999400
    reduced_to: 17
  - symbol: O  # 21
    coordinates: [  0.324704664999999,  0.343381750000000,  0.802503829999997 ]
    mass: 15.999400
    reduced_to: 21
  - symbol: O  # 22
    coordinates: [  0.824704664999999,  0.343381750000000,  0.802503829999997 ]
    mass: 15.999400
    reduced_to: 21
  - symbol: O  # 23
    coordinates: [  0.324704664999999,  0.843381750000000,  0.802503829999997 ]
    mass: 15.999400
    reduced_to: 21
  - symbol: O  # 24
    coordinates: [  0.824704664999999,  0.843381750000000,  0.802503829999997 ]
    mass: 15.999400
    reduced_to: 21
  - symbol: O  # 25
    coordinates: [  0.175295335000001,  0.093381750000000,  0.197496170000003 ]
    mass: 15.999400
    reduced_to: 25
  - symbol: O  # 26
    coordinates: [  0.675295335000001,  0.093381750000000,  0.197496170000003 ]
    mass: 15.999400
    reduced_to: 25
  - symbol: O  # 27
    coordinates: [  0.175295335000001,  0.593381750000000,  0.197496170000003 ]
    mass: 15.999400
    reduced_to: 25
  - symbol: O  # 28
    coordinates: [  0.675295335000001,  0.593381750000000,  0.197496170000003 ]
    mass: 15.999400
    reduced_to: 25
  - symbol: O  # 29
    coordinates: [  0.423450289999997,  0.345309955000003,  0.197494070000000 ]
    mass: 15.999400
    reduced_to: 29
  - symbol: O  # 30
    coordinates: [  0.923450289999997,  0.345309955000003,  0.197494070000000 ]
    mass: 15.999400
    reduced_to: 29
  - symbol: O  # 31
    coordinates: [  0.423450289999997,  0.845309955000003,  0.197494070000000 ]
    mass: 15.999400
    reduced_to: 29
  - symbol: O  # 32
    coordinates: [  0.923450289999997,  0.845309955000003,  0.197494070000000 ]
    mass: 15.999400
    reduced_to: 29
  - symbol: S  # 33
    coordinates: [  0.218684630000001,  0.345233950000003,  0.371024759999996 ]
    mass: 32.065000
    reduced_to: 33
  - symbol: S  # 34
    coordinates: [  0.718684630000001,  0.345233950000003,  0.371024759999996 ]
    mass: 32.065000
    reduced_to: 33
  - symbol: S  # 35
    coordinates: [  0.218684630000001,  0.845233950000003,  0.371024759999996 ]
    mass: 32.065000
    reduced_to: 33
  - symbol: S  # 36
    coordinates: [  0.718684630000001,  0.845233950000003,  0.371024759999996 ]
    mass: 32.065000
    reduced_to: 33
  - symbol: S  # 37
    coordinates: [  0.466816600000005,  0.093448970000000,  0.371023990000003 ]
    mass: 32.065000
    reduced_to: 37
  - symbol: S  # 38
    coordinates: [  0.966816600000005,  0.093448970000000,  0.371023990000003 ]
    mass: 32.065000
    reduced_to: 37
  - symbol: S  # 39
    coordinates: [  0.466816600000005,  0.593448970000000,  0.371023990000003 ]
    mass: 32.065000
    reduced_to: 37
  - symbol: S  # 40
    coordinates: [  0.966816600000005,  0.593448970000000,  0.371023990000003 ]
    mass: 32.065000
    reduced_to: 37
  - symbol: S  # 41
    coordinates: [  0.033183399999995,  0.343448970000000,  0.628976009999997 ]
    mass: 32.065000
    reduced_to: 41
  - symbol: S  # 42
    coordinates: [  0.533183399999995,  0.343448970000000,  0.628976009999997 ]
    mass: 32.065000
    reduced_to: 41
  - symbol: S  # 43
    coordinates: [  0.033183399999995,  0.843448970000000,  0.628976009999997 ]
    mass: 32.065000
    reduced_to: 41
  - symbol: S  # 44
    coordinates: [  0.533183399999995,  0.843448970000000,  0.628976009999997 ]
    mass: 32.065000
    reduced_to: 41
  - symbol: S  # 45
    coordinates: [  0.281315369999999,  0.095233950000003,  0.628975240000004 ]
    mass: 32.065000
    reduced_to: 45
  - symbol: S  # 46
    coordinates: [  0.781315369999999,  0.095233950000003,  0.628975240000004 ]
    mass: 32.065000
    reduced_to: 45
  - symbol: S  # 47
    coordinates: [  0.281315369999999,  0.595233950000003,  0.628975240000004 ]
    mass: 32.065000
    reduced_to: 45
  - symbol: S  # 48
    coordinates: [  0.781315369999999,  0.595233950000003,  0.628975240000004 ]
    mass: 32.065000
    reduced_to: 45
  - symbol: S  # 49
    coordinates: [  0.124392789999997,  0.344343059999997,  0.000004120000000 ]
    mass: 32.065000
    reduced_to: 49
  - symbol: S  # 50
    coordinates: [  0.624392789999997,  0.344343059999997,  0.000004120000000 ]
    mass: 32.065000
    reduced_to: 49
  - symbol: S  # 51
    coordinates: [  0.124392789999997,  0.844343059999997,  0.000004120000000 ]
    mass: 32.065000
    reduced_to: 49
  - symbol: S  # 52
    coordinates: [  0.624392789999997,  0.844343059999997,  0.000004120000000 ]
    mass: 32.065000
    reduced_to: 49
  - symbol: S  # 53
    coordinates: [  0.375607210000003,  0.094343059999997,  0.999995880000000 ]
    mass: 32.065000
    reduced_to: 53
  - symbol: S  # 54
    coordinates: [  0.875607210000003,  0.094343059999997,  0.999995880000000 ]
    mass: 32.065000
    reduced_to: 53
  - symbol: S  # 55
    coordinates: [  0.375607210000003,  0.594343059999997,  0.999995880000000 ]
    mass: 32.065000
    reduced_to: 53
  - symbol: S  # 56
    coordinates: [  0.875607210000003,  0.594343059999997,  0.999995880000000 ]
    mass: 32.065000
    reduced_to: 53
  - symbol: Fe # 57
    coordinates: [  0.038244255000002,  0.106347990000000,  0.606323060000003 ]
    mass: 55.845000
    reduced_to: 57
  - symbol: Fe # 58
    coordinates: [  0.538244255000002,  0.106347990000000,  0.606323060000003 ]
    mass: 55.845000
    reduced_to: 57
  - symbol: Fe # 59
    coordinates: [  0.038244255000002,  0.606347990000000,  0.606323060000003 ]
    mass: 55.845000
    reduced_to: 57
  - symbol: Fe # 60
    coordinates: [  0.538244255000002,  0.606347990000000,  0.606323060000003 ]
    mass: 55.845000
    reduced_to: 57
  - symbol: Fe # 61
    coordinates: [  0.264927125000002,  0.332326509999997,  0.606327630000001 ]
    mass: 55.845000
    reduced_to: 61
  - symbol: Fe # 62
    coordinates: [  0.764927125000002,  0.332326509999997,  0.606327630000001 ]
    mass: 55.845000
    reduced_to: 61
  - symbol: Fe # 63
    coordinates: [  0.264927125000002,  0.832326509999997,  0.606327630000001 ]
    mass: 55.845000
    reduced_to: 61
  - symbol: Fe # 64
    coordinates: [  0.764927125000002,  0.832326509999997,  0.606327630000001 ]
    mass: 55.845000
    reduced_to: 61
  - symbol: Fe # 65
    coordinates: [  0.235072874999998,  0.082326510000000,  0.393672369999999 ]
    mass: 55.845000
    reduced_to: 65
  - symbol: Fe # 66
    coordinates: [  0.735072874999998,  0.082326510000000,  0.393672369999999 ]
    mass: 55.845000
    reduced_to: 65
  - symbol: Fe # 67
    coordinates: [  0.235072874999998,  0.582326510000000,  0.393672369999999 ]
    mass: 55.845000
    reduced_to: 65
  - symbol: Fe # 68
    coordinates: [  0.735072874999998,  0.582326510000000,  0.393672369999999 ]
    mass: 55.845000
    reduced_to: 65
  - symbol: Fe # 69
    coordinates: [  0.461755744999998,  0.356347990000000,  0.393676939999997 ]
    mass: 55.845000
    reduced_to: 69
  - symbol: Fe # 70
    coordinates: [  0.961755744999998,  0.356347990000000,  0.393676939999997 ]
    mass: 55.845000
    reduced_to: 69
  - symbol: Fe # 71
    coordinates: [  0.461755744999998,  0.856347990000000,  0.393676939999997 ]
    mass: 55.845000
    reduced_to: 69
  - symbol: Fe # 72
    coordinates: [  0.961755744999998,  0.856347990000000,  0.393676939999997 ]
    mass: 55.845000
    reduced_to: 69
  - symbol: Fe # 73
    coordinates: [  0.038483980000001,  0.469364039999997,  0.153973310000004 ]
    mass: 55.845000
    reduced_to: 73
  - symbol: Fe # 74
    coordinates: [  0.538483980000001,  0.469364039999997,  0.153973310000004 ]
    mass: 55.845000
    reduced_to: 73
  - symbol: Fe # 75
    coordinates: [  0.038483980000001,  0.969364039999997,  0.153973310000004 ]
    mass: 55.845000
    reduced_to: 73
  - symbol: Fe # 76
    coordinates: [  0.538483980000001,  0.969364039999997,  0.153973310000004 ]
    mass: 55.845000
    reduced_to: 73
  - symbol: Fe # 77
    coordinates: [  0.288616575000000,  0.219356900000001,  0.154475249999998 ]
    mass: 55.845000
    reduced_to: 77
  - symbol: Fe # 78
    coordinates: [  0.788616575000000,  0.219356900000001,  0.154475249999998 ]
    mass: 55.845000
    reduced_to: 77
  - symbol: Fe # 79
    coordinates: [  0.288616575000000,  0.719356900000001,  0.154475249999998 ]
    mass: 55.845000
    reduced_to: 77
  - symbol: Fe # 80
    coordinates: [  0.788616575000000,  0.719356900000001,  0.154475249999998 ]
    mass: 55.845000
    reduced_to: 77
  - symbol: Fe # 81
    coordinates: [  0.211383425000000,  0.469356900000001,  0.845524750000001 ]
    mass: 55.845000
    reduced_to: 81
  - symbol: Fe # 82
    coordinates: [  0.711383425000000,  0.469356900000001,  0.845524750000001 ]
    mass: 55.845000
    reduced_to: 81
  - symbol: Fe # 83
    coordinates: [  0.211383425000000,  0.969356900000001,  0.845524750000001 ]
    mass: 55.845000
    reduced_to: 81
  - symbol: Fe # 84
    coordinates: [  0.711383425000000,  0.969356900000001,  0.845524750000001 ]
    mass: 55.845000
    reduced_to: 81
  - symbol: Fe # 85
    coordinates: [  0.461516019999996,  0.219364039999997,  0.846026689999996 ]
    mass: 55.845000
    reduced_to: 85
  - symbol: Fe # 86
    coordinates: [  0.961516019999996,  0.219364039999997,  0.846026689999996 ]
    mass: 55.845000
    reduced_to: 85
  - symbol: Fe # 87
    coordinates: [  0.461516019999996,  0.719364039999997,  0.846026689999996 ]
    mass: 55.845000
    reduced_to: 85
  - symbol: Fe # 88
    coordinates: [  0.961516019999996,  0.719364039999997,  0.846026689999996 ]
    mass: 55.845000
    reduced_to: 85

born_effective_charge:
- # 1 (Li)
  - [  1.131844735000000,  0.164653530000000,  0.000075399545455 ]
  - [  0.165997535000000,  1.138156080000000, -0.000210170000000 ]
  - [  0.000006330454545, -0.000110230000000,  1.361853850454545 ]
- # 2 (Li)
  - [  1.199525575000000,  0.175233190000000,  0.000054884545455 ]
  - [  0.174072600000000,  1.194473730000000, -0.000231135000000 ]
  - [ -0.000033969545455, -0.000123500000000,  1.403679680454545 ]
- # 3 (Li)
  - [  1.199525575000000, -0.175233190000000,  0.000054884545455 ]
  - [ -0.174072600000000,  1.194473730000000,  0.000231135000000 ]
  - [ -0.000033969545455,  0.000123500000000,  1.403679680454545 ]
- # 4 (Li)
  - [  1.131844735000000, -0.164653530000000,  0.000075399545455 ]
  - [ -0.165997535000000,  1.138156080000000,  0.000210170000000 ]
  - [  0.000006330454545,  0.000110230000000,  1.361853850454545 ]
- # 5 (O)
  - [ -2.618755805000000,  0.701883750000000,  0.007443124545455 ]
  - [  0.701531785000000, -2.618302219999999,  0.012871255000000 ]
  - [  0.041414645454545,  0.048894785000000, -2.542168594545454 ]
- # 6 (O)
  - [ -2.618898225000000,  0.701845520000000, -0.007646405454545 ]
  - [  0.701449600000000, -2.618297635000000, -0.013270165000000 ]
  - [ -0.041197294545455, -0.049321245000000, -2.542019039545455 ]
- # 7 (O)
  - [ -2.618898225000000, -0.701845520000000, -0.007646405454545 ]
  - [ -0.701449600000000, -2.618297635000000,  0.013270165000000 ]
  - [ -0.041197294545455,  0.049321245000000, -2.542019039545455 ]
- # 8 (O)
  - [ -2.618755805000000, -0.701883750000000,  0.007443124545455 ]
  - [ -0.701531785000000, -2.618302219999999, -0.012871255000000 ]
  - [  0.041414645454545, -0.048894785000000, -2.542168594545454 ]
- # 9 (S)
  - [ -2.407830865000000,  0.042594170000000,  0.011727159545455 ]
  - [  0.042573750000000, -2.404808795000000,  0.007864020000000 ]
  - [ -0.004811944545455, -0.005618695000000, -2.349725229545454 ]
- # 10 (S)
  - [ -2.407812235000000,  0.042531430000000, -0.012338385454545 ]
  - [  0.042624675000000, -2.404923785000000, -0.008212250000000 ]
  - [  0.004162375454545,  0.005199090000000, -2.349757139545455 ]
- # 11 (S)
  - [ -2.407812235000000, -0.042531430000000, -0.012338385454545 ]
  - [ -0.042624675000000, -2.404923785000000,  0.008212250000000 ]
  - [  0.004162375454545, -0.005199090000000, -2.349757139545455 ]
- # 12 (S)
  - [ -2.407830865000000, -0.042594170000000,  0.011727159545455 ]
  - [ -0.042573750000000, -2.404808795000000, -0.007864020000000 ]
  - [ -0.004811944545455,  0.005618695000000, -2.349725229545454 ]
- # 13 (S)
  - [ -1.732139410000000, -0.000000040000000, -0.000235545454546 ]
  - [  0.000004850000000, -1.734605680000000, -0.013829135000000 ]
  - [ -0.000360339545455, -0.027958030000000, -2.577108449545455 ]
- # 14 (S)
  - [ -1.732139410000000,  0.000000040000000, -0.000235545454546 ]
  - [ -0.000004850000000, -1.734605680000000,  0.013829135000000 ]
  - [ -0.000360339545455,  0.027958030000000, -2.577108449545455 ]
- # 15 (Fe)
  - [  2.377354365000000,  0.012051040000000,  0.072688649545455 ]
  - [  0.012152495000000,  2.372895770000000,  0.070968865000000 ]
  - [  0.021588070454545,  0.023692360000000,  2.360053365454545 ]
- # 16 (Fe)
  - [  2.377100260000000,  0.011965530000000, -0.071905985454545 ]
  - [  0.012263405000000,  2.372946855000000, -0.070664395000000 ]
  - [ -0.020781289545455, -0.023597600000000,  2.360061675454545 ]
- # 17 (Fe)
  - [  2.377100260000000, -0.011965530000000, -0.071905985454545 ]
  - [ -0.012263405000000,  2.372946855000000,  0.070664395000000 ]
  - [ -0.020781289545455,  0.023597600000000,  2.360061675454545 ]
- # 18 (Fe)
  - [  2.377354365000000, -0.012051040000000,  0.072688649545455 ]
  - [ -0.012152495000000,  2.372895770000000, -0.070968865000000 ]
  - [  0.021588070454545, -0.023692360000000,  2.360053365454545 ]
- # 19 (Fe)
  - [  2.403534995000000,  0.227379575000000,  0.000017509545455 ]
  - [  0.239152705000000,  2.308146285000001,  0.000182220000000 ]
  - [ -0.000028624545455,  0.000275445000000,  2.448504315454545 ]
- # 20 (Fe)
  - [  2.296076610000000,  0.244897480000000,  0.000119594545455 ]
  - [  0.233415495000000,  2.394319395000001,  0.000129910000000 ]
  - [  0.000042040454545,  0.000342340000000,  2.426625565454545 ]
- # 21 (Fe)
  - [  2.296076610000000, -0.244897480000000,  0.000119594545455 ]
  - [ -0.233415495000000,  2.394319395000001, -0.000129910000000 ]
  - [  0.000042040454545, -0.000342340000000,  2.426625565454545 ]
- # 22 (Fe)
  - [  2.403534995000000, -0.227379575000000,  0.000017509545455 ]
  - [ -0.239152705000000,  2.308146285000001, -0.000182220000000 ]
  - [ -0.000028624545455, -0.000275445000000,  2.448504315454545 ]

dielectric_constant:
  - [  6.278727910000000,  0.000000000000000,  0.000187720000000 ]
  - [  0.000000000000000,  6.274805760000000,  0.000000000000000 ]
  - [  0.000195960000000,  0.000000000000000,  6.365443440000001 ]

displacements:
- atom:    1
  displacement:
    [   0.0099999999965866,  0.0000000000000000, -0.0000002612796011 ]
  forces:
  - [  -0.0417175000000000,  0.0114999300000000, -0.0001198200000000 ]
  - [   0.0004228700000000, -0.0000270100000000, -0.0000061100000000 ]
  - [  -0.0001798100000000, -0.0000040900000000, -0.0000431400000000 ]
  - [   0.0002402500000000,  0.0000917500000000, -0.0000060200000000 ]
  - [   0.0003427900000000,  0.0007194000000000, -0.0002370100000000 ]
  - [   0.0005304200000000, -0.0008219900000000,  0.0000662700000000 ]
  - [   0.0005226700000000, -0.0008092500000000, -0.0000336600000000 ]
  - [   0.0003458500000000,  0.0007188900000000,  0.0002619900000000 ]
  - [   0.0001862900000000, -0.0002485800000000, -0.0005382800000000 ]
  - [   0.0003763300000000, -0.0002971600000000,  0.0005103900000000 ]
  - [  -0.0000080000000000,  0.0001576400000000, -0.0000714000000000 ]
  - [   0.0001784600000000,  0.0001080800000000,  0.0000382100000000 ]
  - [  -0.0008181700000000,  0.0003264400000000,  0.0003518900000000 ]
  - [   0.0001991400000000, -0.0000666200000000, -0.0000399300000000 ]
  - [  -0.0008169200000000,  0.0003143200000000, -0.0003984200000000 ]
  - [   0.0001991400000000, -0.0000629700000000,  0.0002000500000000 ]
  - [   0.0004608500000000, -0.0008852100000000, -0.0006352800000000 ]
  - [   0.0001121200000000,  0.0000297000000000, -0.0000790000000000 ]
  - [   0.0005302500000000,  0.0003768000000000, -0.0002791100000000 ]
  - [  -0.0005008900000000,  0.0001771700000000, -0.0000355800000000 ]
  - [   0.0004496900000000,  0.0003746700000000,  0.0004199000000000 ]
  - [  -0.0010113700000000,  0.0002883600000000, -0.0003995500000000 ]
  - [   0.0003372500000000, -0.0008690400000000,  0.0006654000000000 ]
  - [  -0.0003782300000000,  0.0001400500000000, -0.0002303300000000 ]
  - [   0.0004987100000000, -0.0002806700000000,  0.0001188200000000 ]
  - [  -0.0001241100000000,  0.0000950700000000,  0.0000134000000000 ]
  - [   0.0093343600000000, -0.0027741000000000,  0.0004506500000000 ]
  - [  -0.0015954000000000, -0.0006909000000000, -0.0004156800000000 ]
  - [   0.0093893900000000, -0.0032430500000000, -0.0001241400000000 ]
  - [  -0.0018601200000000, -0.0007465700000000,  0.0004884200000000 ]
  - [   0.0001946200000000, -0.0003310800000000,  0.0000823100000000 ]
  - [  -0.0004244700000000,  0.0000410900000000,  0.0000754900000000 ]
  - [   0.0009583300000000, -0.0009789500000000,  0.0021711400000000 ]
  - [  -0.0009946400000000,  0.0000183700000000, -0.0003982800000000 ]
  - [   0.0002581100000000,  0.0003944800000000,  0.0005727800000000 ]
  - [  -0.0003358400000000, -0.0002466800000000,  0.0000207400000000 ]
  - [   0.0003274800000000,  0.0006707800000000, -0.0001685500000000 ]
  - [  -0.0001658500000000, -0.0000115700000000,  0.0002115300000000 ]
  - [   0.0009727400000000, -0.0007535300000000, -0.0017694500000000 ]
  - [  -0.0007586400000000,  0.0002962300000000,  0.0006265000000000 ]
  - [  -0.0003760000000000,  0.0001864100000000, -0.0005513000000000 ]
  - [   0.0001463500000000,  0.0003965100000000, -0.0004621000000000 ]
  - [  -0.0000985700000000,  0.0000964800000000, -0.0001997500000000 ]
  - [  -0.0000940500000000, -0.0002646900000000, -0.0004609100000000 ]
  - [   0.0002636700000000, -0.0005083400000000,  0.0003560400000000 ]
  - [  -0.0002087400000000, -0.0001639100000000, -0.0003230200000000 ]
  - [   0.0004831600000000,  0.0001745600000000,  0.0007289600000000 ]
  - [  -0.0004706500000000, -0.0001006200000000, -0.0003518100000000 ]
  - [   0.0029966000000000,  0.0008465200000000,  0.0013737300000000 ]
  - [  -0.0009438200000000,  0.0002161700000000,  0.0004699000000000 ]
  - [   0.0003128700000000,  0.0001632900000000, -0.0002684700000000 ]
  - [  -0.0003855700000000, -0.0002407000000000,  0.0000005900000000 ]
  - [   0.0003669700000000,  0.0001753400000000,  0.0003557400000000 ]
  - [  -0.0004213200000000, -0.0002500600000000, -0.0000852300000000 ]
  - [   0.0031217100000000,  0.0009230800000000, -0.0013696300000000 ]
  - [  -0.0009645900000000,  0.0002140800000000, -0.0005551300000000 ]
  - [  -0.0002169500000000,  0.0001459700000000,  0.0003195500000000 ]
  - [  -0.0002821500000000,  0.0000558900000000,  0.0001874900000000 ]
  - [  -0.0002943300000000, -0.0000772000000000, -0.0000944600000000 ]
  - [  -0.0001970100000000, -0.0001722000000000,  0.0010975600000000 ]
  - [   0.0000416000000000, -0.0002497900000000, -0.0012200500000000 ]
  - [   0.0003962700000000, -0.0000693700000000,  0.0006085300000000 ]
  - [   0.0000322400000000,  0.0001011300000000, -0.0003503700000000 ]
  - [   0.0004229900000000,  0.0000198500000000,  0.0002279600000000 ]
  - [  -0.0004780100000000,  0.0004644400000000, -0.0000617100000000 ]
  - [  -0.0000345300000000, -0.0001115500000000,  0.0000196900000000 ]
  - [  -0.0006627800000000, -0.0016669000000000, -0.0051190300000000 ]
  - [   0.0005443900000000,  0.0001180200000000,  0.0003998400000000 ]
  - [  -0.0001789000000000, -0.0016205900000000,  0.0047049000000000 ]
  - [   0.0010035800000000,  0.0001458300000000, -0.0003722200000000 ]
  - [   0.0000041300000000,  0.0004978800000000, -0.0002297400000000 ]
  - [   0.0004180600000000, -0.0000686800000000, -0.0001022500000000 ]
  - [   0.0134236400000000,  0.0004002100000000, -0.0004268100000000 ]
  - [   0.0136968900000000,  0.0004003600000000,  0.0005563400000000 ]
  - [   0.0000485000000000,  0.0000658800000000,  0.0000709400000000 ]
  - [   0.0000570100000000,  0.0000879200000000,  0.0000793500000000 ]
  - [  -0.0047129700000000, -0.0017687000000000, -0.0011131900000000 ]