 224 224   0   0
  0.1357572E+02  0.1537960E-08  0.1537962E-08  0.1395899E-08  0.5000000E-15
  1.000000000000000E-004
  CAR 
 unknown system                          
     17.69769057    -54.42389056  301      5.25671782      1.00000000
    -54.424  0.0000E+00  0.0000E+00  0.0000E+00  0.0000E+00
    -54.183  0.0000E+00  0.0000E+00  0.0000E+00  0.0000E+00
    -53.943  0.0000E+00  0.0000E+00  0.0000E+00  0.0000E+00
    -53.703  0.0000E+00  0.0000E+00  0.0000E+00  0.0000E+00
    -53.462  0.0000E+00  0.0000E+00  0.0000E+00  0.0000E+00
    -53.222  0.0000E+00  0.0000E+00  0.0000E+00  0.0000E+00
    -52.981  0.0000E+00  0.0000E+00  0.0000E+00  0.0000E+00
    -52.741  0.0000E+00  0.0000E+00  0.0000E+00  0.0000E+00
    -52.501  0.0000E+00  0.0000E+00  0.0000E+00  0.0000E+00
    -52.260  0.0000E+00  0.0000E+00  0.0000E+00  0.0000E+00
    -52.020  0.0000E+00  0.0000E+00  0.0000E+00  0.0000E+00
    -51.779  0.0000E+00  0.0000E+00  0.0000E+00  0.0000E+00
    -51.539  0.0000E+00  0.0000E+00  0.0000E+00  0.0000E+00
    -51.299  0.1027E-02  0.0000E+00  0.2468E-03  0.0000E+00
    -51.058  0.2635E+03  0.0000E+00  0.6335E+02  0.0000E+00
    -50.818  0.2704E+01  0.0000E+00  0.6400E+02  0.0000E+00
    -50.577  0.0000E+00  0.0000E+00  0.6400E+02  0.0000E+00
    -50.337  0.0000E+00  0.0000E+00  0.6400E+02  0.0000E+00
    -50.097  0.0000E+00  0.0000E+00  0.6400E+02  0.0000E+00
    -49.856  0.7246E-06  0.0000E+00  0.6400E+02  0.0000E+00
    -49.616  0.4261E+03  0.0000E+00  0.1664E+03  0.0000E+00
    -49.375  0.1063E+03  0.0000E+00  0.1920E+03  0.0000E+00
    -49.135  0.0000E+00  0.0000E+00  0.1920E+03  0.0000E+00
    -48.895  0.0000E+00  0.0000E+00  0.1920E+03  0.0000E+00
    -48.654  0.0000E+00  0.0000E+00  0.1920E+03  0.0000E+00
    -48.414  0.0000E+00  0.0000E+00  0.1920E+03  0.0000E+00
    -48.173  0.0000E+00  0.0000E+00  0.1920E+03  0.0000E+00
    -47.933  0.0000E+00  0.0000E+00  0.1920E+03  0.0000E+00
    -47.693  0.0000E+00  0.0000E+00  0.1920E+03  0.0000E+00
    -47.452  0.0000E+00  0.0000E+00  0.1920E+03  0.0000E+00
    -47.212  0.0000E+00  0.0000E+00  0.1920E+03  0.0000E+00
    -46.971  0.0000E+00  0.0000E+00  0.1920E+03  0.0000E+00
    -46.731  0.0000E+00  0.0000E+00  0.1920E+03  0.0000E+00
    -46.491  0.0000E+00  0.5605E+00  0.1920E+03  0.1348E+00
    -46.250  0.0000E+00  0.2656E+03  0.1920E+03  0.6400E+02
    -46.010  0.0000E+00  0.5276E+01  0.1920E+03  0.6527E+02
    -45.769  0.0000E+00  0.5272E+03  0.1920E+03  0.1920E+03
    -45.529  0.0000E+00  0.2040E-02  0.1920E+03  0.1920E+03
    -45.288  0.0000E+00  0.0000E+00  0.1920E+03  0.1920E+03
    -45.048  0.0000E+00  0.0000E+00  0.1920E+03  0.1920E+03
    -44.808  0.0000E+00  0.0000E+00  0.1920E+03  0.1920E+03
    -44.567  0.0000E+00  0.0000E+00  0.1920E+03  0.1920E+03
    -44.327  0.0000E+00  0.0000E+00  0.1920E+03  0.1920E+03
    -44.086  0.0000E+00  0.0000E+00  0.1920E+03  0.1920E+03
    -43.846  0.0000E+00  0.0000E+00  0.1920E+03  0.1920E+03
    -43.606  0.0000E+00  0.0000E+00  0.1920E+03  0.1920E+03
    -43.365  0.0000E+00  0.0000E+00  0.1920E+03  0.1920E+03
    -43.125  0.0000E+00  0.0000E+00  0.1920E+03  0.1920E+03
    -42.884  0.0000E+00  0.0000E+00  0.1920E+03  0.1920E+03
    -42.644  0.0000E+00  0.0000E+00  0.1920E+03  0.1920E+03
    -42.404  0.0000E+00  0.0000E+00  0.1920E+03  0.1920E+03
    -42.163  0.0000E+00  0.0000E+00  0.1920E+03  0.1920E+03
    -41.923  0.0000E+00  0.0000E+00  0.1920E+03  0.1920E+03
    -41.682  0.0000E+00  0.0000E+00  0.1920E+03  0.1920E+03
    -41.442  0.0000E+00  0.0000E+00  0.1920E+03  0.1920E+03
    -41.202  0.0000E+00  0.0000E+00  0.1920E+03  0.1920E+03
    -40.961  0.0000E+00  0.0000E+00  0.1920E+03  0.1920E+03
    -40.721  0.0000E+00  0.0000E+00  0.1920E+03  0.1920E+03
    -40.480  0.0000E+00  0.0000E+00  0.1920E+03  0.1920E+03
    -40.240  0.0000E+00  0.0000E+00  0.1920E+03  0.1920E+03
    -40.000  0.0000E+00  0.0000E+00  0.1920E+03  0.1920E+03
    -39.759  0.1617E-01  0.1472E-01  0.1920E+03  0.1920E+03
    -39.519  0.2650E+03  0.2649E+03  0.2557E+03  0.2557E+03
    -39.278  0.1217E+01  0.1289E+01  0.2560E+03  0.2560E+03
    -39.038  0.0000E+00  0.0000E+00  0.2560E+03  0.2560E+03
    -38.798  0.0000E+00  0.0000E+00  0.2560E+03  0.2560E+03
    -38.557  0.0000E+00  0.0000E+00  0.2560E+03  0.2560E+03
    -38.317  0.0000E+00  0.0000E+00  0.2560E+03  0.2560E+03
    -38.076  0.0000E+00  0.0000E+00  0.2560E+03  0.2560E+03
    -37.836  0.0000E+00  0.0000E+00  0.2560E+03  0.2560E+03
    -37.596  0.0000E+00  0.0000E+00  0.2560E+03  0.2560E+03
    -37.355  0.0000E+00  0.0000E+00  0.2560E+03  0.2560E+03
    -37.115  0.0000E+00  0.0000E+00  0.2560E+03  0.2560E+03
    -36.874  0.0000E+00  0.0000E+00  0.2560E+03  0.2560E+03
    -36.634  0.0000E+00  0.0000E+00  0.2560E+03  0.2560E+03
    -36.393  0.0000E+00  0.0000E+00  0.2560E+03  0.2560E+03
    -36.153  0.0000E+00  0.0000E+00  0.2560E+03  0.2560E+03
    -35.913  0.0000E+00  0.0000E+00  0.2560E+03  0.2560E+03
    -35.672  0.0000E+00  0.0000E+00  0.2560E+03  0.2560E+03
    -35.432  0.0000E+00  0.0000E+00  0.2560E+03  0.2560E+03
    -35.191  0.0000E+00  0.0000E+00  0.2560E+03  0.2560E+03
    -34.951  0.0000E+00  0.0000E+00  0.2560E+03  0.2560E+03
    -34.711  0.0000E+00  0.0000E+00  0.2560E+03  0.2560E+03
    -34.470  0.0000E+00  0.0000E+00  0.2560E+03  0.2560E+03
    -34.230  0.0000E+00  0.0000E+00  0.2560E+03  0.2560E+03
    -33.989  0.0000E+00  0.0000E+00  0.2560E+03  0.2560E+03
    -33.749  0.0000E+00  0.0000E+00  0.2560E+03  0.2560E+03
    -33.509  0.0000E+00  0.0000E+00  0.2560E+03  0.2560E+03
    -33.268  0.0000E+00  0.0000E+00  0.2560E+03  0.2560E+03
    -33.028  0.0000E+00  0.0000E+00  0.2560E+03  0.2560E+03
    -32.787  0.0000E+00  0.0000E+00  0.2560E+03  0.2560E+03
    -32.547  0.0000E+00  0.0000E+00  0.2560E+03  0.2560E+03
    -32.307  0.0000E+00  0.0000E+00  0.2560E+03  0.2560E+03
    -32.066  0.0000E+00  0.0000E+00  0.2560E+03  0.2560E+03
    -31.826  0.0000E+00  0.0000E+00  0.2560E+03  0.2560E+03
    -31.585  0.0000E+00  0.0000E+00  0.2560E+03  0.2560E+03
    -31.345  0.0000E+00  0.0000E+00  0.2560E+03  0.2560E+03
    -31.105  0.0000E+00  0.0000E+00  0.2560E+03  0.2560E+03
    -30.864  0.0000E+00  0.0000E+00  0.2560E+03  0.2560E+03
    -30.624  0.0000E+00  0.0000E+00  0.2560E+03  0.2560E+03
    -30.383  0.0000E+00  0.0000E+00  0.2560E+03  0.2560E+03
    -30.143  0.0000E+00  0.0000E+00  0.2560E+03  0.2560E+03
    -29.903  0.0000E+00  0.0000E+00  0.2560E+03  0.2560E+03
    -29.662  0.0000E+00  0.0000E+00  0.2560E+03  0.2560E+03
    -29.422  0.0000E+00  0.0000E+00  0.2560E+03  0.2560E+03
    -29.181  0.0000E+00  0.0000E+00  0.2560E+03  0.2560E+03
    -28.941  0.0000E+00  0.0000E+00  0.2560E+03  0.2560E+03
    -28.701  0.0000E+00  0.0000E+00  0.2560E+03  0.2560E+03
    -28.460  0.0000E+00  0.0000E+00  0.2560E+03  0.2560E+03
    -28.220  0.0000E+00  0.0000E+00  0.2560E+03  0.2560E+03
    -27.979  0.0000E+00  0.0000E+00  0.2560E+03  0.2560E+03
    -27.739  0.0000E+00  0.0000E+00  0.2560E+03  0.2560E+03
    -27.499  0.0000E+00  0.0000E+00  0.2560E+03  0.2560E+03
    -27.258  0.0000E+00  0.0000E+00  0.2560E+03  0.2560E+03
    -27.018  0.0000E+00  0.0000E+00  0.2560E+03  0.2560E+03
    -26.777  0.0000E+00  0.0000E+00  0.2560E+03  0.2560E+03
    -26.537  0.0000E+00  0.0000E+00  0.2560E+03  0.2560E+03
    -26.296  0.0000E+00  0.0000E+00  0.2560E+03  0.2560E+03
    -26.056  0.0000E+00  0.0000E+00  0.2560E+03  0.2560E+03
    -25.816  0.0000E+00  0.0000E+00  0.2560E+03  0.2560E+03
    -25.575  0.0000E+00  0.0000E+00  0.2560E+03  0.2560E+03
    -25.335  0.0000E+00  0.0000E+00  0.2560E+03  0.2560E+03
    -25.094  0.0000E+00  0.0000E+00  0.2560E+03  0.2560E+03
    -24.854  0.0000E+00  0.0000E+00  0.2560E+03  0.2560E+03
    -24.614  0.0000E+00  0.0000E+00  0.2560E+03  0.2560E+03
    -24.373  0.0000E+00  0.0000E+00  0.2560E+03  0.2560E+03
    -24.133  0.0000E+00  0.0000E+00  0.2560E+03  0.2560E+03
    -23.892  0.0000E+00  0.0000E+00  0.2560E+03  0.2560E+03
    -23.652  0.0000E+00  0.0000E+00  0.2560E+03  0.2560E+03
    -23.412  0.0000E+00  0.0000E+00  0.2560E+03  0.2560E+03
    -23.171  0.0000E+00  0.0000E+00  0.2560E+03  0.2560E+03
    -22.931  0.0000E+00  0.0000E+00  0.2560E+03  0.2560E+03
    -22.690  0.0000E+00  0.0000E+00  0.2560E+03  0.2560E+03
    -22.450  0.0000E+00  0.0000E+00  0.2560E+03  0.2560E+03
    -22.210  0.0000E+00  0.0000E+00  0.2560E+03  0.2560E+03
    -21.969  0.0000E+00  0.0000E+00  0.2560E+03  0.2560E+03
    -21.729  0.0000E+00  0.0000E+00  0.2560E+03  0.2560E+03
    -21.488  0.0000E+00  0.0000E+00  0.2560E+03  0.2560E+03
    -21.248  0.0000E+00  0.0000E+00  0.2560E+03  0.2560E+03
    -21.008  0.0000E+00  0.0000E+00  0.2560E+03  0.2560E+03
    -20.767  0.0000E+00  0.0000E+00  0.2560E+03  0.2560E+03
    -20.527  0.0000E+00  0.0000E+00  0.2560E+03  0.2560E+03
    -20.286  0.0000E+00  0.0000E+00  0.2560E+03  0.2560E+03
    -20.046  0.0000E+00  0.0000E+00  0.2560E+03  0.2560E+03
    -19.806  0.0000E+00  0.0000E+00  0.2560E+03  0.2560E+03
    -19.565  0.0000E+00  0.0000E+00  0.2560E+03  0.2560E+03
    -19.325  0.0000E+00  0.0000E+00  0.2560E+03  0.2560E+03
    -19.084  0.0000E+00  0.0000E+00  0.2560E+03  0.2560E+03
    -18.844  0.0000E+00  0.0000E+00  0.2560E+03  0.2560E+03
    -18.604  0.0000E+00  0.0000E+00  0.2560E+03  0.2560E+03
    -18.363  0.0000E+00  0.0000E+00  0.2560E+03  0.2560E+03
    -18.123  0.0000E+00  0.0000E+00  0.2560E+03  0.2560E+03
    -17.882  0.0000E+00  0.0000E+00  0.2560E+03  0.2560E+03
    -17.642  0.0000E+00  0.0000E+00  0.2560E+03  0.2560E+03
    -17.401  0.0000E+00  0.0000E+00  0.2560E+03  0.2560E+03
    -17.161  0.0000E+00  0.0000E+00  0.2560E+03  0.2560E+03
    -16.921  0.0000E+00  0.0000E+00  0.2560E+03  0.2560E+03
    -16.680  0.0000E+00  0.0000E+00  0.2560E+03  0.2560E+03
    -16.440  0.0000E+00  0.0000E+00  0.2560E+03  0.2560E+03
    -16.199  0.0000E+00  0.0000E+00  0.2560E+03  0.2560E+03
    -15.959  0.0000E+00  0.0000E+00  0.2560E+03  0.2560E+03
    -15.719  0.0000E+00  0.0000E+00  0.2560E+03  0.2560E+03
    -15.478  0.0000E+00  0.0000E+00  0.2560E+03  0.2560E+03
    -15.238  0.0000E+00  0.0000E+00  0.2560E+03  0.2560E+03
    -14.997  0.0000E+00  0.0000E+00  0.2560E+03  0.2560E+03
    -14.757  0.0000E+00  0.0000E+00  0.2560E+03  0.2560E+03
    -14.517  0.0000E+00  0.0000E+00  0.2560E+03  0.2560E+03
    -14.276  0.0000E+00  0.0000E+00  0.2560E+03  0.2560E+03
    -14.036  0.0000E+00  0.0000E+00  0.2560E+03  0.2560E+03
    -13.795  0.0000E+00  0.0000E+00  0.2560E+03  0.2560E+03
    -13.555  0.0000E+00  0.0000E+00  0.2560E+03  0.2560E+03
    -13.315  0.0000E+00  0.0000E+00  0.2560E+03  0.2560E+03
    -13.074  0.0000E+00  0.0000E+00  0.2560E+03  0.2560E+03
    -12.834  0.7299E-01  0.0000E+00  0.2560E+03  0.2560E+03
    -12.593  0.1319E+03  0.1400E-02  0.2877E+03  0.2560E+03
    -12.353  0.1090E+01  0.1233E+03  0.2880E+03  0.2857E+03
    -12.113  0.0000E+00  0.9761E+01  0.2880E+03  0.2880E+03
    -11.872  0.0000E+00  0.0000E+00  0.2880E+03  0.2880E+03
    -11.632  0.0000E+00  0.0000E+00  0.2880E+03  0.2880E+03
    -11.391  0.0000E+00  0.0000E+00  0.2880E+03  0.2880E+03
    -11.151  0.0000E+00  0.0000E+00  0.2880E+03  0.2880E+03
    -10.911  0.0000E+00  0.0000E+00  0.2880E+03  0.2880E+03
    -10.670  0.0000E+00  0.0000E+00  0.2880E+03  0.2880E+03
    -10.430  0.0000E+00  0.0000E+00  0.2880E+03  0.2880E+03
    -10.189  0.0000E+00  0.0000E+00  0.2880E+03  0.2880E+03
     -9.949  0.0000E+00  0.0000E+00  0.2880E+03  0.2880E+03
     -9.709  0.0000E+00  0.0000E+00  0.2880E+03  0.2880E+03
     -9.468  0.0000E+00  0.0000E+00  0.2880E+03  0.2880E+03
     -9.228  0.0000E+00  0.0000E+00  0.2880E+03  0.2880E+03
     -8.987  0.0000E+00  0.0000E+00  0.2880E+03  0.2880E+03
     -8.747  0.0000E+00  0.0000E+00  0.2880E+03  0.2880E+03
     -8.506  0.0000E+00  0.0000E+00  0.2880E+03  0.2880E+03
     -8.266  0.0000E+00  0.0000E+00  0.2880E+03  0.2880E+03
     -8.026  0.4596E-10  0.0000E+00  0.2880E+03  0.2880E+03
     -7.785  0.9178E+00  0.3745E-07  0.2882E+03  0.2880E+03
     -7.545  0.1878E+02  0.2820E+01  0.2927E+03  0.2887E+03
     -7.304  0.2814E+02  0.2230E+02  0.2995E+03  0.2940E+03
     -7.064  0.5362E+02  0.3101E+02  0.3124E+03  0.3015E+03
     -6.824  0.1469E+03  0.4886E+02  0.3477E+03  0.3132E+03
     -6.583  0.1786E+02  0.1389E+03  0.3520E+03  0.3466E+03
     -6.343  0.0000E+00  0.2233E+02  0.3520E+03  0.3520E+03
     -6.102  0.0000E+00  0.1223E-04  0.3520E+03  0.3520E+03
     -5.862  0.0000E+00  0.0000E+00  0.3520E+03  0.3520E+03
     -5.622  0.0000E+00  0.0000E+00  0.3520E+03  0.3520E+03
     -5.381  0.0000E+00  0.0000E+00  0.3520E+03  0.3520E+03
     -5.141  0.0000E+00  0.0000E+00  0.3520E+03  0.3520E+03
     -4.900  0.0000E+00  0.0000E+00  0.3520E+03  0.3520E+03
     -4.660  0.0000E+00  0.0000E+00  0.3520E+03  0.3520E+03
     -4.420  0.0000E+00  0.0000E+00  0.3520E+03  0.3520E+03
     -4.179  0.0000E+00  0.0000E+00  0.3520E+03  0.3520E+03
     -3.939  0.0000E+00  0.0000E+00  0.3520E+03  0.3520E+03
     -3.698  0.0000E+00  0.0000E+00  0.3520E+03  0.3520E+03
     -3.458  0.0000E+00  0.0000E+00  0.3520E+03  0.3520E+03
     -3.218  0.0000E+00  0.0000E+00  0.3520E+03  0.3520E+03
     -2.977  0.0000E+00  0.0000E+00  0.3520E+03  0.3520E+03
     -2.737  0.0000E+00  0.0000E+00  0.3520E+03  0.3520E+03
     -2.496  0.0000E+00  0.0000E+00  0.3520E+03  0.3520E+03
     -2.256  0.0000E+00  0.0000E+00  0.3520E+03  0.3520E+03
     -2.016  0.0000E+00  0.0000E+00  0.3520E+03  0.3520E+03
     -1.775  0.4668E-12  0.0000E+00  0.3520E+03  0.3520E+03
     -1.535  0.1228E+01  0.0000E+00  0.3523E+03  0.3520E+03
     -1.294  0.9983E+02  0.0000E+00  0.3763E+03  0.3520E+03
     -1.054  0.3205E+02  0.0000E+00  0.3840E+03  0.3520E+03
     -0.814  0.1241E+02  0.0000E+00  0.3870E+03  0.3520E+03
     -0.573  0.8932E+02  0.7556E-05  0.4085E+03  0.3520E+03
     -0.333  0.2235E+03  0.4043E+01  0.4622E+03  0.3530E+03
     -0.092  0.2018E+03  0.2469E+02  0.5107E+03  0.3589E+03
      0.148  0.1768E+03  0.4102E+02  0.5532E+03  0.3688E+03
      0.389  0.1518E+03  0.4233E+02  0.5897E+03  0.3789E+03
      0.629  0.1198E+03  0.7189E+02  0.6185E+03  0.3962E+03
      0.869  0.5447E+02  0.6055E+02  0.6316E+03  0.4108E+03
      1.110  0.6956E+02  0.6529E+02  0.6483E+03  0.4265E+03
      1.350  0.7350E+02  0.6771E+02  0.6660E+03  0.4428E+03
      1.591  0.6801E+02  0.7762E+02  0.6824E+03  0.4614E+03
      1.831  0.1105E+03  0.1110E+03  0.7089E+03  0.4881E+03
      2.071  0.2136E+03  0.6226E+02  0.7603E+03  0.5031E+03
      2.312  0.1399E+03  0.3780E+02  0.7939E+03  0.5122E+03
      2.552  0.8454E+02  0.7743E+02  0.8142E+03  0.5308E+03
      2.793  0.6871E+02  0.1039E+03  0.8307E+03  0.5558E+03
      3.033  0.3531E+02  0.7077E+02  0.8392E+03  0.5728E+03
      3.273  0.4040E+02  0.1313E+03  0.8489E+03  0.6043E+03
      3.514  0.5192E+02  0.1174E+03  0.8614E+03  0.6325E+03
      3.754  0.6738E+02  0.2514E+02  0.8776E+03  0.6386E+03
      3.995  0.7970E+02  0.4388E+02  0.8968E+03  0.6491E+03
      4.235  0.8007E+02  0.1785E+03  0.9160E+03  0.6921E+03
      4.475  0.7583E+02  0.4799E+02  0.9343E+03  0.7036E+03
      4.716  0.2870E+02  0.1676E+01  0.9412E+03  0.7040E+03
      4.956  0.6463E+02  0.0000E+00  0.9567E+03  0.7040E+03
      5.197  0.1373E+02  0.0000E+00  0.9600E+03  0.7040E+03
      5.437  0.0000E+00  0.0000E+00  0.9600E+03  0.7040E+03
      5.677  0.0000E+00  0.0000E+00  0.9600E+03  0.7040E+03
      5.918  0.0000E+00  0.0000E+00  0.9600E+03  0.7040E+03
      6.158  0.0000E+00  0.8507E-07  0.9600E+03  0.7040E+03
      6.399  0.0000E+00  0.1030E+01  0.9600E+03  0.7042E+03
      6.639  0.0000E+00  0.1012E+02  0.9600E+03  0.7067E+03
      6.879  0.0000E+00  0.2651E+02  0.9600E+03  0.7131E+03
      7.120  0.2886E-16  0.6582E+02  0.9600E+03  0.7289E+03
      7.360  0.5774E-01  0.1114E+03  0.9600E+03  0.7556E+03
      7.601  0.1502E+01  0.1393E+03  0.9604E+03  0.7891E+03
      7.841  0.5122E+01  0.1182E+03  0.9616E+03  0.8176E+03
      8.081  0.7085E+01  0.1786E+03  0.9633E+03  0.8605E+03
      8.322  0.9300E+01  0.1459E+03  0.9655E+03  0.8956E+03
      8.562  0.1252E+02  0.6192E+02  0.9686E+03  0.9104E+03
      8.803  0.1445E+02  0.8257E+02  0.9720E+03  0.9303E+03
      9.043  0.2715E+02  0.7300E+02  0.9786E+03  0.9478E+03
      9.284  0.3344E+02  0.5734E+02  0.9866E+03  0.9616E+03
      9.524  0.3531E+02  0.2319E+02  0.9951E+03  0.9672E+03
      9.764  0.5327E+02  0.3405E+02  0.1008E+04  0.9754E+03
     10.005  0.5112E+02  0.2267E+02  0.1020E+04  0.9808E+03
     10.245  0.3393E+02  0.3873E+02  0.1028E+04  0.9901E+03
     10.486  0.2155E+02  0.4343E+02  0.1034E+04  0.1001E+04
     10.726  0.4557E+02  0.6105E+02  0.1044E+04  0.1015E+04
     10.966  0.3307E+02  0.4350E+02  0.1052E+04  0.1026E+04
     11.207  0.4354E+02  0.4020E+02  0.1063E+04  0.1035E+04
     11.447  0.7797E+02  0.3448E+02  0.1082E+04  0.1044E+04
     11.688  0.4287E+02  0.4377E+02  0.1092E+04  0.1054E+04
     11.928  0.6448E+02  0.5187E+02  0.1107E+04  0.1067E+04
     12.168  0.6670E+02  0.5749E+02  0.1123E+04  0.1080E+04
     12.409  0.6931E+02  0.5326E+02  0.1140E+04  0.1093E+04
     12.649  0.6091E+02  0.6692E+02  0.1155E+04  0.1109E+04
     12.890  0.5270E+02  0.7974E+02  0.1167E+04  0.1129E+04
     13.130  0.5856E+02  0.6463E+02  0.1182E+04  0.1144E+04
     13.370  0.4845E+02  0.6624E+02  0.1193E+04  0.1160E+04
     13.611  0.4023E+02  0.6458E+02  0.1203E+04  0.1176E+04
     13.851  0.1883E+02  0.5727E+02  0.1207E+04  0.1189E+04
     14.092  0.2597E+01  0.5312E+02  0.1208E+04  0.1202E+04
     14.332  0.0000E+00  0.2150E+02  0.1208E+04  0.1207E+04
     14.572  0.0000E+00  0.3141E+01  0.1208E+04  0.1208E+04
     14.813  0.0000E+00  0.3928E-05  0.1208E+04  0.1208E+04
     15.053  0.0000E+00  0.0000E+00  0.1208E+04  0.1208E+04
     15.294  0.0000E+00  0.0000E+00  0.1208E+04  0.1208E+04
     15.534  0.0000E+00  0.0000E+00  0.1208E+04  0.1208E+04
     15.774  0.0000E+00  0.0000E+00  0.1208E+04  0.1208E+04
     16.015  0.0000E+00  0.0000E+00  0.1208E+04  0.1208E+04
     16.255  0.0000E+00  0.0000E+00  0.1208E+04  0.1208E+04
     16.496  0.0000E+00  0.0000E+00  0.1208E+04  0.1208E+04
     16.736  0.0000E+00  0.0000E+00  0.1208E+04  0.1208E+04
     16.976  0.0000E+00  0.0000E+00  0.1208E+04  0.1208E+04
     17.217  0.0000E+00  0.0000E+00  0.1208E+04  0.1208E+04
     17.457  0.0000E+00  0.0000E+00  0.1208E+04  0.1208E+04
     17.698  0.0000E+00  0.0000E+00  0.1208E+04  0.1208E+04
