  224  224    1    2
  0.1357572E+02  0.1537960E-08  0.1537962E-08  0.1395899E-08  0.5000000E-15
  1.000000000000000E-004
  CAR 
 unknown system                          
   1664      8   1208
 
  0.0000000E+00  0.0000000E+00  0.0000000E+00  0.1250000E+00
    1      -51.145633    -46.394413   1.000000   1.000000
    2      -51.145499    -46.394209   1.000000   1.000000
    3      -51.141998    -46.391319   1.000000   1.000000
    4      -51.141846    -46.390973   1.000000   1.000000
    5      -51.141661    -46.390891   1.000000   1.000000
    6      -51.141619    -46.390799   1.000000   1.000000
    7      -51.141545    -46.390631   1.000000   1.000000
    8      -51.141369    -46.390546   1.000000   1.000000
    9      -51.141291    -46.390516   1.000000   1.000000
   10      -51.141196    -46.390382   1.000000   1.000000
   11      -51.141132    -46.390279   1.000000   1.000000
   12      -51.141115    -46.390207   1.000000   1.000000
   13      -51.141014    -46.390159   1.000000   1.000000
   14      -51.141010    -46.390066   1.000000   1.000000
   15      -51.140957    -46.390016   1.000000   1.000000
   16      -51.140912    -46.389990   1.000000   1.000000
   17      -51.140892    -46.389977   1.000000   1.000000
   18      -51.140830    -46.389938   1.000000   1.000000
   19      -51.140775    -46.389869   1.000000   1.000000
   20      -51.140766    -46.389802   1.000000   1.000000
   21      -51.140687    -46.389693   1.000000   1.000000
   22      -51.140664    -46.389676   1.000000   1.000000
   23      -51.140609    -46.389581   1.000000   1.000000
   24      -51.140535    -46.389567   1.000000   1.000000
   25      -51.140511    -46.389532   1.000000   1.000000
   26      -51.140502    -46.389520   1.000000   1.000000
   27      -51.140489    -46.389452   1.000000   1.000000
   28      -51.140450    -46.389426   1.000000   1.000000
   29      -51.140430    -46.389361   1.000000   1.000000
   30      -51.140424    -46.389342   1.000000   1.000000
   31      -51.140389    -46.389267   1.000000   1.000000
   32      -51.140371    -46.389207   1.000000   1.000000
   33      -51.140324    -46.389159   1.000000   1.000000
   34      -51.140292    -46.389153   1.000000   1.000000
   35      -51.140236    -46.389105   1.000000   1.000000
   36      -51.140181    -46.389057   1.000000   1.000000
   37      -51.140164    -46.389037   1.000000   1.000000
   38      -51.140150    -46.388938   1.000000   1.000000
   39      -51.140118    -46.388902   1.000000   1.000000
   40      -51.140109    -46.388870   1.000000   1.000000
   41      -51.140062    -46.388841   1.000000   1.000000
   42      -51.140032    -46.388829   1.000000   1.000000
   43      -51.139943    -46.388726   1.000000   1.000000
   44      -51.139920    -46.388673   1.000000   1.000000
   45      -51.139912    -46.388631   1.000000   1.000000
   46      -51.139866    -46.388599   1.000000   1.000000
   47      -51.139828    -46.388550   1.000000   1.000000
   48      -51.139778    -46.388472   1.000000   1.000000
   49      -51.139751    -46.388469   1.000000   1.000000
   50      -51.139679    -46.388416   1.000000   1.000000
   51      -51.139615    -46.388335   1.000000   1.000000
   52      -51.139601    -46.388291   1.000000   1.000000
   53      -51.139569    -46.388250   1.000000   1.000000
   54      -51.139524    -46.388154   1.000000   1.000000
   55      -51.139500    -46.388139   1.000000   1.000000
   56      -51.139382    -46.388120   1.000000   1.000000
   57      -51.139367    -46.388060   1.000000   1.000000
   58      -51.139197    -46.387940   1.000000   1.000000
   59      -51.139136    -46.387731   1.000000   1.000000
   60      -51.139081    -46.387686   1.000000   1.000000
   61      -51.138960    -46.387615   1.000000   1.000000
   62      -51.138812    -46.387335   1.000000   1.000000
   63      -51.135051    -46.384144   1.000000   1.000000
   64      -51.135027    -46.384085   1.000000   1.000000
   65      -49.652126    -45.933399   1.000000   1.000000
   66      -49.651686    -45.933037   1.000000   1.000000
   67      -49.650365    -45.932006   1.000000   1.000000
   68      -49.649970    -45.931507   1.000000   1.000000
   69      -49.648186    -45.929387   1.000000   1.000000
   70      -49.648143    -45.929356   1.000000   1.000000
   71      -49.648070    -45.929331   1.000000   1.000000
   72      -49.647696    -45.929264   1.000000   1.000000
   73      -49.647659    -45.929006   1.000000   1.000000
   74      -49.647551    -45.928979   1.000000   1.000000
   75      -49.647538    -45.928942   1.000000   1.000000
   76      -49.647459    -45.928871   1.000000   1.000000
   77      -49.647446    -45.928843   1.000000   1.000000
   78      -49.647339    -45.928782   1.000000   1.000000
   79      -49.647320    -45.928736   1.000000   1.000000
   80      -49.647315    -45.928728   1.000000   1.000000
   81      -49.647264    -45.928655   1.000000   1.000000
   82      -49.647229    -45.928624   1.000000   1.000000
   83      -49.647202    -45.928591   1.000000   1.000000
   84      -49.647195    -45.928562   1.000000   1.000000
   85      -49.647149    -45.928518   1.000000   1.000000
   86      -49.647111    -45.928439   1.000000   1.000000
   87      -49.647093    -45.928411   1.000000   1.000000
   88      -49.647046    -45.928386   1.000000   1.000000
   89      -49.647030    -45.928370   1.000000   1.000000
   90      -49.647005    -45.928360   1.000000   1.000000
   91      -49.646939    -45.928343   1.000000   1.000000
   92      -49.646922    -45.928304   1.000000   1.000000
   93      -49.646894    -45.928282   1.000000   1.000000
   94      -49.646884    -45.928255   1.000000   1.000000
   95      -49.646792    -45.928232   1.000000   1.000000
   96      -49.646780    -45.928211   1.000000   1.000000
   97      -49.646769    -45.928156   1.000000   1.000000
   98      -49.646698    -45.928088   1.000000   1.000000
   99      -49.646665    -45.928078   1.000000   1.000000
  100      -49.646636    -45.927996   1.000000   1.000000
  101      -49.646544    -45.927972   1.000000   1.000000
  102      -49.646518    -45.927928   1.000000   1.000000
  103      -49.646504    -45.927890   1.000000   1.000000
  104      -49.646461    -45.927867   1.000000   1.000000
  105      -49.646366    -45.927837   1.000000   1.000000
  106      -49.646346    -45.927836   1.000000   1.000000
  107      -49.646317    -45.927792   1.000000   1.000000
  108      -49.646265    -45.927768   1.000000   1.000000
  109      -49.646238    -45.927717   1.000000   1.000000
  110      -49.646211    -45.927708   1.000000   1.000000
  111      -49.646184    -45.927628   1.000000   1.000000
  112      -49.646115    -45.927587   1.000000   1.000000
  113      -49.646078    -45.927565   1.000000   1.000000
  114      -49.646061    -45.927538   1.000000   1.000000
  115      -49.646052    -45.927479   1.000000   1.000000
  116      -49.646008    -45.927439   1.000000   1.000000
  117      -49.645943    -45.927412   1.000000   1.000000
  118      -49.645903    -45.927396   1.000000   1.000000
  119      -49.645850    -45.927381   1.000000   1.000000
  120      -49.645816    -45.927322   1.000000   1.000000
  121      -49.645797    -45.927318   1.000000   1.000000
  122      -49.645743    -45.927292   1.000000   1.000000
  123      -49.645700    -45.927283   1.000000   1.000000
  124      -49.645696    -45.927265   1.000000   1.000000
  125      -49.645674    -45.927241   1.000000   1.000000
  126      -49.645665    -45.927221   1.000000   1.000000
  127      -49.645662    -45.927182   1.000000   1.000000
  128      -49.645592    -45.927146   1.000000   1.000000
  129      -49.645552    -45.927128   1.000000   1.000000
  130      -49.645539    -45.927105   1.000000   1.000000
  131      -49.645494    -45.927080   1.000000   1.000000
  132      -49.645463    -45.927067   1.000000   1.000000
  133      -49.645422    -45.927016   1.000000   1.000000
  134      -49.645392    -45.927010   1.000000   1.000000
  135      -49.645380    -45.926984   1.000000   1.000000
  136      -49.645367    -45.926980   1.000000   1.000000
  137      -49.645336    -45.926958   1.000000   1.000000
  138      -49.645292    -45.926908   1.000000   1.000000
  139      -49.645264    -45.926891   1.000000   1.000000
  140      -49.645203    -45.926875   1.000000   1.000000
  141      -49.645188    -45.926840   1.000000   1.000000
  142      -49.645184    -45.926789   1.000000   1.000000
  143      -49.645144    -45.926770   1.000000   1.000000
  144      -49.645142    -45.926718   1.000000   1.000000
  145      -49.645099    -45.926688   1.000000   1.000000
  146      -49.645085    -45.926675   1.000000   1.000000
  147      -49.645080    -45.926672   1.000000   1.000000
  148      -49.644987    -45.926632   1.000000   1.000000
  149      -49.644970    -45.926629   1.000000   1.000000
  150      -49.644941    -45.926594   1.000000   1.000000
  151      -49.644890    -45.926571   1.000000   1.000000
  152      -49.644860    -45.926560   1.000000   1.000000
  153      -49.644847    -45.926550   1.000000   1.000000
  154      -49.644829    -45.926525   1.000000   1.000000
  155      -49.644781    -45.926479   1.000000   1.000000
  156      -49.644711    -45.926443   1.000000   1.000000
  157      -49.644675    -45.926421   1.000000   1.000000
  158      -49.644657    -45.926419   1.000000   1.000000
  159      -49.644634    -45.926393   1.000000   1.000000
  160      -49.644597    -45.926346   1.000000   1.000000
  161      -49.644558    -45.926312   1.000000   1.000000
  162      -49.644535    -45.926297   1.000000   1.000000
  163      -49.644513    -45.926294   1.000000   1.000000
  164      -49.644453    -45.926274   1.000000   1.000000
  165      -49.644399    -45.926227   1.000000   1.000000
  166      -49.644384    -45.926166   1.000000   1.000000
  167      -49.644372    -45.926143   1.000000   1.000000
  168      -49.644359    -45.926127   1.000000   1.000000
  169      -49.644256    -45.926109   1.000000   1.000000
  170      -49.644207    -45.926064   1.000000   1.000000
  171      -49.644198    -45.926021   1.000000   1.000000
  172      -49.644149    -45.925997   1.000000   1.000000
  173      -49.644138    -45.925920   1.000000   1.000000
  174      -49.644087    -45.925894   1.000000   1.000000
  175      -49.644060    -45.925892   1.000000   1.000000
  176      -49.644035    -45.925818   1.000000   1.000000
  177      -49.643995    -45.925773   1.000000   1.000000
  178      -49.643992    -45.925753   1.000000   1.000000
  179      -49.643904    -45.925712   1.000000   1.000000
  180      -49.643826    -45.925684   1.000000   1.000000
  181      -49.643722    -45.925646   1.000000   1.000000
  182      -49.643658    -45.925626   1.000000   1.000000
  183      -49.643512    -45.925557   1.000000   1.000000
  184      -49.643422    -45.925456   1.000000   1.000000
  185      -49.643407    -45.925423   1.000000   1.000000
  186      -49.643362    -45.925416   1.000000   1.000000
  187      -49.643151    -45.925186   1.000000   1.000000
  188      -49.643137    -45.924992   1.000000   1.000000
  189      -49.642018    -45.922696   1.000000   1.000000
  190      -49.641297    -45.922328   1.000000   1.000000
  191      -49.638960    -45.921472   1.000000   1.000000
  192      -49.638352    -45.921127   1.000000   1.000000
  193      -39.641210    -39.640294   1.000000   1.000000
  194      -39.641076    -39.640158   1.000000   1.000000
  195      -39.634282    -39.633413   1.000000   1.000000
  196      -39.633624    -39.632751   1.000000   1.000000
  197      -39.633500    -39.632628   1.000000   1.000000
  198      -39.633459    -39.632587   1.000000   1.000000
  199      -39.633421    -39.632548   1.000000   1.000000
  200      -39.633386    -39.632513   1.000000   1.000000
  201      -39.633189    -39.632316   1.000000   1.000000
  202      -39.632795    -39.631921   1.000000   1.000000
  203      -39.628223    -39.627387   1.000000   1.000000
  204      -39.627919    -39.627080   1.000000   1.000000
  205      -39.627867    -39.627030   1.000000   1.000000
  206      -39.627813    -39.626976   1.000000   1.000000
  207      -39.627689    -39.626851   1.000000   1.000000
  208      -39.627649    -39.626810   1.000000   1.000000
  209      -39.627568    -39.626730   1.000000   1.000000
  210      -39.627300    -39.626460   1.000000   1.000000
  211      -39.617458    -39.616691   1.000000   1.000000
  212      -39.616253    -39.615478   1.000000   1.000000
  213      -39.616177    -39.615402   1.000000   1.000000
  214      -39.615976    -39.615199   1.000000   1.000000
  215      -39.615963    -39.615185   1.000000   1.000000
  216      -39.615808    -39.615038   1.000000   1.000000
  217      -39.615792    -39.615016   1.000000   1.000000
  218      -39.615633    -39.614853   1.000000   1.000000
  219      -39.615575    -39.614795   1.000000   1.000000
  220      -39.615340    -39.614572   1.000000   1.000000
  221      -39.615298    -39.614530   1.000000   1.000000
  222      -39.615272    -39.614501   1.000000   1.000000
  223      -39.615210    -39.614442   1.000000   1.000000
  224      -39.615162    -39.614395   1.000000   1.000000
  225      -39.615154    -39.614386   1.000000   1.000000
  226      -39.615014    -39.614246   1.000000   1.000000
  227      -39.615013    -39.614245   1.000000   1.000000
  228      -39.615003    -39.614234   1.000000   1.000000
  229      -39.614985    -39.614216   1.000000   1.000000
  230      -39.614925    -39.614157   1.000000   1.000000
  231      -39.614898    -39.614130   1.000000   1.000000
  232      -39.614762    -39.613996   1.000000   1.000000
  233      -39.614711    -39.613941   1.000000   1.000000
  234      -39.614597    -39.613832   1.000000   1.000000
  235      -39.614182    -39.613422   1.000000   1.000000
  236      -39.614009    -39.613246   1.000000   1.000000
  237      -39.613699    -39.612935   1.000000   1.000000
  238      -39.613097    -39.612327   1.000000   1.000000
  239      -39.604310    -39.603592   1.000000   1.000000
  240      -39.604027    -39.603307   1.000000   1.000000
  241      -39.603933    -39.603214   1.000000   1.000000
  242      -39.603874    -39.603155   1.000000   1.000000
  243      -39.603785    -39.603065   1.000000   1.000000
  244      -39.603720    -39.603000   1.000000   1.000000
  245      -39.603661    -39.602942   1.000000   1.000000
  246      -39.603374    -39.602652   1.000000   1.000000
  247      -39.600152    -39.599446   1.000000   1.000000
  248      -39.599763    -39.599058   1.000000   1.000000
  249      -39.599579    -39.598873   1.000000   1.000000
  250      -39.599536    -39.598830   1.000000   1.000000
  251      -39.599489    -39.598782   1.000000   1.000000
  252      -39.599416    -39.598710   1.000000   1.000000
  253      -39.599342    -39.598635   1.000000   1.000000
  254      -39.598638    -39.597928   1.000000   1.000000
  255      -39.593267    -39.592584   1.000000   1.000000
  256      -39.593083    -39.592399   1.000000   1.000000
  257      -12.747252    -12.467788   1.000000   1.000000
  258      -12.747201    -12.467730   1.000000   1.000000
  259      -12.720364    -12.440673   1.000000   1.000000
  260      -12.719505    -12.439749   1.000000   1.000000
  261      -12.719392    -12.439647   1.000000   1.000000
  262      -12.719349    -12.439596   1.000000   1.000000
  263      -12.719332    -12.439580   1.000000   1.000000
  264      -12.719315    -12.439565   1.000000   1.000000
  265      -12.719149    -12.439401   1.000000   1.000000
  266      -12.718374    -12.438572   1.000000   1.000000
  267      -12.697294    -12.417159   1.000000   1.000000
  268      -12.697248    -12.417109   1.000000   1.000000
  269      -12.694925    -12.415308   1.000000   1.000000
  270      -12.694767    -12.415158   1.000000   1.000000
  271      -12.694752    -12.415145   1.000000   1.000000
  272      -12.694749    -12.415142   1.000000   1.000000
  273      -12.692520    -12.413361   1.000000   1.000000
  274      -12.692306    -12.413224   1.000000   1.000000
  275      -12.691257    -12.411224   1.000000   1.000000
  276      -12.691225    -12.411197   1.000000   1.000000
  277      -12.691103    -12.411103   1.000000   1.000000
  278      -12.690935    -12.410950   1.000000   1.000000
  279      -12.673232    -12.393253   1.000000   1.000000
  280      -12.672674    -12.392655   1.000000   1.000000
  281      -12.672583    -12.392569   1.000000   1.000000
  282      -12.672187    -12.392165   1.000000   1.000000
  283      -12.668104    -12.389221   1.000000   1.000000
  284      -12.667606    -12.388712   1.000000   1.000000
  285      -12.667515    -12.388624   1.000000   1.000000
  286      -12.667028    -12.388088   1.000000   1.000000
  287      -12.654490    -12.374533   1.000000   1.000000
  288      -12.643723    -12.365994   1.000000   1.000000
  289       -7.800027     -7.599028   1.000000   1.000000
  290       -7.748234     -7.551512   1.000000   1.000000
  291       -7.505564     -7.319321   1.000000   1.000000
  292       -7.505386     -7.319133   1.000000   1.000000
  293       -7.505311     -7.319057   1.000000   1.000000
  294       -7.505155     -7.318888   1.000000   1.000000
  295       -7.501144     -7.309008   1.000000   1.000000
  296       -7.500976     -7.308837   1.000000   1.000000
  297       -7.500902     -7.308762   1.000000   1.000000
  298       -7.500758     -7.308604   1.000000   1.000000
  299       -7.315281     -7.117839   1.000000   1.000000
  300       -7.315027     -7.117564   1.000000   1.000000
  301       -7.297086     -7.093825   1.000000   1.000000
  302       -7.296829     -7.093546   1.000000   1.000000
  303       -7.296794     -7.093510   1.000000   1.000000
  304       -7.296549     -7.093243   1.000000   1.000000
  305       -7.269379     -7.062092   1.000000   1.000000
  306       -7.269092     -7.061782   1.000000   1.000000
  307       -7.088644     -6.894028   1.000000   1.000000
  308       -7.084811     -6.893849   1.000000   1.000000
  309       -7.084661     -6.893837   1.000000   1.000000
  310       -7.084642     -6.893657   1.000000   1.000000
  311       -7.084469     -6.796735   1.000000   1.000000
  312       -7.046572     -6.783805   1.000000   1.000000
  313       -7.000376     -6.768125   1.000000   1.000000
  314       -7.000158     -6.768008   1.000000   1.000000
  315       -6.999905     -6.767966   1.000000   1.000000
  316       -6.999769     -6.767747   1.000000   1.000000
  317       -6.999757     -6.766682   1.000000   1.000000
  318       -6.999665     -6.766440   1.000000   1.000000
  319       -6.999393     -6.766202   1.000000   1.000000
  320       -6.999193     -6.766081   1.000000   1.000000
  321       -6.994483     -6.766061   1.000000   1.000000
  322       -6.994195     -6.765945   1.000000   1.000000
  323       -6.994112     -6.765656   1.000000   1.000000
  324       -6.993812     -6.765402   1.000000   1.000000
  325       -6.955932     -6.745226   1.000000   1.000000
  326       -6.955771     -6.744905   1.000000   1.000000
  327       -6.955758     -6.744824   1.000000   1.000000
  328       -6.955587     -6.744485   1.000000   1.000000
  329       -6.948341     -6.697483   1.000000   1.000000
  330       -6.948282     -6.697428   1.000000   1.000000
  331       -6.928919     -6.689408   1.000000   1.000000
  332       -6.928667     -6.689126   1.000000   1.000000
  333       -6.928590     -6.689045   1.000000   1.000000
  334       -6.928277     -6.688704   1.000000   1.000000
  335       -6.911321     -6.639876   1.000000   1.000000
  336       -6.911299     -6.639483   1.000000   1.000000
  337       -6.885749     -6.639326   1.000000   1.000000
  338       -6.885647     -6.639093   1.000000   1.000000
  339       -6.885640     -6.639024   1.000000   1.000000
  340       -6.885585     -6.638958   1.000000   1.000000
  341       -6.877383     -6.638821   1.000000   1.000000
  342       -6.877185     -6.638598   1.000000   1.000000
  343       -6.876928     -6.638345   1.000000   1.000000
  344       -6.876813     -6.638303   1.000000   1.000000
  345       -6.876794     -6.638101   1.000000   1.000000
  346       -6.876666     -6.637783   1.000000   1.000000
  347       -6.876418     -6.628056   1.000000   1.000000
  348       -6.876183     -6.628038   1.000000   1.000000
  349       -6.832629     -6.586669   1.000000   1.000000
  350       -6.832555     -6.586590   1.000000   1.000000
  351       -6.794268     -6.499090   1.000000   1.000000
  352       -6.794249     -6.499070   1.000000   1.000000
  353       -1.525523     -0.414697   1.000000   1.000000
  354       -1.468194     -0.414521   1.000000   1.000000
  355       -1.467725     -0.414452   1.000000   1.000000
  356       -1.467604     -0.414388   1.000000   1.000000
  357       -1.467247      0.025865   1.000000   1.000000
  358       -1.460340      0.026322   1.000000   1.000000
  359       -1.460330      0.026447   1.000000   1.000000
  360       -1.460181      0.026697   1.000000   1.000000
  361       -1.460115      0.037708   1.000000   1.000000
  362       -1.421387      0.037795   1.000000   1.000000
  363       -1.421336      0.037935   1.000000   1.000000
  364       -1.382810      0.038017   1.000000   1.000000
  365       -1.382787      0.038068   1.000000   1.000000
  366       -1.382763      0.038249   1.000000   1.000000
  367       -1.382738      0.038301   1.000000   1.000000
  368       -1.333363      0.038374   1.000000   1.000000
  369       -1.332723      0.102898   1.000000   1.000000
  370       -1.332564      0.102905   1.000000   1.000000
  371       -1.332518      0.207404   1.000000   1.000000
  372       -1.332477      0.207541   1.000000   1.000000
  373       -1.332424      0.207561   1.000000   1.000000
  374       -1.332287      0.207682   1.000000   1.000000
  375       -1.331635      0.304165   1.000000   1.000000
  376       -1.292973      0.392175   1.000000   1.000000
  377       -1.292515      0.392546   1.000000   1.000000
  378       -1.292395      0.392704   1.000000   1.000000
  379       -1.291969      0.393120   1.000000   1.000000
  380       -1.256792      0.490788   1.000000   1.000000
  381       -1.256775      0.491001   1.000000   1.000000
  382       -1.232166      0.497529   1.000000   1.000000
  383       -1.232153      0.497679   1.000000   1.000000
  384       -1.220368      0.497728   1.000000   1.000000
  385       -0.822829      0.497980   1.000000   1.000000
  386       -0.822720      0.510668   1.000000   1.000000
  387       -0.822647      0.510702   1.000000   1.000000
  388       -0.822583      0.531091   1.000000   1.000000
  389       -0.722720      0.531198   1.000000   1.000000
  390       -0.722581      0.531234   1.000000   1.000000
  391       -0.699174      0.531472   1.000000   1.000000
  392       -0.699115      0.574132   1.000000   1.000000
  393       -0.699062      0.574215   1.000000   1.000000
  394       -0.698756      0.574278   1.000000   1.000000
  395       -0.688473      0.574373   1.000000   1.000000
  396       -0.688415      0.574402   1.000000   1.000000
  397       -0.688195      0.574450   1.000000   1.000000
  398       -0.688151      0.574540   1.000000   1.000000
  399       -0.666837      0.574678   1.000000   1.000000
  400       -0.666586      0.638615   1.000000   1.000000
  401       -0.666444      0.666261   1.000000   1.000000
  402       -0.666373      0.666378   1.000000   1.000000
  403       -0.652009      0.733082   1.000000   1.000000
  404       -0.651826      0.733102   1.000000   1.000000
  405       -0.651761      0.931372   1.000000   1.000000
  406       -0.651643      0.932549   1.000000   1.000000
  407       -0.589433      0.935469   1.000000   1.000000
  408       -0.589385      0.935766   1.000000   1.000000
  409       -0.576626      0.948747   1.000000   1.000000
  410       -0.576558      0.948935   1.000000   1.000000
  411       -0.576548      0.948938   1.000000   1.000000
  412       -0.576426      0.949079   1.000000   1.000000
  413       -0.553392      0.986098   1.000000   1.000000
  414       -0.553379      0.986209   1.000000   1.000000
  415       -0.553177      0.986223   1.000000   1.000000
  416       -0.552918      0.986297   1.000000   1.000000
  417       -0.497626      0.992779   1.000000   1.000000
  418       -0.496876      0.992977   1.000000   1.000000
  419       -0.472911      1.008777   1.000000   1.000000
  420       -0.472686      1.008932   1.000000   1.000000
  421       -0.461609      1.008952   1.000000   1.000000
  422       -0.461534      1.009121   1.000000   1.000000
  423       -0.461279      1.018463   1.000000   1.000000
  424       -0.461093      1.049097   1.000000   1.000000
  425       -0.459792      1.049145   1.000000   1.000000
  426       -0.459733      1.051596   1.000000   1.000000
  427       -0.459453      1.051724   1.000000   1.000000
  428       -0.459263      1.051778   1.000000   1.000000
  429       -0.410019      1.051818   1.000000   1.000000
  430       -0.409994      1.078518   1.000000   1.000000
  431       -0.407555      1.078722   1.000000   1.000000
  432       -0.407538      1.078731   1.000000   1.000000
  433       -0.407514      1.078940   1.000000   1.000000
  434       -0.407437      1.079745   1.000000   1.000000
  435       -0.407364      1.079912   1.000000   1.000000
  436       -0.407346      1.079991   1.000000   1.000000
  437       -0.383300      1.080113   1.000000   1.000000
  438       -0.383260      1.192786   1.000000   1.000000
  439       -0.378168      1.192939   1.000000   1.000000
  440       -0.368997      1.376460   1.000000   1.000000
  441       -0.368891      1.390363   1.000000   1.000000
  442       -0.368775      1.390934   1.000000   1.000000
  443       -0.368747      1.391101   1.000000   1.000000
  444       -0.368687      1.391250   1.000000   1.000000
  445       -0.368623      1.391551   1.000000   1.000000
  446       -0.368478      1.437311   1.000000   1.000000
  447       -0.368371      1.450202   1.000000   1.000000
  448       -0.353556      1.526190   1.000000   1.000000
  449       -0.353516      1.526404   1.000000   1.000000
  450       -0.349053      1.526465   1.000000   1.000000
  451       -0.341789      1.526577   1.000000   1.000000
  452       -0.335847      1.528777   1.000000   1.000000
  453       -0.335800      1.528975   1.000000   1.000000
  454       -0.335381      1.529035   1.000000   1.000000
  455       -0.335350      1.529165   1.000000   1.000000
  456       -0.334229      1.558169   1.000000   1.000000
  457       -0.334102      1.558326   1.000000   1.000000
  458       -0.334057      1.558355   1.000000   1.000000
  459       -0.334048      1.558486   1.000000   1.000000
  460       -0.324470      1.566441   1.000000   1.000000
  461       -0.324053      1.566762   1.000000   1.000000
  462       -0.323857      1.566893   1.000000   1.000000
  463       -0.323849      1.567026   1.000000   1.000000
  464       -0.321838      1.568052   1.000000   1.000000
  465       -0.321371      1.568285   1.000000   1.000000
  466       -0.321185      1.568581   1.000000   1.000000
  467       -0.321168      1.568684   1.000000   1.000000
  468       -0.303822      1.586355   1.000000   1.000000
  469       -0.295898      1.586879   1.000000   1.000000
  470       -0.288228      1.695641   1.000000   1.000000
  471       -0.287908      1.695799   1.000000   1.000000
  472       -0.287771      1.740944   1.000000   1.000000
  473       -0.287596      1.741118   1.000000   1.000000
  474       -0.280409      1.741312   1.000000   1.000000
  475       -0.280358      1.741384   1.000000   1.000000
  476       -0.275105      1.746856   1.000000   1.000000
  477       -0.275068      1.746871   1.000000   1.000000
  478       -0.274857      1.746895   1.000000   1.000000
  479       -0.274707      1.746897   1.000000   1.000000
  480       -0.241804      1.779027   1.000000   1.000000
  481       -0.241678      1.780621   1.000000   1.000000
  482       -0.241613      1.780649   1.000000   1.000000
  483       -0.241561      1.836643   1.000000   1.000000
  484       -0.241397      1.836944   1.000000   1.000000
  485       -0.241332      1.837285   1.000000   1.000000
  486       -0.241198      1.837516   1.000000   1.000000
  487       -0.241040      1.837727   1.000000   1.000000
  488       -0.207395      1.837773   1.000000   1.000000
  489       -0.207388      1.838486   1.000000   1.000000
  490       -0.199727      1.838594   1.000000   1.000000
  491       -0.199560      1.866213   1.000000   1.000000
  492       -0.199545      1.866416   1.000000   1.000000
  493       -0.199402      1.913113   1.000000   1.000000
  494       -0.194078      1.913266   1.000000   1.000000
  495       -0.193919      1.913362   1.000000   1.000000
  496       -0.164001      1.913526   1.000000   1.000000
  497       -0.163966      1.913705   1.000000   1.000000
  498       -0.163911      1.913724   1.000000   1.000000
  499       -0.163538      1.913915   1.000000   1.000000
  500       -0.156663      1.913919   1.000000   1.000000
  501       -0.156650      1.926625   1.000000   1.000000
  502       -0.156334      1.926986   1.000000   1.000000
  503       -0.155951      1.927078   1.000000   1.000000
  504       -0.139060      1.927437   1.000000   1.000000
  505       -0.138997      2.133191   1.000000   1.000000
  506       -0.138841      2.133309   1.000000   1.000000
  507       -0.138809      2.191257   1.000000   1.000000
  508       -0.090981      2.193189   1.000000   1.000000
  509       -0.090933      2.300647   1.000000   1.000000
  510       -0.082599      2.300736   1.000000   1.000000
  511       -0.082460      2.301061   1.000000   1.000000
  512       -0.082437      2.301421   1.000000   1.000000