 vasp.5.4.4.18Apr17-6-g9f103f2a35 (build Oct 25 2017 14:42:18) complex          
  
 executed on             LinuxIFC date 2021.06.17  03:22:10
 running on   48 total cores
 distrk:  each k-point on   24 cores,    2 groups
 distr:  one band on NCORES_PER_BAND=   6 cores,    4 groups


--------------------------------------------------------------------------------------------------------


 INCAR:
 POTCAR:    PAW_PBE Li_sv 10Sep2004               
 POTCAR:    PAW_PBE Fe_pv 02Aug2007               
 POTCAR:    PAW_PBE S 06Sep2000                   
 POTCAR:    PAW_PBE O 08Apr2002                   

 ----------------------------------------------------------------------------- 
|                                                                             |
|           W    W    AA    RRRRR   N    N  II  N    N   GGGG   !!!           |
|           W    W   A  A   R    R  NN   N  II  NN   N  G    G  !!!           |
|           W    W  A    A  R    R  N N  N  II  N N  N  G       !!!           |
|           W WW W  AAAAAA  RRRRR   N  N N  II  N  N N  G  GGG   !            |
|           WW  WW  A    A  R   R   N   NN  II  N   NN  G    G                |
|           W    W  A    A  R    R  N    N  II  N    N   GGGG   !!!           |
|                                                                             |
|      You have enabled k-point parallelism (KPAR>1).                         |
|      This developmental code was originally  written by Paul Kent at ORNL,  |
|      and carefully double checked in Vienna.                                |
|      GW as well as linear response parallelism added by Martijn Marsman     |
|      and Georg Kresse.                                                      |
|      Carefully verify results versus KPAR=1.                                |
|      Report problems to Paul Kent and Vienna.                               |
|                                                                             |
 ----------------------------------------------------------------------------- 

 POTCAR:    PAW_PBE Li_sv 10Sep2004               
  local pseudopotential read in
  atomic valenz-charges read in
  non local Contribution for L=           0  read in
    real space projection operators read in
  non local Contribution for L=           0  read in
    real space projection operators read in
  non local Contribution for L=           1  read in
    real space projection operators read in
    PAW grid and wavefunctions read in
 
   number of l-projection  operators is LMAX  =           3
   number of lm-projection operators is LMMAX =           5
 
 POTCAR:    PAW_PBE Fe_pv 02Aug2007               
  local pseudopotential read in
  partial core-charges read in
  partial kinetic energy density read in
  atomic valenz-charges read in
  non local Contribution for L=           1  read in
    real space projection operators read in
  non local Contribution for L=           1  read in
    real space projection operators read in
  non local Contribution for L=           2  read in
    real space projection operators read in
  non local Contribution for L=           2  read in
    real space projection operators read in
  non local Contribution for L=           0  read in
    real space projection operators read in
  non local Contribution for L=           0  read in
    real space projection operators read in
    PAW grid and wavefunctions read in
 
   number of l-projection  operators is LMAX  =           6
   number of lm-projection operators is LMMAX =          18
 
 POTCAR:    PAW_PBE S 06Sep2000                   
  local pseudopotential read in
  partial core-charges read in
  partial kinetic energy density read in
  atomic valenz-charges read in
  non local Contribution for L=           0  read in
    real space projection operators read in
  non local Contribution for L=           0  read in
    real space projection operators read in
  non local Contribution for L=           1  read in
    real space projection operators read in
  non local Contribution for L=           1  read in
    real space projection operators read in
    PAW grid and wavefunctions read in
 
   number of l-projection  operators is LMAX  =           4
   number of lm-projection operators is LMMAX =           8
 
 POTCAR:    PAW_PBE O 08Apr2002                   
  local pseudopotential read in
  partial core-charges read in
  partial kinetic energy density read in
  kinetic energy density of atom read in
  atomic valenz-charges read in
  non local Contribution for L=           0  read in
    real space projection operators read in
  non local Contribution for L=           0  read in
    real space projection operators read in
  non local Contribution for L=           1  read in
    real space projection operators read in
  non local Contribution for L=           1  read in
    real space projection operators read in
    PAW grid and wavefunctions read in
 
   number of l-projection  operators is LMAX  =           4
   number of lm-projection operators is LMMAX =           8
 

 ----------------------------------------------------------------------------- 
|                                                                             |
|  ADVICE TO THIS USER RUNNING 'VASP/VAMP'   (HEAR YOUR MASTER'S VOICE ...):  |
|                                                                             |
|      You have a (more or less) 'large supercell' and for larger cells       |
|      it might be more efficient to use real space projection opertators     |
|      So try LREAL= Auto  in the INCAR   file.                               |
|      Mind:          For very  accurate calculation you might also keep the  |
|      reciprocal projection scheme          (i.e. LREAL=.FALSE.)             |
|                                                                             |
 ----------------------------------------------------------------------------- 

  PAW_PBE Li_sv 10Sep2004               :
 energy of atom  1       EATOM= -202.7858
 kinetic energy error for atom=    0.0072 (will be added to EATOM!!)
  PAW_PBE Fe_pv 02Aug2007               :
 energy of atom  2       EATOM=-2457.4239
 kinetic energy error for atom=    0.0041 (will be added to EATOM!!)
  PAW_PBE S 06Sep2000                   :
 energy of atom  3       EATOM= -276.8230
 kinetic energy error for atom=    0.0008 (will be added to EATOM!!)
  PAW_PBE O 08Apr2002                   :
 energy of atom  4       EATOM= -432.3788
 kinetic energy error for atom=    0.0129 (will be added to EATOM!!)
 
 
 POSCAR: # Compound: Li64Fe32S32O32. Old comment:
  positions in direct lattice
  No initial velocities read in
 exchange correlation table for  LEXCH =        8
   RHO(1)=    0.500       N(1)  =     2000
   RHO(2)=  100.500       N(2)  =     4000
 


--------------------------------------------------------------------------------------------------------


 ion  position               nearest neighbor table
   1  0.125  0.275  0.475- 149 1.96 133 1.97 105 2.54  97 2.55
   2  0.625  0.276  0.475- 150 1.96 134 1.97  98 2.54 106 2.54
   3  0.125  0.776  0.475- 151 1.96 135 1.97  99 2.54 107 2.54
   4  0.625  0.776  0.475- 152 1.96 136 1.97 100 2.54 108 2.54
   5  0.125  0.276  0.975- 145 1.96 129 1.97 101 2.54 109 2.54
   6  0.625  0.276  0.975- 146 1.96 130 1.97 102 2.54 110 2.54
   7  0.125  0.776  0.975- 147 1.96 131 1.97 103 2.54 111 2.54
   8  0.625  0.776  0.975- 148 1.96 132 1.97 104 2.54 112 2.54
   9  0.125  0.474  0.275- 155 1.96 139 1.97 105 2.54  97 2.54
  10  0.625  0.474  0.275- 156 1.96 140 1.97 106 2.54  98 2.54
  11  0.125  0.974  0.275- 153 1.96 137 1.97 107 2.54  99 2.54
  12  0.625  0.974  0.275- 154 1.96 138 1.97 108 2.54 100 2.54
  13  0.125  0.474  0.775- 159 1.96 143 1.97 109 2.54 101 2.54
  14  0.625  0.474  0.775- 160 1.96 144 1.97 110 2.54 102 2.54
  15  0.125  0.974  0.775- 157 1.96 141 1.97 111 2.54 103 2.54
  16  0.625  0.974  0.775- 158 1.96 142 1.97 112 2.54 104 2.54
  17  0.375  0.224  0.025- 145 1.96 130 1.97 113 2.54 121 2.54
  18  0.875  0.224  0.025- 146 1.96 129 1.97 114 2.54 122 2.54
  19  0.375  0.724  0.025- 147 1.96 132 1.97 115 2.54 123 2.54
  20  0.875  0.724  0.025- 148 1.96 131 1.97 116 2.54 124 2.54
  21  0.375  0.224  0.525- 149 1.96 134 1.97 117 2.54 125 2.54
  22  0.875  0.224  0.525- 150 1.96 133 1.97 118 2.54 126 2.54
  23  0.375  0.724  0.525- 151 1.96 136 1.97 119 2.54 127 2.54
  24  0.875  0.724  0.525- 152 1.96 135 1.97 120 2.54 128 2.54
  25  0.375  0.026  0.225- 153 1.96 138 1.97 121 2.54 113 2.54
  26  0.875  0.026  0.225- 154 1.96 137 1.97 122 2.54 114 2.54
  27  0.375  0.526  0.225- 155 1.96 140 1.97 123 2.54 115 2.54
  28  0.875  0.526  0.225- 156 1.96 139 1.97 124 2.54 116 2.54
  29  0.375  0.026  0.725- 157 1.96 142 1.97 125 2.54 117 2.54
  30  0.875  0.026  0.725- 158 1.96 141 1.97 126 2.54 118 2.54
  31  0.375  0.526  0.725- 159 1.96 144 1.97 127 2.54 119 2.54
  32  0.875  0.526  0.725- 160 1.96 143 1.97 128 2.54 120 2.54
  33  0.276  0.375  0.375- 149 2.01 155 2.01 119 2.52 121 2.52
  34  0.776  0.375  0.375- 150 2.01 156 2.01 120 2.52 122 2.52
  35  0.276  0.875  0.375- 151 2.01 153 2.01 117 2.52 123 2.52
  36  0.776  0.875  0.375- 152 2.01 154 2.01 118 2.52 124 2.52
  37  0.276  0.375  0.875- 145 2.01 159 2.01 115 2.52 125 2.52
  38  0.776  0.375  0.875- 146 2.01 160 2.01 116 2.52 126 2.52
  39  0.276  0.875  0.875- 147 2.01 157 2.01 113 2.52 127 2.52
  40  0.776  0.875  0.875- 148 2.01 158 2.01 114 2.52 128 2.52
  41  0.224  0.125  0.125- 145 2.01 153 2.01 103 2.52 105 2.52
  42  0.724  0.125  0.125- 146 2.01 154 2.01 104 2.52 106 2.52
  43  0.224  0.625  0.125- 147 2.01 155 2.01 101 2.52 107 2.52
  44  0.724  0.625  0.125- 148 2.01 156 2.01 102 2.52 108 2.52
  45  0.224  0.125  0.625- 149 2.01 157 2.01  99 2.52 109 2.52
  46  0.724  0.125  0.625- 150 2.01 158 2.01 100 2.52 110 2.52
  47  0.224  0.625  0.625- 151 2.01 159 2.01  97 2.52 111 2.52
  48  0.724  0.625  0.625- 152 2.01 160 2.01  98 2.52 112 2.52
  49  0.500  0.375  0.125- 130 2.00 140 2.00
  50  1.000  0.375  0.125- 129 2.00 139 2.00
  51  0.500  0.875  0.125- 132 2.00 138 2.00
  52  1.000  0.875  0.125- 131 2.00 137 2.00
  53  0.500  0.375  0.625- 134 2.00 144 2.00
  54  1.000  0.375  0.625- 133 2.00 143 2.00
  55  0.500  0.875  0.625- 136 2.00 142 2.00
  56  1.000  0.875  0.625- 135 2.00 141 2.00
  57  0.000  0.125  0.375- 133 2.00 137 2.00
  58  0.500  0.125  0.375- 134 2.00 138 2.00
  59  0.000  0.625  0.375- 135 2.00 139 2.00
  60  0.500  0.625  0.375- 136 2.00 140 2.00
  61  0.000  0.125  0.875- 129 2.00 141 2.00
  62  0.500  0.125  0.875- 130 2.00 142 2.00
  63  0.000  0.625  0.875- 131 2.00 143 2.00
  64  0.500  0.625  0.875- 132 2.00 144 2.00
  65  0.479  0.375  0.375- 134 2.00 140 2.00 119 2.57 121 2.57
  66  0.979  0.375  0.375- 133 2.00 139 2.00 120 2.57 122 2.57
  67  0.479  0.875  0.375- 136 2.00 138 2.00 117 2.57 123 2.57
  68  0.979  0.875  0.375- 135 2.00 137 2.00 118 2.57 124 2.57
  69  0.479  0.375  0.875- 130 2.00 144 2.00 115 2.57 125 2.57
  70  0.979  0.375  0.875- 129 2.00 143 2.00 116 2.57 126 2.57
  71  0.479  0.875  0.875- 132 2.00 142 2.00 113 2.57 127 2.57
  72  0.979  0.875  0.875- 131 2.00 141 2.00 114 2.57 128 2.57
  73  0.021  0.125  0.125- 129 2.00 137 2.00 103 2.57 105 2.57
  74  0.521  0.125  0.125- 130 2.00 138 2.00 104 2.57 106 2.57
  75  0.021  0.625  0.125- 131 2.00 139 2.00 101 2.57 107 2.57
  76  0.521  0.625  0.125- 132 2.00 140 2.00 102 2.57 108 2.57
  77  0.021  0.125  0.625- 133 2.00 141 2.00  99 2.57 109 2.57
  78  0.521  0.125  0.625- 134 2.00 142 2.00 100 2.57 110 2.57
  79  0.021  0.625  0.625- 135 2.00 143 2.00  97 2.57 111 2.57
  80  0.521  0.625  0.625- 136 2.00 144 2.00  98 2.57 112 2.57
  81  0.250  0.375  0.125- 145 2.00 155 2.00 115 2.75 121 2.75 101 2.75 105 2.75
  82  0.750  0.375  0.125- 146 2.00 156 2.00 116 2.75 122 2.75 102 2.75 106 2.75
  83  0.250  0.875  0.125- 147 2.00 153 2.00 113 2.75 123 2.75 103 2.75 107 2.75
  84  0.750  0.875  0.125- 148 2.00 154 2.00 114 2.75 124 2.75 104 2.75 108 2.75
  85  0.250  0.375  0.625- 149 2.00 159 2.00 119 2.75 125 2.75  97 2.75 109 2.75
  86  0.750  0.375  0.625- 150 2.00 160 2.00 120 2.75 126 2.75  98 2.75 110 2.75
  87  0.250  0.875  0.625- 151 2.00 157 2.00 117 2.75 127 2.75  99 2.75 111 2.75
  88  0.750  0.875  0.625- 152 2.00 158 2.00 118 2.75 128 2.75 100 2.75 112 2.75
  89  0.250  0.125  0.375- 149 2.00 153 2.00  99 2.75 105 2.75 117 2.75 121 2.75
  90  0.750  0.125  0.375- 150 2.00 154 2.00 100 2.75 106 2.75 118 2.75 122 2.75
  91  0.250  0.625  0.375- 151 2.00 155 2.00  97 2.75 107 2.75 119 2.75 123 2.75
  92  0.750  0.625  0.375- 152 2.00 156 2.00  98 2.75 108 2.75 120 2.75 124 2.75
  93  0.250  0.125  0.875- 145 2.00 157 2.00 103 2.75 109 2.75 113 2.75 125 2.75
  94  0.750  0.125  0.875- 146 2.00 158 2.00 104 2.75 110 2.75 114 2.75 126 2.75
  95  0.250  0.625  0.875- 147 2.00 159 2.00 101 2.75 111 2.75 115 2.75 127 2.75
  96  0.750  0.625  0.875- 148 2.00 160 2.00 102 2.75 112 2.75 116 2.75 128 2.75
  97  0.125  0.500  0.500-  47 2.52   9 2.54   1 2.55  79 2.57  91 2.75  85 2.75
  98  0.625  0.500  0.500-  48 2.52   2 2.54  10 2.54  80 2.57  92 2.75  86 2.75
  99  0.125  1.000  0.500-  45 2.52   3 2.54  11 2.54  77 2.57  89 2.75  87 2.75
 100  0.625  1.000  0.500-  46 2.52   4 2.54  12 2.54  78 2.57  90 2.75  88 2.75
 101  0.125  0.500  1.000-  43 2.52   5 2.54  13 2.54  75 2.57  95 2.75  81 2.75
 102  0.625  0.500  1.000-  44 2.52   6 2.54  14 2.54  76 2.57  96 2.75  82 2.75
 103  0.125  1.000  1.000-  41 2.52   7 2.54  15 2.54  73 2.57  93 2.75  83 2.75
 104  0.625  1.000  1.000-  42 2.52   8 2.54  16 2.54  74 2.57  94 2.75  84 2.75
 105  0.125  0.250  0.250-  41 2.52   1 2.54   9 2.54  73 2.57  89 2.75  81 2.75
 106  0.625  0.250  0.250-  42 2.52  10 2.54   2 2.54  74 2.57  90 2.75  82 2.75
 107  0.125  0.750  0.250-  43 2.52  11 2.54   3 2.54  75 2.57  91 2.75  83 2.75
 108  0.625  0.750  0.250-  44 2.52  12 2.54   4 2.54  76 2.57  92 2.75  84 2.75
 109  0.125  0.250  0.750-  45 2.52  13 2.54   5 2.54  77 2.57  93 2.75  85 2.75
 110  0.625  0.250  0.750-  46 2.52  14 2.54   6 2.54  78 2.57  94 2.75  86 2.75
 111  0.125  0.750  0.750-  47 2.52  15 2.54   7 2.54  79 2.57  95 2.75  87 2.75
 112  0.625  0.750  0.750-  48 2.52  16 2.54   8 2.54  80 2.57  96 2.75  88 2.75
 113  0.375  0.000  0.000-  39 2.52  17 2.54  25 2.54  71 2.57  83 2.75  93 2.75
 114  0.875  0.000  0.000-  40 2.52  18 2.54  26 2.54  72 2.57  84 2.75  94 2.75
 115  0.375  0.500  0.000-  37 2.52  19 2.54  27 2.54  69 2.57  81 2.75  95 2.75
 116  0.875  0.500  0.000-  38 2.52  20 2.54  28 2.54  70 2.57  82 2.75  96 2.75
 117  0.375  0.000  0.500-  35 2.52  21 2.54  29 2.54  67 2.57  87 2.75  89 2.75
 118  0.875  0.000  0.500-  36 2.52  22 2.54  30 2.54  68 2.57  88 2.75  90 2.75
 119  0.375  0.500  0.500-  33 2.52  23 2.54  31 2.54  65 2.57  85 2.75  91 2.75
 120  0.875  0.500  0.500-  34 2.52  24 2.54  32 2.54  66 2.57  86 2.75  92 2.75
 121  0.375  0.250  0.250-  33 2.52  25 2.54  17 2.54  65 2.57  81 2.75  89 2.75
 122  0.875  0.250  0.250-  34 2.52  26 2.54  18 2.54  66 2.57  82 2.75  90 2.75
 123  0.375  0.750  0.250-  35 2.52  27 2.54  19 2.54  67 2.57  83 2.75  91 2.75
 124  0.875  0.750  0.250-  36 2.52  28 2.54  20 2.54  68 2.57  84 2.75  92 2.75
 125  0.375  0.250  0.750-  37 2.52  29 2.54  21 2.54  69 2.57  85 2.75  93 2.75
 126  0.875  0.250  0.750-  38 2.52  30 2.54  22 2.54  70 2.57  86 2.75  94 2.75
 127  0.375  0.750  0.750-  39 2.52  31 2.54  23 2.54  71 2.57  87 2.75  95 2.75
 128  0.875  0.750  0.750-  40 2.52  32 2.54  24 2.54  72 2.57  88 2.75  96 2.75
 129  0.000  0.250  0.000-   5 1.97  18 1.97  70 2.00  73 2.00  50 2.00  61 2.00
 130  0.500  0.250  0.000-   6 1.97  17 1.97  69 2.00  74 2.00  49 2.00  62 2.00
 131  0.000  0.750  0.000-   7 1.97  20 1.97  72 2.00  75 2.00  52 2.00  63 2.00
 132  0.500  0.750  0.000-   8 1.97  19 1.97  71 2.00  76 2.00  51 2.00  64 2.00
 133  0.000  0.250  0.500-   1 1.97  22 1.97  66 2.00  77 2.00  54 2.00  57 2.00
 134  0.500  0.250  0.500-   2 1.97  21 1.97  65 2.00  78 2.00  53 2.00  58 2.00
 135  0.000  0.750  0.500-   3 1.97  24 1.97  68 2.00  79 2.00  56 2.00  59 2.00
 136  0.500  0.750  0.500-   4 1.97  23 1.97  67 2.00  80 2.00  55 2.00  60 2.00
 137  0.000  0.000  0.250-  11 1.97  26 1.97  68 2.00  73 2.00  52 2.00  57 2.00
 138  0.500  0.000  0.250-  12 1.97  25 1.97  67 2.00  74 2.00  51 2.00  58 2.00
 139  0.000  0.500  0.250-   9 1.97  28 1.97  66 2.00  75 2.00  50 2.00  59 2.00
 140  0.500  0.500  0.250-  10 1.97  27 1.97  65 2.00  76 2.00  49 2.00  60 2.00
 141  0.000  0.000  0.750-  15 1.97  30 1.97  72 2.00  77 2.00  56 2.00  61 2.00
 142  0.500  0.000  0.750-  16 1.97  29 1.97  71 2.00  78 2.00  55 2.00  62 2.00
 143  0.000  0.500  0.750-  13 1.97  32 1.97  70 2.00  79 2.00  54 2.00  63 2.00
 144  0.500  0.500  0.750-  14 1.97  31 1.97  69 2.00  80 2.00  53 2.00  64 2.00
 145  0.250  0.250  0.000-   5 1.96  17 1.96  81 2.00  93 2.00  37 2.01  41 2.01
 146  0.750  0.250  0.000-   6 1.96  18 1.96  82 2.00  94 2.00  38 2.01  42 2.01
 147  0.250  0.750  0.000-   7 1.96  19 1.96  83 2.00  95 2.00  39 2.01  43 2.01
 148  0.750  0.750  0.000-   8 1.96  20 1.96  84 2.00  96 2.00  40 2.01  44 2.01
 149  0.250  0.250  0.500-   1 1.96  21 1.96  85 2.00  89 2.00  33 2.01  45 2.01
 150  0.750  0.250  0.500-   2 1.96  22 1.96  86 2.00  90 2.00  34 2.01  46 2.01
 151  0.250  0.750  0.500-   3 1.96  23 1.96  87 2.00  91 2.00  35 2.01  47 2.01
 152  0.750  0.750  0.500-   4 1.96  24 1.96  88 2.00  92 2.00  36 2.01  48 2.01
 153  0.250  0.000  0.250-  11 1.96  25 1.96  83 2.00  89 2.00  35 2.01  41 2.01
 154  0.750  0.000  0.250-  12 1.96  26 1.96  84 2.00  90 2.00  36 2.01  42 2.01
 155  0.250  0.500  0.250-   9 1.96  27 1.96  81 2.00  91 2.00  33 2.01  43 2.01
 156  0.750  0.500  0.250-  10 1.96  28 1.96  82 2.00  92 2.00  34 2.01  44 2.01
 157  0.250  0.000  0.750-  15 1.96  29 1.96  87 2.00  93 2.00  39 2.01  45 2.01
 158  0.750  0.000  0.750-  16 1.96  30 1.96  88 2.00  94 2.00  40 2.01  46 2.01
 159  0.250  0.500  0.750-  13 1.96  31 1.96  85 2.00  95 2.00  37 2.01  47 2.01
 160  0.750  0.500  0.750-  14 1.96  32 1.96  86 2.00  96 2.00  38 2.01  48 2.01
 
  LATTYP: Found a simple monoclinic cell.
 ALAT       =    16.0245724362
 B/A-ratio  =     0.9595037360
 C/A-ratio  =     1.5788311284
 COS(beta)  =    -0.9500776273
  
  Lattice vectors:
  
 A1 = (   0.0000000000, -11.3322995400, -11.3298680000)
 A2 = ( -15.3756371200,   0.0000000000,   0.0000000000)
 A3 = (   0.0000000000,  22.5798703800,  11.4124580600)


Analysis of symmetry for initial positions (statically):
=====================================================================
 Subroutine PRICEL returns:
 Original cell was already a primitive cell.
 

 Routine SETGRP: Setting up the symmetry group for a 
 simple monoclinic supercell.


 Subroutine GETGRP returns: Found  1 space group operations
 (whereof  1 operations were pure point group operations)
 out of a pool of  4 trial point group operations.


The static configuration has the point symmetry C_1 .


Analysis of symmetry for dynamics (positions and initial velocities):
=====================================================================
 Subroutine PRICEL returns:
 Original cell was already a primitive cell.
 

 Routine SETGRP: Setting up the symmetry group for a 
 simple monoclinic supercell.


 Subroutine GETGRP returns: Found  1 space group operations
 (whereof  1 operations were pure point group operations)
 out of a pool of  4 trial point group operations.


The dynamic configuration has the point symmetry C_1 .


Analysis of structural, dynamic, and magnetic symmetry:
=====================================================================
 Subroutine PRICEL returns:
 Original cell was already a primitive cell.
 

 Routine SETGRP: Setting up the symmetry group for a 
 simple monoclinic supercell.


 Subroutine GETGRP returns: Found  1 space group operations
 (whereof  1 operations were pure point group operations)
 out of a pool of  4 trial point group operations.


The magnetic configuration has the point symmetry C_1 .


 Subroutine INISYM returns: Found  1 space group operations
 (whereof  1 operations are pure point group operations),
 and found     1 'primitive' translations

 
 
 KPOINTS: # No comment                            

Automatic generation of k-mesh.
Space group operators:
 irot       det(A)        alpha          n_x          n_y          n_z        tau_x        tau_y        tau_z
    1     1.000000     0.000001     1.000000     0.000000     0.000000     0.000000     0.000000     0.000000
 
 Subroutine IBZKPT returns following result:
 ===========================================
 
 Found     10 irreducible k-points:
 
 Following reciprocal coordinates:
            Coordinates               Weight
  0.000000  0.000000  0.000000      1.000000
  0.500000  0.000000  0.000000      1.000000
  0.000000  0.333333 -0.000000      2.000000
  0.500000  0.333333 -0.000000      2.000000
  0.000000 -0.000000  0.333333      2.000000
  0.500000 -0.000000  0.333333      2.000000
  0.000000  0.333333  0.333333      2.000000
  0.500000  0.333333  0.333333      2.000000
  0.000000 -0.333333  0.333333      2.000000
  0.500000 -0.333333  0.333333      2.000000
 
 Following cartesian coordinates:
            Coordinates               Weight
  0.000000  0.000000  0.000000      1.000000
  0.032519  0.000000  0.000000      1.000000
  0.000000  0.029638 -0.000223      2.000000
  0.032519  0.029638 -0.000223      2.000000
  0.000000 -0.000218  0.029638      2.000000
  0.032519 -0.000218  0.029638      2.000000
  0.000000  0.029420  0.029415      2.000000
  0.032519  0.029420  0.029415      2.000000
  0.000000 -0.029855  0.029862      2.000000
  0.032519 -0.029855  0.029862      2.000000
 


--------------------------------------------------------------------------------------------------------




 Dimension of arrays:
   k-points           NKPTS =     10   k-points in BZ     NKDIM =     10   number of bands    NBANDS=    732
   number of dos      NEDOS =    301   number of ions     NIONS =    160
   non local maximal  LDIM  =      6   non local SUM 2l+1 LMDIM =     18
   total plane-waves  NPLWV = ******
   max r-space proj   IRMAX =      1   max aug-charges    IRDMAX= 153046
   dimension x,y,z NGX =   128 NGY =   96 NGZ =   96
   dimension x,y,z NGXF=   256 NGYF=  192 NGZF=  192
   support grid    NGXF=   512 NGYF=  384 NGZF=  384
   ions per type =              64  32  32  32
   NGX,Y,Z   is equivalent  to a cutoff of  13.84, 14.19, 14.19 a.u.
   NGXF,Y,Z  is equivalent  to a cutoff of  27.68, 28.38, 28.38 a.u.

 SYSTEM =  unknown system                          
 POSCAR =  # Compound: Li64Fe32S32O32. Old comment:

 Startparameter for this run:
   NWRITE =      1    write-flag & timer
   PREC   = accura    normal or accurate (medium, high low for compatibility)
   ISTART =      0    job   : 0-new  1-cont  2-samecut
   ICHARG =      1    charge: 1-file 2-atom 10-const
   ISPIN  =      2    spin polarized calculation?
   LNONCOLLINEAR =      F non collinear calculations
   LSORBIT =      F    spin-orbit coupling
   INIWAV =      1    electr: 0-lowe 1-rand  2-diag
   LASPH  =      T    aspherical Exc in radial PAW
   METAGGA=      F    non-selfconsistent MetaGGA calc.

 Electronic Relaxation 1
   ENCUT  =  650.0 eV  47.77 Ry    6.91 a.u.  31.96 23.38 23.38*2*pi/ulx,y,z
   ENINI  =  650.0     initial cutoff
   ENAUG  =  628.9 eV  augmentation charge cutoff
   NELM   =    200;   NELMIN=  8; NELMDL=  0     # of ELM steps 
   EDIFF  = 0.1E-07   stopping-criterion for ELM
   LREAL  =      F    real-space projection
   NLSPLINE    = F    spline interpolate recip. space projectors
   LCOMPAT=      F    compatible to vasp.4.4
   GGA_COMPAT  = T    GGA compatible to vasp.4.4-vasp.4.6
   LMAXPAW     = -100 max onsite density
   LMAXMIX     =    4 max onsite mixed and CHGCAR
   VOSKOWN=      0    Vosko Wilk Nusair interpolation
   ROPT   =    0.00000   0.00000   0.00000   0.00000
 Ionic relaxation
   EDIFFG = 0.1E-06   stopping-criterion for IOM
   NSW    =      0    number of steps for IOM
   NBLOCK =      1;   KBLOCK =      1    inner block; outer block 
   IBRION =     -1    ionic relax: 0-MD 1-quasi-New 2-CG
   NFREE  =      0    steps in history (QN), initial steepest desc. (CG)
   ISIF   =      2    stress and relaxation
   IWAVPR =     10    prediction:  0-non 1-charg 2-wave 3-comb
   ISYM   =      2    0-nonsym 1-usesym 2-fastsym
   LCORR  =      T    Harris-Foulkes like correction to forces

   POTIM  = 0.5000    time-step for ionic-motion
   TEIN   =    0.0    initial temperature
   TEBEG  =    0.0;   TEEND  =   0.0 temperature during run
   SMASS  =  -3.00    Nose mass-parameter (am)
   estimated Nose-frequenzy (Omega)   =  0.10E-29 period in steps =****** mass=  -0.540E-26a.u.
   SCALEE = 1.0000    scale energy and forces
   NPACO  =    256;   APACO  = 16.0  distance and # of slots for P.C.
   PSTRESS=    0.0 pullay stress

  Mass of Ions in am
   POMASS =   7.01 55.85 32.07 16.00
  Ionic Valenz
   ZVAL   =   3.00 14.00  6.00  6.00
  Atomic Wigner-Seitz radii
   RWIGS  =  -1.00 -1.00 -1.00 -1.00
  virtual crystal weights 
   VCA    =   1.00  1.00  1.00  1.00
   NELECT =    1024.0000    total number of electrons
   NUPDOWN=      -1.0000    fix difference up-down

 DOS related values:
   EMIN   =  10.00;   EMAX   =-10.00  energy-range for DOS
   EFERMI =   0.00
   ISMEAR =     0;   SIGMA  =   0.05  broadening in eV -4-tet -1-fermi 0-gaus

 Electronic relaxation 2 (details)
   IALGO  =     38    algorithm
   LDIAG  =      T    sub-space diagonalisation (order eigenvalues)
   LSUBROT=      F    optimize rotation matrix (better conditioning)
   TURBO    =      0    0=normal 1=particle mesh
   IRESTART =      0    0=no restart 2=restart with 2 vectors
   NREBOOT  =      0    no. of reboots
   NMIN     =      0    reboot dimension
   EREF     =   0.00    reference energy to select bands
   IMIX   =      4    mixing-type and parameters
     AMIX     =   0.40;   BMIX     =  1.00
     AMIX_MAG =   1.60;   BMIX_MAG =  1.00
     AMIN     =   0.10
     WC   =   100.;   INIMIX=   1;  MIXPRE=   1;  MAXMIX= -45

 Intra band minimization:
   WEIMIN = 0.0000     energy-eigenvalue tresh-hold
   EBREAK =  0.34E-11  absolut break condition
   DEPER  =   0.30     relativ break condition  

   TIME   =   0.40     timestep for ELM

  volume/ion in A,a.u.               =      12.16        82.03
  Fermi-wavevector in a.u.,A,eV,Ry     =   1.321914  2.498054 23.775576  1.747456
  Thomas-Fermi vector in A             =   2.451633
 
 Write flags
   LWAVE        =      F    write WAVECAR
   LDOWNSAMPLE  =      F    k-point downsampling of WAVECAR
   LCHARG       =      T    write CHGCAR
   LVTOT        =      F    write LOCPOT, total local potential
   LVHAR        =      F    write LOCPOT, Hartree potential only
   LELF         =      F    write electronic localiz. function (ELF)
   LORBIT       =      0    0 simple, 1 ext, 2 COOP (PROOUT), +10 PAW based schemes


 Dipole corrections
   LMONO  =      F    monopole corrections only (constant potential shift)
   LDIPOL =      F    correct potential (dipole corrections)
   IDIPOL =      0    1-x, 2-y, 3-z, 4-all directions 
   EPSILON=  1.0000000 bulk dielectric constant

 LDA+U is selected, type is set to LDAUTYPE =  2
   angular momentum for each species LDAUL =    -1    2   -1   -1
   U (eV)           for each species LDAUU =   0.0  4.0  0.0  0.0
   J (eV)           for each species LDAUJ =   0.0  0.0  0.0  0.0
 Exchange correlation treatment:
   GGA     =    PE    GGA type
   LEXCH   =     8    internal setting for exchange type
   VOSKOWN=      0    Vosko Wilk Nusair interpolation
   LHFCALC =     F    Hartree Fock is set to
   LHFONE  =     F    Hartree Fock one center treatment
   AEXX    =    0.0000 exact exchange contribution

 Linear response parameters
   LEPSILON=     F    determine dielectric tensor
   LRPA    =     F    only Hartree local field effects (RPA)
   LNABLA  =     F    use nabla operator in PAW spheres
   LVEL    =     F    velocity operator in full k-point grid
   LINTERFAST=   F  fast interpolation
   KINTER  =     0    interpolate to denser k-point grid
   CSHIFT  =0.1000    complex shift for real part using Kramers Kronig
   OMEGAMAX=  -1.0    maximum frequency
   DEG_THRESHOLD= 0.2000000E-02 threshold for treating states as degnerate
   RTIME   =   -0.100 relaxation time in fs
  (WPLASMAI=    0.000 imaginary part of plasma frequency in eV, 0.658/RTIME)
   DFIELD  = 0.0000000 0.0000000 0.0000000 field for delta impulse in time
 
 Orbital magnetization related:
   ORBITALMAG=     F  switch on orbital magnetization
   LCHIMAG   =     F  perturbation theory with respect to B field
   DQ        =  0.001000  dq finite difference perturbation B field
   LLRAUG    =     F  two centre corrections for induced B field



--------------------------------------------------------------------------------------------------------


 Static calculation
 charge density and potential will be updated during run
 spin polarized calculation
 Variant of blocked Davidson
 Davidson routine will perform the subspace rotation
 perform sub-space diagonalisation
    after iterative eigenvector-optimisation
 modified Broyden-mixing scheme, WC =      100.0
 initial mixing is a Kerker type mixing with AMIX =  0.4000 and BMIX =      1.0000
 Hartree-type preconditioning will be used
 using additional bands          220
 reciprocal scheme for non local part
 use partial core corrections
 calculate Harris-corrections to forces 
   (improved forces if not selfconsistent)
 use gradient corrections 
 use of overlap-Matrix (Vanderbilt PP)
 Gauss-broadening in eV      SIGMA  =   0.05


--------------------------------------------------------------------------------------------------------


  energy-cutoff  :      650.00
  volume of cell :     1944.98
      direct lattice vectors                 reciprocal lattice vectors
    15.375637120  0.000000000  0.000000000     0.065037955  0.000000000  0.000000000
     0.000000000 11.247570840  0.082590060     0.000000000  0.088913005 -0.000669805
     0.000000000  0.084728700 11.247277940     0.000000000 -0.000652898  0.088915320

  length of vectors
    15.375637120 11.247874062 11.247597077     0.065037955  0.088915528  0.088917717


 
 k-points in units of 2pi/SCALE and weight: # No comment                            
   0.00000000  0.00000000  0.00000000       0.056
   0.03251898  0.00000000  0.00000000       0.056
   0.00000000  0.02963767 -0.00022327       0.111
   0.03251898  0.02963767 -0.00022327       0.111
   0.00000000 -0.00021763  0.02963844       0.111
   0.03251898 -0.00021763  0.02963844       0.111
   0.00000000  0.02942004  0.02941517       0.111
   0.03251898  0.02942004  0.02941517       0.111
   0.00000000 -0.02985530  0.02986171       0.111
   0.03251898 -0.02985530  0.02986171       0.111
 
 k-points in reciprocal lattice and weights: # No comment                            
   0.00000000  0.00000000  0.00000000       0.056
   0.50000000  0.00000000  0.00000000       0.056
   0.00000000  0.33333333 -0.00000000       0.111
   0.50000000  0.33333333 -0.00000000       0.111
   0.00000000 -0.00000000  0.33333333       0.111
   0.50000000 -0.00000000  0.33333333       0.111
   0.00000000  0.33333333  0.33333333       0.111
   0.50000000  0.33333333  0.33333333       0.111
   0.00000000 -0.33333333  0.33333333       0.111
   0.50000000 -0.33333333  0.33333333       0.111
 
 position of ions in fractional coordinates (direct lattice) 
   0.12525680  0.27464682  0.47453981
   0.62525680  0.27553588  0.47453981
   0.12525680  0.77553588  0.47453981
   0.62525680  0.77553588  0.47453981
   0.12525680  0.27553588  0.97453981
   0.62525680  0.27553588  0.97453981
   0.12525680  0.77553588  0.97453981
   0.62525680  0.77553588  0.97453981
   0.12525680  0.47446412  0.27546019
   0.62525680  0.47446412  0.27546019
   0.12525680  0.97446412  0.27546019
   0.62525680  0.97446412  0.27546019
   0.12525680  0.47446412  0.77546019
   0.62525680  0.47446412  0.77546019
   0.12525680  0.97446412  0.77546019
   0.62525680  0.97446412  0.77546019
   0.37474320  0.22446412  0.02546019
   0.87474320  0.22446412  0.02546019
   0.37474320  0.72446412  0.02546019
   0.87474320  0.72446412  0.02546019
   0.37474320  0.22446412  0.52546019
   0.87474320  0.22446412  0.52546019
   0.37474320  0.72446412  0.52546019
   0.87474320  0.72446412  0.52546019
   0.37474320  0.02553588  0.22453981
   0.87474320  0.02553588  0.22453981
   0.37474320  0.52553588  0.22453981
   0.87474320  0.52553588  0.22453981
   0.37474320  0.02553588  0.72453981
   0.87474320  0.02553588  0.72453981
   0.37474320  0.52553588  0.72453981
   0.87474320  0.52553588  0.72453981
   0.27600236  0.37500000  0.37500000
   0.77600236  0.37500000  0.37500000
   0.27600236  0.87500000  0.37500000
   0.77600236  0.87500000  0.37500000
   0.27600236  0.37500000  0.87500000
   0.77600236  0.37500000  0.87500000
   0.27600236  0.87500000  0.87500000
   0.77600236  0.87500000  0.87500000
   0.22399764  0.12500000  0.12500000
   0.72399764  0.12500000  0.12500000
   0.22399764  0.62500000  0.12500000
   0.72399764  0.62500000  0.12500000
   0.22399764  0.12500000  0.62500000
   0.72399764  0.12500000  0.62500000
   0.22399764  0.62500000  0.62500000
   0.72399764  0.62500000  0.62500000
   0.49994073  0.37500000  0.12500000
   0.99994073  0.37500000  0.12500000
   0.49994073  0.87500000  0.12500000
   0.99994073  0.87500000  0.12500000
   0.49994073  0.37500000  0.62500000
   0.99994073  0.37500000  0.62500000
   0.49994073  0.87500000  0.62500000
   0.99994073  0.87500000  0.62500000
   0.00005927  0.12500000  0.37500000
   0.50005927  0.12500000  0.37500000
   0.00005927  0.62500000  0.37500000
   0.50005927  0.62500000  0.37500000
   0.00005927  0.12500000  0.87500000
   0.50005927  0.12500000  0.87500000
   0.00005927  0.62500000  0.87500000
   0.50005927  0.62500000  0.87500000
   0.47912905  0.37500000  0.37500000
   0.97912905  0.37500000  0.37500000
   0.47912905  0.87500000  0.37500000
   0.97912905  0.87500000  0.37500000
   0.47912905  0.37500000  0.87500000
   0.97912905  0.37500000  0.87500000
   0.47912905  0.87500000  0.87500000
   0.97912905  0.87500000  0.87500000
   0.02087095  0.12500000  0.12500000
   0.52087095  0.12500000  0.12500000
   0.02087095  0.62500000  0.12500000
   0.52087095  0.62500000  0.12500000
   0.02087095  0.12500000  0.62500000
   0.52087095  0.12500000  0.62500000
   0.02087095  0.62500000  0.62500000
   0.52087095  0.62500000  0.62500000
   0.25003487  0.37500000  0.12500000
   0.75003487  0.37500000  0.12500000
   0.25003487  0.87500000  0.12500000
   0.75003487  0.87500000  0.12500000
   0.25003487  0.37500000  0.62500000
   0.75003487  0.37500000  0.62500000
   0.25003487  0.87500000  0.62500000
   0.75003487  0.87500000  0.62500000
   0.24996513  0.12500000  0.37500000
   0.74996513  0.12500000  0.37500000
   0.24996513  0.62500000  0.37500000
   0.74996513  0.62500000  0.37500000
   0.24996513  0.12500000  0.87500000
   0.74996513  0.12500000  0.87500000
   0.24996513  0.62500000  0.87500000
   0.74996513  0.62500000  0.87500000
   0.12546906  0.49959881  0.49958956
   0.62546906  0.49959881  0.49958956
   0.12546906  0.99959881  0.49958956
   0.62546906  0.99959881  0.49958956
   0.12546906  0.49959881  0.99958956
   0.62546906  0.49959881  0.99958956
   0.12546906  0.99959881  0.99958956
   0.62546906  0.99959881  0.99958956
   0.12546906  0.25040119  0.25041044
   0.62546906  0.25040119  0.25041044
   0.12546906  0.75040119  0.25041044
   0.62546906  0.75040119  0.25041044
   0.12546906  0.25040119  0.75041044
   0.62546906  0.25040119  0.75041044
   0.12546906  0.75040119  0.75041044
   0.62546906  0.75040119  0.75041044
   0.37453094  0.00040119  0.00041044
   0.87453094  0.00040119  0.00041044
   0.37453094  0.50040119  0.00041044
   0.87453094  0.50040119  0.00041044
   0.37453094  0.00040119  0.50041044
   0.87453094  0.00040119  0.50041044
   0.37453094  0.50040119  0.50041044
   0.87453094  0.50040119  0.50041044
   0.37453094  0.24959881  0.24958956
   0.87453094  0.24959881  0.24958956
   0.37453094  0.74959881  0.24958956
   0.87453094  0.74959881  0.24958956
   0.37453094  0.24959881  0.74958956
   0.87453094  0.24959881  0.74958956
   0.37453094  0.74959881  0.74958956
   0.87453094  0.74959881  0.74958956
   0.00000000  0.25000000  0.00000000
   0.50000000  0.25000000  0.00000000
   0.00000000  0.75000000  0.00000000
   0.50000000  0.75000000  0.00000000
   0.00000000  0.25000000  0.50000000
   0.50000000  0.25000000  0.50000000
   0.00000000  0.75000000  0.50000000
   0.50000000  0.75000000  0.50000000
   0.00000000  0.00000000  0.25000000
   0.50000000  0.00000000  0.25000000
   0.00000000  0.50000000  0.25000000
   0.50000000  0.50000000  0.25000000
   0.00000000  0.00000000  0.75000000
   0.50000000  0.00000000  0.75000000
   0.00000000  0.50000000  0.75000000
   0.50000000  0.50000000  0.75000000
   0.25000000  0.25000000  0.00000000
   0.75000000  0.25000000  0.00000000
   0.25000000  0.75000000  0.00000000
   0.75000000  0.75000000  0.00000000
   0.25000000  0.25000000  0.50000000
   0.75000000  0.25000000  0.50000000
   0.25000000  0.75000000  0.50000000
   0.75000000  0.75000000  0.50000000
   0.25000000  0.00000000  0.25000000
   0.75000000  0.00000000  0.25000000
   0.25000000  0.50000000  0.25000000
   0.75000000  0.50000000  0.25000000
   0.25000000  0.00000000  0.75000000
   0.75000000  0.00000000  0.75000000
   0.25000000  0.50000000  0.75000000
   0.75000000  0.50000000  0.75000000
 
 position of ions in cartesian coordinates  (Angst):
   1.92590310  3.12931674  5.35996423
   9.61372166  3.13931647  5.36003766
   1.92590310  8.76310189  5.40133269
   9.61372166  8.76310189  5.40133269
   1.92590310  3.18168082 10.98367663
   9.61372166  3.18168082 10.98367663
   1.92590310  8.80546624 11.02497166
   9.61372166  8.80546624 11.02497166
   1.92590310  5.35990818  3.13736334
   9.61372166  5.35990818  3.13736334
   1.92590310 10.98369360  3.17865837
   9.61372166 10.98369360  3.17865837
   1.92590310  5.40227253  8.76100231
   9.61372166  5.40227253  8.76100231
   1.92590310 11.02605795  8.80229734
   9.61372166 11.02605795  8.80229734
   5.76191546  2.52683330  0.30489634
  13.44973402  2.52683330  0.30489634
   5.76191546  8.15061872  0.34619137
  13.44973402  8.15061872  0.34619137
   5.76191546  2.56919765  5.92853531
  13.44973402  2.56919765  5.92853531
   5.76191546  8.19298307  5.96983034
  13.44973402  8.19298307  5.96983034
   5.76191546  0.30624159  2.52757066
  13.44973402  0.30624159  2.52757066
   5.76191546  5.93002701  2.56886569
  13.44973402  5.93002701  2.56886569
   5.76191546  0.34860594  8.15120963
  13.44973402  0.34860594  8.15120963
   5.76191546  5.97239136  8.19250466
  13.44973402  5.97239136  8.19250466
   4.24371213  4.24961233  4.24870050
  11.93153069  4.24961233  4.24870050
   4.24371213  9.87339775  4.28999553
  11.93153069  9.87339775  4.28999553
   4.24371213  4.29197668  9.87233947
  11.93153069  4.29197668  9.87233947
   4.24371213  9.91576210  9.91363450
  11.93153069  9.91576210  9.91363450
   3.44410643  1.41653744  1.41623350
  11.13192499  1.41653744  1.41623350
   3.44410643  7.04032286  1.45752853
  11.13192499  7.04032286  1.45752853
   3.44410643  1.45890179  7.03987247
  11.13192499  1.45890179  7.03987247
   3.44410643  7.08268721  7.08116750
  11.13192499  7.08268721  7.08116750
   7.68690717  4.22843015  1.43688101
  15.37472573  4.22843015  1.43688101
   7.68690717  9.85221557  1.47817605
  15.37472573  9.85221557  1.47817605
   7.68690717  4.27079450  7.06051999
  15.37472573  4.27079450  7.06051999
   7.68690717  9.89457992  7.10181502
  15.37472573  9.89457992  7.10181502
   0.00091139  1.43771962  4.22805298
   7.68872995  1.43771962  4.22805298
   0.00091139  7.06150504  4.26934801
   7.68872995  7.06150504  4.26934801
   0.00091139  1.48008397  9.85169195
   7.68872995  1.48008397  9.85169195
   0.00091139  7.10386939  9.89298699
   7.68872995  7.10386939  9.89298699
   7.36691433  4.24961233  4.24870050
  15.05473289  4.24961233  4.24870050
   7.36691433  9.87339775  4.28999553
  15.05473289  9.87339775  4.28999553
   7.36691433  4.29197668  9.87233947
  15.05473289  4.29197668  9.87233947
   7.36691433  9.91576210  9.91363450
  15.05473289  9.91576210  9.91363450
   0.32090423  1.41653744  1.41623350
   8.00872279  1.41653744  1.41623350
   0.32090423  7.04032286  1.45752853
   8.00872279  7.04032286  1.45752853
   0.32090423  1.45890179  7.03987247
   8.00872279  1.45890179  7.03987247
   0.32090423  7.08268721  7.08116750
   8.00872279  7.08268721  7.08116750
   3.84444535  4.22843015  1.43688101
  11.53226391  4.22843015  1.43688101
   3.84444535  9.85221557  1.47817605
  11.53226391  9.85221557  1.47817605
   3.84444535  4.27079450  7.06051999
  11.53226391  4.27079450  7.06051999
   3.84444535  9.89457992  7.10181502
  11.53226391  9.89457992  7.10181502
   3.84337321  1.43771962  4.22805298
  11.53119177  1.43771962  4.22805298
   3.84337321  7.06150504  4.26934801
  11.53119177  7.06150504  4.26934801
   3.84337321  1.48008397  9.85169195
  11.53119177  1.48008397  9.85169195
   3.84337321  7.10386939  9.89298699
  11.53119177  7.10386939  9.89298699
   1.92916681  5.66160258  5.66028448
   9.61698537  5.66160258  5.66028448
   1.92916681 11.28538800  5.70157951
   9.61698537 11.28538800  5.70157951
   1.92916681  5.70396693 11.28392345
   9.61698537  5.70396693 11.28392345
   1.92916681 11.32775235 11.32521848
   9.61698537 11.32775235 11.32521848
   1.92916681  2.83762207  2.83711652
   9.61698537  2.83762207  2.83711652
   1.92916681  8.46140749  2.87841155
   9.61698537  8.46140749  2.87841155
   1.92916681  2.87998642  8.46075549
   9.61698537  2.87998642  8.46075549
   1.92916681  8.50377184  8.50205052
   9.61698537  8.50377184  8.50205052
   5.75865175  0.00454719  0.00464952
  13.44647031  0.00454719  0.00464952
   5.75865175  5.62833261  0.04594455
  13.44647031  5.62833261  0.04594455
   5.75865175  0.04691154  5.62828849
  13.44647031  0.04691154  5.62828849
   5.75865175  5.67069696  5.66958352
  13.44647031  5.67069696  5.66958352
   5.75865175  2.82852770  2.82781748
  13.44647031  2.82852770  2.82781748
   5.75865175  8.45231312  2.86911251
  13.44647031  8.45231312  2.86911251
   5.75865175  2.87089205  8.45145645
  13.44647031  2.87089205  8.45145645
   5.75865175  8.49467747  8.49275148
  13.44647031  8.49467747  8.49275148
   0.00000000  2.81189271  0.02064752
   7.68781856  2.81189271  0.02064752
   0.00000000  8.43567813  0.06194255
   7.68781856  8.43567813  0.06194255
   0.00000000  2.85425706  5.64428649
   7.68781856  2.85425706  5.64428649
   0.00000000  8.47804248  5.68558151
   7.68781856  8.47804248  5.68558151
   0.00000000  0.02118218  2.81181949
   7.68781856  0.02118218  2.81181949
   0.00000000  5.64496759  2.85311452
   7.68781856  5.64496759  2.85311452
   0.00000000  0.06354653  8.43545845
   7.68781856  0.06354653  8.43545845
   0.00000000  5.68733194  8.47675348
   7.68781856  5.68733194  8.47675348
   3.84390928  2.81189271  0.02064752
  11.53172784  2.81189271  0.02064752
   3.84390928  8.43567813  0.06194255
  11.53172784  8.43567813  0.06194255
   3.84390928  2.85425706  5.64428649
  11.53172784  2.85425706  5.64428649
   3.84390928  8.47804248  5.68558151
  11.53172784  8.47804248  5.68558151
   3.84390928  0.02118218  2.81181949
  11.53172784  0.02118218  2.81181949
   3.84390928  5.64496759  2.85311452
  11.53172784  5.64496759  2.85311452
   3.84390928  0.06354653  8.43545845
  11.53172784  0.06354653  8.43545845
   3.84390928  5.68733194  8.47675348
  11.53172784  5.68733194  8.47675348
 


--------------------------------------------------------------------------------------------------------


 k-point  1 :   0.0000 0.0000 0.0000  plane waves:   73163
 k-point  2 :   0.5000 0.0000 0.0000  plane waves:   73208
 k-point  3 :   0.0000 0.3333-0.0000  plane waves:   73197
 k-point  4 :   0.5000 0.3333-0.0000  plane waves:   73182
 k-point  5 :   0.0000-0.0000 0.3333  plane waves:   73195
 k-point  6 :   0.5000-0.0000 0.3333  plane waves:   73178
 k-point  7 :   0.0000 0.3333 0.3333  plane waves:   73141
 k-point  8 :   0.5000 0.3333 0.3333  plane waves:   73198
 k-point  9 :   0.0000-0.3333 0.3333  plane waves:   73095
 k-point 10 :   0.5000-0.3333 0.3333  plane waves:   73224

 maximum and minimum number of plane-waves per node :     12268    12150

 maximum number of plane-waves:     73224
 maximum index in each direction: 
   IXMAX=   31   IYMAX=   23   IZMAX=   23
   IXMIN=  -32   IYMIN=  -23   IZMIN=  -23


 parallel 3D FFT for wavefunctions:
    minimum data exchange during FFTs selected (reduces bandwidth)
 parallel 3D FFT for charge:
    minimum data exchange during FFTs selected (reduces bandwidth)


 total amount of memory used by VASP MPI-rank0   985864. kBytes
=======================================================================

   base      :      30000. kBytes
   nonl-proj :     102069. kBytes
   fftplans  :      64934. kBytes
   grid      :      55554. kBytes
   one-center:        839. kBytes
   wavefun   :     732468. kBytes
 
     INWAV:  cpu time    0.0000: real time    0.0000
 Broyden mixing: mesh for mixing (old mesh)
   NGX = 63   NGY = 47   NGZ = 47
  (NGX  =256   NGY  =192   NGZ  =192)
  gives a total of 139167 points

 initial charge density was supplied:
 number of electron    1024.0000024 magnetization     128.0000040
 keeping initial charge density in first step


--------------------------------------------------------------------------------------------------------


 Maximum index for augmentation-charges         8015 (set IRDMAX)


--------------------------------------------------------------------------------------------------------


 First call to EWALD:  gamma=   0.142
 Maximum number of real-space cells 2x 3x 3
 Maximum number of reciprocal cells 3x 3x 3

    FEWALD:  cpu time    0.0251: real time    0.0254


--------------------------------------- Iteration      1(   1)  ---------------------------------------


    POTLOK:  cpu time    0.6714: real time    0.6850
    SETDIJ:  cpu time    1.6719: real time    1.6880
     EDDAV:  cpu time  358.4406: real time  365.5554
       DOS:  cpu time    0.0046: real time    0.0046
    --------------------------------------------
      LOOP:  cpu time  360.7885: real time  367.9330

 eigenvalue-minimisations  : 30712
 total energy-change (2. order) : 0.1347183E+05  (-0.5518317E+05)
 number of electron    1024.0000024 magnetization     128.0000040
 augmentation part     1024.0000024 magnetization     128.0000040

 Free energy of the ion-electron system (eV)
  ---------------------------------------------------
  alpha Z        PSCENC =      2580.95227926
  Ewald energy   TEWEN  =    -67508.54596802
  -Hartree energ DENC   =    -35944.06649966
  -exchange      EXHF   =         0.00000000
  -V(xc)+E(xc)   XCENC  =      4397.38268088
  PAW double counting   =    108731.45464712  -112348.03830957
  entropy T*S    EENTRO =        -0.03738755
  eigenvalues    EBANDS =      -746.55885385
  atomic energy  EATOM  =    114309.28505226
  Solvation  Ediel_sol  =         0.00000000
  ---------------------------------------------------
  free energy    TOTEN  =     13471.82764087 eV

  energy without entropy =    13471.86502842  energy(sigma->0) =    13471.84633465


--------------------------------------------------------------------------------------------------------




--------------------------------------- Iteration      1(   2)  ---------------------------------------


     EDDAV:  cpu time  347.1835: real time  353.9600
       DOS:  cpu time    0.0041: real time    0.0041
    --------------------------------------------
      LOOP:  cpu time  347.1876: real time  353.9641

 eigenvalue-minimisations  : 29280
 total energy-change (2. order) :-0.1205991E+05  (-0.1121277E+05)
 number of electron    1024.0000024 magnetization     128.0000040
 augmentation part     1024.0000024 magnetization     128.0000040

 Free energy of the ion-electron system (eV)
  ---------------------------------------------------
  alpha Z        PSCENC =      2580.95227926
  Ewald energy   TEWEN  =    -67508.54596802
  -Hartree energ DENC   =    -35944.06649966
  -exchange      EXHF   =         0.00000000
  -V(xc)+E(xc)   XCENC  =      4397.38268088
  PAW double counting   =    108731.45464712  -112348.03830957
  entropy T*S    EENTRO =        -0.06515727
  eigenvalues    EBANDS =    -12806.43934304
  atomic energy  EATOM  =    114309.28505226
  Solvation  Ediel_sol  =         0.00000000
  ---------------------------------------------------
  free energy    TOTEN  =      1411.91938197 eV

  energy without entropy =     1411.98453924  energy(sigma->0) =     1411.95196060


--------------------------------------------------------------------------------------------------------




--------------------------------------- Iteration      1(   3)  ---------------------------------------


     EDDAV:  cpu time  378.2405: real time  385.8124
       DOS:  cpu time    0.0018: real time    0.0018
    --------------------------------------------
      LOOP:  cpu time  378.2422: real time  385.8142

 eigenvalue-minimisations  : 32896
 total energy-change (2. order) :-0.1937267E+04  (-0.1738706E+04)
 number of electron    1024.0000024 magnetization     128.0000040
 augmentation part     1024.0000024 magnetization     128.0000040

 Free energy of the ion-electron system (eV)
  ---------------------------------------------------
  alpha Z        PSCENC =      2580.95227926
  Ewald energy   TEWEN  =    -67508.54596802
  -Hartree energ DENC   =    -35944.06649966
  -exchange      EXHF   =         0.00000000
  -V(xc)+E(xc)   XCENC  =      4397.38268088
  PAW double counting   =    108731.45464712  -112348.03830957
  entropy T*S    EENTRO =        -0.00000000
  eigenvalues    EBANDS =    -14743.77146521
  atomic energy  EATOM  =    114309.28505226
  Solvation  Ediel_sol  =         0.00000000
  ---------------------------------------------------
  free energy    TOTEN  =      -525.34758294 eV

  energy without entropy =     -525.34758294  energy(sigma->0) =     -525.34758294


--------------------------------------------------------------------------------------------------------




--------------------------------------- Iteration      1(   4)  ---------------------------------------


     EDDAV:  cpu time  429.0954: real time  437.1554
       DOS:  cpu time    0.0019: real time    0.0019
    --------------------------------------------
      LOOP:  cpu time  429.0972: real time  437.1573

 eigenvalue-minimisations  : 39288
 total energy-change (2. order) :-0.2633564E+03  (-0.2604818E+03)
 number of electron    1024.0000024 magnetization     128.0000040
 augmentation part     1024.0000024 magnetization     128.0000040

 Free energy of the ion-electron system (eV)
  ---------------------------------------------------
  alpha Z        PSCENC =      2580.95227926
  Ewald energy   TEWEN  =    -67508.54596802
  -Hartree energ DENC   =    -35944.06649966
  -exchange      EXHF   =         0.00000000
  -V(xc)+E(xc)   XCENC  =      4397.38268088
  PAW double counting   =    108731.45464712  -112348.03830957
  entropy T*S    EENTRO =        -0.00000000
  eigenvalues    EBANDS =    -15007.12786738
  atomic energy  EATOM  =    114309.28505226
  Solvation  Ediel_sol  =         0.00000000
  ---------------------------------------------------
  free energy    TOTEN  =      -788.70398510 eV

  energy without entropy =     -788.70398510  energy(sigma->0) =     -788.70398510


--------------------------------------------------------------------------------------------------------




--------------------------------------- Iteration      1(   5)  ---------------------------------------


     EDDAV:  cpu time  544.7428: real time  556.5504
       DOS:  cpu time    0.0019: real time    0.0019
    CHARGE:  cpu time    8.4000: real time    8.5087
    MIXING:  cpu time    0.0263: real time    0.0269
    --------------------------------------------
      LOOP:  cpu time  553.1710: real time  565.0879

 eigenvalue-minimisations  : 51408
 total energy-change (2. order) :-0.3185996E+02  (-0.3160405E+02)
 number of electron    1024.0000024 magnetization     128.0000033
 augmentation part      329.1794080 magnetization      84.1814225

 Broyden mixing:
  rms(total) = 0.31697E+00    rms(broyden)= 0.31663E+00
  rms(prec ) = 0.32045E+00
  weight for this iteration     100.00

 Free energy of the ion-electron system (eV)
  ---------------------------------------------------
  alpha Z        PSCENC =      2580.95227926
  Ewald energy   TEWEN  =    -67508.54596802
  -Hartree energ DENC   =    -35944.06649966
  -exchange      EXHF   =         0.00000000
  -V(xc)+E(xc)   XCENC  =      4397.38268088
  PAW double counting   =    108731.45464712  -112348.03830957
  entropy T*S    EENTRO =        -0.00000000
  eigenvalues    EBANDS =    -15038.98782323
  atomic energy  EATOM  =    114309.28505226
  Solvation  Ediel_sol  =         0.00000000
  ---------------------------------------------------
  free energy    TOTEN  =      -820.56394096 eV

  energy without entropy =     -820.56394096  energy(sigma->0) =     -820.56394096


--------------------------------------------------------------------------------------------------------




--------------------------------------- Iteration      1(   6)  ---------------------------------------


    POTLOK:  cpu time    0.6708: real time    0.6793
    SETDIJ:  cpu time    1.6530: real time    1.6770
     EDDAV:  cpu time  447.3474: real time  456.4624
       DOS:  cpu time    0.0018: real time    0.0018
    CHARGE:  cpu time    8.4060: real time    8.5345
    MIXING:  cpu time    0.0336: real time    0.0336
    --------------------------------------------
      LOOP:  cpu time  458.1126: real time  467.3885

 eigenvalue-minimisations  : 40608
 total energy-change (2. order) :-0.1430334E+01  (-0.1477016E+01)
 number of electron    1024.0000024 magnetization     128.0000028
 augmentation part      327.4428148 magnetization      84.3657226

 Broyden mixing:
  rms(total) = 0.13532E+00    rms(broyden)= 0.13501E+00
  rms(prec ) = 0.13600E+00
  weight for this iteration     100.00

 eigenvalues of (default mixing * dielectric matrix)
  average eigenvalue GAMMA=   0.6569
  0.6569

 Free energy of the ion-electron system (eV)
  ---------------------------------------------------
  alpha Z        PSCENC =      2580.95227926
  Ewald energy   TEWEN  =    -67508.54596802
  -Hartree energ DENC   =    -35935.75556306
  -exchange      EXHF   =         0.00000000
  -V(xc)+E(xc)   XCENC  =      4396.14255027
  PAW double counting   =    108542.22339993  -112153.23659916
  entropy T*S    EENTRO =        -0.00000000
  eigenvalues    EBANDS =    -15053.05942621
  atomic energy  EATOM  =    114309.28505226
  Solvation  Ediel_sol  =         0.00000000
  ---------------------------------------------------
  free energy    TOTEN  =      -821.99427474 eV

  energy without entropy =     -821.99427474  energy(sigma->0) =     -821.99427474


--------------------------------------------------------------------------------------------------------




--------------------------------------- Iteration      1(   7)  ---------------------------------------


    POTLOK:  cpu time    0.6761: real time    0.6792
    SETDIJ:  cpu time    1.6767: real time    1.6895
     EDDAV:  cpu time  503.6506: real time  514.0954
       DOS:  cpu time    0.0018: real time    0.0018
    CHARGE:  cpu time    8.3004: real time    8.4988
    MIXING:  cpu time    0.0358: real time    0.0364
    --------------------------------------------
      LOOP:  cpu time  514.3414: real time  525.0011

 eigenvalue-minimisations  : 47344
 total energy-change (2. order) :-0.7285394E-01  (-0.7207400E-01)
 number of electron    1024.0000024 magnetization     128.0000026
 augmentation part      327.1451635 magnetization      84.2986565

 Broyden mixing:
  rms(total) = 0.97111E-01    rms(broyden)= 0.96989E-01
  rms(prec ) = 0.98469E-01
  weight for this iteration     100.00

 eigenvalues of (default mixing * dielectric matrix)
  average eigenvalue GAMMA=   0.6024
  0.6024  0.6024

 Free energy of the ion-electron system (eV)
  ---------------------------------------------------
  alpha Z        PSCENC =      2580.95227926
  Ewald energy   TEWEN  =    -67508.54596802
  -Hartree energ DENC   =    -35938.38088496
  -exchange      EXHF   =         0.00000000
  -V(xc)+E(xc)   XCENC  =      4396.48245182
  PAW double counting   =    108586.36036388  -112198.80269903
  entropy T*S    EENTRO =        -0.00000000
  eigenvalues    EBANDS =    -15049.41772388
  atomic energy  EATOM  =    114309.28505226
  Solvation  Ediel_sol  =         0.00000000
  ---------------------------------------------------
  free energy    TOTEN  =      -822.06712868 eV

  energy without entropy =     -822.06712868  energy(sigma->0) =     -822.06712868


--------------------------------------------------------------------------------------------------------




--------------------------------------- Iteration      1(   8)  ---------------------------------------


    POTLOK:  cpu time    0.6815: real time    0.6998
    SETDIJ:  cpu time    1.6363: real time    1.6598
     EDDAV:  cpu time  479.2601: real time  488.6211
       DOS:  cpu time    0.0022: real time    0.0023
    CHARGE:  cpu time    8.4653: real time    8.5430
    MIXING:  cpu time    0.0196: real time    0.0273
    --------------------------------------------
      LOOP:  cpu time  490.0648: real time  499.5532

 eigenvalue-minimisations  : 44472
 total energy-change (2. order) :-0.1301356E-04  (-0.2781033E-02)
 number of electron    1024.0000024 magnetization     128.0000026
 augmentation part      327.0916234 magnetization      84.2864981

 Broyden mixing:
  rms(total) = 0.84474E-01    rms(broyden)= 0.84463E-01
  rms(prec ) = 0.85792E-01
  weight for this iteration     100.00

 eigenvalues of (default mixing * dielectric matrix)
  average eigenvalue GAMMA=   0.5455
  0.6243  0.6243  0.3879

 Free energy of the ion-electron system (eV)
  ---------------------------------------------------
  alpha Z        PSCENC =      2580.95227926
  Ewald energy   TEWEN  =    -67508.54596802
  -Hartree energ DENC   =    -35939.25030966
  -exchange      EXHF   =         0.00000000
  -V(xc)+E(xc)   XCENC  =      4396.62852467
  PAW double counting   =    108612.52350170  -112225.71016455
  entropy T*S    EENTRO =        -0.00000000
  eigenvalues    EBANDS =    -15047.95005736
  atomic energy  EATOM  =    114309.28505226
  Solvation  Ediel_sol  =         0.00000000
  ---------------------------------------------------
  free energy    TOTEN  =      -822.06714169 eV

  energy without entropy =     -822.06714169  energy(sigma->0) =     -822.06714169


--------------------------------------------------------------------------------------------------------




--------------------------------------- Iteration      1(   9)  ---------------------------------------


    POTLOK:  cpu time    0.6699: real time    0.6743
    SETDIJ:  cpu time    1.6788: real time    1.6882
     EDDAV:  cpu time  508.3161: real time  518.5123
       DOS:  cpu time    0.0022: real time    0.0031
    CHARGE:  cpu time    8.2395: real time    8.4970
    MIXING:  cpu time    0.0351: real time    0.0376
    --------------------------------------------
      LOOP:  cpu time  518.9416: real time  529.4125

 eigenvalue-minimisations  : 47568
 total energy-change (2. order) : 0.9496373E-03  (-0.1737087E-03)
 number of electron    1024.0000024 magnetization     128.0000025
 augmentation part      327.1006385 magnetization      84.2817024

 Broyden mixing:
  rms(total) = 0.77547E-01    rms(broyden)= 0.77547E-01
  rms(prec ) = 0.78746E-01
  weight for this iteration     100.00

 eigenvalues of (default mixing * dielectric matrix)
  average eigenvalue GAMMA=   0.5165
  0.6400  0.6400  0.3931  0.3931

 Free energy of the ion-electron system (eV)
  ---------------------------------------------------
  alpha Z        PSCENC =      2580.95227926
  Ewald energy   TEWEN  =    -67508.54596802
  -Hartree energ DENC   =    -35939.51073798
  -exchange      EXHF   =         0.00000000
  -V(xc)+E(xc)   XCENC  =      4396.68855823
  PAW double counting   =    108620.31743059  -112233.76981076
  entropy T*S    EENTRO =        -0.00000000
  eigenvalues    EBANDS =    -15047.48299563
  atomic energy  EATOM  =    114309.28505226
  Solvation  Ediel_sol  =         0.00000000
  ---------------------------------------------------
  free energy    TOTEN  =      -822.06619205 eV

  energy without entropy =     -822.06619205  energy(sigma->0) =     -822.06619205


--------------------------------------------------------------------------------------------------------




--------------------------------------- Iteration      1(  10)  ---------------------------------------


    POTLOK:  cpu time    0.6602: real time    0.6752
    SETDIJ:  cpu time    1.6760: real time    1.6958
     EDDAV:  cpu time  502.2909: real time  511.8805
       DOS:  cpu time    0.0019: real time    0.0019
    CHARGE:  cpu time    8.4517: real time    8.5552
    MIXING:  cpu time    0.0394: real time    0.0422
    --------------------------------------------
      LOOP:  cpu time  513.1202: real time  522.8510

 eigenvalue-minimisations  : 46928
 total energy-change (2. order) : 0.3256192E-03  (-0.1688247E-04)
 number of electron    1024.0000024 magnetization     128.0000020
 augmentation part      327.1064368 magnetization      84.2809409

 Broyden mixing:
  rms(total) = 0.74949E-01    rms(broyden)= 0.74949E-01
  rms(prec ) = 0.76086E-01
  weight for this iteration     100.00

 eigenvalues of (default mixing * dielectric matrix)
  average eigenvalue GAMMA=   0.7437
  1.0900  1.0900  0.5535  0.5535  0.4317

 Free energy of the ion-electron system (eV)
  ---------------------------------------------------
  alpha Z        PSCENC =      2580.95227926
  Ewald energy   TEWEN  =    -67508.54596802
  -Hartree energ DENC   =    -35939.66324158
  -exchange      EXHF   =         0.00000000
  -V(xc)+E(xc)   XCENC  =      4396.71310591
  PAW double counting   =    108623.29864947  -112236.85544288
  entropy T*S    EENTRO =        -0.00000000
  eigenvalues    EBANDS =    -15047.25030086
  atomic energy  EATOM  =    114309.28505226
  Solvation  Ediel_sol  =         0.00000000
  ---------------------------------------------------
  free energy    TOTEN  =      -822.06586643 eV

  energy without entropy =     -822.06586643  energy(sigma->0) =     -822.06586643


--------------------------------------------------------------------------------------------------------




--------------------------------------- Iteration      1(  11)  ---------------------------------------


    POTLOK:  cpu time    0.6682: real time    0.6827
    SETDIJ:  cpu time    1.6674: real time    1.7068
     EDDAV:  cpu time  537.0378: real time  546.9995
       DOS:  cpu time    0.0019: real time    0.0019
    CHARGE:  cpu time    8.2145: real time    8.5485
    MIXING:  cpu time    0.0289: real time    0.0455
    --------------------------------------------
      LOOP:  cpu time  547.6186: real time  557.9849

 eigenvalue-minimisations  : 51248
 total energy-change (2. order) : 0.2930697E-02  (-0.1137276E-03)
 number of electron    1024.0000024 magnetization     128.0000020
 augmentation part      327.1313665 magnetization      84.2805868

 Broyden mixing:
  rms(total) = 0.44570E-01    rms(broyden)= 0.44570E-01
  rms(prec ) = 0.45158E-01
  weight for this iteration     100.00

 eigenvalues of (default mixing * dielectric matrix)
  average eigenvalue GAMMA=   0.6854
  1.1204  1.1204  0.5728  0.5728  0.4039  0.3218

 Free energy of the ion-electron system (eV)
  ---------------------------------------------------
  alpha Z        PSCENC =      2580.95227926
  Ewald energy   TEWEN  =    -67508.54596802
  -Hartree energ DENC   =    -35941.45984118
  -exchange      EXHF   =         0.00000000
  -V(xc)+E(xc)   XCENC  =      4397.01048818
  PAW double counting   =    108664.87449609  -112279.81583911
  entropy T*S    EENTRO =        -0.00000000
  eigenvalues    EBANDS =    -15044.36360321
  atomic energy  EATOM  =    114309.28505226
  Solvation  Ediel_sol  =         0.00000000
  ---------------------------------------------------
  free energy    TOTEN  =      -822.06293574 eV

  energy without entropy =     -822.06293574  energy(sigma->0) =     -822.06293574


--------------------------------------------------------------------------------------------------------




--------------------------------------- Iteration      1(  12)  ---------------------------------------


    POTLOK:  cpu time    0.6643: real time    0.6891
    SETDIJ:  cpu time    1.6744: real time    1.6866
     EDDAV:  cpu time  423.6805: real time  431.5373
       DOS:  cpu time    0.0017: real time    0.0017
    CHARGE:  cpu time    8.3613: real time    8.5330
    MIXING:  cpu time    0.0326: real time    0.0373
    --------------------------------------------
      LOOP:  cpu time  434.4148: real time  442.4850

 eigenvalue-minimisations  : 38216
 total energy-change (2. order) : 0.5765809E-04  (-0.5144185E-04)
 number of electron    1024.0000024 magnetization     128.0000018
 augmentation part      327.1415978 magnetization      84.2795214

 Broyden mixing:
  rms(total) = 0.41609E-01    rms(broyden)= 0.41609E-01
  rms(prec ) = 0.42138E-01
  weight for this iteration     100.00

 eigenvalues of (default mixing * dielectric matrix)
  average eigenvalue GAMMA=   0.7764
  1.3575  1.3575  0.6696  0.6696  0.4855  0.4855  0.4095

 Free energy of the ion-electron system (eV)
  ---------------------------------------------------
  alpha Z        PSCENC =      2580.95227926
  Ewald energy   TEWEN  =    -67508.54596802
  -Hartree energ DENC   =    -35941.64076740
  -exchange      EXHF   =         0.00000000
  -V(xc)+E(xc)   XCENC  =      4397.03203132
  PAW double counting   =    108668.44663347  -112283.47896010
  entropy T*S    EENTRO =        -0.00000000
  eigenvalues    EBANDS =    -15044.11317887
  atomic energy  EATOM  =    114309.28505226
  Solvation  Ediel_sol  =         0.00000000
  ---------------------------------------------------
  free energy    TOTEN  =      -822.06287808 eV

  energy without entropy =     -822.06287808  energy(sigma->0) =     -822.06287808


--------------------------------------------------------------------------------------------------------




--------------------------------------- Iteration      1(  13)  ---------------------------------------


    POTLOK:  cpu time    0.6664: real time    0.7405
    SETDIJ:  cpu time    1.6544: real time    1.6736
     EDDAV:  cpu time  516.7677: real time  525.8970
       DOS:  cpu time    0.0024: real time    0.0024
    CHARGE:  cpu time    8.3954: real time    8.5360
    MIXING:  cpu time    0.0331: real time    0.0394
    --------------------------------------------
      LOOP:  cpu time  527.5194: real time  536.8888

 eigenvalue-minimisations  : 48824
 total energy-change (2. order) : 0.4850033E-03  (-0.1403416E-04)
 number of electron    1024.0000024 magnetization     128.0000016
 augmentation part      327.1495615 magnetization      84.2799380

 Broyden mixing:
  rms(total) = 0.31281E-01    rms(broyden)= 0.31281E-01
  rms(prec ) = 0.31650E-01
  weight for this iteration     100.00

 eigenvalues of (default mixing * dielectric matrix)
  average eigenvalue GAMMA=   0.8004
  1.5397  1.5397  0.7451  0.7451  0.5134  0.5134  0.4034  0.4034

 Free energy of the ion-electron system (eV)
  ---------------------------------------------------
  alpha Z        PSCENC =      2580.95227926
  Ewald energy   TEWEN  =    -67508.54596802
  -Hartree energ DENC   =    -35942.29328460
  -exchange      EXHF   =         0.00000000
  -V(xc)+E(xc)   XCENC  =      4397.12897335
  PAW double counting   =    108683.08321737  -112298.52524738
  entropy T*S    EENTRO =        -0.00000000
  eigenvalues    EBANDS =    -15043.14741531
  atomic energy  EATOM  =    114309.28505226
  Solvation  Ediel_sol  =         0.00000000
  ---------------------------------------------------
  free energy    TOTEN  =      -822.06239308 eV

  energy without entropy =     -822.06239308  energy(sigma->0) =     -822.06239308


--------------------------------------------------------------------------------------------------------




--------------------------------------- Iteration      1(  14)  ---------------------------------------


    POTLOK:  cpu time    0.6673: real time    0.6909
    SETDIJ:  cpu time    1.6748: real time    1.6995
     EDDAV:  cpu time  443.0627: real time  451.7975
       DOS:  cpu time    0.0023: real time    0.0062
    CHARGE:  cpu time    8.3889: real time    8.5693
    MIXING:  cpu time    0.0424: real time    0.0441
    --------------------------------------------
      LOOP:  cpu time  453.8385: real time  462.8075

 eigenvalue-minimisations  : 39976
 total energy-change (2. order) : 0.1230904E-03  (-0.8461224E-05)
 number of electron    1024.0000024 magnetization     128.0000012
 augmentation part      327.1537853 magnetization      84.2793947

 Broyden mixing:
  rms(total) = 0.26782E-01    rms(broyden)= 0.26782E-01
  rms(prec ) = 0.27093E-01
  weight for this iteration     100.00

 eigenvalues of (default mixing * dielectric matrix)
  average eigenvalue GAMMA=   0.9463
  2.0301  2.0301  0.9428  0.9428  0.6057  0.6057  0.4800  0.4800  0.3994

 Free energy of the ion-electron system (eV)
  ---------------------------------------------------
  alpha Z        PSCENC =      2580.95227926
  Ewald energy   TEWEN  =    -67508.54596802
  -Hartree energ DENC   =    -35942.58967457
  -exchange      EXHF   =         0.00000000
  -V(xc)+E(xc)   XCENC  =      4397.16677134
  PAW double counting   =    108689.85867055  -112305.44661643
  entropy T*S    EENTRO =        -0.00000000
  eigenvalues    EBANDS =    -15042.74278437
  atomic energy  EATOM  =    114309.28505226
  Solvation  Ediel_sol  =         0.00000000
  ---------------------------------------------------
  free energy    TOTEN  =      -822.06226999 eV

  energy without entropy =     -822.06226999  energy(sigma->0) =     -822.06226999


--------------------------------------------------------------------------------------------------------




--------------------------------------- Iteration      1(  15)  ---------------------------------------


    POTLOK:  cpu time    0.6844: real time    0.6904
    SETDIJ:  cpu time    1.6683: real time    1.7125
     EDDAV:  cpu time  538.0589: real time  548.8481
       DOS:  cpu time    0.0019: real time    0.0026
    CHARGE:  cpu time    8.4483: real time    8.6015
    MIXING:  cpu time    0.0473: real time    0.0515
    --------------------------------------------
      LOOP:  cpu time  548.9090: real time  559.9067

 eigenvalue-minimisations  : 51168
 total energy-change (2. order) : 0.3234386E-03  (-0.1776252E-04)
 number of electron    1024.0000024 magnetization     128.0000010
 augmentation part      327.1628713 magnetization      84.2798617

 Broyden mixing:
  rms(total) = 0.12548E-01    rms(broyden)= 0.12547E-01
  rms(prec ) = 0.12679E-01
  weight for this iteration     100.00

 eigenvalues of (default mixing * dielectric matrix)
  average eigenvalue GAMMA=   1.0148
  2.4233  2.4233  1.0436  1.0436  0.6752  0.6752  0.5099  0.5099  0.4054  0.4386

 Free energy of the ion-electron system (eV)
  ---------------------------------------------------
  alpha Z        PSCENC =      2580.95227926
  Ewald energy   TEWEN  =    -67508.54596802
  -Hartree energ DENC   =    -35943.43929942
  -exchange      EXHF   =         0.00000000
  -V(xc)+E(xc)   XCENC  =      4397.28910036
  PAW double counting   =    108710.88301305  -112326.97887765
  entropy T*S    EENTRO =        -0.00000000
  eigenvalues    EBANDS =    -15041.50724638
  atomic energy  EATOM  =    114309.28505226
  Solvation  Ediel_sol  =         0.00000000
  ---------------------------------------------------
  free energy    TOTEN  =      -822.06194655 eV

  energy without entropy =     -822.06194655  energy(sigma->0) =     -822.06194655


--------------------------------------------------------------------------------------------------------




--------------------------------------- Iteration      1(  16)  ---------------------------------------


    POTLOK:  cpu time    0.6586: real time    0.6804
    SETDIJ:  cpu time    1.6399: real time    1.6865
     EDDAV:  cpu time  402.7558: real time  410.4842
       DOS:  cpu time    0.0017: real time    0.0017
    CHARGE:  cpu time    8.2775: real time    8.5719
    MIXING:  cpu time    0.0428: real time    0.0488
    --------------------------------------------
      LOOP:  cpu time  413.3763: real time  421.4736

 eigenvalue-minimisations  : 36088
 total energy-change (2. order) : 0.5289700E-04  (-0.1463665E-04)
 number of electron    1024.0000024 magnetization     128.0000010
 augmentation part      327.1690538 magnetization      84.2791145

 Broyden mixing:
  rms(total) = 0.64015E-02    rms(broyden)= 0.64009E-02
  rms(prec ) = 0.64552E-02
  weight for this iteration     100.00

 eigenvalues of (default mixing * dielectric matrix)
  average eigenvalue GAMMA=   1.0201
  2.5891  2.5891  1.1084  1.1084  0.7253  0.7253  0.5355  0.5355  0.4597  0.4597
  0.3844

 Free energy of the ion-electron system (eV)
  ---------------------------------------------------
  alpha Z        PSCENC =      2580.95227926
  Ewald energy   TEWEN  =    -67508.54596802
  -Hartree energ DENC   =    -35943.81788717
  -exchange      EXHF   =         0.00000000
  -V(xc)+E(xc)   XCENC  =      4397.34026052
  PAW double counting   =    108720.36078236  -112336.67847563
  entropy T*S    EENTRO =        -0.00000000
  eigenvalues    EBANDS =    -15040.95793723
  atomic energy  EATOM  =    114309.28505226
  Solvation  Ediel_sol  =         0.00000000
  ---------------------------------------------------
  free energy    TOTEN  =      -822.06189365 eV

  energy without entropy =     -822.06189365  energy(sigma->0) =     -822.06189365


--------------------------------------------------------------------------------------------------------




--------------------------------------- Iteration      1(  17)  ---------------------------------------


    POTLOK:  cpu time    0.6638: real time    0.6768
    SETDIJ:  cpu time    1.6678: real time    1.6894
     EDDAV:  cpu time  479.4086: real time  488.6758
       DOS:  cpu time    0.0021: real time    0.0022
    CHARGE:  cpu time    8.4429: real time    8.6009
    MIXING:  cpu time    0.0359: real time    0.0360
    --------------------------------------------
      LOOP:  cpu time  490.2211: real time  499.6810

 eigenvalue-minimisations  : 44464
 total energy-change (2. order) : 0.2281595E-05  (-0.2551351E-05)
 number of electron    1024.0000024 magnetization     128.0000010
 augmentation part      327.1715747 magnetization      84.2795020

 Broyden mixing:
  rms(total) = 0.54415E-02    rms(broyden)= 0.54410E-02
  rms(prec ) = 0.54799E-02
  weight for this iteration     100.00

 eigenvalues of (default mixing * dielectric matrix)
  average eigenvalue GAMMA=   0.9427
  2.6021  2.6021  1.1115  1.1115  0.7267  0.7267  0.5343  0.5343  0.4590  0.4590
  0.3836  0.0616

 Free energy of the ion-electron system (eV)
  ---------------------------------------------------
  alpha Z        PSCENC =      2580.95227926
  Ewald energy   TEWEN  =    -67508.54596802
  -Hartree energ DENC   =    -35943.86497545
  -exchange      EXHF   =         0.00000000
  -V(xc)+E(xc)   XCENC  =      4397.34722064
  PAW double counting   =    108722.03885204  -112338.39455404
  entropy T*S    EENTRO =        -0.00000000
  eigenvalues    EBANDS =    -15040.87979805
  atomic energy  EATOM  =    114309.28505226
  Solvation  Ediel_sol  =         0.00000000
  ---------------------------------------------------
  free energy    TOTEN  =      -822.06189137 eV

  energy without entropy =     -822.06189137  energy(sigma->0) =     -822.06189137


--------------------------------------------------------------------------------------------------------




--------------------------------------- Iteration      1(  18)  ---------------------------------------


    POTLOK:  cpu time    0.6953: real time    0.7163
    SETDIJ:  cpu time    1.6537: real time    1.6656
     EDDAV:  cpu time  460.8751: real time  469.4260
       DOS:  cpu time    0.0017: real time    0.0017
    CHARGE:  cpu time    8.4948: real time    8.6289
    MIXING:  cpu time    0.0673: real time    0.0699
    --------------------------------------------
      LOOP:  cpu time  471.7880: real time  480.5084

 eigenvalue-minimisations  : 42232
 total energy-change (2. order) :-0.1027409E-05  (-0.1923318E-06)
 number of electron    1024.0000024 magnetization     128.0000009
 augmentation part      327.1723977 magnetization      84.2794353

 Broyden mixing:
  rms(total) = 0.53597E-02    rms(broyden)= 0.53593E-02
  rms(prec ) = 0.53978E-02
  weight for this iteration     100.00

 eigenvalues of (default mixing * dielectric matrix)
  average eigenvalue GAMMA=   0.9613
  2.7665  2.7665  1.1332  1.1332  0.7267  0.7267  0.5312  0.5312  0.4586  0.4586
  0.3844  0.4404  0.4404

 Free energy of the ion-electron system (eV)
  ---------------------------------------------------
  alpha Z        PSCENC =      2580.95227926
  Ewald energy   TEWEN  =    -67508.54596802
  -Hartree energ DENC   =    -35943.86155654
  -exchange      EXHF   =         0.00000000
  -V(xc)+E(xc)   XCENC  =      4397.34673102
  PAW double counting   =    108722.08012441  -112338.43598731
  entropy T*S    EENTRO =        -0.00000000
  eigenvalues    EBANDS =    -15040.88256747
  atomic energy  EATOM  =    114309.28505226
  Solvation  Ediel_sol  =         0.00000000
  ---------------------------------------------------
  free energy    TOTEN  =      -822.06189240 eV

  energy without entropy =     -822.06189240  energy(sigma->0) =     -822.06189240


--------------------------------------------------------------------------------------------------------




--------------------------------------- Iteration      1(  19)  ---------------------------------------


    POTLOK:  cpu time    0.6665: real time    0.6690
    SETDIJ:  cpu time    1.6778: real time    1.6895
     EDDAV:  cpu time  381.8496: real time  389.5480
       DOS:  cpu time    0.0019: real time    0.0019
    CHARGE:  cpu time    8.7770: real time    8.8102
    MIXING:  cpu time    0.0441: real time    0.0442
    --------------------------------------------
      LOOP:  cpu time  393.0169: real time  400.7629

 eigenvalue-minimisations  : 33384
 total energy-change (2. order) :-0.1931287E-05  (-0.3342235E-07)
 number of electron    1024.0000024 magnetization     128.0000008
 augmentation part      327.1723329 magnetization      84.2793797

 Broyden mixing:
  rms(total) = 0.45853E-02    rms(broyden)= 0.45848E-02
  rms(prec ) = 0.46286E-02
  weight for this iteration     100.00

 eigenvalues of (default mixing * dielectric matrix)
  average eigenvalue GAMMA=   1.0719
  3.0960  3.0960  1.3730  1.3730  0.8577  0.8577  0.7491  0.7491  0.5531  0.5531
  0.4783  0.4783  0.3960  0.3960

 Free energy of the ion-electron system (eV)
  ---------------------------------------------------
  alpha Z        PSCENC =      2580.95227926
  Ewald energy   TEWEN  =    -67508.54596802
  -Hartree energ DENC   =    -35943.88965267
  -exchange      EXHF   =         0.00000000
  -V(xc)+E(xc)   XCENC  =      4397.34883886
  PAW double counting   =    108723.58324710  -112339.95956425
  entropy T*S    EENTRO =        -0.00000000
[...]
   -.313E-03 -.427E-02 0.621E-04   0.423E-03 0.436E-02 -.177E-03   -.143E-03 -.145E-03 0.186E-03   0.528E-08 0.188E-06 0.460E-06
   -.653E-03 0.125E-01 -.731E-03   0.693E-03 -.126E-01 0.762E-03   -.685E-04 0.234E-03 -.104E-03   0.105E-05 -.142E-06 -.798E-06
   0.367E-03 0.403E-02 -.892E-04   -.365E-03 -.412E-02 0.151E-03   -.844E-05 0.143E-03 -.109E-03   0.232E-06 0.789E-06 0.143E-06
   0.128E+00 -.284E+00 -.192E-01   -.141E+00 0.313E+00 0.232E-01   0.109E-01 -.352E-01 -.288E-02   -.332E-07 -.198E-05 -.342E-06
   -.147E-02 -.910E-02 -.464E-04   0.158E-02 0.955E-02 0.127E-03   -.142E-03 -.640E-03 -.681E-04   0.928E-06 0.899E-06 0.371E-06
   -.315E-02 0.400E-01 0.855E-03   0.392E-02 -.451E-01 -.853E-03   -.121E-02 0.756E-02 -.579E-03   0.943E-06 -.315E-06 -.133E-05
   0.101E-02 0.741E-02 0.520E-04   -.100E-02 -.783E-02 -.849E-04   -.220E-04 0.624E-03 -.339E-05   -.105E-05 0.609E-06 0.621E-06
   0.236E-01 0.227E-01 0.294E-01   -.246E-01 -.232E-01 -.311E-01   0.124E-02 0.658E-03 0.238E-02   -.185E-05 0.263E-06 -.111E-06
   -.493E-02 0.142E-02 0.203E-02   0.508E-02 -.157E-02 -.216E-02   -.194E-03 0.197E-03 0.182E-03   0.744E-06 -.295E-06 -.124E-06
   -.320E-01 0.145E-01 -.399E-01   0.334E-01 -.143E-01 0.424E-01   -.189E-02 0.535E-05 -.371E-02   0.226E-05 -.373E-06 0.798E-06
   0.530E-02 -.516E-03 -.211E-02   -.539E-02 0.661E-03 0.229E-02   0.122E-03 -.190E-03 -.260E-03   -.282E-07 -.103E-06 0.173E-06
   0.159E-01 0.142E-01 -.241E-01   -.172E-01 -.146E-01 0.256E-01   0.193E-02 0.678E-03 -.233E-02   -.337E-05 0.111E-05 0.693E-06
   -.415E-02 0.120E-02 -.192E-02   0.429E-02 -.121E-02 0.208E-02   -.181E-03 0.248E-04 -.234E-03   -.549E-06 -.119E-05 -.917E-06
   -.191E-01 0.761E-02 0.286E-01   0.206E-01 -.729E-02 -.311E-01   -.206E-02 -.805E-03 0.366E-02   0.130E-05 -.948E-07 0.348E-06
   0.434E-02 -.485E-03 0.197E-02   -.446E-02 0.506E-03 -.217E-02   0.153E-03 -.460E-04 0.307E-03   -.852E-06 -.976E-06 -.816E-06
   -.524E-03 -.155E-01 0.982E-03   0.105E-02 0.155E-01 -.131E-02   -.732E-03 0.186E-04 0.455E-03   0.196E-05 0.775E-06 -.105E-05
   0.365E-03 -.425E-02 0.248E-03   -.421E-03 0.434E-02 -.176E-03   0.747E-04 -.154E-03 -.124E-03   0.178E-05 0.799E-06 -.126E-05
   0.564E-03 0.125E-01 -.798E-03   -.691E-03 -.126E-01 0.764E-03   0.178E-03 0.219E-03 0.109E-03   -.209E-05 -.367E-07 -.698E-06
   -.317E-03 0.401E-02 -.205E-03   0.363E-03 -.411E-02 0.151E-03   -.644E-04 0.161E-03 0.960E-04   0.622E-06 -.884E-06 0.106E-05
   -.130E+00 -.287E+00 -.229E-01   0.143E+00 0.316E+00 0.237E-01   -.104E-01 -.356E-01 -.128E-02   -.232E-06 -.165E-05 -.542E-07
   0.154E-02 -.905E-02 -.165E-03   -.157E-02 0.950E-02 0.126E-03   0.353E-04 -.664E-03 0.436E-05   -.896E-06 -.725E-06 0.996E-06
   0.308E-02 0.401E-01 0.872E-03   -.392E-02 -.452E-01 -.856E-03   0.118E-02 0.752E-02 0.504E-03   -.868E-06 -.405E-06 0.681E-06
   -.937E-03 0.737E-02 0.114E-03   0.997E-03 -.781E-02 -.845E-04   -.765E-04 0.639E-03 0.831E-05   0.684E-06 0.113E-05 -.597E-06
   -.230E-01 0.227E-01 0.294E-01   0.246E-01 -.233E-01 -.312E-01   -.219E-02 0.125E-02 0.277E-02   0.284E-05 0.412E-06 -.594E-06
   0.496E-02 0.154E-02 0.201E-02   -.505E-02 -.156E-02 -.215E-02   0.116E-03 0.376E-04 0.208E-03   -.134E-05 -.893E-06 0.626E-06
   0.321E-01 0.146E-01 -.399E-01   -.335E-01 -.145E-01 0.426E-01   0.186E-02 -.577E-03 -.389E-02   -.118E-05 -.334E-06 -.952E-07
   -.519E-02 -.616E-03 -.207E-02   0.536E-02 0.661E-03 0.228E-02   -.231E-03 -.910E-04 -.314E-03   -.112E-05 0.160E-05 -.168E-05
   -.163E-01 0.143E-01 -.240E-01   0.172E-01 -.146E-01 0.257E-01   -.128E-02 0.363E-03 -.235E-02   0.164E-05 -.521E-06 0.175E-06
   0.417E-02 0.108E-02 -.193E-02   -.426E-02 -.120E-02 0.207E-02   0.125E-03 0.167E-03 -.181E-03   0.130E-05 0.359E-06 -.313E-06
   0.188E-01 0.760E-02 0.288E-01   -.206E-01 -.734E-02 -.312E-01   0.245E-02 -.121E-03 0.347E-02   -.989E-06 -.738E-06 0.375E-06
   -.427E-02 -.389E-03 0.194E-02   0.443E-02 0.507E-03 -.216E-02   -.223E-03 -.151E-03 0.307E-03   0.654E-06 -.143E-05 0.128E-05
 -----------------------------------------------------------------------------------------------
   0.518E-02 0.300E-01 0.312E-05   -.492E-12 0.140E-12 -.540E-13   -.519E-02 -.300E-01 -.163E-05   -.206E-05 -.115E-05 -.193E-05
 
 
 POSITION                                       TOTAL-FORCE (eV/Angst)
 -----------------------------------------------------------------------------------
      1.92590      3.12932      5.35996        -0.001255      0.023233     -0.000529
      9.61372      3.13932      5.36004         0.000011     -0.000022     -0.000058
      1.92590      8.76310      5.40133        -0.000033     -0.002385     -0.000138
      9.61372      8.76310      5.40133         0.000011     -0.000098     -0.000064
      1.92590      3.18168     10.98368        -0.000024     -0.000132     -0.000152
      9.61372      3.18168     10.98368         0.000007     -0.000044     -0.000064
      1.92590      8.80547     11.02497         0.000015     -0.000031     -0.000097
      9.61372      8.80547     11.02497         0.000010     -0.000076     -0.000063
      1.92590      5.35991      3.13736         0.000075     -0.000439      0.002349
      9.61372      5.35991      3.13736         0.000012      0.000076      0.000081
      1.92590     10.98369      3.17866        -0.000121     -0.000363     -0.000913
      9.61372     10.98369      3.17866         0.000013      0.000046      0.000051
      1.92590      5.40227      8.76100         0.000017      0.000284     -0.000912
      9.61372      5.40227      8.76100         0.000011      0.000074      0.000051
      1.92590     11.02606      8.80230         0.000062     -0.000180      0.000713
      9.61372     11.02606      8.80230         0.000010      0.000047      0.000068
      5.76192      2.52683      0.30490         0.000038      0.000070      0.000018
     13.44973      2.52683      0.30490        -0.000038      0.000083      0.000092
      5.76192      8.15062      0.34619        -0.000014      0.000034      0.000083
     13.44973      8.15062      0.34619         0.000009      0.000031      0.000051
      5.76192      2.56920      5.92854         0.000163      0.000215      0.000250
     13.44973      2.56920      5.92854        -0.000269      0.000197     -0.000050
      5.76192      8.19298      5.96983        -0.000068     -0.000085      0.000019
     13.44973      8.19298      5.96983         0.000115     -0.000092      0.000094
      5.76192      0.30624      2.52757         0.000066     -0.000054     -0.000034
     13.44973      0.30624      2.52757        -0.000105     -0.000038     -0.000102
      5.76192      5.93003      2.56887        -0.000144     -0.000034     -0.000005
     13.44973      5.93003      2.56887         0.000109     -0.000059     -0.000034
      5.76192      0.34861      8.15121         0.000088     -0.000033     -0.000005
     13.44973      0.34861      8.15121        -0.000064     -0.000058     -0.000034
      5.76192      5.97239      8.19250        -0.000109     -0.000054     -0.000107
     13.44973      5.97239      8.19250         0.000152     -0.000039     -0.000146
      4.24371      4.24961      4.24870        -0.002704      0.000351      0.001125
     11.93153      4.24961      4.24870         0.000146      0.000106      0.000084
      4.24371      9.87340      4.29000         0.000492     -0.000479     -0.000200
     11.93153      9.87340      4.29000         0.000016     -0.000090     -0.000055
      4.24371      4.29198      9.87234         0.000142      0.000197     -0.000108
     11.93153      4.29198      9.87234         0.000051      0.000073      0.000019
      4.24371      9.91576      9.91363         0.000008     -0.000129      0.000044
     11.93153      9.91576      9.91363         0.000073     -0.000060     -0.000026
      3.44411      1.41654      1.41623        -0.000132     -0.000028     -0.000142
     11.13192      1.41654      1.41623        -0.000057      0.000016      0.000009
      3.44411      7.04032      1.45753        -0.000025     -0.000074      0.000126
     11.13192      7.04032      1.45753        -0.000052     -0.000020      0.000001
      3.44411      1.45890      7.03987         0.002526     -0.001085      0.002502
     11.13192      1.45890      7.03987        -0.000101      0.000041      0.000021
      3.44411      7.08269      7.08117        -0.001011     -0.000742     -0.000753
     11.13192      7.08269      7.08117        -0.000003     -0.000058     -0.000037
      7.68691      4.22843      1.43688         0.000109      0.000071     -0.000027
     15.37473      4.22843      1.43688        -0.000186      0.000283      0.000057
      7.68691      9.85222      1.47818         0.000066     -0.000053      0.000022
     15.37473      9.85222      1.47818         0.000130     -0.000134     -0.000034
      7.68691      4.27079      7.06052         0.000024      0.000096     -0.000057
     15.37473      4.27079      7.06052         0.002473      0.000479     -0.001666
      7.68691      9.89458      7.10182         0.000131     -0.000084      0.000052
     15.37473      9.89458      7.10182        -0.000524     -0.000584      0.000366
      0.00091      1.43772      4.22805        -0.003453     -0.001338     -0.001855
      7.68873      1.43772      4.22805         0.000006      0.000037     -0.000029
      0.00091      7.06151      4.26935         0.000748     -0.000618      0.000581
      7.68873      7.06151      4.26935        -0.000127     -0.000065      0.000047
      0.00091      1.48008      9.85169        -0.000046      0.000040      0.000084
      7.68873      1.48008      9.85169        -0.000066      0.000022     -0.000015
      0.00091      7.10387      9.89299        -0.000112     -0.000086     -0.000143
      7.68873      7.10387      9.89299        -0.000067     -0.000024      0.000001
      7.36691      4.24961      4.24870         0.000061      0.000246      0.000147
     15.05473      4.24961      4.24870         0.005178      0.001088      0.002085
      7.36691      9.87340      4.29000         0.000120     -0.000180     -0.000100
     15.05473      9.87340      4.29000        -0.000702     -0.001005     -0.000272
      7.36691      4.29198      9.87234         0.000066      0.000093     -0.000022
     15.05473      4.29198      9.87234        -0.000015      0.000532     -0.000322
      7.36691      9.91576      9.91363         0.000095     -0.000080     -0.000002
     15.05473      9.91576      9.91363         0.000085     -0.000364      0.000199
      0.32090      1.41654      1.41623        -0.000050     -0.000107     -0.000319
      8.00872      1.41654      1.41623        -0.000007     -0.000001     -0.000027
      0.32090      7.04032      1.45753        -0.000151     -0.000254      0.000351
      8.00872      7.04032      1.45753        -0.000092     -0.000025      0.000028
      0.32090      1.45890      7.03987        -0.004836     -0.001307      0.004016
      8.00872      1.45890      7.03987         0.000007      0.000114      0.000077
      0.32090      7.08269      7.08117         0.001811     -0.001324     -0.001229
      8.00872      7.08269      7.08117        -0.000129     -0.000134     -0.000074
      3.84445      4.22843      1.43688         0.000317      0.000671      0.000257
     11.53226      4.22843      1.43688        -0.000050      0.000102      0.000009
      3.84445      9.85222      1.47818        -0.000156     -0.000427     -0.000254
     11.53226      9.85222      1.47818        -0.000065     -0.000082      0.000003
      3.84445      4.27079      7.06052        -0.004614      0.001394     -0.002818
     11.53226      4.27079      7.06052        -0.000000      0.000227     -0.000137
      3.84445      9.89458      7.10182         0.001018     -0.001113      0.000579
     11.53226      9.89458      7.10182        -0.000095     -0.000178      0.000092
      3.84337      1.43772      4.22805         0.006523     -0.002137     -0.003323
     11.53119      1.43772      4.22805         0.000010      0.000130     -0.000082
      3.84337      7.06151      4.26935        -0.001495     -0.001207      0.000987
     11.53119      7.06151      4.26935         0.000138     -0.000155      0.000096
      3.84337      1.48008      9.85169         0.000075      0.000040      0.000153
     11.53119      1.48008      9.85169         0.000016      0.000003      0.000018
      3.84337      7.10387      9.89299         0.000067     -0.000250     -0.000317
     11.53119      7.10387      9.89299         0.000105     -0.000030     -0.000031
      1.92917      5.66160      5.66028        -0.000198     -0.004774      0.000001
      9.61699      5.66160      5.66028        -0.000031      0.000007     -0.000013
      1.92917     11.28539      5.70158        -0.000173      0.004441     -0.000357
      9.61699     11.28539      5.70158        -0.000031      0.000021     -0.000017
      1.92917      5.70397     11.28392         0.000022     -0.000270      0.000083
      9.61699      5.70397     11.28392        -0.000024     -0.000002     -0.000012
      1.92917     11.32775     11.32522         0.000012      0.000052     -0.000044
      9.61699     11.32775     11.32522        -0.000023      0.000031     -0.000014
      1.92917      2.83762      2.83712        -0.000241     -0.002455     -0.000433
      9.61699      2.83762      2.83712        -0.000046     -0.000059      0.000007
      1.92917      8.46141      2.87841        -0.000030      0.000867     -0.000197
      9.61699      8.46141      2.87841        -0.000017      0.000034      0.000008
      1.92917      2.87999      8.46076        -0.000069     -0.001507     -0.000522
      9.61699      2.87999      8.46076        -0.000010     -0.000068      0.000023
      1.92917      8.50377      8.50205         0.000121      0.001051      0.000285
      9.61699      8.50377      8.50205        -0.000032      0.000038      0.000018
      5.75865      0.00455      0.00465        -0.000082      0.000046      0.000032
     13.44647      0.00455      0.00465         0.000097      0.000040      0.000006
      5.75865      5.62833      0.04594         0.000086     -0.000083      0.000036
     13.44647      5.62833      0.04594        -0.000087     -0.000064      0.000022
      5.75865      0.04691      5.62829        -0.000415      0.000115     -0.000046
     13.44647      0.04691      5.62829         0.000421      0.000132      0.000057
      5.75865      5.67070      5.66958         0.000537     -0.000199      0.000026
     13.44647      5.67070      5.66958        -0.000569     -0.000239     -0.000010
      5.75865      2.82853      2.82782        -0.000207     -0.000228      0.000092
     13.44647      2.82853      2.82782         0.000048     -0.000227      0.000029
      5.75865      8.45231      2.86911         0.000116      0.000260     -0.000070
     13.44647      8.45231      2.86911        -0.000009      0.000215     -0.000025
      5.75865      2.87089      8.45146        -0.000004     -0.000198     -0.000020
     13.44647      2.87089      8.45146         0.000178     -0.000206     -0.000140
      5.75865      8.49468      8.49275         0.000008      0.000216     -0.000024
     13.44647      8.49468      8.49275        -0.000112      0.000241      0.000061
      0.00000      2.81189      0.02065         0.000216     -0.000042      0.000157
      7.68782      2.81189      0.02065        -0.000033     -0.000056      0.000072
      0.00000      8.43568      0.06194        -0.000028      0.000097     -0.000074
      7.68782      8.43568      0.06194        -0.000006      0.000053     -0.000047
      0.00000      2.85426      5.64429        -0.002288     -0.006639      0.001150
      7.68782      2.85426      5.64429        -0.000025     -0.000198      0.000012
      0.00000      8.47804      5.68558        -0.000432      0.002473     -0.000578
      7.68782      8.47804      5.68558        -0.000017      0.000200     -0.000036
      0.00000      0.02118      2.81182         0.000299      0.000105      0.000674
      7.68782      0.02118      2.81182        -0.000050      0.000052      0.000049
      0.00000      5.64497      2.85311        -0.000426      0.000206     -0.001178
      7.68782      5.64497      2.85311         0.000030     -0.000045     -0.000072
      0.00000      0.06355      8.43546         0.000605      0.000364     -0.000798
      7.68782      0.06355      8.43546        -0.000044      0.000015     -0.000075
      0.00000      5.68733      8.47675        -0.000604     -0.000486      0.001209
      7.68782      5.68733      8.47675         0.000034     -0.000026      0.000100
      3.84391      2.81189      0.02065        -0.000201      0.000021      0.000122
     11.53173      2.81189      0.02065         0.000020     -0.000058     -0.000053
      3.84391      8.43568      0.06194         0.000049      0.000092      0.000073
     11.53173      8.43568      0.06194        -0.000018      0.000059      0.000043
      3.84391      2.85426      5.64429         0.002779     -0.006611     -0.000455
     11.53173      2.85426      5.64429         0.000003     -0.000212     -0.000034
      3.84391      8.47804      5.68558         0.000336      0.002440      0.000521
     11.53173      8.47804      5.68558        -0.000016      0.000205      0.000037
      3.84391      0.02118      2.81182        -0.000623      0.000600      0.001010
     11.53173      0.02118      2.81182         0.000030      0.000021      0.000068
      3.84391      5.64497      2.85311         0.000461     -0.000387     -0.001226
     11.53173      5.64497      2.85311        -0.000062     -0.000044     -0.000105
      3.84391      0.06355      8.43546        -0.000332     -0.000000     -0.000699
     11.53173      0.06355      8.43546         0.000030      0.000047     -0.000047
      3.84391      5.68733      8.47675         0.000676      0.000143      0.001079
     11.53173      5.68733      8.47675        -0.000054     -0.000035      0.000087
 -----------------------------------------------------------------------------------
    total drift:                               -0.000009     -0.000012     -0.000000


--------------------------------------------------------------------------------------------------------



  FREE ENERGIE OF THE ION-ELECTRON SYSTEM (eV)
  ---------------------------------------------------
  free  energy   TOTEN  =      -822.06188532 eV

  energy  without entropy=     -822.06188532  energy(sigma->0) =     -822.06188532
 


--------------------------------------------------------------------------------------------------------


    POTLOK:  cpu time    2.2984: real time    2.3682


--------------------------------------------------------------------------------------------------------


     LOOP+:  cpu time15597.0614: real time15899.2127
    4ORBIT:  cpu time    0.0000: real time    0.0000

 total amount of memory used by VASP MPI-rank0   985864. kBytes
=======================================================================

   base      :      30000. kBytes
   nonl-proj :     102069. kBytes
   fftplans  :      64934. kBytes
   grid      :      55554. kBytes
   one-center:        839. kBytes
   wavefun   :     732468. kBytes
 
  
  
 General timing and accounting informations for this job:
 ========================================================
  
                  Total CPU time used (sec):    15744.712
                            User time (sec):    15647.520
                          System time (sec):       97.192
                         Elapsed time (sec):    16049.775
  
                   Maximum memory used (kb):     1180248.
                   Average memory used (kb):           0.
  
                          Minor page faults:      1341799
                          Major page faults:           10
                 Voluntary context switches:        95171
