  88  88   0   0
  0.1431748E+02  0.1111223E-08  0.1111745E-08  0.1056954E-08  0.5000000E-15
  1.000000000000000E-004
  CAR 
 unknown system                          
     17.90591135    -54.34071834  301      5.20254563      1.00000000
    -54.341  0.0000E+00  0.0000E+00  0.0000E+00  0.0000E+00
    -54.100  0.0000E+00  0.0000E+00  0.0000E+00  0.0000E+00
    -53.859  0.0000E+00  0.0000E+00  0.0000E+00  0.0000E+00
    -53.618  0.0000E+00  0.0000E+00  0.0000E+00  0.0000E+00
    -53.377  0.0000E+00  0.0000E+00  0.0000E+00  0.0000E+00
    -53.137  0.0000E+00  0.0000E+00  0.0000E+00  0.0000E+00
    -52.896  0.0000E+00  0.0000E+00  0.0000E+00  0.0000E+00
    -52.655  0.0000E+00  0.0000E+00  0.0000E+00  0.0000E+00
    -52.414  0.0000E+00  0.0000E+00  0.0000E+00  0.0000E+00
    -52.173  0.0000E+00  0.0000E+00  0.0000E+00  0.0000E+00
    -51.932  0.0000E+00  0.0000E+00  0.0000E+00  0.0000E+00
    -51.692  0.0000E+00  0.0000E+00  0.0000E+00  0.0000E+00
    -51.451  0.0000E+00  0.0000E+00  0.0000E+00  0.0000E+00
    -51.210  0.3974E-03  0.0000E+00  0.9571E-04  0.0000E+00
    -50.969  0.1309E+03  0.0000E+00  0.3153E+02  0.0000E+00
    -50.728  0.1967E+01  0.0000E+00  0.3200E+02  0.0000E+00
    -50.488  0.0000E+00  0.0000E+00  0.3200E+02  0.0000E+00
    -50.247  0.0000E+00  0.0000E+00  0.3200E+02  0.0000E+00
    -50.006  0.0000E+00  0.0000E+00  0.3200E+02  0.0000E+00
    -49.765  0.1850E+01  0.0000E+00  0.3245E+02  0.0000E+00
    -49.524  0.2368E+03  0.0000E+00  0.8946E+02  0.0000E+00
    -49.283  0.2715E+02  0.0000E+00  0.9600E+02  0.0000E+00
    -49.043  0.0000E+00  0.0000E+00  0.9600E+02  0.0000E+00
    -48.802  0.0000E+00  0.0000E+00  0.9600E+02  0.0000E+00
    -48.561  0.0000E+00  0.0000E+00  0.9600E+02  0.0000E+00
    -48.320  0.0000E+00  0.0000E+00  0.9600E+02  0.0000E+00
    -48.079  0.0000E+00  0.0000E+00  0.9600E+02  0.0000E+00
    -47.839  0.0000E+00  0.0000E+00  0.9600E+02  0.0000E+00
    -47.598  0.0000E+00  0.0000E+00  0.9600E+02  0.0000E+00
    -47.357  0.0000E+00  0.0000E+00  0.9600E+02  0.0000E+00
    -47.116  0.0000E+00  0.0000E+00  0.9600E+02  0.0000E+00
    -46.875  0.0000E+00  0.0000E+00  0.9600E+02  0.0000E+00
    -46.634  0.0000E+00  0.0000E+00  0.9600E+02  0.0000E+00
    -46.394  0.0000E+00  0.3922E+00  0.9600E+02  0.9445E-01
    -46.153  0.0000E+00  0.1324E+03  0.9600E+02  0.3199E+02
    -45.912  0.0000E+00  0.6003E+02  0.9600E+02  0.4644E+02
    -45.671  0.0000E+00  0.2058E+03  0.9600E+02  0.9600E+02
    -45.430  0.0000E+00  0.0000E+00  0.9600E+02  0.9600E+02
    -45.189  0.0000E+00  0.0000E+00  0.9600E+02  0.9600E+02
    -44.949  0.0000E+00  0.0000E+00  0.9600E+02  0.9600E+02
    -44.708  0.0000E+00  0.0000E+00  0.9600E+02  0.9600E+02
    -44.467  0.0000E+00  0.0000E+00  0.9600E+02  0.9600E+02
    -44.226  0.0000E+00  0.0000E+00  0.9600E+02  0.9600E+02
    -43.985  0.0000E+00  0.0000E+00  0.9600E+02  0.9600E+02
    -43.745  0.0000E+00  0.0000E+00  0.9600E+02  0.9600E+02
    -43.504  0.0000E+00  0.0000E+00  0.9600E+02  0.9600E+02
    -43.263  0.0000E+00  0.0000E+00  0.9600E+02  0.9600E+02
    -43.022  0.0000E+00  0.0000E+00  0.9600E+02  0.9600E+02
    -42.781  0.0000E+00  0.0000E+00  0.9600E+02  0.9600E+02
    -42.540  0.0000E+00  0.0000E+00  0.9600E+02  0.9600E+02
    -42.300  0.0000E+00  0.0000E+00  0.9600E+02  0.9600E+02
    -42.059  0.0000E+00  0.0000E+00  0.9600E+02  0.9600E+02
    -41.818  0.0000E+00  0.0000E+00  0.9600E+02  0.9600E+02
    -41.577  0.0000E+00  0.0000E+00  0.9600E+02  0.9600E+02
    -41.336  0.0000E+00  0.0000E+00  0.9600E+02  0.9600E+02
    -41.096  0.0000E+00  0.0000E+00  0.9600E+02  0.9600E+02
    -40.855  0.0000E+00  0.0000E+00  0.9600E+02  0.9600E+02
    -40.614  0.0000E+00  0.0000E+00  0.9600E+02  0.9600E+02
    -40.373  0.0000E+00  0.0000E+00  0.9600E+02  0.9600E+02
    -40.132  0.1271E-11  0.8099E-12  0.9600E+02  0.9600E+02
    -39.891  0.1486E+02  0.1373E+02  0.9958E+02  0.9931E+02
    -39.651  0.5157E+02  0.5271E+02  0.1120E+03  0.1120E+03
    -39.410  0.0000E+00  0.0000E+00  0.1120E+03  0.1120E+03
    -39.169  0.0000E+00  0.0000E+00  0.1120E+03  0.1120E+03
    -38.928  0.0000E+00  0.0000E+00  0.1120E+03  0.1120E+03
    -38.687  0.0000E+00  0.0000E+00  0.1120E+03  0.1120E+03
    -38.446  0.0000E+00  0.0000E+00  0.1120E+03  0.1120E+03
    -38.206  0.0000E+00  0.0000E+00  0.1120E+03  0.1120E+03
    -37.965  0.0000E+00  0.0000E+00  0.1120E+03  0.1120E+03
    -37.724  0.0000E+00  0.0000E+00  0.1120E+03  0.1120E+03
    -37.483  0.0000E+00  0.0000E+00  0.1120E+03  0.1120E+03
    -37.242  0.0000E+00  0.0000E+00  0.1120E+03  0.1120E+03
    -37.002  0.0000E+00  0.0000E+00  0.1120E+03  0.1120E+03
    -36.761  0.0000E+00  0.0000E+00  0.1120E+03  0.1120E+03
    -36.520  0.0000E+00  0.0000E+00  0.1120E+03  0.1120E+03
    -36.279  0.0000E+00  0.0000E+00  0.1120E+03  0.1120E+03
    -36.038  0.0000E+00  0.0000E+00  0.1120E+03  0.1120E+03
    -35.797  0.0000E+00  0.0000E+00  0.1120E+03  0.1120E+03
    -35.557  0.0000E+00  0.0000E+00  0.1120E+03  0.1120E+03
    -35.316  0.0000E+00  0.0000E+00  0.1120E+03  0.1120E+03
    -35.075  0.0000E+00  0.0000E+00  0.1120E+03  0.1120E+03
    -34.834  0.0000E+00  0.0000E+00  0.1120E+03  0.1120E+03
    -34.593  0.0000E+00  0.0000E+00  0.1120E+03  0.1120E+03
    -34.352  0.0000E+00  0.0000E+00  0.1120E+03  0.1120E+03
    -34.112  0.0000E+00  0.0000E+00  0.1120E+03  0.1120E+03
    -33.871  0.0000E+00  0.0000E+00  0.1120E+03  0.1120E+03
    -33.630  0.0000E+00  0.0000E+00  0.1120E+03  0.1120E+03
    -33.389  0.0000E+00  0.0000E+00  0.1120E+03  0.1120E+03
    -33.148  0.0000E+00  0.0000E+00  0.1120E+03  0.1120E+03
    -32.908  0.0000E+00  0.0000E+00  0.1120E+03  0.1120E+03
    -32.667  0.0000E+00  0.0000E+00  0.1120E+03  0.1120E+03
    -32.426  0.0000E+00  0.0000E+00  0.1120E+03  0.1120E+03
    -32.185  0.0000E+00  0.0000E+00  0.1120E+03  0.1120E+03
    -31.944  0.0000E+00  0.0000E+00  0.1120E+03  0.1120E+03
    -31.703  0.0000E+00  0.0000E+00  0.1120E+03  0.1120E+03
    -31.463  0.0000E+00  0.0000E+00  0.1120E+03  0.1120E+03
    -31.222  0.0000E+00  0.0000E+00  0.1120E+03  0.1120E+03
    -30.981  0.0000E+00  0.0000E+00  0.1120E+03  0.1120E+03
    -30.740  0.0000E+00  0.0000E+00  0.1120E+03  0.1120E+03
    -30.499  0.0000E+00  0.0000E+00  0.1120E+03  0.1120E+03
    -30.259  0.0000E+00  0.0000E+00  0.1120E+03  0.1120E+03
    -30.018  0.0000E+00  0.0000E+00  0.1120E+03  0.1120E+03
    -29.777  0.0000E+00  0.0000E+00  0.1120E+03  0.1120E+03
    -29.536  0.0000E+00  0.0000E+00  0.1120E+03  0.1120E+03
    -29.295  0.0000E+00  0.0000E+00  0.1120E+03  0.1120E+03
    -29.054  0.0000E+00  0.0000E+00  0.1120E+03  0.1120E+03
    -28.814  0.0000E+00  0.0000E+00  0.1120E+03  0.1120E+03
    -28.573  0.0000E+00  0.0000E+00  0.1120E+03  0.1120E+03
    -28.332  0.0000E+00  0.0000E+00  0.1120E+03  0.1120E+03
    -28.091  0.0000E+00  0.0000E+00  0.1120E+03  0.1120E+03
    -27.850  0.0000E+00  0.0000E+00  0.1120E+03  0.1120E+03
    -27.609  0.0000E+00  0.0000E+00  0.1120E+03  0.1120E+03
    -27.369  0.0000E+00  0.0000E+00  0.1120E+03  0.1120E+03
    -27.128  0.0000E+00  0.0000E+00  0.1120E+03  0.1120E+03
    -26.887  0.0000E+00  0.0000E+00  0.1120E+03  0.1120E+03
    -26.646  0.0000E+00  0.0000E+00  0.1120E+03  0.1120E+03
    -26.405  0.0000E+00  0.0000E+00  0.1120E+03  0.1120E+03
    -26.165  0.0000E+00  0.0000E+00  0.1120E+03  0.1120E+03
    -25.924  0.0000E+00  0.0000E+00  0.1120E+03  0.1120E+03
    -25.683  0.0000E+00  0.0000E+00  0.1120E+03  0.1120E+03
    -25.442  0.0000E+00  0.0000E+00  0.1120E+03  0.1120E+03
    -25.201  0.0000E+00  0.0000E+00  0.1120E+03  0.1120E+03
    -24.960  0.0000E+00  0.0000E+00  0.1120E+03  0.1120E+03
    -24.720  0.0000E+00  0.0000E+00  0.1120E+03  0.1120E+03
    -24.479  0.0000E+00  0.0000E+00  0.1120E+03  0.1120E+03
    -24.238  0.0000E+00  0.0000E+00  0.1120E+03  0.1120E+03
    -23.997  0.0000E+00  0.0000E+00  0.1120E+03  0.1120E+03
    -23.756  0.0000E+00  0.0000E+00  0.1120E+03  0.1120E+03
    -23.515  0.0000E+00  0.0000E+00  0.1120E+03  0.1120E+03
    -23.275  0.0000E+00  0.0000E+00  0.1120E+03  0.1120E+03
    -23.034  0.0000E+00  0.0000E+00  0.1120E+03  0.1120E+03
    -22.793  0.0000E+00  0.0000E+00  0.1120E+03  0.1120E+03
    -22.552  0.0000E+00  0.0000E+00  0.1120E+03  0.1120E+03
    -22.311  0.0000E+00  0.0000E+00  0.1120E+03  0.1120E+03
    -22.071  0.0000E+00  0.0000E+00  0.1120E+03  0.1120E+03
    -21.830  0.0000E+00  0.0000E+00  0.1120E+03  0.1120E+03
    -21.589  0.0000E+00  0.0000E+00  0.1120E+03  0.1120E+03
    -21.348  0.0000E+00  0.0000E+00  0.1120E+03  0.1120E+03
    -21.107  0.0000E+00  0.0000E+00  0.1120E+03  0.1120E+03
    -20.866  0.0000E+00  0.0000E+00  0.1120E+03  0.1120E+03
    -20.626  0.0000E+00  0.0000E+00  0.1120E+03  0.1120E+03
    -20.385  0.0000E+00  0.0000E+00  0.1120E+03  0.1120E+03
    -20.144  0.0000E+00  0.0000E+00  0.1120E+03  0.1120E+03
    -19.903  0.0000E+00  0.0000E+00  0.1120E+03  0.1120E+03
    -19.662  0.0000E+00  0.0000E+00  0.1120E+03  0.1120E+03
    -19.422  0.0000E+00  0.0000E+00  0.1120E+03  0.1120E+03
    -19.181  0.0000E+00  0.0000E+00  0.1120E+03  0.1120E+03
    -18.940  0.0000E+00  0.0000E+00  0.1120E+03  0.1120E+03
    -18.699  0.0000E+00  0.0000E+00  0.1120E+03  0.1120E+03
    -18.458  0.0000E+00  0.0000E+00  0.1120E+03  0.1120E+03
    -18.217  0.0000E+00  0.0000E+00  0.1120E+03  0.1120E+03
    -17.977  0.0000E+00  0.0000E+00  0.1120E+03  0.1120E+03
    -17.736  0.0000E+00  0.0000E+00  0.1120E+03  0.1120E+03
    -17.495  0.0000E+00  0.0000E+00  0.1120E+03  0.1120E+03
    -17.254  0.0000E+00  0.0000E+00  0.1120E+03  0.1120E+03
    -17.013  0.0000E+00  0.0000E+00  0.1120E+03  0.1120E+03
    -16.772  0.0000E+00  0.0000E+00  0.1120E+03  0.1120E+03
    -16.532  0.0000E+00  0.0000E+00  0.1120E+03  0.1120E+03
    -16.291  0.0000E+00  0.0000E+00  0.1120E+03  0.1120E+03
    -16.050  0.0000E+00  0.0000E+00  0.1120E+03  0.1120E+03
    -15.809  0.0000E+00  0.0000E+00  0.1120E+03  0.1120E+03
    -15.568  0.0000E+00  0.0000E+00  0.1120E+03  0.1120E+03
    -15.328  0.0000E+00  0.0000E+00  0.1120E+03  0.1120E+03
    -15.087  0.0000E+00  0.0000E+00  0.1120E+03  0.1120E+03
    -14.846  0.0000E+00  0.0000E+00  0.1120E+03  0.1120E+03
    -14.605  0.0000E+00  0.0000E+00  0.1120E+03  0.1120E+03
    -14.364  0.0000E+00  0.0000E+00  0.1120E+03  0.1120E+03
    -14.123  0.0000E+00  0.0000E+00  0.1120E+03  0.1120E+03
    -13.883  0.0000E+00  0.0000E+00  0.1120E+03  0.1120E+03
    -13.642  0.0000E+00  0.0000E+00  0.1120E+03  0.1120E+03
    -13.401  0.7292E-06  0.0000E+00  0.1120E+03  0.1120E+03
    -13.160  0.1917E+02  0.0000E+00  0.1166E+03  0.1120E+03
    -12.919  0.4591E+02  0.8409E-02  0.1277E+03  0.1120E+03
    -12.678  0.1363E+01  0.4250E+02  0.1280E+03  0.1222E+03
    -12.438  0.0000E+00  0.2393E+02  0.1280E+03  0.1280E+03
    -12.197  0.0000E+00  0.0000E+00  0.1280E+03  0.1280E+03
    -11.956  0.0000E+00  0.0000E+00  0.1280E+03  0.1280E+03
    -11.715  0.0000E+00  0.0000E+00  0.1280E+03  0.1280E+03
    -11.474  0.0000E+00  0.0000E+00  0.1280E+03  0.1280E+03
    -11.234  0.0000E+00  0.0000E+00  0.1280E+03  0.1280E+03
    -10.993  0.0000E+00  0.0000E+00  0.1280E+03  0.1280E+03
    -10.752  0.0000E+00  0.0000E+00  0.1280E+03  0.1280E+03
    -10.511  0.0000E+00  0.0000E+00  0.1280E+03  0.1280E+03
    -10.270  0.0000E+00  0.0000E+00  0.1280E+03  0.1280E+03
    -10.029  0.0000E+00  0.0000E+00  0.1280E+03  0.1280E+03
     -9.789  0.0000E+00  0.0000E+00  0.1280E+03  0.1280E+03
     -9.548  0.0000E+00  0.0000E+00  0.1280E+03  0.1280E+03
     -9.307  0.0000E+00  0.0000E+00  0.1280E+03  0.1280E+03
     -9.066  0.0000E+00  0.0000E+00  0.1280E+03  0.1280E+03
     -8.825  0.0000E+00  0.0000E+00  0.1280E+03  0.1280E+03
     -8.585  0.0000E+00  0.0000E+00  0.1280E+03  0.1280E+03
     -8.344  0.0000E+00  0.0000E+00  0.1280E+03  0.1280E+03
     -8.103  0.0000E+00  0.0000E+00  0.1280E+03  0.1280E+03
     -7.862  0.7909E-10  0.0000E+00  0.1280E+03  0.1280E+03
     -7.621  0.5823E+00  0.1447E-10  0.1281E+03  0.1280E+03
     -7.380  0.1245E+02  0.5150E+00  0.1311E+03  0.1281E+03
     -7.140  0.3030E+02  0.1367E+02  0.1384E+03  0.1314E+03
     -6.899  0.3433E+02  0.2955E+02  0.1467E+03  0.1385E+03
     -6.658  0.2200E+02  0.2635E+02  0.1520E+03  0.1449E+03
     -6.417  0.2085E-04  0.2952E+02  0.1520E+03  0.1520E+03
     -6.176  0.0000E+00  0.5417E-01  0.1520E+03  0.1520E+03
     -5.935  0.0000E+00  0.0000E+00  0.1520E+03  0.1520E+03
     -5.695  0.0000E+00  0.0000E+00  0.1520E+03  0.1520E+03
     -5.454  0.0000E+00  0.0000E+00  0.1520E+03  0.1520E+03
     -5.213  0.0000E+00  0.0000E+00  0.1520E+03  0.1520E+03
     -4.972  0.0000E+00  0.0000E+00  0.1520E+03  0.1520E+03
     -4.731  0.0000E+00  0.0000E+00  0.1520E+03  0.1520E+03
     -4.491  0.0000E+00  0.0000E+00  0.1520E+03  0.1520E+03
     -4.250  0.0000E+00  0.0000E+00  0.1520E+03  0.1520E+03
     -4.009  0.0000E+00  0.0000E+00  0.1520E+03  0.1520E+03
     -3.768  0.0000E+00  0.0000E+00  0.1520E+03  0.1520E+03
     -3.527  0.0000E+00  0.0000E+00  0.1520E+03  0.1520E+03
     -3.286  0.0000E+00  0.0000E+00  0.1520E+03  0.1520E+03
     -3.046  0.0000E+00  0.0000E+00  0.1520E+03  0.1520E+03
     -2.805  0.0000E+00  0.0000E+00  0.1520E+03  0.1520E+03
     -2.564  0.0000E+00  0.0000E+00  0.1520E+03  0.1520E+03
     -2.323  0.0000E+00  0.0000E+00  0.1520E+03  0.1520E+03
     -2.082  0.2863E-04  0.0000E+00  0.1520E+03  0.1520E+03
     -1.842  0.1603E+02  0.0000E+00  0.1559E+03  0.1520E+03
     -1.601  0.1949E+02  0.0000E+00  0.1606E+03  0.1520E+03
     -1.360  0.1479E+02  0.0000E+00  0.1641E+03  0.1520E+03
     -1.119  0.1713E+02  0.0000E+00  0.1682E+03  0.1520E+03
     -0.878  0.4581E+02  0.0000E+00  0.1793E+03  0.1520E+03
     -0.637  0.5904E+02  0.9427E-06  0.1935E+03  0.1520E+03
     -0.397  0.3864E+02  0.4177E+01  0.2028E+03  0.1530E+03
     -0.156  0.6781E+02  0.2033E+02  0.2191E+03  0.1579E+03
      0.085  0.7378E+02  0.1222E+02  0.2369E+03  0.1608E+03
      0.326  0.7752E+02  0.1855E+02  0.2556E+03  0.1653E+03
      0.567  0.6997E+02  0.2955E+02  0.2724E+03  0.1724E+03
      0.808  0.5566E+02  0.3916E+02  0.2858E+03  0.1819E+03
      1.048  0.3636E+02  0.3732E+02  0.2946E+03  0.1908E+03
      1.289  0.3058E+02  0.3126E+02  0.3019E+03  0.1984E+03
      1.530  0.4504E+02  0.2068E+02  0.3128E+03  0.2034E+03
      1.771  0.4219E+02  0.2897E+02  0.3230E+03  0.2103E+03
      2.012  0.6898E+02  0.3686E+02  0.3396E+03  0.2192E+03
      2.252  0.5798E+02  0.2765E+02  0.3535E+03  0.2259E+03
      2.493  0.2677E+02  0.2702E+02  0.3600E+03  0.2324E+03
      2.734  0.4265E+02  0.3072E+02  0.3702E+03  0.2398E+03
      2.975  0.3025E+02  0.4427E+02  0.3775E+03  0.2504E+03
      3.216  0.8655E+01  0.4564E+02  0.3796E+03  0.2614E+03
      3.457  0.2785E+02  0.3224E+02  0.3863E+03  0.2692E+03
      3.697  0.2726E+02  0.1244E+02  0.3929E+03  0.2722E+03
      3.938  0.3087E+02  0.1760E+02  0.4003E+03  0.2764E+03
      4.179  0.3591E+02  0.5257E+02  0.4090E+03  0.2891E+03
      4.420  0.3640E+02  0.4489E+02  0.4177E+03  0.2999E+03
      4.661  0.3029E+02  0.1704E+02  0.4250E+03  0.3040E+03
      4.902  0.2579E+02  0.5172E-02  0.4312E+03  0.3040E+03
      5.142  0.3173E+01  0.0000E+00  0.4320E+03  0.3040E+03
      5.383  0.0000E+00  0.0000E+00  0.4320E+03  0.3040E+03
      5.624  0.0000E+00  0.0000E+00  0.4320E+03  0.3040E+03
      5.865  0.0000E+00  0.0000E+00  0.4320E+03  0.3040E+03
      6.106  0.0000E+00  0.3691E-09  0.4320E+03  0.3040E+03
      6.346  0.0000E+00  0.3985E+00  0.4320E+03  0.3041E+03
      6.587  0.0000E+00  0.4198E+01  0.4320E+03  0.3051E+03
      6.828  0.0000E+00  0.7873E+01  0.4320E+03  0.3070E+03
      7.069  0.6147E-15  0.1925E+02  0.4320E+03  0.3116E+03
      7.310  0.2609E-01  0.4410E+02  0.4320E+03  0.3223E+03
      7.551  0.1277E+00  0.5332E+02  0.4320E+03  0.3351E+03
      7.791  0.2432E+00  0.6330E+02  0.4321E+03  0.3503E+03
      8.032  0.7329E+00  0.6587E+02  0.4323E+03  0.3662E+03
      8.273  0.2119E+01  0.7012E+02  0.4328E+03  0.3831E+03
      8.514  0.2646E+01  0.5911E+02  0.4334E+03  0.3973E+03
      8.755  0.8889E+01  0.5877E+02  0.4356E+03  0.4115E+03
      8.995  0.1246E+02  0.4799E+02  0.4386E+03  0.4230E+03
      9.236  0.1310E+02  0.2996E+02  0.4417E+03  0.4302E+03
      9.477  0.1806E+02  0.8907E+01  0.4461E+03  0.4324E+03
      9.718  0.1625E+02  0.3017E+01  0.4500E+03  0.4331E+03
      9.959  0.1568E+02  0.8355E+01  0.4538E+03  0.4351E+03
     10.200  0.2249E+02  0.1864E+02  0.4592E+03  0.4396E+03
     10.440  0.1484E+02  0.1797E+02  0.4627E+03  0.4439E+03
     10.681  0.1535E+02  0.1714E+02  0.4664E+03  0.4481E+03
     10.922  0.1318E+02  0.2760E+02  0.4696E+03  0.4547E+03
     11.163  0.2062E+02  0.1898E+02  0.4746E+03  0.4593E+03
     11.404  0.2472E+02  0.2396E+02  0.4805E+03  0.4651E+03
     11.645  0.2728E+02  0.1487E+02  0.4871E+03  0.4686E+03
     11.885  0.2461E+02  0.1378E+02  0.4930E+03  0.4720E+03
     12.126  0.3352E+02  0.1603E+02  0.5011E+03  0.4758E+03
     12.367  0.1990E+02  0.3668E+02  0.5059E+03  0.4847E+03
     12.608  0.2306E+02  0.3266E+02  0.5114E+03  0.4925E+03
     12.849  0.2143E+02  0.2993E+02  0.5166E+03  0.4997E+03
     13.089  0.2030E+02  0.2027E+02  0.5215E+03  0.5046E+03
     13.330  0.2389E+02  0.2216E+02  0.5273E+03  0.5099E+03
     13.571  0.2431E+02  0.2721E+02  0.5331E+03  0.5165E+03
     13.812  0.1345E+02  0.2375E+02  0.5363E+03  0.5222E+03
     14.053  0.6874E+01  0.2630E+02  0.5380E+03  0.5286E+03
     14.294  0.2288E-02  0.1922E+02  0.5380E+03  0.5332E+03
     14.534  0.0000E+00  0.1670E+02  0.5380E+03  0.5372E+03
     14.775  0.0000E+00  0.3308E+01  0.5380E+03  0.5380E+03
     15.016  0.0000E+00  0.2246E-05  0.5380E+03  0.5380E+03
     15.257  0.0000E+00  0.0000E+00  0.5380E+03  0.5380E+03
     15.498  0.0000E+00  0.0000E+00  0.5380E+03  0.5380E+03
     15.739  0.0000E+00  0.0000E+00  0.5380E+03  0.5380E+03
     15.979  0.0000E+00  0.0000E+00  0.5380E+03  0.5380E+03
     16.220  0.0000E+00  0.0000E+00  0.5380E+03  0.5380E+03
     16.461  0.0000E+00  0.0000E+00  0.5380E+03  0.5380E+03
     16.702  0.0000E+00  0.0000E+00  0.5380E+03  0.5380E+03
     16.943  0.0000E+00  0.0000E+00  0.5380E+03  0.5380E+03
     17.183  0.0000E+00  0.0000E+00  0.5380E+03  0.5380E+03
     17.424  0.0000E+00  0.0000E+00  0.5380E+03  0.5380E+03
     17.665  0.0000E+00  0.0000E+00  0.5380E+03  0.5380E+03
     17.906  0.0000E+00  0.0000E+00  0.5380E+03  0.5380E+03
