 vasp.5.4.4.18Apr17-6-g9f103f2a35 (build Oct 25 2017 14:42:18) complex          
  
 executed on             LinuxIFC date 2021.06.02  18:56:08
 running on   24 total cores
 distrk:  each k-point on   12 cores,    2 groups
 distr:  one band on NCORES_PER_BAND=   6 cores,    2 groups


--------------------------------------------------------------------------------------------------------


 INCAR:
 POTCAR:    PAW_PBE Li_sv 10Sep2004               
 POTCAR:    PAW_PBE O 08Apr2002                   
 POTCAR:    PAW_PBE S 06Sep2000                   
 POTCAR:    PAW_PBE Fe_pv 02Aug2007               

 ----------------------------------------------------------------------------- 
|                                                                             |
|           W    W    AA    RRRRR   N    N  II  N    N   GGGG   !!!           |
|           W    W   A  A   R    R  NN   N  II  NN   N  G    G  !!!           |
|           W    W  A    A  R    R  N N  N  II  N N  N  G       !!!           |
|           W WW W  AAAAAA  RRRRR   N  N N  II  N  N N  G  GGG   !            |
|           WW  WW  A    A  R   R   N   NN  II  N   NN  G    G                |
|           W    W  A    A  R    R  N    N  II  N    N   GGGG   !!!           |
|                                                                             |
|      You have enabled k-point parallelism (KPAR>1).                         |
|      This developmental code was originally  written by Paul Kent at ORNL,  |
|      and carefully double checked in Vienna.                                |
|      GW as well as linear response parallelism added by Martijn Marsman     |
|      and Georg Kresse.                                                      |
|      Carefully verify results versus KPAR=1.                                |
|      Report problems to Paul Kent and Vienna.                               |
|                                                                             |
 ----------------------------------------------------------------------------- 

 POTCAR:    PAW_PBE Li_sv 10Sep2004               
  local pseudopotential read in
  atomic valenz-charges read in
  non local Contribution for L=           0  read in
    real space projection operators read in
  non local Contribution for L=           0  read in
    real space projection operators read in
  non local Contribution for L=           1  read in
    real space projection operators read in
    PAW grid and wavefunctions read in
 
   number of l-projection  operators is LMAX  =           3
   number of lm-projection operators is LMMAX =           5
 
 POTCAR:    PAW_PBE O 08Apr2002                   
  local pseudopotential read in
  partial core-charges read in
  partial kinetic energy density read in
  kinetic energy density of atom read in
  atomic valenz-charges read in
  non local Contribution for L=           0  read in
    real space projection operators read in
  non local Contribution for L=           0  read in
    real space projection operators read in
  non local Contribution for L=           1  read in
    real space projection operators read in
  non local Contribution for L=           1  read in
    real space projection operators read in
    PAW grid and wavefunctions read in
 
   number of l-projection  operators is LMAX  =           4
   number of lm-projection operators is LMMAX =           8
 
 POTCAR:    PAW_PBE S 06Sep2000                   
  local pseudopotential read in
  partial core-charges read in
  partial kinetic energy density read in
  atomic valenz-charges read in
  non local Contribution for L=           0  read in
    real space projection operators read in
  non local Contribution for L=           0  read in
    real space projection operators read in
  non local Contribution for L=           1  read in
    real space projection operators read in
  non local Contribution for L=           1  read in
    real space projection operators read in
    PAW grid and wavefunctions read in
 
   number of l-projection  operators is LMAX  =           4
   number of lm-projection operators is LMMAX =           8
 
 POTCAR:    PAW_PBE Fe_pv 02Aug2007               
  local pseudopotential read in
  partial core-charges read in
  partial kinetic energy density read in
  atomic valenz-charges read in
  non local Contribution for L=           1  read in
    real space projection operators read in
  non local Contribution for L=           1  read in
    real space projection operators read in
  non local Contribution for L=           2  read in
    real space projection operators read in
  non local Contribution for L=           2  read in
    real space projection operators read in
  non local Contribution for L=           0  read in
    real space projection operators read in
  non local Contribution for L=           0  read in
    real space projection operators read in
    PAW grid and wavefunctions read in
 
   number of l-projection  operators is LMAX  =           6
   number of lm-projection operators is LMMAX =          18
 

 ----------------------------------------------------------------------------- 
|                                                                             |
|  ADVICE TO THIS USER RUNNING 'VASP/VAMP'   (HEAR YOUR MASTER'S VOICE ...):  |
|                                                                             |
|      You have a (more or less) 'large supercell' and for larger cells       |
|      it might be more efficient to use real space projection opertators     |
|      So try LREAL= Auto  in the INCAR   file.                               |
|      Mind:          For very  accurate calculation you might also keep the  |
|      reciprocal projection scheme          (i.e. LREAL=.FALSE.)             |
|                                                                             |
 ----------------------------------------------------------------------------- 

  PAW_PBE Li_sv 10Sep2004               :
 energy of atom  1       EATOM= -202.7858
 kinetic energy error for atom=    0.0072 (will be added to EATOM!!)
  PAW_PBE O 08Apr2002                   :
 energy of atom  2       EATOM= -432.3788
 kinetic energy error for atom=    0.0129 (will be added to EATOM!!)
  PAW_PBE S 06Sep2000                   :
 energy of atom  3       EATOM= -276.8230
 kinetic energy error for atom=    0.0008 (will be added to EATOM!!)
  PAW_PBE Fe_pv 02Aug2007               :
 energy of atom  4       EATOM=-2457.4239
 kinetic energy error for atom=    0.0041 (will be added to EATOM!!)
 
 
 POSCAR: # Compound: Li16O16S24Fe32. Old comment:
  positions in direct lattice
  No initial velocities read in
 exchange correlation table for  LEXCH =        8
   RHO(1)=    0.500       N(1)  =     2000
   RHO(2)=  100.500       N(2)  =     4000
 


--------------------------------------------------------------------------------------------------------


 ion  position               nearest neighbor table
   1  0.289  0.469  0.156-  27 2.00  29 2.00  55 2.53  49 2.53
   2  0.789  0.469  0.156-  28 2.00  30 2.00  56 2.53  50 2.53
   3  0.289  0.969  0.156-  25 2.00  31 2.00  53 2.53  51 2.53
   4  0.789  0.969  0.156-  26 2.00  32 2.00  54 2.53  52 2.53
   5  0.046  0.219  0.186-  30 1.98  25 1.98
   6  0.546  0.219  0.186-  29 1.98  26 1.98
   7  0.046  0.719  0.186-  32 1.98  27 1.98
   8  0.546  0.719  0.186-  31 1.98  28 1.98
   9  0.454  0.469  0.814-  20 1.98  21 1.98
  10  0.954  0.469  0.814-  19 1.98  22 1.98
  11  0.454  0.969  0.814-  18 1.98  23 1.98
  12  0.954  0.969  0.814-  17 1.98  24 1.98
  13  0.211  0.219  0.844-  21 2.00  17 2.00  49 2.53  53 2.53
  14  0.711  0.219  0.844-  22 2.00  18 2.00  50 2.53  54 2.53
  15  0.211  0.719  0.844-  23 2.00  19 2.00  51 2.53  55 2.53
  16  0.711  0.719  0.844-  24 2.00  20 2.00  52 2.53  56 2.53
  17  0.077  0.095  0.803-  12 1.98  13 2.00  57 2.01  83 2.01  86 2.01
  18  0.577  0.095  0.803-  11 1.98  14 2.00  58 2.01  84 2.01  85 2.01
  19  0.077  0.595  0.803-  10 1.98  15 2.00  59 2.01  81 2.01  88 2.01
  20  0.577  0.595  0.803-   9 1.98  16 2.00  60 2.01  82 2.01  87 2.01
  21  0.325  0.343  0.803-   9 1.98  13 2.00  61 2.01  81 2.01  85 2.01
  22  0.825  0.343  0.803-  10 1.98  14 2.00  62 2.01  82 2.01  86 2.01
  23  0.325  0.843  0.803-  11 1.98  15 2.00  63 2.01  83 2.01  87 2.01
  24  0.825  0.843  0.803-  12 1.98  16 2.00  64 2.01  84 2.01  88 2.01
  25  0.175  0.093  0.197-   5 1.98   3 2.00  65 2.01  77 2.01  75 2.01
  26  0.675  0.093  0.197-   6 1.98   4 2.00  66 2.01  78 2.01  76 2.01
  27  0.175  0.593  0.197-   7 1.98   1 2.00  67 2.01  79 2.01  73 2.01
  28  0.675  0.593  0.197-   8 1.98   2 2.00  68 2.01  80 2.01  74 2.01
  29  0.423  0.345  0.197-   6 1.98   1 2.00  69 2.01  77 2.01  74 2.01
  30  0.923  0.345  0.197-   5 1.98   2 2.00  70 2.01  73 2.01  78 2.01
  31  0.423  0.845  0.197-   8 1.98   3 2.00  71 2.01  79 2.01  76 2.01
  32  0.923  0.845  0.197-   7 1.98   4 2.00  72 2.01  80 2.01  75 2.01
  33  0.219  0.345  0.371-  61 2.41  67 2.65  69 2.65
  34  0.719  0.345  0.371-  62 2.41  68 2.65  70 2.65
  35  0.219  0.845  0.371-  63 2.41  65 2.65  71 2.65
  36  0.719  0.845  0.371-  64 2.41  66 2.65  72 2.65
  37  0.467  0.093  0.371-  58 2.41  71 2.65  65 2.65
  38  0.967  0.093  0.371-  57 2.41  72 2.65  66 2.65
  39  0.467  0.593  0.371-  60 2.41  69 2.65  67 2.65
  40  0.967  0.593  0.371-  59 2.41  70 2.65  68 2.65
  41  0.033  0.343  0.629-  70 2.41  57 2.65  61 2.65
  42  0.533  0.343  0.629-  69 2.41  58 2.65  62 2.65
  43  0.033  0.843  0.629-  72 2.41  59 2.65  63 2.65
  44  0.533  0.843  0.629-  71 2.41  60 2.65  64 2.65
  45  0.281  0.095  0.629-  65 2.41  61 2.65  57 2.65
  46  0.781  0.095  0.629-  66 2.41  62 2.65  58 2.65
  47  0.281  0.595  0.629-  67 2.41  63 2.65  59 2.65
  48  0.781  0.595  0.629-  68 2.41  64 2.65  60 2.65
  49  0.124  0.344  0.000-  86 2.51  73 2.52  81 2.52  77 2.52  13 2.53   1 2.53
  50  0.624  0.344  0.000-  74 2.51  85 2.51  82 2.52  78 2.52  14 2.53   2 2.53
  51  0.124  0.844  0.000-  75 2.51  88 2.51  83 2.52  79 2.52  15 2.53   3 2.53
  52  0.624  0.844  0.000-  76 2.51  87 2.51  84 2.52  80 2.52  16 2.53   4 2.53
  53  0.376  0.094  1.000-  85 2.51  76 2.51  77 2.52  83 2.52   3 2.53  13 2.53
  54  0.876  0.094  1.000-  86 2.51  75 2.51  78 2.52  84 2.52   4 2.53  14 2.53
  55  0.376  0.594  1.000-  87 2.51  74 2.51  79 2.52  81 2.52   1 2.53  15 2.53
  56  0.876  0.594  1.000-  88 2.51  73 2.52  80 2.52  82 2.52   2 2.53  16 2.53
  57  0.038  0.106  0.606-  17 2.01  38 2.41  41 2.65  45 2.65
  58  0.538  0.106  0.606-  18 2.01  37 2.41  42 2.65  46 2.65
  59  0.038  0.606  0.606-  19 2.01  40 2.41  43 2.65  47 2.65
  60  0.538  0.606  0.606-  20 2.01  39 2.41  44 2.65  48 2.65
  61  0.265  0.332  0.606-  21 2.01  33 2.41  45 2.65  41 2.65
  62  0.765  0.332  0.606-  22 2.01  34 2.41  46 2.65  42 2.65
  63  0.265  0.832  0.606-  23 2.01  35 2.41  47 2.65  43 2.65
  64  0.765  0.832  0.606-  24 2.01  36 2.41  48 2.65  44 2.65
  65  0.235  0.082  0.394-  25 2.01  45 2.41  35 2.65  37 2.65
  66  0.735  0.082  0.394-  26 2.01  46 2.41  36 2.65  38 2.65
  67  0.235  0.582  0.394-  27 2.01  47 2.41  33 2.65  39 2.65
  68  0.735  0.582  0.394-  28 2.01  48 2.41  34 2.65  40 2.65
  69  0.462  0.356  0.394-  29 2.01  42 2.41  39 2.65  33 2.65
  70  0.962  0.356  0.394-  30 2.01  41 2.41  40 2.65  34 2.65
  71  0.462  0.856  0.394-  31 2.01  44 2.41  37 2.65  35 2.65
  72  0.962  0.856  0.394-  32 2.01  43 2.41  38 2.65  36 2.65
  73  0.038  0.469  0.155-  30 2.01  27 2.01  56 2.52  49 2.52
  74  0.538  0.469  0.154-  29 2.01  28 2.01  50 2.51  55 2.51
  75  0.038  0.969  0.154-  32 2.01  25 2.01  51 2.51  54 2.51
  76  0.538  0.969  0.154-  31 2.01  26 2.01  52 2.51  53 2.51
  77  0.289  0.219  0.154-  25 2.01  29 2.01  53 2.52  49 2.52
  78  0.789  0.219  0.154-  26 2.01  30 2.01  54 2.52  50 2.52
  79  0.289  0.719  0.154-  27 2.01  31 2.01  55 2.52  51 2.52
  80  0.789  0.719  0.154-  28 2.01  32 2.01  56 2.52  52 2.52
  81  0.211  0.469  0.846-  21 2.01  19 2.01  49 2.52  55 2.52
  82  0.711  0.469  0.846-  22 2.01  20 2.01  50 2.52  56 2.52
  83  0.211  0.969  0.846-  23 2.01  17 2.01  51 2.52  53 2.52
  84  0.711  0.969  0.846-  24 2.01  18 2.01  52 2.52  54 2.52
  85  0.462  0.219  0.846-  18 2.01  21 2.01  53 2.51  50 2.51
  86  0.962  0.219  0.846-  17 2.01  22 2.01  54 2.51  49 2.51
  87  0.462  0.719  0.846-  20 2.01  23 2.01  55 2.51  52 2.51
  88  0.962  0.719  0.846-  19 2.01  24 2.01  56 2.51  51 2.51
 

IMPORTANT INFORMATION: All symmetrisations will be switched off!
NOSYMM: (Re-)initialisation of all symmetry stuff for point group C_1.

 
 
 KPOINTS: # No comment                            

Automatic generation of k-mesh.
Space group operators:
 irot       det(A)        alpha          n_x          n_y          n_z        tau_x        tau_y        tau_z
    1     1.000000     0.000000     1.000000     0.000000     0.000000     0.000000     0.000000     0.000000
 
 Subroutine IBZKPT returns following result:
 ===========================================
 
 Found     14 irreducible k-points:
 
 Following reciprocal coordinates:
            Coordinates               Weight
  0.000000  0.000000  0.000000      1.000000
  0.333333  0.000000  0.000000      2.000000
  0.000000  0.333333  0.000000      2.000000
  0.333333  0.333333  0.000000      2.000000
 -0.333333  0.333333 -0.000000      2.000000
  0.000000  0.000000  0.333333      2.000000
  0.333333  0.000000  0.333333      2.000000
 -0.333333  0.000000  0.333333      2.000000
  0.000000  0.333333  0.333333      2.000000
  0.333333  0.333333  0.333333      2.000000
 -0.333333  0.333333  0.333333      2.000000
  0.000000 -0.333333  0.333333      2.000000
  0.333333 -0.333333  0.333333      2.000000
 -0.333333 -0.333333  0.333333      2.000000
 
 Following cartesian coordinates:
            Coordinates               Weight
  0.000000  0.000000  0.000000      1.000000
  0.029997  0.000000  0.008162      2.000000
  0.000000  0.029983  0.000000      2.000000
  0.029997  0.029983  0.008162      2.000000
 -0.029997  0.029983 -0.008162      2.000000
  0.000001  0.000000  0.032684      2.000000
  0.029998  0.000000  0.040846      2.000000
 -0.029996  0.000000  0.024522      2.000000
  0.000001  0.029983  0.032684      2.000000
  0.029998  0.029983  0.040846      2.000000
 -0.029996  0.029983  0.024522      2.000000
  0.000001 -0.029983  0.032684      2.000000
  0.029998 -0.029983  0.040846      2.000000
 -0.029996 -0.029983  0.024522      2.000000
 


--------------------------------------------------------------------------------------------------------




 Dimension of arrays:
   k-points           NKPTS =     14   k-points in BZ     NKDIM =     14   number of bands    NBANDS=    538
   number of dos      NEDOS =    301   number of ions     NIONS =     88
   non local maximal  LDIM  =      6   non local SUM 2l+1 LMDIM =     18
   total plane-waves  NPLWV = 829440
   max r-space proj   IRMAX =      1   max aug-charges    IRDMAX= 166102
   dimension x,y,z NGX =    96 NGY =   96 NGZ =   90
   dimension x,y,z NGXF=   192 NGYF=  192 NGZF=  180
   support grid    NGXF=   384 NGYF=  384 NGZF=  360
   ions per type =              16  16  24  32
   NGX,Y,Z   is equivalent  to a cutoff of  14.36, 14.36, 14.16 a.u.
   NGXF,Y,Z  is equivalent  to a cutoff of  28.72, 28.71, 28.31 a.u.

 SYSTEM =  unknown system                          
 POSCAR =  # Compound: Li16O16S24Fe32. Old comment:

 Startparameter for this run:
   NWRITE =      1    write-flag & timer
   PREC   = accura    normal or accurate (medium, high low for compatibility)
   ISTART =      0    job   : 0-new  1-cont  2-samecut
   ICHARG =      1    charge: 1-file 2-atom 10-const
   ISPIN  =      2    spin polarized calculation?
   LNONCOLLINEAR =      F non collinear calculations
   LSORBIT =      F    spin-orbit coupling
   INIWAV =      1    electr: 0-lowe 1-rand  2-diag
   LASPH  =      T    aspherical Exc in radial PAW
   METAGGA=      F    non-selfconsistent MetaGGA calc.

 Electronic Relaxation 1
   ENCUT  =  650.0 eV  47.77 Ry    6.91 a.u.  23.10 23.11 21.97*2*pi/ulx,y,z
   ENINI  =  650.0     initial cutoff
   ENAUG  =  628.9 eV  augmentation charge cutoff
   NELM   =    200;   NELMIN=  8; NELMDL=  0     # of ELM steps 
   EDIFF  = 0.1E-05   stopping-criterion for ELM
   LREAL  =      F    real-space projection
   NLSPLINE    = F    spline interpolate recip. space projectors
   LCOMPAT=      F    compatible to vasp.4.4
   GGA_COMPAT  = T    GGA compatible to vasp.4.4-vasp.4.6
   LMAXPAW     = -100 max onsite density
   LMAXMIX     =    4 max onsite mixed and CHGCAR
   VOSKOWN=      0    Vosko Wilk Nusair interpolation
   ROPT   =    0.00000   0.00000   0.00000   0.00000
 Ionic relaxation
   EDIFFG = 0.1E-04   stopping-criterion for IOM
   NSW    =      0    number of steps for IOM
   NBLOCK =      1;   KBLOCK =      1    inner block; outer block 
   IBRION =     -1    ionic relax: 0-MD 1-quasi-New 2-CG
   NFREE  =      0    steps in history (QN), initial steepest desc. (CG)
   ISIF   =      2    stress and relaxation
   IWAVPR =     10    prediction:  0-non 1-charg 2-wave 3-comb
   ISYM   =      0    0-nonsym 1-usesym 2-fastsym
   LCORR  =      T    Harris-Foulkes like correction to forces

   POTIM  = 0.5000    time-step for ionic-motion
   TEIN   =    0.0    initial temperature
   TEBEG  =    0.0;   TEEND  =   0.0 temperature during run
   SMASS  =  -3.00    Nose mass-parameter (am)
   estimated Nose-frequenzy (Omega)   =  0.10E-29 period in steps =****** mass=  -0.282E-26a.u.
   SCALEE = 1.0000    scale energy and forces
   NPACO  =    256;   APACO  = 16.0  distance and # of slots for P.C.
   PSTRESS=    0.0 pullay stress

  Mass of Ions in am
   POMASS =   7.01 16.00 32.07 55.85
  Ionic Valenz
   ZVAL   =   3.00  6.00  6.00 14.00
  Atomic Wigner-Seitz radii
   RWIGS  =  -1.00 -1.00 -1.00 -1.00
  virtual crystal weights 
   VCA    =   1.00  1.00  1.00  1.00
   NELECT =     736.0000    total number of electrons
   NUPDOWN=      -1.0000    fix difference up-down

 DOS related values:
   EMIN   =  10.00;   EMAX   =-10.00  energy-range for DOS
   EFERMI =   0.00
   ISMEAR =     0;   SIGMA  =   0.05  broadening in eV -4-tet -1-fermi 0-gaus

 Electronic relaxation 2 (details)
   IALGO  =     38    algorithm
   LDIAG  =      T    sub-space diagonalisation (order eigenvalues)
   LSUBROT=      F    optimize rotation matrix (better conditioning)
   TURBO    =      0    0=normal 1=particle mesh
   IRESTART =      0    0=no restart 2=restart with 2 vectors
   NREBOOT  =      0    no. of reboots
   NMIN     =      0    reboot dimension
   EREF     =   0.00    reference energy to select bands
   IMIX   =      4    mixing-type and parameters
     AMIX     =   0.40;   BMIX     =  1.00
     AMIX_MAG =   1.60;   BMIX_MAG =  1.00
     AMIN     =   0.10
     WC   =   100.;   INIMIX=   1;  MIXPRE=   1;  MAXMIX= -45

 Intra band minimization:
   WEIMIN = 0.0000     energy-eigenvalue tresh-hold
   EBREAK =  0.46E-09  absolut break condition
   DEPER  =   0.30     relativ break condition  

   TIME   =   0.40     timestep for ELM

  volume/ion in A,a.u.               =      14.32        96.62
  Fermi-wavevector in a.u.,A,eV,Ry     =   1.368520  2.586127 25.481613  1.872846
  Thomas-Fermi vector in A             =   2.494476
 
 Write flags
   LWAVE        =      F    write WAVECAR
   LDOWNSAMPLE  =      F    k-point downsampling of WAVECAR
   LCHARG       =      T    write CHGCAR
   LVTOT        =      F    write LOCPOT, total local potential
   LVHAR        =      F    write LOCPOT, Hartree potential only
   LELF         =      F    write electronic localiz. function (ELF)
   LORBIT       =      0    0 simple, 1 ext, 2 COOP (PROOUT), +10 PAW based schemes


 Dipole corrections
   LMONO  =      F    monopole corrections only (constant potential shift)
   LDIPOL =      F    correct potential (dipole corrections)
   IDIPOL =      0    1-x, 2-y, 3-z, 4-all directions 
   EPSILON=  1.0000000 bulk dielectric constant

 LDA+U is selected, type is set to LDAUTYPE =  2
   angular momentum for each species LDAUL =    -1   -1   -1    2
   U (eV)           for each species LDAUU =   0.0  0.0  0.0  4.0
   J (eV)           for each species LDAUJ =   0.0  0.0  0.0  0.0
 Exchange correlation treatment:
   GGA     =    PE    GGA type
   LEXCH   =     8    internal setting for exchange type
   VOSKOWN=      0    Vosko Wilk Nusair interpolation
   LHFCALC =     F    Hartree Fock is set to
   LHFONE  =     F    Hartree Fock one center treatment
   AEXX    =    0.0000 exact exchange contribution

 Linear response parameters
   LEPSILON=     F    determine dielectric tensor
   LRPA    =     F    only Hartree local field effects (RPA)
   LNABLA  =     F    use nabla operator in PAW spheres
   LVEL    =     F    velocity operator in full k-point grid
   LINTERFAST=   F  fast interpolation
   KINTER  =     0    interpolate to denser k-point grid
   CSHIFT  =0.1000    complex shift for real part using Kramers Kronig
   OMEGAMAX=  -1.0    maximum frequency
   DEG_THRESHOLD= 0.2000000E-02 threshold for treating states as degnerate
   RTIME   =   -0.100 relaxation time in fs
  (WPLASMAI=    0.000 imaginary part of plasma frequency in eV, 0.658/RTIME)
   DFIELD  = 0.0000000 0.0000000 0.0000000 field for delta impulse in time
 
 Orbital magnetization related:
   ORBITALMAG=     F  switch on orbital magnetization
   LCHIMAG   =     F  perturbation theory with respect to B field
   DQ        =  0.001000  dq finite difference perturbation B field
   LLRAUG    =     F  two centre corrections for induced B field



--------------------------------------------------------------------------------------------------------


 Static calculation
 charge density and potential will be updated during run
 spin polarized calculation
 Variant of blocked Davidson
 Davidson routine will perform the subspace rotation
 perform sub-space diagonalisation
    after iterative eigenvector-optimisation
 modified Broyden-mixing scheme, WC =      100.0
 initial mixing is a Kerker type mixing with AMIX =  0.4000 and BMIX =      1.0000
 Hartree-type preconditioning will be used
 using additional bands          170
 reciprocal scheme for non local part
 use partial core corrections
 calculate Harris-corrections to forces 
   (improved forces if not selfconsistent)
 use gradient corrections 
 use of overlap-Matrix (Vanderbilt PP)
 Gauss-broadening in eV      SIGMA  =   0.05


--------------------------------------------------------------------------------------------------------


  energy-cutoff  :      650.00
  volume of cell :     1259.94
      direct lattice vectors                 reciprocal lattice vectors
    11.112233740  0.000000000 -0.000290340     0.089991547  0.000000000  0.024487024
     0.000000000 11.117451940  0.000000000     0.000000000  0.089948669  0.000000000
    -2.775108980  0.000000000 10.198722210     0.000002562  0.000000000  0.098052196

  length of vectors
    11.112233744 11.117451940 10.569539468     0.093263567  0.089948669  0.098052196


 
 k-points in units of 2pi/SCALE and weight: # No comment                            
   0.00000000  0.00000000  0.00000000       0.037
   0.02999718  0.00000000  0.00816234       0.074
   0.00000000  0.02998289  0.00000000       0.074
   0.02999718  0.02998289  0.00816234       0.074
  -0.02999718  0.02998289 -0.00816234       0.074
   0.00000085  0.00000000  0.03268407       0.074
   0.02999804  0.00000000  0.04084641       0.074
  -0.02999633  0.00000000  0.02452172       0.074
   0.00000085  0.02998289  0.03268407       0.074
   0.02999804  0.02998289  0.04084641       0.074
  -0.02999633  0.02998289  0.02452172       0.074
   0.00000085 -0.02998289  0.03268407       0.074
   0.02999804 -0.02998289  0.04084641       0.074
  -0.02999633 -0.02998289  0.02452172       0.074
 
 k-points in reciprocal lattice and weights: # No comment                            
   0.00000000  0.00000000  0.00000000       0.037
   0.33333333  0.00000000  0.00000000       0.074
   0.00000000  0.33333333  0.00000000       0.074
   0.33333333  0.33333333  0.00000000       0.074
  -0.33333333  0.33333333 -0.00000000       0.074
   0.00000000  0.00000000  0.33333333       0.074
   0.33333333  0.00000000  0.33333333       0.074
  -0.33333333  0.00000000  0.33333333       0.074
   0.00000000  0.33333333  0.33333333       0.074
   0.33333333  0.33333333  0.33333333       0.074
  -0.33333333  0.33333333  0.33333333       0.074
   0.00000000 -0.33333333  0.33333333       0.074
   0.33333333 -0.33333333  0.33333333       0.074
  -0.33333333 -0.33333333  0.33333333       0.074
 
 position of ions in fractional coordinates (direct lattice) 
   0.28894969  0.46933910  0.15583616
   0.78894969  0.46933910  0.15583616
   0.28894969  0.96933910  0.15583616
   0.78894969  0.96933910  0.15583616
   0.04646972  0.21934976  0.18586770
   0.54646972  0.21934976  0.18586770
   0.04646972  0.71934976  0.18586770
   0.54646972  0.71934976  0.18586770
   0.45353028  0.46934976  0.81413230
   0.95353028  0.46934976  0.81413230
   0.45353028  0.96934976  0.81413230
   0.95353028  0.96934976  0.81413230
   0.21105031  0.21933910  0.84416384
   0.71105031  0.21933910  0.84416384
   0.21105031  0.71933910  0.84416384
   0.71105031  0.71933910  0.84416384
   0.07654971  0.09530995  0.80250593
   0.57654971  0.09530995  0.80250593
   0.07654971  0.59530995  0.80250593
   0.57654971  0.59530995  0.80250593
   0.32470466  0.34338175  0.80250383
   0.82470466  0.34338175  0.80250383
   0.32470466  0.84338175  0.80250383
   0.82470466  0.84338175  0.80250383
   0.17529534  0.09338175  0.19749617
   0.67529534  0.09338175  0.19749617
   0.17529534  0.59338175  0.19749617
   0.67529534  0.59338175  0.19749617
   0.42345029  0.34530995  0.19749407
   0.92345029  0.34530995  0.19749407
   0.42345029  0.84530995  0.19749407
   0.92345029  0.84530995  0.19749407
   0.21868463  0.34523395  0.37102476
   0.71868463  0.34523395  0.37102476
   0.21868463  0.84523395  0.37102476
   0.71868463  0.84523395  0.37102476
   0.46681660  0.09344897  0.37102399
   0.96681660  0.09344897  0.37102399
   0.46681660  0.59344897  0.37102399
   0.96681660  0.59344897  0.37102399
   0.03318340  0.34344897  0.62897601
   0.53318340  0.34344897  0.62897601
   0.03318340  0.84344897  0.62897601
   0.53318340  0.84344897  0.62897601
   0.28131537  0.09523395  0.62897524
   0.78131537  0.09523395  0.62897524
   0.28131537  0.59523395  0.62897524
   0.78131537  0.59523395  0.62897524
   0.12439279  0.34434306  0.00000412
   0.62439279  0.34434306  0.00000412
   0.12439279  0.84434306  0.00000412
   0.62439279  0.84434306  0.00000412
   0.37560721  0.09434306  0.99999588
   0.87560721  0.09434306  0.99999588
   0.37560721  0.59434306  0.99999588
   0.87560721  0.59434306  0.99999588
   0.03824426  0.10634799  0.60632306
   0.53824426  0.10634799  0.60632306
   0.03824426  0.60634799  0.60632306
   0.53824426  0.60634799  0.60632306
   0.26492712  0.33232651  0.60632763
   0.76492712  0.33232651  0.60632763
   0.26492712  0.83232651  0.60632763
   0.76492712  0.83232651  0.60632763
   0.23507288  0.08232651  0.39367237
   0.73507288  0.08232651  0.39367237
   0.23507288  0.58232651  0.39367237
   0.73507288  0.58232651  0.39367237
   0.46175574  0.35634799  0.39367694
   0.96175574  0.35634799  0.39367694
   0.46175574  0.85634799  0.39367694
   0.96175574  0.85634799  0.39367694
   0.03848398  0.46936404  0.15491943
   0.53848398  0.46936404  0.15397331
   0.03848398  0.96936404  0.15397331
   0.53848398  0.96936404  0.15397331
   0.28861657  0.21935690  0.15447525
   0.78861657  0.21935690  0.15447525
   0.28861657  0.71935690  0.15447525
   0.78861657  0.71935690  0.15447525
   0.21138343  0.46935690  0.84552475
   0.71138343  0.46935690  0.84552475
   0.21138343  0.96935690  0.84552475
   0.71138343  0.96935690  0.84552475
   0.46151602  0.21936404  0.84602669
   0.96151602  0.21936404  0.84602669
   0.46151602  0.71936404  0.84602669
   0.96151602  0.71936404  0.84602669
 
 position of ions in cartesian coordinates  (Angst):
   2.77841422  5.21785483  1.58924581
   8.33453109  5.21785483  1.58910064
   2.77841422 10.77658080  1.58924581
   8.33453109 10.77658080  1.58910064
   0.00057921  2.43861041  1.89559955
   5.55669608  2.43861041  1.89545438
   0.00057921  7.99733638  1.89559955
   5.55669608  7.99733638  1.89545438
   2.78042868  5.21797340  8.30297749
   8.33654555  5.21797340  8.30283232
   2.78042868 10.77669937  8.30297749
   8.33654555 10.77669937  8.30283232
   0.00259367  2.43849185  8.60933123
   5.55871054  2.43849185  8.60918606
   0.00259367  7.99721782  8.60933123
   5.55871054  7.99721782  8.60918606
  -1.37640314  1.05960384  8.18451283
   4.17971373  1.05960384  8.18436766
  -1.37640314  6.61832981  8.18451283
   4.17971373  6.61832981  8.18436766
   1.38115855  3.81753010  8.18441936
   6.93727542  3.81753010  8.18427419
   1.38115855  9.37625607  8.18441936
   6.93727542  9.37625607  8.18427419
   1.39984934  1.03816712  2.01415768
   6.95596621  1.03816712  2.01401251
   1.39984934  6.59689309  2.01415768
   6.95596621  6.59689309  2.01401251
   4.15741103  3.83896683  2.01406421
   9.71352790  3.83896683  2.01391904
   4.15741103  9.39769280  2.01406421
   9.71352790  9.39769280  2.01391904
   1.40044058  3.83812185  3.78391497
   6.95655745  3.83812185  3.78376980
   1.40044058  9.39684782  3.78391497
   6.95655745  9.39684782  3.78376980
   4.15774317  1.03891443  3.78383507
   9.71386004  1.03891443  3.78368990
   4.15774317  6.59764040  3.78383507
   9.71386004  6.59764040  3.78368990
  -1.37673528  3.81827742  6.41474197
   4.17938159  3.81827742  6.41459680
  -1.37673528  9.37700339  6.41474197
   4.17938159  9.37700339  6.41459680
   1.38056731  1.05875886  6.41466207
   6.93668418  1.05875886  6.41451690
   1.38056731  6.61748483  6.41466207
   6.93668418  6.61748483  6.41451690
   1.38227032  3.82821742  0.00000590
   6.93838719  3.82821742 -0.00013927
   1.38227032  9.38694339  0.00000590
   6.93838719  9.38694339 -0.00013927
   1.39873757  1.04885444 10.19857114
   6.95485444  1.04885444 10.19842597
   1.39873757  6.60758041 10.19857114
   6.95485444  6.60758041 10.19842597
  -1.25763347  1.18231867  6.18370935
   4.29848340  1.18231867  6.18356418
  -1.25763347  6.74104464  6.18370935
   4.29848340  6.74104464  6.18356418
   1.26130689  3.69462400  6.18369015
   6.81742376  3.69462400  6.18354498
   1.26130689  9.25334997  6.18369015
   6.81742376  9.25334997  6.18354498
   1.51970100  0.91526102  4.01488689
   7.07581787  0.91526102  4.01474172
   1.51970100  6.47398699  4.01488689
   7.07581787  6.47398699  4.01474172
   4.03864136  3.96168165  4.01486769
   9.59475823  3.96168165  4.01472252
   4.03864136  9.52040762  4.01486769
   9.59475823  9.52040762  4.01472252
  -0.00227531  5.21813216  1.57996901
   5.55646714  5.21813216  1.57017467
   0.00035027 10.77685813  1.57031984
   5.55646714 10.77685813  1.57017467
   2.77848919  2.43868979  1.57536637
   8.33460606  2.43868979  1.57522120
   2.77848919  7.99741576  1.57536637
   8.33460606  7.99741576  1.57522120
   0.00251870  5.21805278  8.62321067
   5.55863557  5.21805278  8.62306550
   0.00251870 10.77677875  8.62321067
   5.55863557 10.77677875  8.62306550
   2.78065762  2.43876917  8.62825720
   8.33677449  2.43876917  8.62811203
   2.78065762  7.99749514  8.62825720
   8.33677449  7.99749514  8.62811203
 


--------------------------------------------------------------------------------------------------------


 k-point  1 :   0.0000 0.0000 0.0000  plane waves:   47369
 k-point  2 :   0.3333 0.0000 0.0000  plane waves:   47373
 k-point  3 :   0.0000 0.3333 0.0000  plane waves:   47370
 k-point  4 :   0.3333 0.3333 0.0000  plane waves:   47404
 k-point  5 :  -0.3333 0.3333-0.0000  plane waves:   47404
 k-point  6 :   0.0000 0.0000 0.3333  plane waves:   47419
 k-point  7 :   0.3333 0.0000 0.3333  plane waves:   47399
 k-point  8 :  -0.3333 0.0000 0.3333  plane waves:   47417
 k-point  9 :   0.0000 0.3333 0.3333  plane waves:   47409
 k-point 10 :   0.3333 0.3333 0.3333  plane waves:   47422
 k-point 11 :  -0.3333 0.3333 0.3333  plane waves:   47440
 k-point 12 :   0.0000-0.3333 0.3333  plane waves:   47409
 k-point 13 :   0.3333-0.3333 0.3333  plane waves:   47422
 k-point 14 :  -0.3333-0.3333 0.3333  plane waves:   47440

 maximum and minimum number of plane-waves per node :      7942     7858

 maximum number of plane-waves:     47440
 maximum index in each direction: 
   IXMAX=   23   IYMAX=   23   IZMAX=   21
   IXMIN=  -23   IYMIN=  -23   IZMIN=  -22


 parallel 3D FFT for wavefunctions:
    minimum data exchange during FFTs selected (reduces bandwidth)
 parallel 3D FFT for charge:
    minimum data exchange during FFTs selected (reduces bandwidth)


 total amount of memory used by VASP MPI-rank0  1233264. kBytes
=======================================================================

   base      :      30000. kBytes
   nonl-proj :      75226. kBytes
   fftplans  :      85054. kBytes
   grid      :      64684. kBytes
   one-center:        466. kBytes
   wavefun   :     977834. kBytes
 
     INWAV:  cpu time    0.0000: real time    0.0000
 Broyden mixing: mesh for mixing (old mesh)
   NGX = 47   NGY = 47   NGZ = 43
  (NGX  =192   NGY  =192   NGZ  =180)
  gives a total of  94987 points

 initial charge density was supplied:
 number of electron     736.0000016 magnetization     127.9999885
 keeping initial charge density in first step


--------------------------------------------------------------------------------------------------------


 Maximum index for augmentation-charges        13229 (set IRDMAX)


--------------------------------------------------------------------------------------------------------


 First call to EWALD:  gamma=   0.164
 Maximum number of real-space cells 3x 3x 3
 Maximum number of reciprocal cells 3x 3x 3

    FEWALD:  cpu time    0.0039: real time    0.0041


--------------------------------------- Iteration      1(   1)  ---------------------------------------


    POTLOK:  cpu time    1.0409: real time    1.0693
    SETDIJ:  cpu time    2.2583: real time    2.3334
     EDDAV:  cpu time  314.1628: real time  317.8134
       DOS:  cpu time    0.0081: real time    0.0081
    --------------------------------------------
      LOOP:  cpu time  317.4699: real time  321.2242

 eigenvalue-minimisations  : 30944
 total energy-change (2. order) : 0.1040982E+05  (-0.4118825E+05)
 number of electron     736.0000016 magnetization     127.9999885
 augmentation part      736.0000016 magnetization     127.9999885

 Free energy of the ion-electron system (eV)
  ---------------------------------------------------
  alpha Z        PSCENC =      2314.49656628
  Ewald energy   TEWEN  =    -57720.99296912
  -Hartree energ DENC   =    -30350.87762828
  -exchange      EXHF   =         0.00000000
  -V(xc)+E(xc)   XCENC  =      3229.30265188
  PAW double counting   =     92679.89207989   -95535.38516353
  entropy T*S    EENTRO =        -0.01791323
  eigenvalues    EBANDS =       349.92230414
  atomic energy  EATOM  =     95443.47970955
  Solvation  Ediel_sol  =         0.00000000
  ---------------------------------------------------
  free energy    TOTEN  =     10409.81963758 eV

  energy without entropy =    10409.83755081  energy(sigma->0) =    10409.82859419


--------------------------------------------------------------------------------------------------------




--------------------------------------- Iteration      1(   2)  ---------------------------------------


     EDDAV:  cpu time  307.5090: real time  310.3160
       DOS:  cpu time    0.0085: real time    0.0085
    --------------------------------------------
      LOOP:  cpu time  307.5175: real time  310.3245

 eigenvalue-minimisations  : 30128
 total energy-change (2. order) :-0.9232265E+04  (-0.8658543E+04)
 number of electron     736.0000016 magnetization     127.9999885
 augmentation part      736.0000016 magnetization     127.9999885

 Free energy of the ion-electron system (eV)
  ---------------------------------------------------
  alpha Z        PSCENC =      2314.49656628
  Ewald energy   TEWEN  =    -57720.99296912
  -Hartree energ DENC   =    -30350.87762828
  -exchange      EXHF   =         0.00000000
  -V(xc)+E(xc)   XCENC  =      3229.30265188
  PAW double counting   =     92679.89207989   -95535.38516353
  entropy T*S    EENTRO =        -0.06573524
  eigenvalues    EBANDS =     -8882.29476110
  atomic energy  EATOM  =     95443.47970955
  Solvation  Ediel_sol  =         0.00000000
  ---------------------------------------------------
  free energy    TOTEN  =      1177.55475032 eV

  energy without entropy =     1177.62048557  energy(sigma->0) =     1177.58761795


--------------------------------------------------------------------------------------------------------




--------------------------------------- Iteration      1(   3)  ---------------------------------------


     EDDAV:  cpu time  326.6653: real time  329.7099
       DOS:  cpu time    0.0025: real time    0.0025
    --------------------------------------------
      LOOP:  cpu time  326.6678: real time  329.7124

 eigenvalue-minimisations  : 32352
 total energy-change (2. order) :-0.1485633E+04  (-0.1278958E+04)
 number of electron     736.0000016 magnetization     127.9999885
 augmentation part      736.0000016 magnetization     127.9999885

 Free energy of the ion-electron system (eV)
  ---------------------------------------------------
  alpha Z        PSCENC =      2314.49656628
  Ewald energy   TEWEN  =    -57720.99296912
  -Hartree energ DENC   =    -30350.87762828
  -exchange      EXHF   =         0.00000000
  -V(xc)+E(xc)   XCENC  =      3229.30265188
  PAW double counting   =     92679.89207989   -95535.38516353
  entropy T*S    EENTRO =        -0.00000000
  eigenvalues    EBANDS =    -10367.99399608
  atomic energy  EATOM  =     95443.47970955
  Solvation  Ediel_sol  =         0.00000000
  ---------------------------------------------------
  free energy    TOTEN  =      -308.07874942 eV

  energy without entropy =     -308.07874942  energy(sigma->0) =     -308.07874942


--------------------------------------------------------------------------------------------------------




--------------------------------------- Iteration      1(   4)  ---------------------------------------


     EDDAV:  cpu time  348.2300: real time  351.5760
       DOS:  cpu time    0.0026: real time    0.0026
    --------------------------------------------
      LOOP:  cpu time  348.2326: real time  351.5786

 eigenvalue-minimisations  : 35048
 total energy-change (2. order) :-0.1682197E+03  (-0.1654548E+03)
 number of electron     736.0000016 magnetization     127.9999885
 augmentation part      736.0000016 magnetization     127.9999885

 Free energy of the ion-electron system (eV)
  ---------------------------------------------------
  alpha Z        PSCENC =      2314.49656628
  Ewald energy   TEWEN  =    -57720.99296912
  -Hartree energ DENC   =    -30350.87762828
  -exchange      EXHF   =         0.00000000
  -V(xc)+E(xc)   XCENC  =      3229.30265188
  PAW double counting   =     92679.89207989   -95535.38516353
  entropy T*S    EENTRO =        -0.00000000
  eigenvalues    EBANDS =    -10536.21372860
  atomic energy  EATOM  =     95443.47970955
  Solvation  Ediel_sol  =         0.00000000
  ---------------------------------------------------
  free energy    TOTEN  =      -476.29848194 eV

  energy without entropy =     -476.29848194  energy(sigma->0) =     -476.29848194


--------------------------------------------------------------------------------------------------------




--------------------------------------- Iteration      1(   5)  ---------------------------------------


     EDDAV:  cpu time  460.2943: real time  464.4850
       DOS:  cpu time    0.0027: real time    0.0027
    CHARGE:  cpu time    9.3858: real time    9.4439
    MIXING:  cpu time    0.0299: real time    0.0318
    --------------------------------------------
      LOOP:  cpu time  469.7127: real time  473.9634

 eigenvalue-minimisations  : 49768
 total energy-change (2. order) :-0.1243184E+02  (-0.1230879E+02)
 number of electron     736.0000016 magnetization     127.9999932
 augmentation part      278.4636438 magnetization      84.1341228

 Broyden mixing:
  rms(total) = 0.21738E+00    rms(broyden)= 0.21721E+00
  rms(prec ) = 0.22069E+00
  weight for this iteration     100.00

 Free energy of the ion-electron system (eV)
  ---------------------------------------------------
  alpha Z        PSCENC =      2314.49656628
  Ewald energy   TEWEN  =    -57720.99296912
  -Hartree energ DENC   =    -30350.87762828
  -exchange      EXHF   =         0.00000000
  -V(xc)+E(xc)   XCENC  =      3229.30265188
  PAW double counting   =     92679.89207989   -95535.38516353
  entropy T*S    EENTRO =        -0.00000000
  eigenvalues    EBANDS =    -10548.64557120
  atomic energy  EATOM  =     95443.47970955
  Solvation  Ediel_sol  =         0.00000000
  ---------------------------------------------------
  free energy    TOTEN  =      -488.73032453 eV

  energy without entropy =     -488.73032453  energy(sigma->0) =     -488.73032453


--------------------------------------------------------------------------------------------------------




--------------------------------------- Iteration      1(   6)  ---------------------------------------


    POTLOK:  cpu time    1.0458: real time    1.0578
    SETDIJ:  cpu time    2.2856: real time    2.3003
     EDDAV:  cpu time  405.3252: real time  409.2811
       DOS:  cpu time    0.0026: real time    0.0026
    CHARGE:  cpu time    9.3341: real time    9.3712
    MIXING:  cpu time    0.0376: real time    0.0379
    --------------------------------------------
      LOOP:  cpu time  418.0309: real time  422.0509

 eigenvalue-minimisations  : 42440
 total energy-change (2. order) :-0.4693766E+00  (-0.4806707E+00)
 number of electron     736.0000016 magnetization     127.9999951
 augmentation part      277.9605276 magnetization      84.1626606

 Broyden mixing:
  rms(total) = 0.10638E+00    rms(broyden)= 0.10622E+00
  rms(prec ) = 0.10710E+00
  weight for this iteration     100.00

 eigenvalues of (default mixing * dielectric matrix)
  average eigenvalue GAMMA=   0.6681
  0.6681

 Free energy of the ion-electron system (eV)
  ---------------------------------------------------
  alpha Z        PSCENC =      2314.49656628
  Ewald energy   TEWEN  =    -57720.99296912
  -Hartree energ DENC   =    -30349.04964331
  -exchange      EXHF   =         0.00000000
  -V(xc)+E(xc)   XCENC  =      3229.00220557
  PAW double counting   =     92522.90130568   -95376.73976113
  entropy T*S    EENTRO =        -0.00000000
  eigenvalues    EBANDS =    -10552.29711466
  atomic energy  EATOM  =     95443.47970955
  Solvation  Ediel_sol  =         0.00000000
  ---------------------------------------------------
  free energy    TOTEN  =      -489.19970114 eV

  energy without entropy =     -489.19970114  energy(sigma->0) =     -489.19970114


--------------------------------------------------------------------------------------------------------




--------------------------------------- Iteration      1(   7)  ---------------------------------------


    POTLOK:  cpu time    1.0504: real time    1.0550
    SETDIJ:  cpu time    2.2751: real time    2.2891
     EDDAV:  cpu time  427.8239: real time  432.0062
       DOS:  cpu time    0.0027: real time    0.0027
    CHARGE:  cpu time    9.3524: real time    9.4105
    MIXING:  cpu time    0.0367: real time    0.0373
    --------------------------------------------
      LOOP:  cpu time  440.5411: real time  444.8008

 eigenvalue-minimisations  : 45624
 total energy-change (2. order) :-0.1751922E-01  (-0.1766535E-01)
 number of electron     736.0000016 magnetization     127.9999959
 augmentation part      277.8798444 magnetization      84.1545098

 Broyden mixing:
  rms(total) = 0.59183E-01    rms(broyden)= 0.59141E-01
  rms(prec ) = 0.60640E-01
  weight for this iteration     100.00

 eigenvalues of (default mixing * dielectric matrix)
  average eigenvalue GAMMA=   0.5440
  0.5440  0.5440

 Free energy of the ion-electron system (eV)
  ---------------------------------------------------
  alpha Z        PSCENC =      2314.49656628
  Ewald energy   TEWEN  =    -57720.99296912
  -Hartree energ DENC   =    -30349.96797998
  -exchange      EXHF   =         0.00000000
  -V(xc)+E(xc)   XCENC  =      3229.08683670
  PAW double counting   =     92580.72391058   -95435.13430934
  entropy T*S    EENTRO =        -0.00000000
  eigenvalues    EBANDS =    -10550.90898504
  atomic energy  EATOM  =     95443.47970955
  Solvation  Ediel_sol  =         0.00000000
  ---------------------------------------------------
  free energy    TOTEN  =      -489.21722037 eV

  energy without entropy =     -489.21722037  energy(sigma->0) =     -489.21722037


--------------------------------------------------------------------------------------------------------




--------------------------------------- Iteration      1(   8)  ---------------------------------------


    POTLOK:  cpu time    1.0426: real time    1.0552
    SETDIJ:  cpu time    2.2676: real time    2.2907
     EDDAV:  cpu time  408.3799: real time  412.4466
       DOS:  cpu time    0.0028: real time    0.0028
    CHARGE:  cpu time    9.5009: real time    9.5130
    MIXING:  cpu time    0.0453: real time    0.0467
    --------------------------------------------
      LOOP:  cpu time  421.2392: real time  425.3551

 eigenvalue-minimisations  : 43008
 total energy-change (2. order) : 0.4322582E-03  (-0.3742057E-03)
 number of electron     736.0000016 magnetization     127.9999967
 augmentation part      277.8714521 magnetization      84.1566455

 Broyden mixing:
  rms(total) = 0.53107E-01    rms(broyden)= 0.53103E-01
  rms(prec ) = 0.54397E-01
  weight for this iteration     100.00

 eigenvalues of (default mixing * dielectric matrix)
  average eigenvalue GAMMA=   0.5842
  0.5418  0.6053  0.6053

 Free energy of the ion-electron system (eV)
  ---------------------------------------------------
  alpha Z        PSCENC =      2314.49656628
  Ewald energy   TEWEN  =    -57720.99296912
  -Hartree energ DENC   =    -30349.94362056
  -exchange      EXHF   =         0.00000000
  -V(xc)+E(xc)   XCENC  =      3229.11529843
  PAW double counting   =     92594.11246762   -95448.65694836
  entropy T*S    EENTRO =        -0.00000000
  eigenvalues    EBANDS =    -10550.82729196
  atomic energy  EATOM  =     95443.47970955
  Solvation  Ediel_sol  =         0.00000000
  ---------------------------------------------------
  free energy    TOTEN  =      -489.21678811 eV

  energy without entropy =     -489.21678811  energy(sigma->0) =     -489.21678811


--------------------------------------------------------------------------------------------------------




--------------------------------------- Iteration      1(   9)  ---------------------------------------


    POTLOK:  cpu time    1.0413: real time    1.0722
    SETDIJ:  cpu time    2.2749: real time    2.3219
     EDDAV:  cpu time  445.1724: real time  449.4680
       DOS:  cpu time    0.0031: real time    0.0031
    CHARGE:  cpu time    9.3122: real time    9.3885
    MIXING:  cpu time    0.0367: real time    0.0368
    --------------------------------------------
      LOOP:  cpu time  457.8406: real time  462.2905

 eigenvalue-minimisations  : 47552
 total energy-change (2. order) : 0.6999934E-03  (-0.2171865E-04)
 number of electron     736.0000016 magnetization     127.9999997
 augmentation part      277.8738651 magnetization      84.1569235

 Broyden mixing:
  rms(total) = 0.42589E-01    rms(broyden)= 0.42589E-01
  rms(prec ) = 0.43564E-01
  weight for this iteration     100.00

 eigenvalues of (default mixing * dielectric matrix)
  average eigenvalue GAMMA=   1.0911
  1.8135  1.2768  0.6370  0.6370

 Free energy of the ion-electron system (eV)
  ---------------------------------------------------
  alpha Z        PSCENC =      2314.49656628
  Ewald energy   TEWEN  =    -57720.99296912
  -Hartree energ DENC   =    -30350.08355616
  -exchange      EXHF   =         0.00000000
  -V(xc)+E(xc)   XCENC  =      3229.15670820
  PAW double counting   =     92608.53264426   -95463.27288473
  entropy T*S    EENTRO =        -0.00000000
  eigenvalues    EBANDS =    -10550.53230640
  atomic energy  EATOM  =     95443.47970955
  Solvation  Ediel_sol  =         0.00000000
  ---------------------------------------------------
  free energy    TOTEN  =      -489.21608811 eV

  energy without entropy =     -489.21608811  energy(sigma->0) =     -489.21608811


--------------------------------------------------------------------------------------------------------




--------------------------------------- Iteration      1(  10)  ---------------------------------------


    POTLOK:  cpu time    1.0517: real time    1.0551
    SETDIJ:  cpu time    2.2804: real time    2.2816
     EDDAV:  cpu time  453.4757: real time  457.9211
       DOS:  cpu time    0.0040: real time    0.0214
    CHARGE:  cpu time    9.2261: real time    9.3098
    MIXING:  cpu time    0.0375: real time    0.0488
    --------------------------------------------
      LOOP:  cpu time  466.0756: real time  470.6383

 eigenvalue-minimisations  : 49000
 total energy-change (2. order) : 0.9055080E-03  (-0.1998375E-03)
 number of electron     736.0000016 magnetization     128.0000003
 augmentation part      277.8923197 magnetization      84.1586281

 Broyden mixing:
  rms(total) = 0.83004E-02    rms(broyden)= 0.82962E-02
  rms(prec ) = 0.83479E-02
  weight for this iteration     100.00

 eigenvalues of (default mixing * dielectric matrix)
  average eigenvalue GAMMA=   1.0560
  2.5151  0.9366  0.6452  0.6452  0.5381

 Free energy of the ion-electron system (eV)
  ---------------------------------------------------
  alpha Z        PSCENC =      2314.49656628
  Ewald energy   TEWEN  =    -57720.99296912
  -Hartree energ DENC   =    -30350.80684840
  -exchange      EXHF   =         0.00000000
  -V(xc)+E(xc)   XCENC  =      3229.30689717
  PAW double counting   =     92662.88939191   -95518.34542692
  entropy T*S    EENTRO =        -0.00000000
  eigenvalues    EBANDS =    -10549.24250308
  atomic energy  EATOM  =     95443.47970955
  Solvation  Ediel_sol  =         0.00000000
  ---------------------------------------------------
  free energy    TOTEN  =      -489.21518261 eV

  energy without entropy =     -489.21518261  energy(sigma->0) =     -489.21518261


--------------------------------------------------------------------------------------------------------




--------------------------------------- Iteration      1(  11)  ---------------------------------------


    POTLOK:  cpu time    1.0520: real time    1.0586
    SETDIJ:  cpu time    2.2710: real time    2.2967
     EDDAV:  cpu time  360.5492: real time  363.4524
       DOS:  cpu time    0.0027: real time    0.0027
    CHARGE:  cpu time    9.2540: real time    9.3250
    MIXING:  cpu time    0.0342: real time    0.0361
    --------------------------------------------
      LOOP:  cpu time  373.1629: real time  376.1711

 eigenvalue-minimisations  : 36856
 total energy-change (2. order) :-0.7931178E-04  (-0.4826751E-04)
 number of electron     736.0000016 magnetization     128.0000004
 augmentation part      277.8950344 magnetization      84.1584558

 Broyden mixing:
  rms(total) = 0.64944E-02    rms(broyden)= 0.64924E-02
  rms(prec ) = 0.68436E-02
  weight for this iteration     100.00

 eigenvalues of (default mixing * dielectric matrix)
  average eigenvalue GAMMA=   1.0139
  2.5706  0.7041  0.7041  0.8751  0.6149  0.6149

 Free energy of the ion-electron system (eV)
  ---------------------------------------------------
  alpha Z        PSCENC =      2314.49656628
  Ewald energy   TEWEN  =    -57720.99296912
  -Hartree energ DENC   =    -30350.92865689
  -exchange      EXHF   =         0.00000000
  -V(xc)+E(xc)   XCENC  =      3229.32912210
  PAW double counting   =     92675.51174857   -95531.08664032
  entropy T*S    EENTRO =        -0.00000000
  eigenvalues    EBANDS =    -10549.02414208
  atomic energy  EATOM  =     95443.47970955
  Solvation  Ediel_sol  =         0.00000000
  ---------------------------------------------------
  free energy    TOTEN  =      -489.21526192 eV

  energy without entropy =     -489.21526192  energy(sigma->0) =     -489.21526192


--------------------------------------------------------------------------------------------------------




--------------------------------------- Iteration      1(  12)  ---------------------------------------


    POTLOK:  cpu time    1.0448: real time    1.0487
    SETDIJ:  cpu time    2.2815: real time    2.2832
     EDDAV:  cpu time  392.4181: real time  395.7558
       DOS:  cpu time    0.0025: real time    0.0025
    CHARGE:  cpu time    9.3884: real time    9.4004
    MIXING:  cpu time    0.0319: real time    0.0320
    --------------------------------------------
      LOOP:  cpu time  405.1673: real time  408.5225

 eigenvalue-minimisations  : 40864
 total energy-change (2. order) : 0.1466103E-04  (-0.4986338E-05)
 number of electron     736.0000016 magnetization     128.0000004
 augmentation part      277.8968496 magnetization      84.1582864

 Broyden mixing:
  rms(total) = 0.53176E-02    rms(broyden)= 0.53161E-02
  rms(prec ) = 0.55961E-02
  weight for this iteration     100.00

 eigenvalues of (default mixing * dielectric matrix)
  average eigenvalue GAMMA=   1.1709
  2.5345  1.4492  1.4492  0.8965  0.6636  0.6636  0.5397

 Free energy of the ion-electron system (eV)
  ---------------------------------------------------
  alpha Z        PSCENC =      2314.49656628
  Ewald energy   TEWEN  =    -57720.99296912
  -Hartree energ DENC   =    -30350.91720308
  -exchange      EXHF   =         0.00000000
  -V(xc)+E(xc)   XCENC  =      3229.32275739
  PAW double counting   =     92676.31465103   -95531.86351214
  entropy T*S    EENTRO =        -0.00000000
  eigenvalues    EBANDS =    -10549.05524718
  atomic energy  EATOM  =     95443.47970955
  Solvation  Ediel_sol  =         0.00000000
  ---------------------------------------------------
  free energy    TOTEN  =      -489.21524726 eV

  energy without entropy =     -489.21524726  energy(sigma->0) =     -489.21524726


--------------------------------------------------------------------------------------------------------




--------------------------------------- Iteration      1(  13)  ---------------------------------------


    POTLOK:  cpu time    1.0476: real time    1.0485
    SETDIJ:  cpu time    2.2752: real time    2.2773
     EDDAV:  cpu time  368.3449: real time  371.8711
       DOS:  cpu time    0.0026: real time    0.0026
    CHARGE:  cpu time    9.1954: real time    9.2320
    MIXING:  cpu time    0.0411: real time    0.0420
    --------------------------------------------
      LOOP:  cpu time  380.9068: real time  384.4736

 eigenvalue-minimisations  : 37976
 total energy-change (2. order) : 0.1503913E-04  (-0.3480151E-05)
 number of electron     736.0000016 magnetization     128.0000005
 augmentation part      277.8945214 magnetization      84.1580789

 Broyden mixing:
  rms(total) = 0.12352E-02    rms(broyden)= 0.12301E-02
  rms(prec ) = 0.12539E-02
  weight for this iteration     100.00

 eigenvalues of (default mixing * dielectric matrix)
  average eigenvalue GAMMA=   1.1821
  2.7757  1.7365  1.3989  0.9623  0.7150  0.7150  0.5766  0.5766

 Free energy of the ion-electron system (eV)
  ---------------------------------------------------
  alpha Z        PSCENC =      2314.49656628
  Ewald energy   TEWEN  =    -57720.99296912
  -Hartree energ DENC   =    -30350.85093499
  -exchange      EXHF   =         0.00000000
  -V(xc)+E(xc)   XCENC  =      3229.30294910
  PAW double counting   =     92677.40249473   -95532.87906772
  entropy T*S    EENTRO =        -0.00000000
  eigenvalues    EBANDS =    -10549.17398004
  atomic energy  EATOM  =     95443.47970955
  Solvation  Ediel_sol  =         0.00000000
  ---------------------------------------------------
  free energy    TOTEN  =      -489.21523222 eV

  energy without entropy =     -489.21523222  energy(sigma->0) =     -489.21523222


--------------------------------------------------------------------------------------------------------




--------------------------------------- Iteration      1(  14)  ---------------------------------------


    POTLOK:  cpu time    1.0470: real time    1.0496
    SETDIJ:  cpu time    2.2788: real time    2.2827
     EDDAV:  cpu time  332.9564: real time  335.9012
       DOS:  cpu time    0.0026: real time    0.0026
    CHARGE:  cpu time    9.2304: real time    9.3146
    MIXING:  cpu time    0.0372: real time    0.0372
    --------------------------------------------
      LOOP:  cpu time  345.5524: real time  348.5879

 eigenvalue-minimisations  : 33224
 total energy-change (2. order) :-0.3927009E-05  (-0.1811747E-05)
 number of electron     736.0000016 magnetization     128.0000005
 augmentation part      277.8933601 magnetization      84.1579100

 Broyden mixing:
  rms(total) = 0.86323E-03    rms(broyden)= 0.85596E-03
  rms(prec ) = 0.89143E-03
  weight for this iteration     100.00

 eigenvalues of (default mixing * dielectric matrix)
  average eigenvalue GAMMA=   1.1231
  2.8200  1.5361  1.5361  1.0394  0.7097  0.7097  0.6247  0.6247  0.5073

 Free energy of the ion-electron system (eV)
  ---------------------------------------------------
  alpha Z        PSCENC =      2314.49656628
  Ewald energy   TEWEN  =    -57720.99296912
  -Hartree energ DENC   =    -30350.85389671
  -exchange      EXHF   =         0.00000000
  -V(xc)+E(xc)   XCENC  =      3229.30037730
  PAW double counting   =     92678.71472548   -95534.18931404
  entropy T*S    EENTRO =        -0.00000000
  eigenvalues    EBANDS =    -10549.17043488
  atomic energy  EATOM  =     95443.47970955
  Solvation  Ediel_sol  =         0.00000000
  ---------------------------------------------------
  free energy    TOTEN  =      -489.21523615 eV

  energy without entropy =     -489.21523615  energy(sigma->0) =     -489.21523615


--------------------------------------------------------------------------------------------------------




--------------------------------------- Iteration      1(  15)  ---------------------------------------


    POTLOK:  cpu time    1.0455: real time    1.0481
    SETDIJ:  cpu time    2.2862: real time    2.2879
     EDDAV:  cpu time  260.2453: real time  262.5103
       DOS:  cpu time    0.0026: real time    0.0026
    CHARGE:  cpu time    9.1523: real time    9.2387
    MIXING:  cpu time    0.0401: real time    0.0435
    --------------------------------------------
      LOOP:  cpu time  272.7719: real time  275.1311

 eigenvalue-minimisations  : 23856
 total energy-change (2. order) : 0.1580629E-05  (-0.1598143E-06)
 number of electron     736.0000016 magnetization     128.0000005
 augmentation part      277.8932421 magnetization      84.1580151

 Broyden mixing:
  rms(total) = 0.52536E-03    rms(broyden)= 0.51355E-03
  rms(prec ) = 0.52424E-03
  weight for this iteration     100.00

 eigenvalues of (default mixing * dielectric matrix)
  average eigenvalue GAMMA=   1.1210
  2.7871  1.4929  1.4929  1.3089  0.8339  0.8339  0.6689  0.6689  0.5613  0.5613

 Free energy of the ion-electron system (eV)
  ---------------------------------------------------
  alpha Z        PSCENC =      2314.49656628
  Ewald energy   TEWEN  =    -57720.99296912
  -Hartree energ DENC   =    -30350.85622387
  -exchange      EXHF   =         0.00000000
  -V(xc)+E(xc)   XCENC  =      3229.30217917
  PAW double counting   =     92679.00403412   -95534.48919431
  entropy T*S    EENTRO =        -0.00000000
  eigenvalues    EBANDS =    -10549.15933638
  atomic energy  EATOM  =     95443.47970955
  Solvation  Ediel_sol  =         0.00000000
  ---------------------------------------------------
  free energy    TOTEN  =      -489.21523456 eV

  energy without entropy =     -489.21523456  energy(sigma->0) =     -489.21523456


--------------------------------------------------------------------------------------------------------




--------------------------------------- Iteration      1(  16)  ---------------------------------------


    POTLOK:  cpu time    1.0541: real time    1.0564
    SETDIJ:  cpu time    2.2462: real time    2.2822
     EDDAV:  cpu time  216.1682: real time  217.9981
       DOS:  cpu time    0.0024: real time    0.0024
    --------------------------------------------
      LOOP:  cpu time  219.4709: real time  221.3391

 eigenvalue-minimisations  : 18216
 total energy-change (2. order) :-0.4834292E-06  (-0.3121194E-07)
 number of electron     736.0000016 magnetization     128.0000005
 augmentation part      277.8932421 magnetization      84.1580151

 Free energy of the ion-electron system (eV)
  ---------------------------------------------------
  alpha Z        PSCENC =      2314.49656628
  Ewald energy   TEWEN  =    -57720.99296912
  -Hartree energ DENC   =    -30350.85177733
  -exchange      EXHF   =         0.00000000
  -V(xc)+E(xc)   XCENC  =      3229.30155247
  PAW double counting   =     92679.33252697   -95534.81872448
  entropy T*S    EENTRO =        -0.00000000
  eigenvalues    EBANDS =    -10549.16211939
  atomic energy  EATOM  =     95443.47970955
  Solvation  Ediel_sol  =         0.00000000
  ---------------------------------------------------
  free energy    TOTEN  =      -489.21523505 eV

  energy without entropy =     -489.21523505  energy(sigma->0) =     -489.21523505


--------------------------------------------------------------------------------------------------------




 average (electrostatic) potential at core
  the test charge radii are     0.7079  0.7215  0.9698  0.9500
  (the norm of the test charge is              1.0000)
       1 -58.9466       2 -58.9508       3 -58.9488       4 -58.9490       5 -58.9492
       6 -58.9480       7 -58.9480       8 -58.9479       9 -58.9478      10 -58.9453
      11 -58.9478      12 -58.9477      13 -58.9462      14 -58.9486      15 -58.9486
      16 -58.9471      17 -69.8156      18 -69.8163      19 -69.8151      20 -69.8159
      21 -69.8157      22 -69.8152      23 -69.8163      24 -69.8159      25 -69.8161
      26 -69.8169      27 -69.8162      28 -69.8166      29 -69.8161      30 -69.8240
      31 -69.8164      32 -69.8165      33 -85.5838      34 -85.5809      35 -85.5803
      36 -85.5804      37 -85.5803      38 -85.5808      39 -85.5803      40 -85.5856
      41 -85.5803      42 -85.5804      43 -85.5805      44 -85.5800      45 -85.5803
      46 -85.5799      47 -85.5804      48 -85.5802      49 -85.6301      50 -85.6389
      51 -85.6383      52 -85.6382      53 -85.6381      54 -85.6387      55 -85.6381
      56 -85.6331      57 -78.5744      58 -78.5744      59 -78.5756      60 -78.5743
      61 -78.5750      62 -78.5742      63 -78.5744      64 -78.5742      65 -78.5748
      66 -78.5746      67 -78.5755      68 -78.5755      69 -78.5753      70 -78.5776
      71 -78.5745      72 -78.5753      73 -78.5784      74 -78.5820      75 -78.5820
      76 -78.5819      77 -78.5899      78 -78.5937      79 -78.5917      80 -78.5906
      81 -78.5895      82 -78.5903      83 -78.5913      84 -78.5914      85 -78.5819
      86 -78.5800      87 -78.5817      88 -78.5807
 
 
 
 E-fermi :   5.2025     XC(G=0): -10.4849     alpha+bet :-11.8156


 spin component 1

 k-point     1 :       0.0000    0.0000    0.0000
  band No.  band energies     occupation 
      1     -51.0568      1.00000
      2     -51.0554      1.00000
      3     -51.0552      1.00000
      4     -51.0548      1.00000
      5     -51.0547      1.00000
      6     -51.0544      1.00000
      7     -51.0542      1.00000
      8     -51.0541      1.00000
      9     -51.0535      1.00000
     10     -51.0534      1.00000
     11     -51.0533      1.00000
     12     -51.0529      1.00000
     13     -51.0527      1.00000
     14     -51.0522      1.00000
     15     -51.0517      1.00000
     16     -51.0510      1.00000
     17     -51.0463      1.00000
     18     -51.0443      1.00000
     19     -51.0439      1.00000
     20     -51.0439      1.00000
     21     -51.0436      1.00000
     22     -51.0431      1.00000
     23     -51.0430      1.00000
     24     -51.0426      1.00000
     25     -51.0396      1.00000
     26     -51.0395      1.00000
     27     -51.0394      1.00000
     28     -51.0393      1.00000
     29     -51.0392      1.00000
     30     -51.0384      1.00000
     31     -51.0376      1.00000
     32     -51.0359      1.00000
     33     -49.7038      1.00000
     34     -49.7018      1.00000
     35     -49.7014      1.00000
     36     -49.7014      1.00000
     37     -49.7005      1.00000
     38     -49.7003      1.00000
     39     -49.6999      1.00000
     40     -49.6996      1.00000
     41     -49.6941      1.00000
     42     -49.6941      1.00000
     43     -49.6940      1.00000
     44     -49.6939      1.00000
     45     -49.6938      1.00000
     46     -49.6928      1.00000
     47     -49.6920      1.00000
     48     -49.6871      1.00000
     49     -49.6000      1.00000
     50     -49.5990      1.00000
     51     -49.5984      1.00000
     52     -49.5983      1.00000
     53     -49.5982      1.00000
     54     -49.5981      1.00000
     55     -49.5978      1.00000
     56     -49.5974      1.00000
     57     -49.5973      1.00000
     58     -49.5971      1.00000
     59     -49.5969      1.00000
     60     -49.5966      1.00000
     61     -49.5965      1.00000
     62     -49.5965      1.00000
     63     -49.5964      1.00000
     64     -49.5963      1.00000
     65     -49.5695      1.00000
     66     -49.5680      1.00000
     67     -49.5673      1.00000
     68     -49.5670      1.00000
     69     -49.5668      1.00000
     70     -49.5668      1.00000
     71     -49.5664      1.00000
     72     -49.5662      1.00000
     73     -49.5658      1.00000
     74     -49.5655      1.00000
     75     -49.5650      1.00000
     76     -49.5648      1.00000
     77     -49.5648      1.00000
     78     -49.5647      1.00000
     79     -49.5644      1.00000
     80     -49.5644      1.00000
     81     -49.5560      1.00000
     82     -49.5541      1.00000
     83     -49.5540      1.00000
     84     -49.5539      1.00000
     85     -49.5533      1.00000
     86     -49.5529      1.00000
     87     -49.5525      1.00000
     88     -49.5521      1.00000
     89     -49.5400      1.00000
     90     -49.5395      1.00000
     91     -49.5394      1.00000
     92     -49.5394      1.00000
     93     -49.5393      1.00000
     94     -49.5392      1.00000
     95     -49.5382      1.00000
     96     -49.5373      1.00000
     97     -39.8671      1.00000
     98     -39.8661      1.00000
     99     -39.8655      1.00000
    100     -39.8652      1.00000
    101     -39.8651      1.00000
    102     -39.8649      1.00000
    103     -39.8648      1.00000
    104     -39.8647      1.00000
    105     -39.8647      1.00000
    106     -39.8646      1.00000
    107     -39.8646      1.00000
    108     -39.8644      1.00000
    109     -39.8632      1.00000
    110     -39.8628      1.00000
    111     -39.8624      1.00000
    112     -39.8621      1.00000
    113     -13.2269      1.00000
    114     -13.2242      1.00000
    115     -13.2110      1.00000
    116     -13.1842      1.00000
    117     -13.1024      1.00000
    118     -13.1000      1.00000
    119     -13.0987      1.00000
    120     -13.0938      1.00000
    121     -13.0862      1.00000
    122     -13.0811      1.00000
    123     -13.0798      1.00000
    124     -13.0780      1.00000
    125     -12.9886      1.00000
    126     -12.9777      1.00000
    127     -12.9431      1.00000
    128     -12.9413      1.00000
    129      -7.6460      1.00000
    130      -7.4048      1.00000
    131      -7.3256      1.00000
    132      -7.3252      1.00000
    133      -7.3089      1.00000
    134      -7.3083      1.00000
    135      -7.3062      1.00000
    136      -7.3047      1.00000
    137      -7.1697      1.00000
    138      -7.1570      1.00000
    139      -7.1235      1.00000
    140      -7.1230      1.00000
    141      -7.0344      1.00000
    142      -7.0231      1.00000
    143      -7.0037      1.00000
    144      -7.0028      1.00000
    145      -6.9417      1.00000
    146      -6.9409      1.00000
    147      -6.8886      1.00000
    148      -6.8883      1.00000
    149      -6.8667      1.00000
    150      -6.8625      1.00000
    151      -6.8357      1.00000
    152      -6.8045      1.00000
    153      -1.9387      1.00000
    154      -1.9349      1.00000
    155      -1.9117      1.00000
    156      -1.8945      1.00000
    157      -1.6671      1.00000
    158      -1.6665      1.00000
    159      -1.6590      1.00000
    160      -1.6576      1.00000
    161      -1.6001      1.00000
    162      -1.5984      1.00000
    163      -1.5869      1.00000
    164      -1.5863      1.00000
    165      -1.2982      1.00000
    166      -1.1757      1.00000
    167      -1.1746      1.00000
    168      -1.1138      1.00000
    169      -1.1131      1.00000
    170      -1.1071      1.00000
    171      -1.0493      1.00000
    172      -0.9817      1.00000
    173      -0.9645      1.00000
    174      -0.9593      1.00000
    175      -0.9584      1.00000
    176      -0.9578      1.00000
    177      -0.9476      1.00000
    178      -0.9457      1.00000
    179      -0.9227      1.00000
    180      -0.8712      1.00000
    181      -0.8708      1.00000
    182      -0.8046      1.00000
    183      -0.8036      1.00000
    184      -0.8021      1.00000
    185      -0.7756      1.00000
    186      -0.7745      1.00000
    187      -0.7741      1.00000
    188      -0.7611      1.00000
    189      -0.7169      1.00000
    190      -0.7164      1.00000
    191      -0.7069      1.00000
    192      -0.7047      1.00000
    193      -0.6999      1.00000
    194      -0.6994      1.00000
    195      -0.6099      1.00000
    196      -0.6094      1.00000
    197      -0.5622      1.00000
    198      -0.5620      1.00000
    199      -0.5502      1.00000
    200      -0.5487      1.00000
    201      -0.4082      1.00000
    202      -0.4076      1.00000
    203      -0.3574      1.00000
    204      -0.3476      1.00000
    205      -0.3297      1.00000
    206      -0.3294      1.00000
    207      -0.2992      1.00000
    208      -0.2987      1.00000
    209      -0.2806      1.00000
    210      -0.2696      1.00000
    211      -0.2634      1.00000
    212      -0.2562      1.00000
    213      -0.2555      1.00000
    214      -0.2093      1.00000
    215      -0.2089      1.00000
    216      -0.1891      1.00000
    217      -0.1862      1.00000
    218      -0.1859      1.00000
    219      -0.1760      1.00000
    220      -0.1578      1.00000
    221      -0.1253      1.00000
    222      -0.1248      1.00000
    223      -0.1090      1.00000
    224      -0.0713      1.00000
    225      -0.0694      1.00000
    226      -0.0611      1.00000
    227      -0.0436      1.00000
    228      -0.0182      1.00000
    229      -0.0178      1.00000
    230      -0.0109      1.00000
    231       0.0013      1.00000
    232       0.0020      1.00000
    233       0.0465      1.00000
    234       0.0492      1.00000
    235       0.0500      1.00000
    236       0.0914      1.00000
    237       0.0941      1.00000
    238       0.1181      1.00000
    239       0.1186      1.00000
    240       0.1585      1.00000
    241       0.1622      1.00000
    242       0.1776      1.00000
    243       0.1791      1.00000
    244       0.1818      1.00000
    245       0.1824      1.00000
    246       0.1848      1.00000
    247       0.1889      1.00000
    248       0.1938      1.00000
    249       0.1947      1.00000
    250       0.2011      1.00000
    251       0.2020      1.00000
    252       0.2391      1.00000
    253       0.2508      1.00000
    254       0.2568      1.00000
    255       0.2569      1.00000
    256       0.2765      1.00000
    257       0.3371      1.00000
    258       0.3474      1.00000
    259       0.3590      1.00000
    260       0.3593      1.00000
    261       0.3608      1.00000
    262       0.3613      1.00000
    263       0.3887      1.00000
    264       0.4018      1.00000
    265       0.4520      1.00000
    266       0.4523      1.00000
    267       0.5788      1.00000
    268       0.5789      1.00000
    269       0.5846      1.00000
    270       0.6018      1.00000
    271       0.6018      1.00000
    272       0.6066      1.00000
    273       0.6071      1.00000
    274       0.6405      1.00000
    275       0.6516      1.00000
    276       0.6517      1.00000
    277       0.6623      1.00000
    278       0.6628      1.00000
    279       0.6650      1.00000
    280       0.6729      1.00000
    281       0.6745      1.00000
    282       0.6747      1.00000
    283       0.6966      1.00000
    284       0.7228      1.00000
    285       0.7825      1.00000
    286       0.8191      1.00000
    287       0.8291      1.00000
    288       0.8313      1.00000
    289       0.8318      1.00000
    290       0.8612      1.00000
    291       0.8612      1.00000
    292       0.9086      1.00000
    293       0.9407      1.00000
    294       0.9488      1.00000
    295       0.9489      1.00000
    296       0.9839      1.00000
    297       1.0257      1.00000
    298       1.0699      1.00000
    299       1.2688      1.00000
    300       1.2982      1.00000
    301       1.2983      1.00000
    302       1.3115      1.00000
    303       1.3327      1.00000
    304       1.3334      1.00000
    305       1.3376      1.00000
    306       1.3841      1.00000
    307       1.4050      1.00000
    308       1.4280      1.00000
    309       1.4667      1.00000
    310       1.4676      1.00000
    311       1.4681      1.00000
    312       1.4811      1.00000
    313       1.5112      1.00000
    314       1.5115      1.00000
    315       1.5411      1.00000
    316       1.5612      1.00000
    317       1.5779      1.00000
    318       1.6454      1.00000
    319       1.6556      1.00000
    320       1.7557      1.00000
    321       1.7559      1.00000
    322       1.7627      1.00000
    323       1.7778      1.00000
    324       1.8029      1.00000
    325       1.8031      1.00000
    326       1.8116      1.00000
    327       1.8235      1.00000
    328       1.8365      1.00000
    329       1.8376      1.00000
    330       1.8446      1.00000
    331       1.8466      1.00000
    332       1.8790      1.00000
    333       1.8900      1.00000
    334       1.9468      1.00000
    335       1.9931      1.00000
    336       1.9936      1.00000
    337       2.0063      1.00000
    338       2.0070      1.00000
    339       2.0091      1.00000
    340       2.0177      1.00000
    341       2.0193      1.00000
    342       2.0200      1.00000
    343       2.0397      1.00000
    344       2.0461      1.00000
    345       2.0465      1.00000
    346       2.0572      1.00000
    347       2.0684      1.00000
    348       2.0687      1.00000
    349       2.0916      1.00000
    350       2.1133      1.00000
    351       2.1876      1.00000
    352       2.1914      1.00000
    353       2.2470      1.00000
    354       2.2473      1.00000
    355       2.2707      1.00000
    356       2.2729      1.00000
    357       2.2843      1.00000
    358       2.4276      1.00000
    359       2.4663      1.00000
    360       2.4672      1.00000
    361       2.4784      1.00000
    362       2.5036      1.00000
    363       2.5283      1.00000
    364       2.5547      1.00000
    365       2.5919      1.00000
    366       2.6266      1.00000
    367       2.6277      1.00000
    368       2.6557      1.00000
    369       2.7381      1.00000
    370       2.7390      1.00000
    371       2.7609      1.00000
    372       2.7614      1.00000
    373       2.8332      1.00000
    374       2.8721      1.00000
    375       2.9267      1.00000
    376       2.9340      1.00000
    377       2.9342      1.00000
    378       2.9689      1.00000
    379       3.0271      1.00000
    380       3.0272      1.00000
    381       3.0611      1.00000
    382       3.0963      1.00000
    383       3.3082      1.00000
    384       3.3109      1.00000
    385       3.3480      1.00000
    386       3.3749      1.00000
    387       3.4214      1.00000
    388       3.4220      1.00000
    389       3.4395      1.00000
    390       3.4581      1.00000
    391       3.4588      1.00000
    392       3.5312      1.00000
    393       3.7484      1.00000
    394       3.8086      1.00000
    395       3.8090      1.00000
    396       3.8150      1.00000
    397       3.8155      1.00000
    398       3.8828      1.00000
    399       3.8839      1.00000
    400       3.9328      1.00000
    401       3.9353      1.00000
    402       3.9413      1.00000
    403       3.9418      1.00000
    404       4.0395      1.00000
    405       4.0397      1.00000
    406       4.0715      1.00000
    407       4.1382      1.00000
    408       4.1484      1.00000
    409       4.1505      1.00000
    410       4.3159      1.00000
    411       4.3178      1.00000
    412       4.3389      1.00000
    413       4.3586      1.00000
    414       4.3594      1.00000
    415       4.4285      1.00000
    416       4.4451      1.00000
    417       4.4468      1.00000
    418       4.4532      1.00000
    419       4.4558      1.00000
    420       4.4561      1.00000
    421       4.6355      1.00000
    422       4.6359      1.00000
    423       4.7318      1.00000
    424       4.7324      1.00000
    425       4.7634      1.00000
    426       4.7636      1.00000
    427       4.7686      1.00000
    428       4.7690      1.00000
    429       4.8099      1.00000
    430       4.8524      1.00000
    431       4.8533      1.00000
    432       4.8567      1.00000
    433       7.3435      0.00000
    434       8.1279      0.00000
    435       8.4441      0.00000
    436       8.6422      0.00000
    437       8.6425      0.00000
    438       8.8572      0.00000
    439       9.0841      0.00000
    440       9.0847      0.00000
    441       9.2612      0.00000
    442       9.2731      0.00000
    443       9.2881      0.00000
    444       9.2888      0.00000
    445       9.7264      0.00000
    446       9.7715      0.00000
    447       9.7723      0.00000
    448       9.7898      0.00000
    449       9.8545      0.00000
    450       9.8545      0.00000
    451       9.8608      0.00000
    452       9.8800      0.00000
    453       9.8907      0.00000
    454      10.0600      0.00000
    455      10.0825      0.00000
    456      10.1357      0.00000
    457      10.1359      0.00000
    458      10.3060      0.00000
    459      10.3066      0.00000
    460      10.4160      0.00000
    461      10.5258      0.00000
    462      10.5706      0.00000
    463      10.5722      0.00000
    464      10.5732      0.00000
    465      10.5773      0.00000
    466      10.5780      0.00000
    467      10.6756      0.00000
    468      10.9761      0.00000
    469      11.0185      0.00000
    470      11.0191      0.00000
    471      11.0402      0.00000
    472      11.0404      0.00000
    473      11.0768      0.00000
    474      11.1278      0.00000
    475      11.1787      0.00000
[...]
   -.231E-01 0.115E-02 -.262E+02   0.238E-01 -.116E-02 0.260E+02   -.390E-03 -.242E-03 0.247E+00   -.956E-05 0.200E-04 -.697E-04
   -.145E-03 0.166E-02 -.259E+02   0.369E-03 -.118E-02 0.257E+02   -.135E-03 -.504E-03 0.250E+00   -.733E-05 0.788E-05 -.175E-04
   -.221E-02 0.190E-02 -.259E+02   0.247E-02 -.118E-02 0.257E+02   -.190E-03 -.635E-03 0.250E+00   0.404E-06 0.448E-05 -.221E-04
   0.460E-01 -.263E-01 -.421E+02   -.497E-01 0.311E-01 0.421E+02   0.245E-02 -.380E-02 0.718E-02   0.207E-05 -.312E-04 -.724E-04
   -.308E-01 -.158E-01 -.421E+02   0.319E-01 0.175E-01 0.421E+02   -.822E-03 -.147E-02 0.110E-01   -.125E-04 -.153E-04 -.574E-04
   0.494E-01 0.555E-01 -.421E+02   -.497E-01 -.550E-01 0.421E+02   0.156E-04 -.759E-03 0.107E-01   0.555E-05 0.179E-04 -.645E-04
   -.294E-01 0.402E-01 -.421E+02   0.319E-01 -.414E-01 0.421E+02   -.200E-02 0.542E-03 0.828E-02   -.208E-04 0.137E-05 -.624E-04
   0.159E+02 0.149E+02 -.126E+03   -.163E+02 -.152E+02 0.131E+03   0.387E+00 0.374E+00 -.463E+01   -.237E-04 0.156E-04 -.117E-03
   0.159E+02 0.149E+02 -.126E+03   -.163E+02 -.153E+02 0.131E+03   0.387E+00 0.381E+00 -.463E+01   -.454E-04 0.654E-04 -.446E-04
   0.160E+02 0.151E+02 -.126E+03   -.164E+02 -.154E+02 0.131E+03   0.389E+00 0.385E+00 -.464E+01   -.701E-04 0.128E-03 -.148E-03
   0.158E+02 0.149E+02 -.126E+03   -.162E+02 -.153E+02 0.131E+03   0.383E+00 0.380E+00 -.463E+01   -.109E-03 0.641E-04 -.911E-04
   -.159E+02 -.149E+02 -.126E+03   0.162E+02 0.153E+02 0.131E+03   -.384E+00 -.380E+00 -.463E+01   0.118E-03 -.615E-04 -.792E-04
   -.161E+02 -.150E+02 -.126E+03   0.165E+02 0.154E+02 0.131E+03   -.394E+00 -.382E+00 -.464E+01   -.857E-04 -.818E-04 -.150E-03
   -.159E+02 -.149E+02 -.126E+03   0.163E+02 0.153E+02 0.131E+03   -.390E+00 -.379E+00 -.463E+01   0.139E-04 -.349E-04 -.757E-04
   -.160E+02 -.148E+02 -.126E+03   0.163E+02 0.152E+02 0.131E+03   -.389E+00 -.376E+00 -.463E+01   0.561E-05 -.209E-04 -.534E-04
   0.159E+02 -.149E+02 0.126E+03   -.163E+02 0.153E+02 -.131E+03   0.388E+00 -.381E+00 0.463E+01   -.441E-04 -.758E-04 0.771E-04
   0.160E+02 -.149E+02 0.126E+03   -.163E+02 0.152E+02 -.131E+03   0.391E+00 -.377E+00 0.463E+01   -.285E-04 -.183E-04 0.765E-04
   0.155E+02 -.150E+02 0.127E+03   -.159E+02 0.153E+02 -.132E+03   0.370E+00 -.378E+00 0.470E+01   0.570E-04 0.409E-04 0.401E-03
   0.160E+02 -.149E+02 0.126E+03   -.164E+02 0.153E+02 -.131E+03   0.390E+00 -.381E+00 0.463E+01   0.198E-04 -.337E-04 0.652E-04
   -.158E+02 0.149E+02 0.126E+03   0.162E+02 -.153E+02 -.131E+03   -.384E+00 0.381E+00 0.463E+01   0.818E-04 0.554E-04 0.119E-03
   -.151E+02 0.160E+02 0.127E+03   0.154E+02 -.165E+02 -.132E+03   -.347E+00 0.439E+00 0.468E+01   -.330E-04 0.179E-03 0.391E-03
   -.159E+02 0.149E+02 0.126E+03   0.163E+02 -.153E+02 -.131E+03   -.387E+00 0.380E+00 0.463E+01   0.516E-04 0.329E-04 0.764E-04
   -.159E+02 0.149E+02 0.126E+03   0.163E+02 -.152E+02 -.131E+03   -.386E+00 0.380E+00 0.463E+01   0.846E-04 0.654E-04 0.116E-03
   0.275E+02 0.286E+02 0.331E+02   -.279E+02 -.289E+02 -.336E+02   0.339E+00 0.362E+00 0.513E+00   -.839E-04 0.690E-04 0.895E-04
   0.281E+02 0.282E+02 0.333E+02   -.285E+02 -.286E+02 -.338E+02   0.353E+00 0.354E+00 0.518E+00   0.651E-05 0.192E-04 0.355E-04
   0.280E+02 0.281E+02 0.334E+02   -.283E+02 -.285E+02 -.339E+02   0.350E+00 0.353E+00 0.519E+00   -.183E-04 -.252E-05 0.376E-04
   0.280E+02 0.282E+02 0.333E+02   -.284E+02 -.285E+02 -.339E+02   0.352E+00 0.352E+00 0.519E+00   -.531E-05 0.357E-04 0.335E-04
   -.279E+02 -.282E+02 0.333E+02   0.283E+02 0.286E+02 -.339E+02   -.350E+00 -.353E+00 0.519E+00   -.218E-05 -.553E-04 0.711E-04
   -.279E+02 -.281E+02 0.333E+02   0.282E+02 0.285E+02 -.338E+02   -.349E+00 -.352E+00 0.518E+00   0.361E-04 -.239E-04 0.551E-04
   -.280E+02 -.282E+02 0.334E+02   0.283E+02 0.286E+02 -.339E+02   -.349E+00 -.355E+00 0.519E+00   -.226E-04 -.188E-04 0.456E-04
   -.275E+02 -.288E+02 0.328E+02   0.278E+02 0.291E+02 -.333E+02   -.339E+00 -.367E+00 0.507E+00   0.887E-04 -.906E-04 0.308E-04
   0.280E+02 -.282E+02 -.336E+02   -.283E+02 0.286E+02 0.341E+02   0.350E+00 -.353E+00 -.523E+00   0.471E-04 -.114E-04 -.133E-03
   0.279E+02 -.282E+02 -.334E+02   -.282E+02 0.286E+02 0.339E+02   0.348E+00 -.354E+00 -.521E+00   -.135E-05 -.261E-04 -.498E-04
   0.279E+02 -.282E+02 -.334E+02   -.283E+02 0.286E+02 0.339E+02   0.349E+00 -.355E+00 -.522E+00   0.330E-04 -.254E-04 -.697E-04
   0.279E+02 -.282E+02 -.334E+02   -.282E+02 0.286E+02 0.339E+02   0.349E+00 -.354E+00 -.519E+00   -.359E-04 -.417E-04 -.678E-04
   -.280E+02 0.282E+02 -.334E+02   0.284E+02 -.286E+02 0.339E+02   -.350E+00 0.354E+00 -.520E+00   0.226E-04 0.648E-05 -.452E-04
   -.280E+02 0.282E+02 -.334E+02   0.284E+02 -.285E+02 0.339E+02   -.350E+00 0.353E+00 -.520E+00   0.235E-04 0.363E-04 -.587E-04
   -.280E+02 0.282E+02 -.335E+02   0.284E+02 -.285E+02 0.340E+02   -.351E+00 0.353E+00 -.521E+00   0.352E-05 0.300E-04 -.113E-03
   -.280E+02 0.282E+02 -.335E+02   0.284E+02 -.286E+02 0.340E+02   -.349E+00 0.353E+00 -.522E+00   0.112E-04 0.952E-05 -.536E-04
   0.106E+02 -.876E+00 -.389E+00   -.108E+02 0.888E+00 0.394E+00   0.117E+00 -.464E-02 0.399E-02   0.108E-04 -.431E-04 0.157E-04
   0.987E+01 0.350E-01 0.616E-01   -.999E+01 -.347E-01 -.625E-01   0.115E+00 -.825E-03 0.182E-02   -.425E-04 0.315E-04 0.665E-05
   0.992E+01 0.148E+00 0.298E-01   -.100E+02 -.149E+00 -.301E-01   0.115E+00 0.140E-02 0.579E-03   -.433E-04 0.323E-04 0.311E-04
   0.990E+01 0.541E-01 0.209E-01   -.100E+02 -.555E-01 -.205E-01   0.114E+00 0.185E-02 -.157E-03   -.639E-04 0.270E-04 -.638E-05
   -.987E+01 0.219E-01 0.235E-01   0.998E+01 -.213E-01 -.231E-01   -.113E+00 -.128E-02 -.457E-03   0.406E-04 -.273E-04 -.153E-04
   -.995E+01 -.163E-01 0.698E-01   0.101E+02 0.160E-01 -.710E-01   -.117E+00 0.372E-03 0.211E-02   0.757E-04 -.415E-05 0.690E-05
   -.976E+01 0.972E-01 0.254E-01   0.987E+01 -.985E-01 -.261E-01   -.113E+00 0.178E-02 0.858E-03   0.740E-04 0.284E-04 -.429E-05
   -.106E+02 0.616E+00 0.419E-01   0.108E+02 -.624E+00 -.411E-01   -.121E+00 0.316E-02 0.574E-02   -.217E-04 0.548E-04 0.151E-05
   0.191E+02 0.190E+02 0.185E+03   -.180E+02 -.179E+02 -.182E+03   -.106E+01 -.108E+01 -.241E+01   0.392E-04 -.195E-05 -.138E-03
   0.190E+02 0.189E+02 0.185E+03   -.179E+02 -.179E+02 -.183E+03   -.106E+01 -.108E+01 -.241E+01   0.372E-05 0.341E-04 -.108E-03
   0.192E+02 0.188E+02 0.184E+03   -.181E+02 -.178E+02 -.182E+03   -.107E+01 -.108E+01 -.243E+01   0.959E-04 0.489E-04 -.367E-03
   0.189E+02 0.189E+02 0.185E+03   -.179E+02 -.178E+02 -.183E+03   -.106E+01 -.108E+01 -.241E+01   -.157E-05 0.272E-04 -.856E-04
   -.190E+02 -.188E+02 0.185E+03   0.179E+02 0.177E+02 -.182E+03   0.107E+01 0.108E+01 -.242E+01   0.657E-05 -.238E-04 -.365E-03
   -.189E+02 -.189E+02 0.185E+03   0.178E+02 0.178E+02 -.182E+03   0.106E+01 0.109E+01 -.241E+01   -.712E-04 -.564E-04 -.230E-03
   -.189E+02 -.189E+02 0.185E+03   0.179E+02 0.179E+02 -.182E+03   0.106E+01 0.108E+01 -.241E+01   -.270E-04 -.734E-04 -.130E-03
   -.189E+02 -.189E+02 0.185E+03   0.178E+02 0.178E+02 -.182E+03   0.106E+01 0.108E+01 -.241E+01   0.434E-05 -.521E-04 -.194E-03
   0.188E+02 -.187E+02 -.185E+03   -.177E+02 0.177E+02 0.183E+03   -.106E+01 0.109E+01 0.241E+01   -.573E-04 -.196E-04 0.788E-04
   0.190E+02 -.188E+02 -.185E+03   -.179E+02 0.177E+02 0.183E+03   -.106E+01 0.109E+01 0.241E+01   -.813E-05 -.641E-04 0.292E-03
   0.179E+02 -.195E+02 -.186E+03   -.168E+02 0.185E+02 0.183E+03   -.107E+01 0.108E+01 0.241E+01   -.262E-03 -.177E-03 0.291E-04
   0.192E+02 -.190E+02 -.185E+03   -.182E+02 0.179E+02 0.183E+03   -.105E+01 0.108E+01 0.241E+01   0.132E-03 -.968E-04 0.137E-03
   -.192E+02 0.190E+02 -.185E+03   0.181E+02 -.179E+02 0.183E+03   0.106E+01 -.109E+01 0.241E+01   -.117E-03 0.341E-04 0.165E-03
   -.181E+02 0.199E+02 -.186E+03   0.170E+02 -.188E+02 0.184E+03   0.107E+01 -.107E+01 0.238E+01   0.226E-03 0.270E-03 -.311E-03
   -.191E+02 0.189E+02 -.185E+03   0.180E+02 -.178E+02 0.183E+03   0.106E+01 -.108E+01 0.241E+01   -.398E-04 0.707E-04 0.503E-04
   -.190E+02 0.188E+02 -.185E+03   0.179E+02 -.177E+02 0.183E+03   0.106E+01 -.109E+01 0.241E+01   0.239E-04 -.553E-04 0.610E-04
   -.157E+01 -.897E+00 0.212E+03   0.156E+01 0.876E+00 -.214E+03   0.362E-01 0.319E-01 0.203E+01   -.724E-03 0.192E-03 0.267E-02
   0.189E+00 -.706E-01 0.209E+03   -.192E+00 0.685E-01 -.211E+03   0.251E-02 0.210E-02 0.207E+01   0.668E-04 -.292E-04 -.611E-04
   -.282E-01 -.707E-01 0.209E+03   0.292E-01 0.685E-01 -.211E+03   -.704E-03 0.216E-02 0.207E+01   0.276E-04 0.177E-04 0.186E-04
   0.544E-01 -.715E-01 0.209E+03   -.564E-01 0.685E-01 -.211E+03   0.185E-02 0.294E-02 0.207E+01   -.120E-03 -.163E-03 0.998E-05
   0.104E+00 -.213E+00 0.199E+03   -.112E+00 0.219E+00 -.202E+03   0.693E-02 -.474E-02 0.208E+01   -.925E-04 -.161E-03 0.134E-03
   0.938E-01 0.968E-01 0.199E+03   -.112E+00 -.117E+00 -.202E+03   0.147E-01 0.167E-01 0.207E+01   0.233E-03 0.307E-03 0.404E-04
   0.114E+00 0.117E+00 0.199E+03   -.112E+00 -.117E+00 -.202E+03   -.217E-02 -.827E-03 0.206E+01   -.158E-04 0.728E-04 0.584E-04
   0.115E+00 -.224E+00 0.199E+03   -.112E+00 0.220E+00 -.202E+03   -.331E-02 0.496E-02 0.208E+01   0.215E-04 -.509E-05 0.139E-03
   0.527E+00 -.630E-01 -.200E+03   -.539E+00 0.512E-01 0.202E+03   0.966E-02 0.984E-02 -.207E+01   0.197E-03 0.120E-03 -.341E-04
   -.461E+00 -.465E-01 -.199E+03   0.471E+00 0.512E-01 0.201E+03   -.778E-02 -.346E-02 -.207E+01   -.163E-03 -.785E-04 -.158E-05
   0.328E-01 -.511E-01 -.199E+03   -.340E-01 0.512E-01 0.201E+03   0.835E-03 0.352E-03 -.206E+01   0.601E-04 -.286E-04 0.620E-04
   -.749E-01 -.549E-01 -.199E+03   0.751E-01 0.512E-01 0.201E+03   -.150E-03 0.319E-02 -.206E+01   -.304E-04 0.452E-04 0.124E-03
   -.284E-03 -.106E+00 -.209E+03   -.171E-02 0.103E+00 0.211E+03   0.142E-02 0.262E-02 -.206E+01   0.531E-04 -.206E-04 -.195E-04
   -.624E-01 -.544E+00 -.209E+03   0.750E-01 0.555E+00 0.211E+03   -.104E-01 -.793E-02 -.208E+01   -.993E-04 -.259E-03 -.148E-03
   0.351E-02 -.372E-01 -.209E+03   -.171E-02 0.340E-01 0.211E+03   -.141E-02 0.303E-02 -.207E+01   -.167E-04 0.113E-04 -.276E-04
   -.787E-01 0.407E+00 -.209E+03   0.750E-01 -.418E+00 0.211E+03   0.275E-02 0.887E-02 -.207E+01   0.786E-04 0.797E-04 -.953E-04
 -----------------------------------------------------------------------------------------------
   -.783E-01 -.123E+00 0.139E-01   -.226E-12 -.170E-12 0.284E-12   0.787E-01 0.121E+00 -.161E-01   -.412E-03 0.297E-03 0.229E-02
 
 
 POSITION                                       TOTAL-FORCE (eV/Angst)
 -----------------------------------------------------------------------------------
      2.77841      5.21785      1.58925        -0.003989     -0.000506     -0.003286
      8.33453      5.21785      1.58910        -0.003034      0.001489     -0.003311
      2.77841     10.77658      1.58925         0.000031      0.000152     -0.000365
      8.33453     10.77658      1.58910         0.000047     -0.000188     -0.000412
      0.00058      2.43861      1.89560         0.002074     -0.001049     -0.003166
      5.55670      2.43861      1.89545        -0.000407     -0.000006     -0.000365
      0.00058      7.99734      1.89560         0.000304      0.000795     -0.002887
      5.55670      7.99734      1.89545        -0.000067      0.000038     -0.000406
      2.78043      5.21797      8.30298        -0.000068      0.000085      0.000195
      8.33655      5.21797      8.30283         0.000344     -0.000220      0.003261
      2.78043     10.77670      8.30298         0.000083     -0.000006      0.000355
      8.33655     10.77670      8.30283         0.000076      0.000104      0.000173
      0.00259      2.43849      8.60933        -0.001213      0.001047      0.001967
      5.55871      2.43849      8.60919         0.000240      0.000180      0.000057
      0.00259      7.99722      8.60933        -0.000292     -0.000257      0.000355
      5.55871      7.99722      8.60919         0.000509     -0.000629      0.001444
     -1.37640      1.05960      8.18451         0.000523     -0.001698     -0.001972
      4.17971      1.05960      8.18437         0.000167      0.000165     -0.000439
     -1.37640      6.61833      8.18451         0.000713      0.001171     -0.003050
      4.17971      6.61833      8.18437        -0.000784      0.000012     -0.001411
      1.38116      3.81753      8.18442         0.001475     -0.000303     -0.001982
      6.93728      3.81753      8.18427        -0.001425     -0.000450     -0.002272
      1.38116      9.37626      8.18442        -0.000262      0.000012     -0.000684
      6.93728      9.37626      8.18427        -0.000275      0.000968     -0.001142
      1.39985      1.03817      2.01416        -0.000389     -0.000574      0.001812
      6.95597      1.03817      2.01401         0.000907      0.000800      0.000438
      1.39985      6.59689      2.01416        -0.000322      0.001313      0.007425
      6.95597      6.59689      2.01401         0.000416     -0.000403      0.001767
      4.15741      3.83897      2.01406         0.000660      0.000279      0.002022
      9.71353      3.83897      2.01392        -0.014557     -0.012581      0.008434
      4.15741      9.39769      2.01406        -0.000184     -0.000040      0.000640
      9.71353      9.39769      2.01392        -0.000051      0.000056      0.001771
      1.40044      3.83812      3.78391        -0.002587      0.000904     -0.001020
      6.95656      3.83812      3.78377         0.000997      0.000188     -0.000445
      1.40044      9.39685      3.78391        -0.000371     -0.000138      0.000414
      6.95656      9.39685      3.78377         0.000408     -0.000477      0.000214
      4.15774      1.03891      3.78384        -0.000052      0.000477      0.000414
      9.71386      1.03891      3.78369         0.000114      0.001038     -0.000267
      4.15774      6.59764      3.78384         0.000047     -0.000189      0.000417
      9.71386      6.59764      3.78369         0.001569     -0.001860     -0.002961
     -1.37674      3.81828      6.41474         0.000240      0.000570     -0.002702
      4.17938      3.81828      6.41460        -0.000665      0.000096     -0.001278
     -1.37674      9.37700      6.41474        -0.000059     -0.000593     -0.001617
      4.17938      9.37700      6.41460        -0.000149      0.000140     -0.000526
      1.38057      1.05876      6.41466         0.000072      0.000329     -0.000967
      6.93668      1.05876      6.41452         0.000026     -0.000148     -0.000711
      1.38057      6.61748      6.41466        -0.000385     -0.000335     -0.001382
      6.93668      6.61748      6.41452         0.000808     -0.000071     -0.001685
      1.38227      3.82822      0.00001        -0.008146      0.007079      0.009049
      6.93839      3.82822     -0.00014         0.000306     -0.000472      0.000982
      1.38227      9.38694      0.00001         0.000319      0.000330      0.000316
      6.93839      9.38694     -0.00014        -0.000461      0.000552      0.000182
      1.39874      1.04885     10.19857         0.000798     -0.000716     -0.000093
      6.95485      1.04885     10.19843        -0.000712      0.000047      0.000876
      1.39874      6.60758     10.19857         0.000637      0.000572      0.000200
      6.95485      6.60758     10.19843         0.003354     -0.004616      0.006538
     -1.25763      1.18232      6.18371        -0.000447      0.000094      0.001141
      4.29848      1.18232      6.18356        -0.000130     -0.000152      0.000300
     -1.25763      6.74104      6.18371         0.000362     -0.000425      0.004644
      4.29848      6.74104      6.18356        -0.000328      0.000145      0.000582
      1.26131      3.69462      6.18369        -0.000273      0.000193      0.003001
      6.81742      3.69462      6.18354         0.000362     -0.000162      0.001524
      1.26131      9.25335      6.18369         0.000434      0.000039      0.000319
      6.81742      9.25335      6.18354         0.000081      0.000107      0.000726
      1.51970      0.91526      4.01489        -0.000124     -0.001261     -0.000611
      7.07582      0.91526      4.01474        -0.000385     -0.000155      0.000249
      1.51970      6.47399      4.01489         0.004564      0.003988      0.003255
      7.07582      6.47399      4.01474        -0.002527     -0.000088     -0.000373
      4.03864      3.96168      4.01487         0.001712      0.000317     -0.000784
      9.59476      3.96168      4.01472        -0.004689     -0.005179      0.010178
      4.03864      9.52041      4.01487         0.000195     -0.000029     -0.000088
      9.59476      9.52041      4.01472         0.000318      0.001657     -0.000536
     -0.00228      5.21813      1.57997         0.028010      0.011347     -0.035125
      5.55647      5.21813      1.57017        -0.000524      0.000010     -0.000464
      0.00035     10.77686      1.57032         0.000300      0.000046     -0.000492
      5.55647     10.77686      1.57017        -0.000306     -0.000182     -0.000819
      2.77849      2.43869      1.57537        -0.000796      0.000848     -0.003914
      8.33461      2.43869      1.57522        -0.003025     -0.003265     -0.001289
      2.77849      7.99742      1.57537        -0.000364     -0.000442     -0.000545
      8.33461      7.99742      1.57522        -0.000056      0.000228     -0.003731
      0.00252      5.21805      8.62321        -0.002513     -0.001799      0.003689
      5.55864      5.21805      8.62307         0.001878      0.001233      0.002451
      0.00252     10.77678      8.62321        -0.000266      0.000479      0.000737
      5.55864     10.77678      8.62307        -0.000034     -0.000418      0.000328
      2.78066      2.43877      8.62826        -0.000516     -0.000044      0.000303
      8.33677      2.43877      8.62811         0.002210      0.002392      0.003360
      2.78066      7.99750      8.62826         0.000376     -0.000117      0.000535
      8.33677      7.99750      8.62811        -0.000856     -0.001867      0.002535
 -----------------------------------------------------------------------------------
    total drift:                               -0.000063     -0.001172      0.000105


--------------------------------------------------------------------------------------------------------



  FREE ENERGIE OF THE ION-ELECTRON SYSTEM (eV)
  ---------------------------------------------------
  free  energy   TOTEN  =      -489.21523505 eV

  energy  without entropy=     -489.21523505  energy(sigma->0) =     -489.21523505
 


--------------------------------------------------------------------------------------------------------


    POTLOK:  cpu time    3.3037: real time    3.3300


--------------------------------------------------------------------------------------------------------


     LOOP+:  cpu time 6502.0975: real time 6562.0881
    4ORBIT:  cpu time    0.0000: real time    0.0000

 total amount of memory used by VASP MPI-rank0  1233264. kBytes
=======================================================================

   base      :      30000. kBytes
   nonl-proj :      75226. kBytes
   fftplans  :      85054. kBytes
   grid      :      64684. kBytes
   one-center:        466. kBytes
   wavefun   :     977834. kBytes
 
  
  
 General timing and accounting informations for this job:
 ========================================================
  
                  Total CPU time used (sec):     6599.756
                            User time (sec):     6530.645
                          System time (sec):       69.111
                         Elapsed time (sec):     6662.034
  
                   Maximum memory used (kb):     1438412.
                   Average memory used (kb):           0.
  
                          Minor page faults:       918340
                          Major page faults:           21
                 Voluntary context switches:        64523
