   95   95   60    2
  0.1340737E+02  0.1119672E-08  0.1119672E-08  0.1055337E-08  0.5000000E-15
   1.0000000000000000E-004
  CAR 
 unknown system                          
    668      8    488

  0.1262379E-14  0.1262379E-14  0.1262379E-14  0.1250000E+00
    1      -51.731098    -46.984559   1.000000   1.000000
    2      -51.730239    -46.982523   1.000000   1.000000
    3      -51.718027    -46.973982   1.000000   1.000000
    4      -51.715083    -46.972121   1.000000   1.000000
    5      -51.713018    -46.968591   1.000000   1.000000
    6      -51.684819    -46.950074   1.000000   1.000000
    7      -51.678498    -46.941066   1.000000   1.000000
    8      -51.664320    -46.938048   1.000000   1.000000
    9      -51.623397    -46.936478   1.000000   1.000000
   10      -51.617138    -46.933480   1.000000   1.000000
   11      -51.612492    -46.932355   1.000000   1.000000
   12      -51.610903    -46.926755   1.000000   1.000000
   13      -51.609337    -46.920498   1.000000   1.000000
   14      -51.603031    -46.911534   1.000000   1.000000
   15      -51.581465    -46.854155   1.000000   1.000000
   16      -51.566897    -46.839960   1.000000   1.000000
   17      -51.555157    -46.838601   1.000000   1.000000
   18      -51.554731    -46.828260   1.000000   1.000000
   19      -51.551681    -46.818782   1.000000   1.000000
   20      -51.535278    -46.816487   1.000000   1.000000
   21      -51.531599    -46.813533   1.000000   1.000000
   22      -51.530128    -46.799949   1.000000   1.000000
   23      -51.527771    -46.798564   1.000000   1.000000
   24      -51.524508    -46.790319   1.000000   1.000000
   25      -50.303277    -46.528172   1.000000   1.000000
   26      -50.284643    -46.524109   1.000000   1.000000
   27      -50.278327    -46.523437   1.000000   1.000000
   28      -50.276048    -46.517042   1.000000   1.000000
   29      -50.275413    -46.513300   1.000000   1.000000
   30      -50.274690    -46.507136   1.000000   1.000000
   31      -50.207585    -46.506132   1.000000   1.000000
   32      -50.200516    -46.504172   1.000000   1.000000
   33      -50.199466    -46.489174   1.000000   1.000000
   34      -50.196974    -46.480472   1.000000   1.000000
   35      -50.170457    -46.473529   1.000000   1.000000
   36      -50.165105    -46.472838   1.000000   1.000000
   37      -50.163299    -46.472835   1.000000   1.000000
   38      -50.161806    -46.469806   1.000000   1.000000
   39      -50.155151    -46.468323   1.000000   1.000000
   40      -50.153071    -46.467748   1.000000   1.000000
   41      -50.150083    -46.461370   1.000000   1.000000
   42      -50.146581    -46.459244   1.000000   1.000000
   43      -50.145862    -46.454641   1.000000   1.000000
   44      -50.144880    -46.451716   1.000000   1.000000
   45      -50.136026    -46.446228   1.000000   1.000000
   46      -50.127792    -46.445898   1.000000   1.000000
   47      -50.124227    -46.442229   1.000000   1.000000
   48      -50.122927    -46.439567   1.000000   1.000000
   49      -50.122503    -46.436786   1.000000   1.000000
   50      -50.111476    -46.435992   1.000000   1.000000
   51      -50.110359    -46.431281   1.000000   1.000000
   52      -50.104532    -46.428700   1.000000   1.000000
   53      -50.104101    -46.420627   1.000000   1.000000
   54      -50.103487    -46.415489   1.000000   1.000000
   55      -50.100863    -46.413133   1.000000   1.000000
   56      -50.099117    -46.406472   1.000000   1.000000
   57      -50.096588    -46.401887   1.000000   1.000000
   58      -50.096052    -46.398191   1.000000   1.000000
   59      -50.094327    -46.396156   1.000000   1.000000
   60      -50.090409    -46.394909   1.000000   1.000000
   61      -50.083657    -46.391088   1.000000   1.000000
   62      -50.081042    -46.387646   1.000000   1.000000
   63      -50.080761    -46.380983   1.000000   1.000000
   64      -50.080280    -46.380709   1.000000   1.000000
   65      -50.079475    -46.379803   1.000000   1.000000
   66      -50.069486    -46.379207   1.000000   1.000000
   67      -50.066501    -46.369915   1.000000   1.000000
   68      -50.054300    -46.367167   1.000000   1.000000
   69      -50.051632    -46.360896   1.000000   1.000000
   70      -50.031506    -46.355305   1.000000   1.000000
   71      -50.021991    -46.353311   1.000000   1.000000
   72      -50.013085    -46.348042   1.000000   1.000000
   73      -40.612397    -40.606524   1.000000   1.000000
   74      -40.604754    -40.598897   1.000000   1.000000
   75      -40.594238    -40.588207   1.000000   1.000000
   76      -40.594212    -40.587920   1.000000   1.000000
   77      -40.569101    -40.563521   1.000000   1.000000
   78      -40.564633    -40.558214   1.000000   1.000000
   79      -40.558484    -40.552726   1.000000   1.000000
   80      -40.370877    -40.370958   1.000000   1.000000
   81      -40.322156    -40.321836   1.000000   1.000000
   82      -40.315298    -40.315591   1.000000   1.000000
   83      -40.311521    -40.311682   1.000000   1.000000
   84      -40.310753    -40.310437   1.000000   1.000000
   85      -40.275657    -40.275503   1.000000   1.000000
   86      -40.272475    -40.272382   1.000000   1.000000
   87      -40.181722    -40.184083   1.000000   1.000000
   88      -40.159396    -40.161377   1.000000   1.000000
   89      -40.134382    -40.136493   1.000000   1.000000
   90      -40.125641    -40.127787   1.000000   1.000000
   91      -40.122444    -40.124909   1.000000   1.000000
   92      -40.118843    -40.120735   1.000000   1.000000
   93      -40.099665    -40.101645   1.000000   1.000000
   94      -40.089536    -40.091835   1.000000   1.000000
   95      -40.087767    -40.087313   1.000000   1.000000
   96      -40.079551    -40.078962   1.000000   1.000000
   97      -40.079359    -40.078754   1.000000   1.000000
   98      -40.069266    -40.068709   1.000000   1.000000
   99      -40.063889    -40.063149   1.000000   1.000000
  100      -40.036918    -40.034874   1.000000   1.000000
  101      -40.033491    -40.032965   1.000000   1.000000
  102      -40.026011    -40.025487   1.000000   1.000000
  103      -39.952151    -39.951648   1.000000   1.000000
  104      -13.852519    -13.486976   1.000000   1.000000
  105      -13.822475    -13.454449   1.000000   1.000000
  106      -13.711456    -13.388959   1.000000   1.000000
  107      -13.709385    -13.387016   1.000000   1.000000
  108      -13.688780    -13.365841   1.000000   1.000000
  109      -13.672278    -13.345339   1.000000   1.000000
  110      -13.561239    -13.287344   1.000000   1.000000
  111      -13.530823    -13.254318   1.000000   1.000000
  112      -13.378816    -13.131265   1.000000   1.000000
  113      -13.255616    -13.031511   1.000000   1.000000
  114      -13.233472    -13.027445   1.000000   1.000000
  115      -13.229909    -13.017364   1.000000   1.000000
  116      -13.122200    -12.928740   1.000000   1.000000
  117      -13.076711    -12.923695   1.000000   1.000000
  118      -13.075099    -12.887329   1.000000   1.000000
  119      -12.878646    -12.680084   1.000000   1.000000
  120       -7.893006     -7.708355   1.000000   1.000000
  121       -7.653774     -7.494300   1.000000   1.000000
  122       -7.647149     -7.483627   1.000000   1.000000
  123       -7.635256     -7.469041   1.000000   1.000000
  124       -7.501919     -7.343767   1.000000   1.000000
  125       -7.481077     -7.328394   1.000000   1.000000
  126       -7.459615     -7.312712   1.000000   1.000000
  127       -7.434389     -7.291819   1.000000   1.000000
  128       -7.413224     -7.217454   1.000000   1.000000
  129       -7.365569     -7.205373   1.000000   1.000000
  130       -7.357840     -7.192526   1.000000   1.000000
  131       -7.329633     -7.179786   1.000000   1.000000
  132       -7.318680     -7.130493   1.000000   1.000000
  133       -7.267994     -7.091520   1.000000   1.000000
  134       -7.260242     -7.086521   1.000000   1.000000
  135       -7.227031     -7.078848   1.000000   1.000000
  136       -7.216444     -7.053479   1.000000   1.000000
  137       -7.205713     -7.048950   1.000000   1.000000
  138       -7.176032     -7.030334   1.000000   1.000000
  139       -7.168582     -6.987518   1.000000   1.000000
  140       -7.142389     -6.960228   1.000000   1.000000
  141       -7.133829     -6.940554   1.000000   1.000000
  142       -7.114562     -6.919971   1.000000   1.000000
  143       -6.976511     -6.775750   1.000000   1.000000
  144       -2.719213     -1.266543   1.000000   1.000000
  145       -2.681726     -1.022838   1.000000   1.000000
  146       -2.399790     -0.911201   1.000000   1.000000
  147       -2.262217     -0.592182   1.000000   1.000000
  148       -1.976134     -0.518717   1.000000   1.000000
  149       -1.964622     -0.515360   1.000000   1.000000
  150       -1.926710     -0.460344   1.000000   1.000000
  151       -1.925028     -0.457239   1.000000   1.000000
  152       -1.891962     -0.352332   1.000000   1.000000
  153       -1.814251     -0.325984   1.000000   1.000000
  154       -1.588371     -0.248012   1.000000   1.000000
  155       -1.587901     -0.237884   1.000000   1.000000
  156       -1.567510     -0.192802   1.000000   1.000000
  157       -1.537267     -0.150710   1.000000   1.000000
  158       -1.529015     -0.106365   1.000000   1.000000
  159       -1.493997     -0.085621   1.000000   1.000000
  160       -1.484754     -0.045154   1.000000   1.000000
  161       -1.477036     -0.029851   1.000000   1.000000
  162       -1.461864      0.056411   1.000000   1.000000
  163       -1.448443      0.107372   1.000000   1.000000
  164       -1.434848      0.109970   1.000000   1.000000
  165       -1.304725      0.117282   1.000000   1.000000
  166       -1.225595      0.235226   1.000000   1.000000
  167       -1.223610      0.344828   1.000000   1.000000
  168       -1.217561      0.368656   1.000000   1.000000
  169       -1.190248      0.399059   1.000000   1.000000
  170       -1.181768      0.403578   1.000000   1.000000
  171       -1.150685      0.406914   1.000000   1.000000
  172       -1.110969      0.437314   1.000000   1.000000
  173       -1.092034      0.449380   1.000000   1.000000
  174       -1.088998      0.586148   1.000000   1.000000
  175       -1.061715      0.603107   1.000000   1.000000
  176       -1.039840      0.623897   1.000000   1.000000
  177       -0.982197      0.637609   1.000000   1.000000
  178       -0.966442      0.654245   1.000000   1.000000
  179       -0.932364      0.704765   1.000000   1.000000
  180       -0.929416      0.777918   1.000000   1.000000
  181       -0.924258      0.779876   1.000000   1.000000
  182       -0.916875      0.806938   1.000000   1.000000
  183       -0.864322      0.840862   1.000000   1.000000
  184       -0.861551      0.848992   1.000000   1.000000
  185       -0.851108      0.855262   1.000000   1.000000
  186       -0.843987      0.885564   1.000000   1.000000
  187       -0.804768      0.889722   1.000000   1.000000
  188       -0.792882      0.902457   1.000000   1.000000
  189       -0.787109      0.950821   1.000000   1.000000
  190       -0.782549      0.967496   1.000000   1.000000
  191       -0.777600      0.988114   1.000000   1.000000
  192       -0.766460      1.040207   1.000000   1.000000
  193       -0.763233      1.062881   1.000000   1.000000
  194       -0.718771      1.105826   1.000000   1.000000
  195       -0.713398      1.171106   1.000000   1.000000
  196       -0.710461      1.185236   1.000000   1.000000
  197       -0.653633      1.197166   1.000000   1.000000
  198       -0.617600      1.206771   1.000000   1.000000
  199       -0.608937      1.235186   1.000000   1.000000
  200       -0.594037      1.254041   1.000000   1.000000
  201       -0.586453      1.278527   1.000000   1.000000
  202       -0.580992      1.286463   1.000000   1.000000
  203       -0.575777      1.303265   1.000000   1.000000
  204       -0.569547      1.403320   1.000000   1.000000
  205       -0.546375      1.454323   1.000000   1.000000
  206       -0.530443      1.469430   1.000000   1.000000
  207       -0.514233      1.497766   1.000000   1.000000
  208       -0.466922      1.576172   1.000000   1.000000
  209       -0.456700      1.588974   1.000000   1.000000
  210       -0.436883      1.674799   1.000000   1.000000
  211       -0.401924      1.684226   1.000000   1.000000
  212       -0.384070      1.711107   1.000000   1.000000
  213       -0.366718      1.721245   1.000000   1.000000
  214       -0.340688      1.771827   1.000000   1.000000
  215       -0.333961      1.806575   1.000000   1.000000
  216       -0.318003      1.827056   1.000000   1.000000
  217       -0.310596      1.839215   1.000000   1.000000
  218       -0.294176      1.923003   1.000000   1.000000
  219       -0.293330      1.973762   1.000000   1.000000
  220       -0.273232      1.982133   1.000000   1.000000
  221       -0.255658      2.115540   1.000000   1.000000
  222       -0.247144      2.142865   1.000000   1.000000
  223       -0.213779      2.193287   1.000000   1.000000
  224       -0.210109      2.249530   1.000000   1.000000
  225       -0.190567      2.263804   1.000000   1.000000
  226       -0.176950      2.315315   1.000000   1.000000
  227       -0.170609      2.326087   1.000000   1.000000
  228       -0.161109      2.341766   1.000000   1.000000
  229       -0.154960      2.382513   1.000000   1.000000
  230       -0.140473      2.408675   1.000000   1.000000
  231       -0.138724      2.484670   1.000000   1.000000
  232       -0.130616      2.545324   1.000000   1.000000
  233       -0.128930      2.575946   1.000000   1.000000
  234       -0.104925      2.604009   1.000000   1.000000
  235       -0.093057      2.629071   1.000000   1.000000
  236       -0.080229      2.659480   1.000000   1.000000
  237       -0.075111      2.675636   1.000000   1.000000
  238       -0.006159      2.720257   1.000000   1.000000
  239        0.102417      2.731184   1.000000   1.000000
  240        0.137367      2.760640   1.000000   1.000000
  241        0.149988      2.775027   1.000000   1.000000
  242        0.165205      2.796389   1.000000   1.000000
  243        0.209948      2.825250   1.000000   1.000000
  244        0.310148      2.842363   1.000000   1.000000
  245        0.331388      2.850760   1.000000   1.000000
  246        0.339972      2.852941   1.000000   1.000000
  247        0.352660      2.871983   1.000000   1.000000
  248        0.390846      2.885055   1.000000   1.000000
  249        0.395642      2.911413   1.000000   1.000000
  250        0.408930      2.918020   1.000000   1.000000
  251        0.419612      2.929081   1.000000   1.000000
  252        0.444437      2.958116   1.000000   1.000000
  253        0.472167      2.975470   1.000000   1.000000
  254        0.487125      3.025581   1.000000   1.000000
  255        0.521883      3.071354   1.000000   1.000000
  256        0.528045      3.075691   1.000000   1.000000
  257        0.680840      3.161412   1.000000   1.000000
  258        0.684903      3.168401   1.000000   1.000000
  259        0.700967      3.213040   1.000000   1.000000
  260        0.710974      3.238034   1.000000   1.000000
  261        0.726335      3.240471   1.000000   1.000000
  262        0.731864      3.315361   1.000000   1.000000
  263        0.780964      3.343501   1.000000   1.000000
  264        0.785279      3.440484   1.000000   1.000000
  265        0.855089      3.482077   1.000000   1.000000
  266        0.870507      3.517476   1.000000   1.000000
  267        0.896665      3.525671   1.000000   1.000000
  268        0.907064      3.563322   1.000000   1.000000
  269        0.913334      3.572217   1.000000   1.000000
  270        0.923885      3.592122   1.000000   1.000000
  271        0.944345      3.607017   1.000000   1.000000
  272        0.956885      3.613239   1.000000   1.000000
  273        1.007564      3.630571   1.000000   1.000000
  274        1.009505      3.650458   1.000000   1.000000
  275        1.055719      3.653933   1.000000   1.000000
  276        1.093901      3.677360   1.000000   1.000000
  277        1.108517      3.689818   1.000000   1.000000
  278        1.131899      3.714659   1.000000   1.000000
  279        1.190738      3.721306   1.000000   1.000000
  280        1.210629      3.737201   1.000000   1.000000
  281        1.250994      3.765801   1.000000   1.000000
  282        1.279770      3.770506   1.000000   1.000000
  283        1.299386      3.776235   1.000000   1.000000
  284        1.338075      3.788287   1.000000   1.000000
  285        1.356582      3.806855   1.000000   1.000000
  286        1.368271      3.813036   1.000000   1.000000
  287        1.394706      3.818761   1.000000   1.000000
  288        1.398257      6.119229   1.000000   0.000000
  289        1.444453      6.236396   1.000000   0.000000
  290        1.449580      6.469946   1.000000   0.000000
  291        1.452068      6.507317   1.000000   0.000000
  292        1.469676      6.533060   1.000000   0.000000
  293        1.483233      6.555328   1.000000   0.000000
  294        1.503398      6.566005   1.000000   0.000000
  295        1.522902      6.580089   1.000000   0.000000
  296        1.530315      6.596347   1.000000   0.000000
  297        1.548348      6.669924   1.000000   0.000000
  298        1.581456      6.749219   1.000000   0.000000
  299        1.593773      6.776247   1.000000   0.000000
  300        1.607019      6.797436   1.000000   0.000000
  301        1.610591      6.847980   1.000000   0.000000
  302        1.628719      6.868046   1.000000   0.000000
  303        1.632471      6.884010   1.000000   0.000000
  304        1.651168      6.952746   1.000000   0.000000
  305        1.674118      6.962307   1.000000   0.000000
  306        1.682435      6.981701   1.000000   0.000000
  307        1.695220      6.985285   1.000000   0.000000
  308        1.724878      7.016517   1.000000   0.000000
  309        1.797489      7.034644   1.000000   0.000000
  310        1.813618      7.039665   1.000000   0.000000
  311        1.886333      7.063247   1.000000   0.000000
  312        1.968267      7.097532   1.000000   0.000000
  313        1.981899      7.101994   1.000000   0.000000
  314        1.993886      7.117444   1.000000   0.000000
  315        2.010198      7.161043   1.000000   0.000000
  316        2.149230      7.166061   1.000000   0.000000
  317        2.174667      7.166311   1.000000   0.000000
  318        2.177074      7.178615   1.000000   0.000000
  319        2.247832      7.183161   1.000000   0.000000
  320        2.340041      7.188177   1.000000   0.000000
  321        2.351288      7.211039   1.000000   0.000000
  322        2.375916      7.229791   1.000000   0.000000
  323        2.395867      7.238689   1.000000   0.000000
  324        2.402187      7.247983   1.000000   0.000000
  325        2.433806      7.263142   1.000000   0.000000
  326        2.470156      7.283143   1.000000   0.000000
  327        2.502864      7.291674   1.000000   0.000000
  328        2.508156      7.297429   1.000000   0.000000
  329        2.535312      7.311606   1.000000   0.000000
  330        2.549548      7.325612   1.000000   0.000000
  331        2.566555      7.334396   1.000000   0.000000
  332        2.569932      7.384620   1.000000   0.000000
  333        2.629111      7.413026   1.000000   0.000000
  334        2.675410      7.421688   1.000000   0.000000
  335        2.762723      7.514834   1.000000   0.000000
  336        2.842751      7.525700   1.000000   0.000000
  337        2.847519      7.553496   1.000000   0.000000
  338        2.875182      7.560413   1.000000   0.000000
  339        2.992744      7.573893   1.000000   0.000000
  340        3.006700      7.597033   1.000000   0.000000
  341        3.008777      7.606367   1.000000   0.000000
  342        3.058373      7.610545   1.000000   0.000000
  343        3.105490      7.618456   1.000000   0.000000
  344        3.148050      7.641537   1.000000   0.000000
  345        3.157227      7.652426   1.000000   0.000000
  346        3.223158      7.665815   1.000000   0.000000
  347        3.226996      7.701960   1.000000   0.000000
  348        3.247108      7.731165   1.000000   0.000000
  349        3.273713      7.735687   1.000000   0.000000
  350        3.312598      7.745443   1.000000   0.000000
  351        3.368385      7.779502   1.000000   0.000000
  352        3.397440      7.785853   1.000000   0.000000
  353        3.430773      7.797908   1.000000   0.000000
  354        3.449657      7.798107   1.000000   0.000000
  355        3.481132      7.811581   1.000000   0.000000
  356        3.506518      7.842995   1.000000   0.000000
  357        3.527153      7.851123   1.000000   0.000000
  358        3.562378      7.891691   1.000000   0.000000
  359        3.578573      7.915210   1.000000   0.000000
  360        3.586364      7.964138   1.000000   0.000000
  361        3.598692      8.042796   1.000000   0.000000
  362        3.636121      8.042885   1.000000   0.000000
  363        3.675738      8.063124   1.000000   0.000000
  364        3.716841      8.063655   1.000000   0.000000
  365        3.783245      8.129947   1.000000   0.000000
  366        3.787312      8.162440   1.000000   0.000000
  367        3.846225      8.191327   1.000000   0.000000
  368        3.882769      8.217640   1.000000   0.000000
  369        3.902330      8.234221   1.000000   0.000000
  370        3.977205      8.247069   1.000000   0.000000
  371        3.984807      8.281025   1.000000   0.000000
  372        4.019495      8.313607   1.000000   0.000000
  373        4.052893      8.329540   1.000000   0.000000
  374        4.062689      8.341332   1.000000   0.000000
  375        4.095940      8.382264   1.000000   0.000000
  376        4.127786      8.450957   1.000000   0.000000
  377        4.143822      8.511992   1.000000   0.000000
  378        4.165565      8.533251   1.000000   0.000000
  379        4.225499      8.540358   1.000000   0.000000
  380        4.406192      8.639859   0.991160   0.000000
  381        4.446620      8.643432   0.890432   0.000000
  382        4.567331      8.658544   0.014361   0.000000
  383        4.592040      8.766890   0.001962   0.000000
  384        7.123560      8.792697   0.000000   0.000000
  385        7.686586      8.827651   0.000000   0.000000
  386        8.190973      8.909606   0.000000   0.000000
  387        8.393390      9.015666   0.000000   0.000000
  388        8.576104      9.086193   0.000000   0.000000
  389        8.599804      9.088791   0.000000   0.000000
  390        8.672152      9.456378   0.000000   0.000000
  391        8.723098      9.623827   0.000000   0.000000
  392        8.734087      9.710999   0.000000   0.000000
  393        8.748995      9.715577   0.000000   0.000000
  394        9.162776      9.813795   0.000000   0.000000
  395        9.188951      9.892975   0.000000   0.000000
  396        9.228743      9.929616   0.000000   0.000000
  397        9.244208      9.989168   0.000000   0.000000
  398        9.272107     10.105090   0.000000   0.000000
  399        9.312406     10.117485   0.000000   0.000000
  400        9.345495     10.190941   0.000000   0.000000
  401        9.413815     10.234596   0.000000   0.000000
  402        9.427878     10.245910   0.000000   0.000000
  403        9.544289     10.266560   0.000000   0.000000
  404        9.608076     10.365698   0.000000   0.000000
  405        9.655281     10.372816   0.000000   0.000000
  406        9.672988     10.384000   0.000000   0.000000
  407        9.750518     10.528801   0.000000   0.000000
  408        9.807890     10.533277   0.000000   0.000000
  409        9.986785     10.609157   0.000000   0.000000
  410       10.038762     10.648161   0.000000   0.000000
  411       10.102467     10.728120   0.000000   0.000000
  412       10.145149     10.797250   0.000000   0.000000
  413       10.178248     10.821031   0.000000   0.000000
  414       10.250345     10.867772   0.000000   0.000000
  415       10.281422     10.870866   0.000000   0.000000
  416       10.306254     10.884458   0.000000   0.000000
  417       10.350984     10.912231   0.000000   0.000000
  418       10.473876     11.022794   0.000000   0.000000
  419       10.515386     11.054273   0.000000   0.000000
  420       10.533652     11.058071   0.000000   0.000000
  421       10.566341     11.082359   0.000000   0.000000
  422       10.608456     11.124787   0.000000   0.000000
  423       10.628557     11.134381   0.000000   0.000000
  424       10.646513     11.209573   0.000000   0.000000
  425       10.683630     11.234899   0.000000   0.000000
  426       10.703241     11.240837   0.000000   0.000000
  427       10.714935     11.309548   0.000000   0.000000
  428       10.764624     11.394515   0.000000   0.000000
  429       10.822829     11.398443   0.000000   0.000000
  430       10.908834     11.454067   0.000000   0.000000
  431       10.927689     11.564907   0.000000   0.000000
  432       10.943170     11.586016   0.000000   0.000000
  433       10.973157     11.626913   0.000000   0.000000
  434       11.037847     11.662292   0.000000   0.000000
  435       11.123925     11.678311   0.000000   0.000000
  436       11.175855     11.743802   0.000000   0.000000
  437       11.220235     11.744435   0.000000   0.000000
  438       11.239913     11.755077   0.000000   0.000000
  439       11.274722     11.795784   0.000000   0.000000
  440       11.296454     11.842807   0.000000   0.000000
  441       11.329411     11.861791   0.000000   0.000000
  442       11.390786     11.880076   0.000000   0.000000
  443       11.402256     11.905428   0.000000   0.000000
  444       11.493277     11.952574   0.000000   0.000000
  445       11.523794     12.025582   0.000000   0.000000
  446       11.542855     12.032218   0.000000   0.000000
  447       11.552507     12.047525   0.000000   0.000000
  448       11.591684     12.076099   0.000000   0.000000
  449       11.635940     12.086939   0.000000   0.000000
  450       11.664037     12.118673   0.000000   0.000000
  451       11.677463     12.142522   0.000000   0.000000
  452       11.696044     12.147761   0.000000   0.000000
  453       11.708032     12.155728   0.000000   0.000000
  454       11.713236     12.168400   0.000000   0.000000
  455       11.746796     12.243760   0.000000   0.000000
  456       11.761690     12.246030   0.000000   0.000000
  457       11.766802     12.280616   0.000000   0.000000
  458       11.896351     12.398447   0.000000   0.000000
  459       11.976702     12.413315   0.000000   0.000000
  460       11.984466     12.420634   0.000000   0.000000
  461       12.013107     12.489954   0.000000   0.000000
  462       12.035267     12.494879   0.000000   0.000000
  463       12.089911     12.517413   0.000000   0.000000
  464       12.098875     12.613128   0.000000   0.000000
  465       12.204389     12.692383   0.000000   0.000000
  466       12.249697     12.768183   0.000000   0.000000
  467       12.272338     12.817335   0.000000   0.000000
  468       12.286666     12.821907   0.000000   0.000000
  469       12.310157     12.934385   0.000000   0.000000
  470       12.337774     12.955304   0.000000   0.000000
  471       12.375371     13.001019   0.000000   0.000000
  472       12.416541     13.021569   0.000000   0.000000
  473       12.439746     13.037667   0.000000   0.000000
  474       12.521540     13.072309   0.000000   0.000000
  475       12.564474     13.096550   0.000000   0.000000
  476       12.577289     13.155316   0.000000   0.000000
  477       12.707633     13.216286   0.000000   0.000000
  478       12.753165     13.252433   0.000000   0.000000
  479       12.772146     13.284035   0.000000   0.000000
  480       12.833312     13.414945   0.000000   0.000000
  481       12.922245     13.468443   0.000000   0.000000
  482       13.023611     13.491660   0.000000   0.000000
  483       13.127312     13.620215   0.000000   0.000000
  484       13.283361     13.699128   0.000000   0.000000
  485       13.358826     13.803423   0.000000   0.000000
  486       13.419463     13.954122   0.000000   0.000000
  487       13.503309     14.085471   0.000000   0.000000
  488       13.652070     14.163551   0.000000   0.000000

  0.5000000E+00  0.1339234E-14  0.1262012E-14  0.1250000E+00
    1      -51.731098    -46.984558   1.000000   1.000000
    2      -51.730237    -46.982522   1.000000   1.000000
    3      -51.718026    -46.973982   1.000000   1.000000
    4      -51.715083    -46.972120   1.000000   1.000000
    5      -51.713017    -46.968590   1.000000   1.000000
    6      -51.684819    -46.950076   1.000000   1.000000
    7      -51.678497    -46.941065   1.000000   1.000000
    8      -51.664319    -46.938047   1.000000   1.000000
    9      -51.623400    -46.936481   1.000000   1.000000
   10      -51.617142    -46.933479   1.000000   1.000000
   11      -51.612495    -46.932359   1.000000   1.000000
   12      -51.610906    -46.926757   1.000000   1.000000
   13      -51.609340    -46.920497   1.000000   1.000000
   14      -51.603033    -46.911536   1.000000   1.000000
   15      -51.581468    -46.854157   1.000000   1.000000
   16      -51.566900    -46.839962   1.000000   1.000000
   17      -51.555160    -46.838603   1.000000   1.000000
   18      -51.554733    -46.828262   1.000000   1.000000
   19      -51.551684    -46.818784   1.000000   1.000000
   20      -51.535281    -46.816489   1.000000   1.000000
   21      -51.531602    -46.813535   1.000000   1.000000
   22      -51.530131    -46.799951   1.000000   1.000000
   23      -51.527774    -46.798566   1.000000   1.000000