  99  99   0   0
  0.1430410E+02  0.1177748E-08  0.1177748E-08  0.1058004E-08  0.5000000E-15
  1.000000000000000E-004
  CAR 
 unknown system                          
     17.95839061    -54.35033158  301      5.24410696      1.00000000
    -54.350  0.0000E+00  0.0000E+00  0.0000E+00  0.0000E+00
    -54.109  0.0000E+00  0.0000E+00  0.0000E+00  0.0000E+00
    -53.868  0.0000E+00  0.0000E+00  0.0000E+00  0.0000E+00
    -53.627  0.0000E+00  0.0000E+00  0.0000E+00  0.0000E+00
    -53.386  0.0000E+00  0.0000E+00  0.0000E+00  0.0000E+00
    -53.145  0.0000E+00  0.0000E+00  0.0000E+00  0.0000E+00
    -52.904  0.0000E+00  0.0000E+00  0.0000E+00  0.0000E+00
    -52.663  0.0000E+00  0.0000E+00  0.0000E+00  0.0000E+00
    -52.422  0.0000E+00  0.0000E+00  0.0000E+00  0.0000E+00
    -52.181  0.0000E+00  0.0000E+00  0.0000E+00  0.0000E+00
    -51.940  0.0000E+00  0.0000E+00  0.0000E+00  0.0000E+00
    -51.699  0.0000E+00  0.0000E+00  0.0000E+00  0.0000E+00
    -51.458  0.0000E+00  0.0000E+00  0.0000E+00  0.0000E+00
    -51.217  0.1181E-03  0.0000E+00  0.2846E-04  0.0000E+00
    -50.976  0.1445E+03  0.0000E+00  0.3484E+02  0.0000E+00
    -50.735  0.4819E+01  0.0000E+00  0.3600E+02  0.0000E+00
    -50.494  0.0000E+00  0.0000E+00  0.3600E+02  0.0000E+00
    -50.253  0.0000E+00  0.0000E+00  0.3600E+02  0.0000E+00
    -50.012  0.0000E+00  0.0000E+00  0.3600E+02  0.0000E+00
    -49.771  0.7402E+00  0.0000E+00  0.3618E+02  0.0000E+00
    -49.530  0.2570E+03  0.0000E+00  0.9813E+02  0.0000E+00
    -49.289  0.4095E+02  0.0000E+00  0.1080E+03  0.0000E+00
    -49.048  0.0000E+00  0.0000E+00  0.1080E+03  0.0000E+00
    -48.807  0.0000E+00  0.0000E+00  0.1080E+03  0.0000E+00
    -48.566  0.0000E+00  0.0000E+00  0.1080E+03  0.0000E+00
    -48.325  0.0000E+00  0.0000E+00  0.1080E+03  0.0000E+00
    -48.084  0.0000E+00  0.0000E+00  0.1080E+03  0.0000E+00
    -47.843  0.0000E+00  0.0000E+00  0.1080E+03  0.0000E+00
    -47.602  0.0000E+00  0.0000E+00  0.1080E+03  0.0000E+00
    -47.360  0.0000E+00  0.0000E+00  0.1080E+03  0.0000E+00
    -47.119  0.0000E+00  0.0000E+00  0.1080E+03  0.0000E+00
    -46.878  0.0000E+00  0.0000E+00  0.1080E+03  0.0000E+00
    -46.637  0.0000E+00  0.0000E+00  0.1080E+03  0.0000E+00
    -46.396  0.0000E+00  0.1742E+00  0.1080E+03  0.4200E-01
    -46.155  0.0000E+00  0.1491E+03  0.1080E+03  0.3598E+02
    -45.914  0.0000E+00  0.5674E+02  0.1080E+03  0.4965E+02
    -45.673  0.0000E+00  0.2421E+03  0.1080E+03  0.1080E+03
    -45.432  0.0000E+00  0.0000E+00  0.1080E+03  0.1080E+03
    -45.191  0.0000E+00  0.0000E+00  0.1080E+03  0.1080E+03
    -44.950  0.0000E+00  0.0000E+00  0.1080E+03  0.1080E+03
    -44.709  0.0000E+00  0.0000E+00  0.1080E+03  0.1080E+03
    -44.468  0.0000E+00  0.0000E+00  0.1080E+03  0.1080E+03
    -44.227  0.0000E+00  0.0000E+00  0.1080E+03  0.1080E+03
    -43.986  0.0000E+00  0.0000E+00  0.1080E+03  0.1080E+03
    -43.745  0.0000E+00  0.0000E+00  0.1080E+03  0.1080E+03
    -43.504  0.0000E+00  0.0000E+00  0.1080E+03  0.1080E+03
    -43.263  0.0000E+00  0.0000E+00  0.1080E+03  0.1080E+03
    -43.022  0.0000E+00  0.0000E+00  0.1080E+03  0.1080E+03
    -42.781  0.0000E+00  0.0000E+00  0.1080E+03  0.1080E+03
    -42.540  0.0000E+00  0.0000E+00  0.1080E+03  0.1080E+03
    -42.299  0.0000E+00  0.0000E+00  0.1080E+03  0.1080E+03
    -42.058  0.0000E+00  0.0000E+00  0.1080E+03  0.1080E+03
    -41.817  0.0000E+00  0.0000E+00  0.1080E+03  0.1080E+03
    -41.576  0.0000E+00  0.0000E+00  0.1080E+03  0.1080E+03
    -41.335  0.0000E+00  0.0000E+00  0.1080E+03  0.1080E+03
    -41.094  0.0000E+00  0.0000E+00  0.1080E+03  0.1080E+03
    -40.853  0.0000E+00  0.0000E+00  0.1080E+03  0.1080E+03
    -40.612  0.0000E+00  0.0000E+00  0.1080E+03  0.1080E+03
    -40.371  0.0000E+00  0.0000E+00  0.1080E+03  0.1080E+03
    -40.130  0.1289E-11  0.8194E-12  0.1080E+03  0.1080E+03
    -39.889  0.1651E+02  0.1525E+02  0.1120E+03  0.1117E+03
    -39.648  0.5817E+02  0.5943E+02  0.1260E+03  0.1260E+03
    -39.407  0.0000E+00  0.0000E+00  0.1260E+03  0.1260E+03
    -39.165  0.0000E+00  0.0000E+00  0.1260E+03  0.1260E+03
    -38.924  0.0000E+00  0.0000E+00  0.1260E+03  0.1260E+03
    -38.683  0.0000E+00  0.0000E+00  0.1260E+03  0.1260E+03
    -38.442  0.0000E+00  0.0000E+00  0.1260E+03  0.1260E+03
    -38.201  0.0000E+00  0.0000E+00  0.1260E+03  0.1260E+03
    -37.960  0.0000E+00  0.0000E+00  0.1260E+03  0.1260E+03
    -37.719  0.0000E+00  0.0000E+00  0.1260E+03  0.1260E+03
    -37.478  0.0000E+00  0.0000E+00  0.1260E+03  0.1260E+03
    -37.237  0.0000E+00  0.0000E+00  0.1260E+03  0.1260E+03
    -36.996  0.0000E+00  0.0000E+00  0.1260E+03  0.1260E+03
    -36.755  0.0000E+00  0.0000E+00  0.1260E+03  0.1260E+03
    -36.514  0.0000E+00  0.0000E+00  0.1260E+03  0.1260E+03
    -36.273  0.0000E+00  0.0000E+00  0.1260E+03  0.1260E+03
    -36.032  0.0000E+00  0.0000E+00  0.1260E+03  0.1260E+03
    -35.791  0.0000E+00  0.0000E+00  0.1260E+03  0.1260E+03
    -35.550  0.0000E+00  0.0000E+00  0.1260E+03  0.1260E+03
    -35.309  0.0000E+00  0.0000E+00  0.1260E+03  0.1260E+03
    -35.068  0.0000E+00  0.0000E+00  0.1260E+03  0.1260E+03
    -34.827  0.0000E+00  0.0000E+00  0.1260E+03  0.1260E+03
    -34.586  0.0000E+00  0.0000E+00  0.1260E+03  0.1260E+03
    -34.345  0.0000E+00  0.0000E+00  0.1260E+03  0.1260E+03
    -34.104  0.0000E+00  0.0000E+00  0.1260E+03  0.1260E+03
    -33.863  0.0000E+00  0.0000E+00  0.1260E+03  0.1260E+03
    -33.622  0.0000E+00  0.0000E+00  0.1260E+03  0.1260E+03
    -33.381  0.0000E+00  0.0000E+00  0.1260E+03  0.1260E+03
    -33.140  0.0000E+00  0.0000E+00  0.1260E+03  0.1260E+03
    -32.899  0.0000E+00  0.0000E+00  0.1260E+03  0.1260E+03
    -32.658  0.0000E+00  0.0000E+00  0.1260E+03  0.1260E+03
    -32.417  0.0000E+00  0.0000E+00  0.1260E+03  0.1260E+03
    -32.176  0.0000E+00  0.0000E+00  0.1260E+03  0.1260E+03
    -31.935  0.0000E+00  0.0000E+00  0.1260E+03  0.1260E+03
    -31.694  0.0000E+00  0.0000E+00  0.1260E+03  0.1260E+03
    -31.453  0.0000E+00  0.0000E+00  0.1260E+03  0.1260E+03
    -31.212  0.0000E+00  0.0000E+00  0.1260E+03  0.1260E+03
    -30.971  0.0000E+00  0.0000E+00  0.1260E+03  0.1260E+03
    -30.729  0.0000E+00  0.0000E+00  0.1260E+03  0.1260E+03
    -30.488  0.0000E+00  0.0000E+00  0.1260E+03  0.1260E+03
    -30.247  0.0000E+00  0.0000E+00  0.1260E+03  0.1260E+03
    -30.006  0.0000E+00  0.0000E+00  0.1260E+03  0.1260E+03
    -29.765  0.0000E+00  0.0000E+00  0.1260E+03  0.1260E+03
    -29.524  0.0000E+00  0.0000E+00  0.1260E+03  0.1260E+03
    -29.283  0.0000E+00  0.0000E+00  0.1260E+03  0.1260E+03
    -29.042  0.0000E+00  0.0000E+00  0.1260E+03  0.1260E+03
    -28.801  0.0000E+00  0.0000E+00  0.1260E+03  0.1260E+03
    -28.560  0.0000E+00  0.0000E+00  0.1260E+03  0.1260E+03
    -28.319  0.0000E+00  0.0000E+00  0.1260E+03  0.1260E+03
    -28.078  0.0000E+00  0.0000E+00  0.1260E+03  0.1260E+03
    -27.837  0.0000E+00  0.0000E+00  0.1260E+03  0.1260E+03
    -27.596  0.0000E+00  0.0000E+00  0.1260E+03  0.1260E+03
    -27.355  0.0000E+00  0.0000E+00  0.1260E+03  0.1260E+03
    -27.114  0.0000E+00  0.0000E+00  0.1260E+03  0.1260E+03
    -26.873  0.0000E+00  0.0000E+00  0.1260E+03  0.1260E+03
    -26.632  0.0000E+00  0.0000E+00  0.1260E+03  0.1260E+03
    -26.391  0.0000E+00  0.0000E+00  0.1260E+03  0.1260E+03
    -26.150  0.0000E+00  0.0000E+00  0.1260E+03  0.1260E+03
    -25.909  0.0000E+00  0.0000E+00  0.1260E+03  0.1260E+03
    -25.668  0.0000E+00  0.0000E+00  0.1260E+03  0.1260E+03
    -25.427  0.0000E+00  0.0000E+00  0.1260E+03  0.1260E+03
    -25.186  0.0000E+00  0.0000E+00  0.1260E+03  0.1260E+03
    -24.945  0.0000E+00  0.0000E+00  0.1260E+03  0.1260E+03
    -24.704  0.0000E+00  0.0000E+00  0.1260E+03  0.1260E+03
    -24.463  0.0000E+00  0.0000E+00  0.1260E+03  0.1260E+03
    -24.222  0.0000E+00  0.0000E+00  0.1260E+03  0.1260E+03
    -23.981  0.0000E+00  0.0000E+00  0.1260E+03  0.1260E+03
    -23.740  0.0000E+00  0.0000E+00  0.1260E+03  0.1260E+03
    -23.499  0.0000E+00  0.0000E+00  0.1260E+03  0.1260E+03
    -23.258  0.0000E+00  0.0000E+00  0.1260E+03  0.1260E+03
    -23.017  0.0000E+00  0.0000E+00  0.1260E+03  0.1260E+03
    -22.776  0.0000E+00  0.0000E+00  0.1260E+03  0.1260E+03
    -22.534  0.0000E+00  0.0000E+00  0.1260E+03  0.1260E+03
    -22.293  0.0000E+00  0.0000E+00  0.1260E+03  0.1260E+03
    -22.052  0.0000E+00  0.0000E+00  0.1260E+03  0.1260E+03
    -21.811  0.0000E+00  0.0000E+00  0.1260E+03  0.1260E+03
    -21.570  0.0000E+00  0.0000E+00  0.1260E+03  0.1260E+03
    -21.329  0.0000E+00  0.0000E+00  0.1260E+03  0.1260E+03
    -21.088  0.0000E+00  0.0000E+00  0.1260E+03  0.1260E+03
    -20.847  0.0000E+00  0.0000E+00  0.1260E+03  0.1260E+03
    -20.606  0.0000E+00  0.0000E+00  0.1260E+03  0.1260E+03
    -20.365  0.0000E+00  0.0000E+00  0.1260E+03  0.1260E+03
    -20.124  0.0000E+00  0.0000E+00  0.1260E+03  0.1260E+03
    -19.883  0.0000E+00  0.0000E+00  0.1260E+03  0.1260E+03
    -19.642  0.0000E+00  0.0000E+00  0.1260E+03  0.1260E+03
    -19.401  0.0000E+00  0.0000E+00  0.1260E+03  0.1260E+03
    -19.160  0.0000E+00  0.0000E+00  0.1260E+03  0.1260E+03
    -18.919  0.0000E+00  0.0000E+00  0.1260E+03  0.1260E+03
    -18.678  0.0000E+00  0.0000E+00  0.1260E+03  0.1260E+03
    -18.437  0.0000E+00  0.0000E+00  0.1260E+03  0.1260E+03
    -18.196  0.0000E+00  0.0000E+00  0.1260E+03  0.1260E+03
    -17.955  0.0000E+00  0.0000E+00  0.1260E+03  0.1260E+03
    -17.714  0.0000E+00  0.0000E+00  0.1260E+03  0.1260E+03
    -17.473  0.0000E+00  0.0000E+00  0.1260E+03  0.1260E+03
    -17.232  0.0000E+00  0.0000E+00  0.1260E+03  0.1260E+03
    -16.991  0.0000E+00  0.0000E+00  0.1260E+03  0.1260E+03
    -16.750  0.0000E+00  0.0000E+00  0.1260E+03  0.1260E+03
    -16.509  0.0000E+00  0.0000E+00  0.1260E+03  0.1260E+03
    -16.268  0.0000E+00  0.0000E+00  0.1260E+03  0.1260E+03
    -16.027  0.0000E+00  0.0000E+00  0.1260E+03  0.1260E+03
    -15.786  0.0000E+00  0.0000E+00  0.1260E+03  0.1260E+03
    -15.545  0.0000E+00  0.0000E+00  0.1260E+03  0.1260E+03
    -15.304  0.0000E+00  0.0000E+00  0.1260E+03  0.1260E+03
    -15.063  0.0000E+00  0.0000E+00  0.1260E+03  0.1260E+03
    -14.822  0.0000E+00  0.0000E+00  0.1260E+03  0.1260E+03
    -14.581  0.0000E+00  0.0000E+00  0.1260E+03  0.1260E+03
    -14.340  0.0000E+00  0.0000E+00  0.1260E+03  0.1260E+03
    -14.098  0.0000E+00  0.0000E+00  0.1260E+03  0.1260E+03
    -13.857  0.0000E+00  0.0000E+00  0.1260E+03  0.1260E+03
    -13.616  0.0000E+00  0.0000E+00  0.1260E+03  0.1260E+03
    -13.375  0.2314E-03  0.0000E+00  0.1260E+03  0.1260E+03
    -13.134  0.3068E+02  0.0000E+00  0.1334E+03  0.1260E+03
    -12.893  0.4379E+02  0.2605E+00  0.1440E+03  0.1261E+03
    -12.652  0.2064E+00  0.5892E+02  0.1440E+03  0.1403E+03
    -12.411  0.0000E+00  0.1550E+02  0.1440E+03  0.1440E+03
    -12.170  0.0000E+00  0.0000E+00  0.1440E+03  0.1440E+03
    -11.929  0.0000E+00  0.0000E+00  0.1440E+03  0.1440E+03
    -11.688  0.0000E+00  0.0000E+00  0.1440E+03  0.1440E+03
    -11.447  0.0000E+00  0.0000E+00  0.1440E+03  0.1440E+03
    -11.206  0.0000E+00  0.0000E+00  0.1440E+03  0.1440E+03
    -10.965  0.0000E+00  0.0000E+00  0.1440E+03  0.1440E+03
    -10.724  0.0000E+00  0.0000E+00  0.1440E+03  0.1440E+03
    -10.483  0.0000E+00  0.0000E+00  0.1440E+03  0.1440E+03
    -10.242  0.0000E+00  0.0000E+00  0.1440E+03  0.1440E+03
    -10.001  0.0000E+00  0.0000E+00  0.1440E+03  0.1440E+03
     -9.760  0.0000E+00  0.0000E+00  0.1440E+03  0.1440E+03
     -9.519  0.0000E+00  0.0000E+00  0.1440E+03  0.1440E+03
     -9.278  0.0000E+00  0.0000E+00  0.1440E+03  0.1440E+03
     -9.037  0.0000E+00  0.0000E+00  0.1440E+03  0.1440E+03
     -8.796  0.0000E+00  0.0000E+00  0.1440E+03  0.1440E+03
     -8.555  0.0000E+00  0.0000E+00  0.1440E+03  0.1440E+03
     -8.314  0.0000E+00  0.0000E+00  0.1440E+03  0.1440E+03
     -8.073  0.0000E+00  0.0000E+00  0.1440E+03  0.1440E+03
     -7.832  0.7366E-10  0.0000E+00  0.1440E+03  0.1440E+03
     -7.591  0.6527E+00  0.9936E-11  0.1442E+03  0.1440E+03
     -7.350  0.1755E+02  0.5556E+00  0.1484E+03  0.1441E+03
     -7.109  0.3227E+02  0.1944E+02  0.1562E+03  0.1488E+03
     -6.868  0.3470E+02  0.3085E+02  0.1645E+03  0.1563E+03
     -6.627  0.2684E+02  0.2578E+02  0.1710E+03  0.1625E+03
     -6.386  0.5059E-04  0.3531E+02  0.1710E+03  0.1710E+03
     -6.145  0.0000E+00  0.8166E-01  0.1710E+03  0.1710E+03
     -5.903  0.0000E+00  0.0000E+00  0.1710E+03  0.1710E+03
     -5.662  0.0000E+00  0.0000E+00  0.1710E+03  0.1710E+03
     -5.421  0.0000E+00  0.0000E+00  0.1710E+03  0.1710E+03
     -5.180  0.0000E+00  0.0000E+00  0.1710E+03  0.1710E+03
     -4.939  0.0000E+00  0.0000E+00  0.1710E+03  0.1710E+03
     -4.698  0.0000E+00  0.0000E+00  0.1710E+03  0.1710E+03
     -4.457  0.0000E+00  0.0000E+00  0.1710E+03  0.1710E+03
     -4.216  0.0000E+00  0.0000E+00  0.1710E+03  0.1710E+03
     -3.975  0.0000E+00  0.0000E+00  0.1710E+03  0.1710E+03
     -3.734  0.0000E+00  0.0000E+00  0.1710E+03  0.1710E+03
     -3.493  0.0000E+00  0.0000E+00  0.1710E+03  0.1710E+03
     -3.252  0.0000E+00  0.0000E+00  0.1710E+03  0.1710E+03
     -3.011  0.0000E+00  0.0000E+00  0.1710E+03  0.1710E+03
     -2.770  0.0000E+00  0.0000E+00  0.1710E+03  0.1710E+03
     -2.529  0.0000E+00  0.0000E+00  0.1710E+03  0.1710E+03
     -2.288  0.0000E+00  0.0000E+00  0.1710E+03  0.1710E+03
     -2.047  0.1201E-01  0.0000E+00  0.1710E+03  0.1710E+03
     -1.806  0.2445E+02  0.0000E+00  0.1769E+03  0.1710E+03
     -1.565  0.1870E+02  0.0000E+00  0.1814E+03  0.1710E+03
     -1.324  0.1463E+02  0.0000E+00  0.1849E+03  0.1710E+03
     -1.083  0.2363E+02  0.0000E+00  0.1906E+03  0.1710E+03
     -0.842  0.5658E+02  0.0000E+00  0.2043E+03  0.1710E+03
     -0.601  0.6247E+02  0.3305E-03  0.2193E+03  0.1710E+03
     -0.360  0.3998E+02  0.9502E+01  0.2290E+03  0.1733E+03
     -0.119  0.8221E+02  0.2132E+02  0.2488E+03  0.1784E+03
      0.122  0.8917E+02  0.1311E+02  0.2703E+03  0.1816E+03
      0.363  0.8334E+02  0.2372E+02  0.2904E+03  0.1873E+03
      0.604  0.7290E+02  0.3132E+02  0.3079E+03  0.1949E+03
      0.845  0.6083E+02  0.4770E+02  0.3226E+03  0.2064E+03
      1.086  0.3911E+02  0.4071E+02  0.3320E+03  0.2162E+03
      1.327  0.3562E+02  0.3344E+02  0.3406E+03  0.2242E+03
      1.568  0.5043E+02  0.2450E+02  0.3528E+03  0.2301E+03
      1.809  0.5339E+02  0.3287E+02  0.3656E+03  0.2381E+03
      2.050  0.7581E+02  0.4096E+02  0.3839E+03  0.2479E+03
      2.292  0.6365E+02  0.2773E+02  0.3992E+03  0.2546E+03
      2.533  0.3165E+02  0.2948E+02  0.4069E+03  0.2617E+03
      2.774  0.5083E+02  0.3962E+02  0.4191E+03  0.2713E+03
      3.015  0.2421E+02  0.4589E+02  0.4250E+03  0.2823E+03
      3.256  0.1003E+02  0.4825E+02  0.4274E+03  0.2940E+03
      3.497  0.3876E+02  0.4116E+02  0.4367E+03  0.3039E+03
      3.738  0.2567E+02  0.7121E+01  0.4429E+03  0.3056E+03
      3.979  0.3722E+02  0.2269E+02  0.4519E+03  0.3111E+03
      4.220  0.3911E+02  0.7402E+02  0.4613E+03  0.3289E+03
      4.461  0.3840E+02  0.4350E+02  0.4706E+03  0.3394E+03
      4.702  0.3606E+02  0.1085E+02  0.4792E+03  0.3420E+03
      4.943  0.2486E+02  0.2554E-05  0.4852E+03  0.3420E+03
      5.184  0.3177E+01  0.0000E+00  0.4860E+03  0.3420E+03
      5.425  0.0000E+00  0.0000E+00  0.4860E+03  0.3420E+03
      5.666  0.0000E+00  0.0000E+00  0.4860E+03  0.3420E+03
      5.907  0.0000E+00  0.0000E+00  0.4860E+03  0.3420E+03
      6.148  0.0000E+00  0.1701E-08  0.4860E+03  0.3420E+03
      6.389  0.0000E+00  0.1400E+01  0.4860E+03  0.3423E+03
      6.630  0.0000E+00  0.5072E+01  0.4860E+03  0.3436E+03
      6.871  0.0000E+00  0.1046E+02  0.4860E+03  0.3461E+03
      7.112  0.7741E-13  0.2067E+02  0.4860E+03  0.3511E+03
      7.353  0.5800E-01  0.6073E+02  0.4860E+03  0.3657E+03
      7.594  0.9566E-01  0.6117E+02  0.4860E+03  0.3804E+03
      7.835  0.5916E+00  0.6280E+02  0.4862E+03  0.3956E+03
      8.076  0.6275E+00  0.7520E+02  0.4863E+03  0.4137E+03
      8.317  0.2470E+01  0.8017E+02  0.4869E+03  0.4330E+03
      8.558  0.4612E+01  0.6903E+02  0.4880E+03  0.4497E+03
      8.799  0.9731E+01  0.6580E+02  0.4904E+03  0.4655E+03
      9.040  0.1487E+02  0.4592E+02  0.4940E+03  0.4766E+03
      9.281  0.1645E+02  0.3250E+02  0.4979E+03  0.4844E+03
      9.522  0.1954E+02  0.8691E+01  0.5026E+03  0.4865E+03
      9.763  0.1599E+02  0.5745E+01  0.5065E+03  0.4879E+03
     10.004  0.2434E+02  0.1162E+02  0.5124E+03  0.4907E+03
     10.245  0.1651E+02  0.1690E+02  0.5163E+03  0.4948E+03
     10.486  0.2199E+02  0.2345E+02  0.5216E+03  0.5004E+03
     10.728  0.1390E+02  0.2212E+02  0.5250E+03  0.5058E+03
     10.969  0.1525E+02  0.2251E+02  0.5287E+03  0.5112E+03
     11.210  0.2236E+02  0.3136E+02  0.5341E+03  0.5188E+03
     11.451  0.3257E+02  0.2001E+02  0.5419E+03  0.5236E+03
     11.692  0.2848E+02  0.1820E+02  0.5488E+03  0.5280E+03
     11.933  0.3325E+02  0.1160E+02  0.5568E+03  0.5308E+03
     12.174  0.3624E+02  0.2537E+02  0.5655E+03  0.5369E+03
     12.415  0.2197E+02  0.4514E+02  0.5708E+03  0.5478E+03
     12.656  0.1965E+02  0.3509E+02  0.5756E+03  0.5562E+03
     12.897  0.2519E+02  0.3233E+02  0.5816E+03  0.5640E+03
     13.138  0.2606E+02  0.2055E+02  0.5879E+03  0.5690E+03
     13.379  0.2840E+02  0.2424E+02  0.5948E+03  0.5748E+03
     13.620  0.2493E+02  0.3306E+02  0.6008E+03  0.5828E+03
     13.861  0.1810E+02  0.2624E+02  0.6051E+03  0.5891E+03
     14.102  0.3637E+01  0.2606E+02  0.6060E+03  0.5954E+03
     14.343  0.1939E-03  0.2303E+02  0.6060E+03  0.6009E+03
     14.584  0.0000E+00  0.1893E+02  0.6060E+03  0.6055E+03
     14.825  0.0000E+00  0.2139E+01  0.6060E+03  0.6060E+03
     15.066  0.0000E+00  0.2206E-05  0.6060E+03  0.6060E+03
     15.307  0.0000E+00  0.0000E+00  0.6060E+03  0.6060E+03
     15.548  0.0000E+00  0.0000E+00  0.6060E+03  0.6060E+03
     15.789  0.0000E+00  0.0000E+00  0.6060E+03  0.6060E+03
     16.030  0.0000E+00  0.0000E+00  0.6060E+03  0.6060E+03
     16.271  0.0000E+00  0.0000E+00  0.6060E+03  0.6060E+03
     16.512  0.0000E+00  0.0000E+00  0.6060E+03  0.6060E+03
     16.753  0.0000E+00  0.0000E+00  0.6060E+03  0.6060E+03
     16.994  0.0000E+00  0.0000E+00  0.6060E+03  0.6060E+03
     17.235  0.0000E+00  0.0000E+00  0.6060E+03  0.6060E+03
     17.476  0.0000E+00  0.0000E+00  0.6060E+03  0.6060E+03
     17.717  0.0000E+00  0.0000E+00  0.6060E+03  0.6060E+03
     17.958  0.0000E+00  0.0000E+00  0.6060E+03  0.6060E+03
