 144 144   0   0
  0.1325381E+02  0.1546422E-08  0.1214491E-08  0.1054520E-08  0.5000000E-15
  1.000000000000000E-004
  CAR 
 unknown system                          
     16.99524296    -54.87010477  301      5.07757279      1.00000000
    -54.870  0.0000E+00  0.0000E+00  0.0000E+00  0.0000E+00
    -54.631  0.0000E+00  0.0000E+00  0.0000E+00  0.0000E+00
    -54.391  0.0000E+00  0.0000E+00  0.0000E+00  0.0000E+00
    -54.151  0.0000E+00  0.0000E+00  0.0000E+00  0.0000E+00
    -53.912  0.0000E+00  0.0000E+00  0.0000E+00  0.0000E+00
    -53.672  0.0000E+00  0.0000E+00  0.0000E+00  0.0000E+00
    -53.433  0.0000E+00  0.0000E+00  0.0000E+00  0.0000E+00
    -53.193  0.0000E+00  0.0000E+00  0.0000E+00  0.0000E+00
    -52.954  0.0000E+00  0.0000E+00  0.0000E+00  0.0000E+00
    -52.714  0.0000E+00  0.0000E+00  0.0000E+00  0.0000E+00
    -52.475  0.0000E+00  0.0000E+00  0.0000E+00  0.0000E+00
    -52.235  0.0000E+00  0.0000E+00  0.0000E+00  0.0000E+00
    -51.995  0.0000E+00  0.0000E+00  0.0000E+00  0.0000E+00
    -51.756  0.3592E-03  0.0000E+00  0.8604E-04  0.0000E+00
    -51.516  0.4985E+02  0.0000E+00  0.1194E+02  0.0000E+00
    -51.277  0.8666E+02  0.0000E+00  0.3270E+02  0.0000E+00
    -51.037  0.1377E+02  0.0000E+00  0.3600E+02  0.0000E+00
    -50.798  0.0000E+00  0.0000E+00  0.3600E+02  0.0000E+00
    -50.558  0.0000E+00  0.0000E+00  0.3600E+02  0.0000E+00
    -50.319  0.1245E-03  0.0000E+00  0.3600E+02  0.0000E+00
    -50.079  0.6708E+02  0.0000E+00  0.5207E+02  0.0000E+00
    -49.840  0.2087E+03  0.0000E+00  0.1021E+03  0.0000E+00
    -49.600  0.2479E+02  0.0000E+00  0.1080E+03  0.0000E+00
    -49.360  0.0000E+00  0.0000E+00  0.1080E+03  0.0000E+00
    -49.121  0.0000E+00  0.0000E+00  0.1080E+03  0.0000E+00
    -48.881  0.0000E+00  0.0000E+00  0.1080E+03  0.0000E+00
    -48.642  0.0000E+00  0.0000E+00  0.1080E+03  0.0000E+00
    -48.402  0.0000E+00  0.0000E+00  0.1080E+03  0.0000E+00
    -48.163  0.0000E+00  0.0000E+00  0.1080E+03  0.0000E+00
    -47.923  0.0000E+00  0.0000E+00  0.1080E+03  0.0000E+00
    -47.684  0.0000E+00  0.0000E+00  0.1080E+03  0.0000E+00
    -47.444  0.0000E+00  0.0000E+00  0.1080E+03  0.0000E+00
    -47.204  0.0000E+00  0.0000E+00  0.1080E+03  0.0000E+00
    -46.965  0.0000E+00  0.6037E-01  0.1080E+03  0.1446E-01
    -46.725  0.0000E+00  0.5090E+02  0.1080E+03  0.1221E+02
    -46.486  0.0000E+00  0.9543E+02  0.1080E+03  0.3507E+02
    -46.246  0.0000E+00  0.1451E+03  0.1080E+03  0.6981E+02
    -46.007  0.0000E+00  0.1594E+03  0.1080E+03  0.1080E+03
    -45.767  0.0000E+00  0.4878E-02  0.1080E+03  0.1080E+03
    -45.528  0.0000E+00  0.0000E+00  0.1080E+03  0.1080E+03
    -45.288  0.0000E+00  0.0000E+00  0.1080E+03  0.1080E+03
    -45.049  0.0000E+00  0.0000E+00  0.1080E+03  0.1080E+03
    -44.809  0.0000E+00  0.0000E+00  0.1080E+03  0.1080E+03
    -44.569  0.0000E+00  0.0000E+00  0.1080E+03  0.1080E+03
    -44.330  0.0000E+00  0.0000E+00  0.1080E+03  0.1080E+03
    -44.090  0.0000E+00  0.0000E+00  0.1080E+03  0.1080E+03
    -43.851  0.0000E+00  0.0000E+00  0.1080E+03  0.1080E+03
    -43.611  0.0000E+00  0.0000E+00  0.1080E+03  0.1080E+03
    -43.372  0.0000E+00  0.0000E+00  0.1080E+03  0.1080E+03
    -43.132  0.0000E+00  0.0000E+00  0.1080E+03  0.1080E+03
    -42.893  0.0000E+00  0.0000E+00  0.1080E+03  0.1080E+03
    -42.653  0.0000E+00  0.0000E+00  0.1080E+03  0.1080E+03
    -42.413  0.0000E+00  0.0000E+00  0.1080E+03  0.1080E+03
    -42.174  0.0000E+00  0.0000E+00  0.1080E+03  0.1080E+03
    -41.934  0.0000E+00  0.0000E+00  0.1080E+03  0.1080E+03
    -41.695  0.0000E+00  0.0000E+00  0.1080E+03  0.1080E+03
    -41.455  0.0000E+00  0.0000E+00  0.1080E+03  0.1080E+03
    -41.216  0.0000E+00  0.0000E+00  0.1080E+03  0.1080E+03
    -40.976  0.0000E+00  0.0000E+00  0.1080E+03  0.1080E+03
    -40.737  0.1020E-08  0.3318E-09  0.1080E+03  0.1080E+03
    -40.497  0.2835E+02  0.2508E+02  0.1148E+03  0.1140E+03
    -40.257  0.4680E+02  0.5048E+02  0.1260E+03  0.1261E+03
    -40.018  0.9989E+02  0.9984E+02  0.1499E+03  0.1500E+03
    -39.778  0.2533E+02  0.2497E+02  0.1560E+03  0.1560E+03
    -39.539  0.0000E+00  0.0000E+00  0.1560E+03  0.1560E+03
    -39.299  0.0000E+00  0.0000E+00  0.1560E+03  0.1560E+03
    -39.060  0.0000E+00  0.0000E+00  0.1560E+03  0.1560E+03
    -38.820  0.0000E+00  0.0000E+00  0.1560E+03  0.1560E+03
    -38.581  0.0000E+00  0.0000E+00  0.1560E+03  0.1560E+03
    -38.341  0.0000E+00  0.0000E+00  0.1560E+03  0.1560E+03
    -38.102  0.0000E+00  0.0000E+00  0.1560E+03  0.1560E+03
    -37.862  0.0000E+00  0.0000E+00  0.1560E+03  0.1560E+03
    -37.622  0.0000E+00  0.0000E+00  0.1560E+03  0.1560E+03
    -37.383  0.0000E+00  0.0000E+00  0.1560E+03  0.1560E+03
    -37.143  0.0000E+00  0.0000E+00  0.1560E+03  0.1560E+03
    -36.904  0.0000E+00  0.0000E+00  0.1560E+03  0.1560E+03
    -36.664  0.0000E+00  0.0000E+00  0.1560E+03  0.1560E+03
    -36.425  0.0000E+00  0.0000E+00  0.1560E+03  0.1560E+03
    -36.185  0.0000E+00  0.0000E+00  0.1560E+03  0.1560E+03
    -35.946  0.0000E+00  0.0000E+00  0.1560E+03  0.1560E+03
    -35.706  0.0000E+00  0.0000E+00  0.1560E+03  0.1560E+03
    -35.466  0.0000E+00  0.0000E+00  0.1560E+03  0.1560E+03
    -35.227  0.0000E+00  0.0000E+00  0.1560E+03  0.1560E+03
    -34.987  0.0000E+00  0.0000E+00  0.1560E+03  0.1560E+03
    -34.748  0.0000E+00  0.0000E+00  0.1560E+03  0.1560E+03
    -34.508  0.0000E+00  0.0000E+00  0.1560E+03  0.1560E+03
    -34.269  0.0000E+00  0.0000E+00  0.1560E+03  0.1560E+03
    -34.029  0.0000E+00  0.0000E+00  0.1560E+03  0.1560E+03
    -33.790  0.0000E+00  0.0000E+00  0.1560E+03  0.1560E+03
    -33.550  0.0000E+00  0.0000E+00  0.1560E+03  0.1560E+03
    -33.311  0.0000E+00  0.0000E+00  0.1560E+03  0.1560E+03
    -33.071  0.0000E+00  0.0000E+00  0.1560E+03  0.1560E+03
    -32.831  0.0000E+00  0.0000E+00  0.1560E+03  0.1560E+03
    -32.592  0.0000E+00  0.0000E+00  0.1560E+03  0.1560E+03
    -32.352  0.0000E+00  0.0000E+00  0.1560E+03  0.1560E+03
    -32.113  0.0000E+00  0.0000E+00  0.1560E+03  0.1560E+03
    -31.873  0.0000E+00  0.0000E+00  0.1560E+03  0.1560E+03
    -31.634  0.0000E+00  0.0000E+00  0.1560E+03  0.1560E+03
    -31.394  0.0000E+00  0.0000E+00  0.1560E+03  0.1560E+03
    -31.155  0.0000E+00  0.0000E+00  0.1560E+03  0.1560E+03
    -30.915  0.0000E+00  0.0000E+00  0.1560E+03  0.1560E+03
    -30.675  0.0000E+00  0.0000E+00  0.1560E+03  0.1560E+03
    -30.436  0.0000E+00  0.0000E+00  0.1560E+03  0.1560E+03
    -30.196  0.0000E+00  0.0000E+00  0.1560E+03  0.1560E+03
    -29.957  0.0000E+00  0.0000E+00  0.1560E+03  0.1560E+03
    -29.717  0.0000E+00  0.0000E+00  0.1560E+03  0.1560E+03
    -29.478  0.0000E+00  0.0000E+00  0.1560E+03  0.1560E+03
    -29.238  0.0000E+00  0.0000E+00  0.1560E+03  0.1560E+03
    -28.999  0.0000E+00  0.0000E+00  0.1560E+03  0.1560E+03
    -28.759  0.0000E+00  0.0000E+00  0.1560E+03  0.1560E+03
    -28.519  0.0000E+00  0.0000E+00  0.1560E+03  0.1560E+03
    -28.280  0.0000E+00  0.0000E+00  0.1560E+03  0.1560E+03
    -28.040  0.0000E+00  0.0000E+00  0.1560E+03  0.1560E+03
    -27.801  0.0000E+00  0.0000E+00  0.1560E+03  0.1560E+03
    -27.561  0.0000E+00  0.0000E+00  0.1560E+03  0.1560E+03
    -27.322  0.0000E+00  0.0000E+00  0.1560E+03  0.1560E+03
    -27.082  0.0000E+00  0.0000E+00  0.1560E+03  0.1560E+03
    -26.843  0.0000E+00  0.0000E+00  0.1560E+03  0.1560E+03
    -26.603  0.0000E+00  0.0000E+00  0.1560E+03  0.1560E+03
    -26.364  0.0000E+00  0.0000E+00  0.1560E+03  0.1560E+03
    -26.124  0.0000E+00  0.0000E+00  0.1560E+03  0.1560E+03
    -25.884  0.0000E+00  0.0000E+00  0.1560E+03  0.1560E+03
    -25.645  0.0000E+00  0.0000E+00  0.1560E+03  0.1560E+03
    -25.405  0.0000E+00  0.0000E+00  0.1560E+03  0.1560E+03
    -25.166  0.0000E+00  0.0000E+00  0.1560E+03  0.1560E+03
    -24.926  0.0000E+00  0.0000E+00  0.1560E+03  0.1560E+03
    -24.687  0.0000E+00  0.0000E+00  0.1560E+03  0.1560E+03
    -24.447  0.0000E+00  0.0000E+00  0.1560E+03  0.1560E+03
    -24.208  0.0000E+00  0.0000E+00  0.1560E+03  0.1560E+03
    -23.968  0.0000E+00  0.0000E+00  0.1560E+03  0.1560E+03
    -23.728  0.0000E+00  0.0000E+00  0.1560E+03  0.1560E+03
    -23.489  0.0000E+00  0.0000E+00  0.1560E+03  0.1560E+03
    -23.249  0.0000E+00  0.0000E+00  0.1560E+03  0.1560E+03
    -23.010  0.0000E+00  0.0000E+00  0.1560E+03  0.1560E+03
    -22.770  0.0000E+00  0.0000E+00  0.1560E+03  0.1560E+03
    -22.531  0.0000E+00  0.0000E+00  0.1560E+03  0.1560E+03
    -22.291  0.0000E+00  0.0000E+00  0.1560E+03  0.1560E+03
    -22.052  0.0000E+00  0.0000E+00  0.1560E+03  0.1560E+03
    -21.812  0.0000E+00  0.0000E+00  0.1560E+03  0.1560E+03
    -21.572  0.0000E+00  0.0000E+00  0.1560E+03  0.1560E+03
    -21.333  0.0000E+00  0.0000E+00  0.1560E+03  0.1560E+03
    -21.093  0.0000E+00  0.0000E+00  0.1560E+03  0.1560E+03
    -20.854  0.0000E+00  0.0000E+00  0.1560E+03  0.1560E+03
    -20.614  0.0000E+00  0.0000E+00  0.1560E+03  0.1560E+03
    -20.375  0.0000E+00  0.0000E+00  0.1560E+03  0.1560E+03
    -20.135  0.0000E+00  0.0000E+00  0.1560E+03  0.1560E+03
    -19.896  0.0000E+00  0.0000E+00  0.1560E+03  0.1560E+03
    -19.656  0.0000E+00  0.0000E+00  0.1560E+03  0.1560E+03
    -19.417  0.0000E+00  0.0000E+00  0.1560E+03  0.1560E+03
    -19.177  0.0000E+00  0.0000E+00  0.1560E+03  0.1560E+03
    -18.937  0.0000E+00  0.0000E+00  0.1560E+03  0.1560E+03
    -18.698  0.0000E+00  0.0000E+00  0.1560E+03  0.1560E+03
    -18.458  0.0000E+00  0.0000E+00  0.1560E+03  0.1560E+03
    -18.219  0.0000E+00  0.0000E+00  0.1560E+03  0.1560E+03
    -17.979  0.0000E+00  0.0000E+00  0.1560E+03  0.1560E+03
    -17.740  0.0000E+00  0.0000E+00  0.1560E+03  0.1560E+03
    -17.500  0.0000E+00  0.0000E+00  0.1560E+03  0.1560E+03
    -17.261  0.0000E+00  0.0000E+00  0.1560E+03  0.1560E+03
    -17.021  0.0000E+00  0.0000E+00  0.1560E+03  0.1560E+03
    -16.781  0.0000E+00  0.0000E+00  0.1560E+03  0.1560E+03
    -16.542  0.0000E+00  0.0000E+00  0.1560E+03  0.1560E+03
    -16.302  0.0000E+00  0.0000E+00  0.1560E+03  0.1560E+03
    -16.063  0.0000E+00  0.0000E+00  0.1560E+03  0.1560E+03
    -15.823  0.0000E+00  0.0000E+00  0.1560E+03  0.1560E+03
    -15.584  0.0000E+00  0.0000E+00  0.1560E+03  0.1560E+03
    -15.344  0.0000E+00  0.0000E+00  0.1560E+03  0.1560E+03
    -15.105  0.0000E+00  0.0000E+00  0.1560E+03  0.1560E+03
    -14.865  0.0000E+00  0.0000E+00  0.1560E+03  0.1560E+03
    -14.626  0.0000E+00  0.0000E+00  0.1560E+03  0.1560E+03
    -14.386  0.0000E+00  0.0000E+00  0.1560E+03  0.1560E+03
    -14.146  0.0000E+00  0.0000E+00  0.1560E+03  0.1560E+03
    -13.907  0.5427E-03  0.0000E+00  0.1560E+03  0.1560E+03
    -13.667  0.2115E+02  0.1048E-13  0.1611E+03  0.1560E+03
    -13.428  0.2864E+02  0.1236E+01  0.1679E+03  0.1563E+03
    -13.188  0.7921E+01  0.4390E+02  0.1698E+03  0.1668E+03
    -12.949  0.3158E+02  0.5436E+01  0.1774E+03  0.1681E+03
    -12.709  0.1090E+02  0.4102E+02  0.1800E+03  0.1779E+03
    -12.470  0.0000E+00  0.8586E+01  0.1800E+03  0.1800E+03
    -12.230  0.0000E+00  0.0000E+00  0.1800E+03  0.1800E+03
    -11.990  0.0000E+00  0.0000E+00  0.1800E+03  0.1800E+03
    -11.751  0.0000E+00  0.0000E+00  0.1800E+03  0.1800E+03
    -11.511  0.0000E+00  0.0000E+00  0.1800E+03  0.1800E+03
    -11.272  0.0000E+00  0.0000E+00  0.1800E+03  0.1800E+03
    -11.032  0.0000E+00  0.0000E+00  0.1800E+03  0.1800E+03
    -10.793  0.0000E+00  0.0000E+00  0.1800E+03  0.1800E+03
    -10.553  0.0000E+00  0.0000E+00  0.1800E+03  0.1800E+03
    -10.314  0.0000E+00  0.0000E+00  0.1800E+03  0.1800E+03
    -10.074  0.0000E+00  0.0000E+00  0.1800E+03  0.1800E+03
     -9.834  0.0000E+00  0.0000E+00  0.1800E+03  0.1800E+03
     -9.595  0.0000E+00  0.0000E+00  0.1800E+03  0.1800E+03
     -9.355  0.0000E+00  0.0000E+00  0.1800E+03  0.1800E+03
     -9.116  0.0000E+00  0.0000E+00  0.1800E+03  0.1800E+03
     -8.876  0.0000E+00  0.0000E+00  0.1800E+03  0.1800E+03
     -8.637  0.0000E+00  0.0000E+00  0.1800E+03  0.1800E+03
     -8.397  0.0000E+00  0.0000E+00  0.1800E+03  0.1800E+03
     -8.158  0.0000E+00  0.0000E+00  0.1800E+03  0.1800E+03
     -7.918  0.1041E-02  0.0000E+00  0.1800E+03  0.1800E+03
     -7.679  0.8764E+01  0.8749E-02  0.1821E+03  0.1800E+03
     -7.439  0.2250E+02  0.1132E+02  0.1875E+03  0.1827E+03
     -7.199  0.5412E+02  0.2745E+02  0.2005E+03  0.1893E+03
     -6.960  0.6010E+02  0.5884E+02  0.2149E+03  0.2034E+03
     -6.720  0.4800E+01  0.4865E+02  0.2160E+03  0.2150E+03
     -6.481  0.0000E+00  0.4008E+01  0.2160E+03  0.2160E+03
     -6.241  0.0000E+00  0.0000E+00  0.2160E+03  0.2160E+03
     -6.002  0.0000E+00  0.0000E+00  0.2160E+03  0.2160E+03
     -5.762  0.0000E+00  0.0000E+00  0.2160E+03  0.2160E+03
     -5.523  0.0000E+00  0.0000E+00  0.2160E+03  0.2160E+03
     -5.283  0.0000E+00  0.0000E+00  0.2160E+03  0.2160E+03
     -5.043  0.0000E+00  0.0000E+00  0.2160E+03  0.2160E+03
     -4.804  0.0000E+00  0.0000E+00  0.2160E+03  0.2160E+03
     -4.564  0.0000E+00  0.0000E+00  0.2160E+03  0.2160E+03
     -4.325  0.0000E+00  0.0000E+00  0.2160E+03  0.2160E+03
     -4.085  0.0000E+00  0.0000E+00  0.2160E+03  0.2160E+03
     -3.846  0.0000E+00  0.0000E+00  0.2160E+03  0.2160E+03
     -3.606  0.0000E+00  0.0000E+00  0.2160E+03  0.2160E+03
     -3.367  0.0000E+00  0.0000E+00  0.2160E+03  0.2160E+03
     -3.127  0.0000E+00  0.0000E+00  0.2160E+03  0.2160E+03
     -2.888  0.1854E-14  0.0000E+00  0.2160E+03  0.2160E+03
     -2.648  0.5045E+00  0.0000E+00  0.2161E+03  0.2160E+03
     -2.408  0.1063E+02  0.0000E+00  0.2187E+03  0.2160E+03
     -2.169  0.1968E+02  0.0000E+00  0.2234E+03  0.2160E+03
     -1.929  0.2618E+01  0.0000E+00  0.2240E+03  0.2160E+03
     -1.690  0.3353E+02  0.0000E+00  0.2320E+03  0.2160E+03
     -1.450  0.1868E+02  0.5150E-16  0.2365E+03  0.2160E+03
     -1.211  0.4468E+02  0.4982E-01  0.2472E+03  0.2160E+03
     -0.971  0.4852E+02  0.4328E+01  0.2588E+03  0.2170E+03
     -0.732  0.7424E+02  0.1366E+02  0.2766E+03  0.2203E+03
     -0.492  0.1020E+03  0.1505E+02  0.3011E+03  0.2239E+03
     -0.252  0.8558E+02  0.1877E+02  0.3216E+03  0.2284E+03
     -0.013  0.1104E+03  0.4143E+02  0.3480E+03  0.2383E+03
      0.227  0.7194E+02  0.3403E+02  0.3652E+03  0.2465E+03
      0.466  0.3924E+02  0.4133E+02  0.3746E+03  0.2564E+03
      0.706  0.4563E+02  0.3444E+02  0.3856E+03  0.2647E+03
      0.945  0.4865E+02  0.5166E+02  0.3972E+03  0.2770E+03
      1.185  0.5483E+02  0.6118E+02  0.4103E+03  0.2917E+03
      1.424  0.6331E+02  0.4436E+02  0.4255E+03  0.3023E+03
      1.664  0.1006E+03  0.4074E+02  0.4496E+03  0.3121E+03
      1.904  0.5513E+02  0.3813E+02  0.4628E+03  0.3212E+03
      2.143  0.3784E+02  0.3763E+02  0.4719E+03  0.3302E+03
      2.383  0.4664E+02  0.3803E+02  0.4830E+03  0.3393E+03
      2.622  0.4770E+02  0.4815E+02  0.4945E+03  0.3509E+03
      2.862  0.4388E+02  0.6346E+02  0.5050E+03  0.3661E+03
      3.101  0.4034E+02  0.5878E+02  0.5146E+03  0.3801E+03
      3.341  0.4625E+02  0.4920E+02  0.5257E+03  0.3919E+03
      3.580  0.5289E+02  0.2873E+02  0.5384E+03  0.3988E+03
      3.820  0.4613E+02  0.5995E+02  0.5494E+03  0.4132E+03
      4.059  0.3175E+02  0.7682E+02  0.5571E+03  0.4316E+03
      4.299  0.4281E+02  0.1748E+01  0.5673E+03  0.4320E+03
      4.539  0.2430E+02  0.0000E+00  0.5731E+03  0.4320E+03
      4.778  0.1080E+02  0.0000E+00  0.5757E+03  0.4320E+03
      5.018  0.1193E+01  0.0000E+00  0.5760E+03  0.4320E+03
      5.257  0.0000E+00  0.0000E+00  0.5760E+03  0.4320E+03
      5.497  0.0000E+00  0.0000E+00  0.5760E+03  0.4320E+03
      5.736  0.0000E+00  0.0000E+00  0.5760E+03  0.4320E+03
      5.976  0.0000E+00  0.5472E-12  0.5760E+03  0.4320E+03
      6.215  0.0000E+00  0.1076E+00  0.5760E+03  0.4320E+03
      6.455  0.0000E+00  0.7571E+01  0.5760E+03  0.4338E+03
      6.695  0.0000E+00  0.2935E+02  0.5760E+03  0.4409E+03
      6.934  0.7149E-13  0.4217E+02  0.5760E+03  0.4510E+03
      7.174  0.7811E-01  0.7173E+02  0.5760E+03  0.4682E+03
      7.413  0.1564E+00  0.8146E+02  0.5761E+03  0.4877E+03
      7.653  0.7883E+00  0.6532E+02  0.5762E+03  0.5033E+03
      7.892  0.3378E+01  0.8795E+02  0.5771E+03  0.5244E+03
      8.132  0.4289E+01  0.7218E+02  0.5781E+03  0.5417E+03
      8.371  0.6754E+01  0.5524E+02  0.5797E+03  0.5549E+03
      8.611  0.1577E+02  0.3706E+02  0.5835E+03  0.5638E+03
      8.851  0.2555E+02  0.4021E+02  0.5896E+03  0.5734E+03
      9.090  0.1935E+02  0.2005E+02  0.5942E+03  0.5782E+03
      9.330  0.2464E+02  0.1325E+02  0.6001E+03  0.5814E+03
      9.569  0.3083E+02  0.2053E+02  0.6075E+03  0.5863E+03
      9.809  0.2703E+02  0.2970E+02  0.6140E+03  0.5934E+03
     10.048  0.2996E+02  0.2652E+02  0.6212E+03  0.5998E+03
     10.288  0.2281E+02  0.3381E+02  0.6266E+03  0.6079E+03
     10.527  0.2046E+02  0.3644E+02  0.6315E+03  0.6166E+03
     10.767  0.2771E+02  0.2763E+02  0.6382E+03  0.6232E+03
     11.006  0.3907E+02  0.2314E+02  0.6475E+03  0.6288E+03
     11.246  0.3924E+02  0.2104E+02  0.6569E+03  0.6338E+03
     11.486  0.3764E+02  0.3205E+02  0.6660E+03  0.6415E+03
     11.725  0.4416E+02  0.3892E+02  0.6765E+03  0.6508E+03
     11.965  0.3906E+02  0.4209E+02  0.6859E+03  0.6609E+03
     12.204  0.3820E+02  0.5153E+02  0.6950E+03  0.6732E+03
     12.444  0.3964E+02  0.4742E+02  0.7045E+03  0.6846E+03
     12.683  0.3708E+02  0.3610E+02  0.7134E+03  0.6932E+03
     12.923  0.3448E+02  0.4104E+02  0.7217E+03  0.7031E+03
     13.162  0.2400E+02  0.4041E+02  0.7274E+03  0.7128E+03
     13.402  0.2384E+01  0.3377E+02  0.7280E+03  0.7208E+03
     13.642  0.0000E+00  0.2494E+02  0.7280E+03  0.7268E+03
     13.881  0.0000E+00  0.4909E+01  0.7280E+03  0.7280E+03
     14.121  0.0000E+00  0.3757E-05  0.7280E+03  0.7280E+03
     14.360  0.0000E+00  0.0000E+00  0.7280E+03  0.7280E+03
     14.600  0.0000E+00  0.0000E+00  0.7280E+03  0.7280E+03
     14.839  0.0000E+00  0.0000E+00  0.7280E+03  0.7280E+03
     15.079  0.0000E+00  0.0000E+00  0.7280E+03  0.7280E+03
     15.318  0.0000E+00  0.0000E+00  0.7280E+03  0.7280E+03
     15.558  0.0000E+00  0.0000E+00  0.7280E+03  0.7280E+03
     15.797  0.0000E+00  0.0000E+00  0.7280E+03  0.7280E+03
     16.037  0.0000E+00  0.0000E+00  0.7280E+03  0.7280E+03
     16.277  0.0000E+00  0.0000E+00  0.7280E+03  0.7280E+03
     16.516  0.0000E+00  0.0000E+00  0.7280E+03  0.7280E+03
     16.756  0.0000E+00  0.0000E+00  0.7280E+03  0.7280E+03
     16.995  0.0000E+00  0.0000E+00  0.7280E+03  0.7280E+03
