 224 224   0   0
  0.1357572E+02  0.1537960E-08  0.1537962E-08  0.1395899E-08  0.5000000E-15
  1.000000000000000E-004
  CAR 
 unknown system                          
     17.69859304    -54.42127560  301      5.25791570      1.00000000
    -54.421  0.0000E+00  0.0000E+00  0.0000E+00  0.0000E+00
    -54.181  0.0000E+00  0.0000E+00  0.0000E+00  0.0000E+00
    -53.940  0.0000E+00  0.0000E+00  0.0000E+00  0.0000E+00
    -53.700  0.0000E+00  0.0000E+00  0.0000E+00  0.0000E+00
    -53.460  0.0000E+00  0.0000E+00  0.0000E+00  0.0000E+00
    -53.219  0.0000E+00  0.0000E+00  0.0000E+00  0.0000E+00
    -52.979  0.0000E+00  0.0000E+00  0.0000E+00  0.0000E+00
    -52.738  0.0000E+00  0.0000E+00  0.0000E+00  0.0000E+00
    -52.498  0.0000E+00  0.0000E+00  0.0000E+00  0.0000E+00
    -52.258  0.0000E+00  0.0000E+00  0.0000E+00  0.0000E+00
    -52.017  0.0000E+00  0.0000E+00  0.0000E+00  0.0000E+00
    -51.777  0.0000E+00  0.0000E+00  0.0000E+00  0.0000E+00
    -51.536  0.0000E+00  0.0000E+00  0.0000E+00  0.0000E+00
    -51.296  0.1415E-02  0.0000E+00  0.3402E-03  0.0000E+00
    -51.056  0.2640E+03  0.0000E+00  0.6347E+02  0.0000E+00
    -50.815  0.2221E+01  0.0000E+00  0.6400E+02  0.0000E+00
    -50.575  0.0000E+00  0.0000E+00  0.6400E+02  0.0000E+00
    -50.334  0.0000E+00  0.0000E+00  0.6400E+02  0.0000E+00
    -50.094  0.0000E+00  0.0000E+00  0.6400E+02  0.0000E+00
    -49.854  0.1089E-05  0.0000E+00  0.6400E+02  0.0000E+00
    -49.613  0.4364E+03  0.0000E+00  0.1689E+03  0.0000E+00
    -49.373  0.9602E+02  0.0000E+00  0.1920E+03  0.0000E+00
    -49.132  0.0000E+00  0.0000E+00  0.1920E+03  0.0000E+00
    -48.892  0.0000E+00  0.0000E+00  0.1920E+03  0.0000E+00
    -48.652  0.0000E+00  0.0000E+00  0.1920E+03  0.0000E+00
    -48.411  0.0000E+00  0.0000E+00  0.1920E+03  0.0000E+00
    -48.171  0.0000E+00  0.0000E+00  0.1920E+03  0.0000E+00
    -47.930  0.0000E+00  0.0000E+00  0.1920E+03  0.0000E+00
    -47.690  0.0000E+00  0.0000E+00  0.1920E+03  0.0000E+00
    -47.450  0.0000E+00  0.0000E+00  0.1920E+03  0.0000E+00
    -47.209  0.0000E+00  0.0000E+00  0.1920E+03  0.0000E+00
    -46.969  0.0000E+00  0.0000E+00  0.1920E+03  0.0000E+00
    -46.728  0.0000E+00  0.0000E+00  0.1920E+03  0.0000E+00
    -46.488  0.0000E+00  0.6913E+00  0.1920E+03  0.1662E+00
    -46.248  0.0000E+00  0.2655E+03  0.1920E+03  0.6400E+02
    -46.007  0.0000E+00  0.6290E+01  0.1920E+03  0.6551E+02
    -45.767  0.0000E+00  0.5262E+03  0.1920E+03  0.1920E+03
    -45.526  0.0000E+00  0.5497E-03  0.1920E+03  0.1920E+03
    -45.286  0.0000E+00  0.0000E+00  0.1920E+03  0.1920E+03
    -45.046  0.0000E+00  0.0000E+00  0.1920E+03  0.1920E+03
    -44.805  0.0000E+00  0.0000E+00  0.1920E+03  0.1920E+03
    -44.565  0.0000E+00  0.0000E+00  0.1920E+03  0.1920E+03
    -44.324  0.0000E+00  0.0000E+00  0.1920E+03  0.1920E+03
    -44.084  0.0000E+00  0.0000E+00  0.1920E+03  0.1920E+03
    -43.844  0.0000E+00  0.0000E+00  0.1920E+03  0.1920E+03
    -43.603  0.0000E+00  0.0000E+00  0.1920E+03  0.1920E+03
    -43.363  0.0000E+00  0.0000E+00  0.1920E+03  0.1920E+03
    -43.122  0.0000E+00  0.0000E+00  0.1920E+03  0.1920E+03
    -42.882  0.0000E+00  0.0000E+00  0.1920E+03  0.1920E+03
    -42.642  0.0000E+00  0.0000E+00  0.1920E+03  0.1920E+03
    -42.401  0.0000E+00  0.0000E+00  0.1920E+03  0.1920E+03
    -42.161  0.0000E+00  0.0000E+00  0.1920E+03  0.1920E+03
    -41.920  0.0000E+00  0.0000E+00  0.1920E+03  0.1920E+03
    -41.680  0.0000E+00  0.0000E+00  0.1920E+03  0.1920E+03
    -41.440  0.0000E+00  0.0000E+00  0.1920E+03  0.1920E+03
    -41.199  0.0000E+00  0.0000E+00  0.1920E+03  0.1920E+03
    -40.959  0.0000E+00  0.0000E+00  0.1920E+03  0.1920E+03
    -40.719  0.0000E+00  0.0000E+00  0.1920E+03  0.1920E+03
    -40.478  0.0000E+00  0.0000E+00  0.1920E+03  0.1920E+03
    -40.238  0.0000E+00  0.0000E+00  0.1920E+03  0.1920E+03
    -39.997  0.0000E+00  0.0000E+00  0.1920E+03  0.1920E+03
    -39.757  0.2060E-01  0.1878E-01  0.1920E+03  0.1920E+03
    -39.517  0.2652E+03  0.2651E+03  0.2558E+03  0.2557E+03
    -39.276  0.1014E+01  0.1076E+01  0.2560E+03  0.2560E+03
    -39.036  0.0000E+00  0.0000E+00  0.2560E+03  0.2560E+03
    -38.795  0.0000E+00  0.0000E+00  0.2560E+03  0.2560E+03
    -38.555  0.0000E+00  0.0000E+00  0.2560E+03  0.2560E+03
    -38.315  0.0000E+00  0.0000E+00  0.2560E+03  0.2560E+03
    -38.074  0.0000E+00  0.0000E+00  0.2560E+03  0.2560E+03
    -37.834  0.0000E+00  0.0000E+00  0.2560E+03  0.2560E+03
    -37.593  0.0000E+00  0.0000E+00  0.2560E+03  0.2560E+03
    -37.353  0.0000E+00  0.0000E+00  0.2560E+03  0.2560E+03
    -37.113  0.0000E+00  0.0000E+00  0.2560E+03  0.2560E+03
    -36.872  0.0000E+00  0.0000E+00  0.2560E+03  0.2560E+03
    -36.632  0.0000E+00  0.0000E+00  0.2560E+03  0.2560E+03
    -36.391  0.0000E+00  0.0000E+00  0.2560E+03  0.2560E+03
    -36.151  0.0000E+00  0.0000E+00  0.2560E+03  0.2560E+03
    -35.911  0.0000E+00  0.0000E+00  0.2560E+03  0.2560E+03
    -35.670  0.0000E+00  0.0000E+00  0.2560E+03  0.2560E+03
    -35.430  0.0000E+00  0.0000E+00  0.2560E+03  0.2560E+03
    -35.189  0.0000E+00  0.0000E+00  0.2560E+03  0.2560E+03
    -34.949  0.0000E+00  0.0000E+00  0.2560E+03  0.2560E+03
    -34.709  0.0000E+00  0.0000E+00  0.2560E+03  0.2560E+03
    -34.468  0.0000E+00  0.0000E+00  0.2560E+03  0.2560E+03
    -34.228  0.0000E+00  0.0000E+00  0.2560E+03  0.2560E+03
    -33.987  0.0000E+00  0.0000E+00  0.2560E+03  0.2560E+03
    -33.747  0.0000E+00  0.0000E+00  0.2560E+03  0.2560E+03
    -33.507  0.0000E+00  0.0000E+00  0.2560E+03  0.2560E+03
    -33.266  0.0000E+00  0.0000E+00  0.2560E+03  0.2560E+03
    -33.026  0.0000E+00  0.0000E+00  0.2560E+03  0.2560E+03
    -32.785  0.0000E+00  0.0000E+00  0.2560E+03  0.2560E+03
    -32.545  0.0000E+00  0.0000E+00  0.2560E+03  0.2560E+03
    -32.305  0.0000E+00  0.0000E+00  0.2560E+03  0.2560E+03
    -32.064  0.0000E+00  0.0000E+00  0.2560E+03  0.2560E+03
    -31.824  0.0000E+00  0.0000E+00  0.2560E+03  0.2560E+03
    -31.583  0.0000E+00  0.0000E+00  0.2560E+03  0.2560E+03
    -31.343  0.0000E+00  0.0000E+00  0.2560E+03  0.2560E+03
    -31.103  0.0000E+00  0.0000E+00  0.2560E+03  0.2560E+03
    -30.862  0.0000E+00  0.0000E+00  0.2560E+03  0.2560E+03
    -30.622  0.0000E+00  0.0000E+00  0.2560E+03  0.2560E+03
    -30.381  0.0000E+00  0.0000E+00  0.2560E+03  0.2560E+03
    -30.141  0.0000E+00  0.0000E+00  0.2560E+03  0.2560E+03
    -29.901  0.0000E+00  0.0000E+00  0.2560E+03  0.2560E+03
    -29.660  0.0000E+00  0.0000E+00  0.2560E+03  0.2560E+03
    -29.420  0.0000E+00  0.0000E+00  0.2560E+03  0.2560E+03
    -29.179  0.0000E+00  0.0000E+00  0.2560E+03  0.2560E+03
    -28.939  0.0000E+00  0.0000E+00  0.2560E+03  0.2560E+03
    -28.699  0.0000E+00  0.0000E+00  0.2560E+03  0.2560E+03
    -28.458  0.0000E+00  0.0000E+00  0.2560E+03  0.2560E+03
    -28.218  0.0000E+00  0.0000E+00  0.2560E+03  0.2560E+03
    -27.977  0.0000E+00  0.0000E+00  0.2560E+03  0.2560E+03
    -27.737  0.0000E+00  0.0000E+00  0.2560E+03  0.2560E+03
    -27.497  0.0000E+00  0.0000E+00  0.2560E+03  0.2560E+03
    -27.256  0.0000E+00  0.0000E+00  0.2560E+03  0.2560E+03
    -27.016  0.0000E+00  0.0000E+00  0.2560E+03  0.2560E+03
    -26.775  0.0000E+00  0.0000E+00  0.2560E+03  0.2560E+03
    -26.535  0.0000E+00  0.0000E+00  0.2560E+03  0.2560E+03
    -26.295  0.0000E+00  0.0000E+00  0.2560E+03  0.2560E+03
    -26.054  0.0000E+00  0.0000E+00  0.2560E+03  0.2560E+03
    -25.814  0.0000E+00  0.0000E+00  0.2560E+03  0.2560E+03
    -25.573  0.0000E+00  0.0000E+00  0.2560E+03  0.2560E+03
    -25.333  0.0000E+00  0.0000E+00  0.2560E+03  0.2560E+03
    -25.093  0.0000E+00  0.0000E+00  0.2560E+03  0.2560E+03
    -24.852  0.0000E+00  0.0000E+00  0.2560E+03  0.2560E+03
    -24.612  0.0000E+00  0.0000E+00  0.2560E+03  0.2560E+03
    -24.371  0.0000E+00  0.0000E+00  0.2560E+03  0.2560E+03
    -24.131  0.0000E+00  0.0000E+00  0.2560E+03  0.2560E+03
    -23.891  0.0000E+00  0.0000E+00  0.2560E+03  0.2560E+03
    -23.650  0.0000E+00  0.0000E+00  0.2560E+03  0.2560E+03
    -23.410  0.0000E+00  0.0000E+00  0.2560E+03  0.2560E+03
    -23.169  0.0000E+00  0.0000E+00  0.2560E+03  0.2560E+03
    -22.929  0.0000E+00  0.0000E+00  0.2560E+03  0.2560E+03
    -22.689  0.0000E+00  0.0000E+00  0.2560E+03  0.2560E+03
    -22.448  0.0000E+00  0.0000E+00  0.2560E+03  0.2560E+03
    -22.208  0.0000E+00  0.0000E+00  0.2560E+03  0.2560E+03
    -21.967  0.0000E+00  0.0000E+00  0.2560E+03  0.2560E+03
    -21.727  0.0000E+00  0.0000E+00  0.2560E+03  0.2560E+03
    -21.487  0.0000E+00  0.0000E+00  0.2560E+03  0.2560E+03
    -21.246  0.0000E+00  0.0000E+00  0.2560E+03  0.2560E+03
    -21.006  0.0000E+00  0.0000E+00  0.2560E+03  0.2560E+03
    -20.765  0.0000E+00  0.0000E+00  0.2560E+03  0.2560E+03
    -20.525  0.0000E+00  0.0000E+00  0.2560E+03  0.2560E+03
    -20.285  0.0000E+00  0.0000E+00  0.2560E+03  0.2560E+03
    -20.044  0.0000E+00  0.0000E+00  0.2560E+03  0.2560E+03
    -19.804  0.0000E+00  0.0000E+00  0.2560E+03  0.2560E+03
    -19.563  0.0000E+00  0.0000E+00  0.2560E+03  0.2560E+03
    -19.323  0.0000E+00  0.0000E+00  0.2560E+03  0.2560E+03
    -19.083  0.0000E+00  0.0000E+00  0.2560E+03  0.2560E+03
    -18.842  0.0000E+00  0.0000E+00  0.2560E+03  0.2560E+03
    -18.602  0.0000E+00  0.0000E+00  0.2560E+03  0.2560E+03
    -18.361  0.0000E+00  0.0000E+00  0.2560E+03  0.2560E+03
    -18.121  0.0000E+00  0.0000E+00  0.2560E+03  0.2560E+03
    -17.881  0.0000E+00  0.0000E+00  0.2560E+03  0.2560E+03
    -17.640  0.0000E+00  0.0000E+00  0.2560E+03  0.2560E+03
    -17.400  0.0000E+00  0.0000E+00  0.2560E+03  0.2560E+03
    -17.159  0.0000E+00  0.0000E+00  0.2560E+03  0.2560E+03
    -16.919  0.0000E+00  0.0000E+00  0.2560E+03  0.2560E+03
    -16.679  0.0000E+00  0.0000E+00  0.2560E+03  0.2560E+03
    -16.438  0.0000E+00  0.0000E+00  0.2560E+03  0.2560E+03
    -16.198  0.0000E+00  0.0000E+00  0.2560E+03  0.2560E+03
    -15.957  0.0000E+00  0.0000E+00  0.2560E+03  0.2560E+03
    -15.717  0.0000E+00  0.0000E+00  0.2560E+03  0.2560E+03
    -15.477  0.0000E+00  0.0000E+00  0.2560E+03  0.2560E+03
    -15.236  0.0000E+00  0.0000E+00  0.2560E+03  0.2560E+03
    -14.996  0.0000E+00  0.0000E+00  0.2560E+03  0.2560E+03
    -14.755  0.0000E+00  0.0000E+00  0.2560E+03  0.2560E+03
    -14.515  0.0000E+00  0.0000E+00  0.2560E+03  0.2560E+03
    -14.275  0.0000E+00  0.0000E+00  0.2560E+03  0.2560E+03
    -14.034  0.0000E+00  0.0000E+00  0.2560E+03  0.2560E+03
    -13.794  0.0000E+00  0.0000E+00  0.2560E+03  0.2560E+03
    -13.553  0.0000E+00  0.0000E+00  0.2560E+03  0.2560E+03
    -13.313  0.0000E+00  0.0000E+00  0.2560E+03  0.2560E+03
    -13.073  0.0000E+00  0.0000E+00  0.2560E+03  0.2560E+03
    -12.832  0.8374E-01  0.0000E+00  0.2560E+03  0.2560E+03
    -12.592  0.1321E+03  0.1673E-02  0.2878E+03  0.2560E+03
    -12.351  0.9761E+00  0.1240E+03  0.2880E+03  0.2858E+03
    -12.111  0.0000E+00  0.9065E+01  0.2880E+03  0.2880E+03
    -11.871  0.0000E+00  0.0000E+00  0.2880E+03  0.2880E+03
    -11.630  0.0000E+00  0.0000E+00  0.2880E+03  0.2880E+03
    -11.390  0.0000E+00  0.0000E+00  0.2880E+03  0.2880E+03
    -11.149  0.0000E+00  0.0000E+00  0.2880E+03  0.2880E+03
    -10.909  0.0000E+00  0.0000E+00  0.2880E+03  0.2880E+03
    -10.669  0.0000E+00  0.0000E+00  0.2880E+03  0.2880E+03
    -10.428  0.0000E+00  0.0000E+00  0.2880E+03  0.2880E+03
    -10.188  0.0000E+00  0.0000E+00  0.2880E+03  0.2880E+03
     -9.947  0.0000E+00  0.0000E+00  0.2880E+03  0.2880E+03
     -9.707  0.0000E+00  0.0000E+00  0.2880E+03  0.2880E+03
     -9.467  0.0000E+00  0.0000E+00  0.2880E+03  0.2880E+03
     -9.226  0.0000E+00  0.0000E+00  0.2880E+03  0.2880E+03
     -8.986  0.0000E+00  0.0000E+00  0.2880E+03  0.2880E+03
     -8.745  0.0000E+00  0.0000E+00  0.2880E+03  0.2880E+03
     -8.505  0.0000E+00  0.0000E+00  0.2880E+03  0.2880E+03
     -8.265  0.0000E+00  0.0000E+00  0.2880E+03  0.2880E+03
     -8.024  0.6089E-10  0.0000E+00  0.2880E+03  0.2880E+03
     -7.784  0.9598E+00  0.4735E-07  0.2882E+03  0.2880E+03
     -7.543  0.1882E+02  0.2923E+01  0.2928E+03  0.2887E+03
     -7.303  0.2824E+02  0.2243E+02  0.2995E+03  0.2941E+03
     -7.063  0.5403E+02  0.3110E+02  0.3125E+03  0.3016E+03
     -6.822  0.1469E+03  0.4892E+02  0.3479E+03  0.3133E+03
     -6.582  0.1726E+02  0.1390E+03  0.3520E+03  0.3467E+03
     -6.341  0.0000E+00  0.2186E+02  0.3520E+03  0.3520E+03
     -6.101  0.0000E+00  0.1008E-04  0.3520E+03  0.3520E+03
     -5.861  0.0000E+00  0.0000E+00  0.3520E+03  0.3520E+03
     -5.620  0.0000E+00  0.0000E+00  0.3520E+03  0.3520E+03
     -5.380  0.0000E+00  0.0000E+00  0.3520E+03  0.3520E+03
     -5.139  0.0000E+00  0.0000E+00  0.3520E+03  0.3520E+03
     -4.899  0.0000E+00  0.0000E+00  0.3520E+03  0.3520E+03
     -4.659  0.0000E+00  0.0000E+00  0.3520E+03  0.3520E+03
     -4.418  0.0000E+00  0.0000E+00  0.3520E+03  0.3520E+03
     -4.178  0.0000E+00  0.0000E+00  0.3520E+03  0.3520E+03
     -3.937  0.0000E+00  0.0000E+00  0.3520E+03  0.3520E+03
     -3.697  0.0000E+00  0.0000E+00  0.3520E+03  0.3520E+03
     -3.457  0.0000E+00  0.0000E+00  0.3520E+03  0.3520E+03
     -3.216  0.0000E+00  0.0000E+00  0.3520E+03  0.3520E+03
     -2.976  0.0000E+00  0.0000E+00  0.3520E+03  0.3520E+03
     -2.735  0.0000E+00  0.0000E+00  0.3520E+03  0.3520E+03
     -2.495  0.0000E+00  0.0000E+00  0.3520E+03  0.3520E+03
     -2.255  0.0000E+00  0.0000E+00  0.3520E+03  0.3520E+03
     -2.014  0.0000E+00  0.0000E+00  0.3520E+03  0.3520E+03
     -1.774  0.6143E-12  0.0000E+00  0.3520E+03  0.3520E+03
     -1.533  0.1306E+01  0.0000E+00  0.3523E+03  0.3520E+03
     -1.293  0.1004E+03  0.0000E+00  0.3765E+03  0.3520E+03
     -1.053  0.3136E+02  0.0000E+00  0.3840E+03  0.3520E+03
     -0.812  0.1261E+02  0.0000E+00  0.3870E+03  0.3520E+03
     -0.572  0.8985E+02  0.9008E-05  0.4086E+03  0.3520E+03
     -0.331  0.2245E+03  0.4145E+01  0.4626E+03  0.3530E+03
     -0.091  0.2014E+03  0.2462E+02  0.5110E+03  0.3589E+03
      0.149  0.1766E+03  0.4117E+02  0.5535E+03  0.3688E+03
      0.390  0.1516E+03  0.4248E+02  0.5899E+03  0.3790E+03
      0.630  0.1194E+03  0.7208E+02  0.6186E+03  0.3964E+03
      0.871  0.5422E+02  0.6024E+02  0.6316E+03  0.4108E+03
      1.111  0.7000E+02  0.6552E+02  0.6485E+03  0.4266E+03
      1.351  0.7323E+02  0.6777E+02  0.6661E+03  0.4429E+03
      1.592  0.6803E+02  0.7758E+02  0.6824E+03  0.4615E+03
      1.832  0.1111E+03  0.1112E+03  0.7091E+03  0.4883E+03
      2.073  0.2134E+03  0.6167E+02  0.7604E+03  0.5031E+03
      2.313  0.1397E+03  0.3800E+02  0.7940E+03  0.5122E+03
      2.553  0.8441E+02  0.7763E+02  0.8143E+03  0.5309E+03
      2.794  0.6858E+02  0.1040E+03  0.8308E+03  0.5559E+03
      3.034  0.3520E+02  0.7075E+02  0.8393E+03  0.5729E+03
      3.275  0.4054E+02  0.1315E+03  0.8490E+03  0.6045E+03
      3.515  0.5189E+02  0.1168E+03  0.8615E+03  0.6326E+03
      3.755  0.6737E+02  0.2512E+02  0.8777E+03  0.6386E+03
      3.996  0.8002E+02  0.4417E+02  0.8969E+03  0.6492E+03
      4.236  0.8001E+02  0.1787E+03  0.9161E+03  0.6922E+03
      4.477  0.7563E+02  0.4743E+02  0.9343E+03  0.7036E+03
      4.717  0.2867E+02  0.1634E+01  0.9412E+03  0.7040E+03
      4.957  0.6453E+02  0.0000E+00  0.9567E+03  0.7040E+03
      5.198  0.1357E+02  0.0000E+00  0.9600E+03  0.7040E+03
      5.438  0.0000E+00  0.0000E+00  0.9600E+03  0.7040E+03
      5.679  0.0000E+00  0.0000E+00  0.9600E+03  0.7040E+03
      5.919  0.0000E+00  0.0000E+00  0.9600E+03  0.7040E+03
      6.159  0.0000E+00  0.1017E-06  0.9600E+03  0.7040E+03
      6.400  0.0000E+00  0.1038E+01  0.9600E+03  0.7042E+03
      6.640  0.0000E+00  0.1016E+02  0.9600E+03  0.7067E+03
      6.881  0.0000E+00  0.2668E+02  0.9600E+03  0.7131E+03
      7.121  0.2886E-16  0.6602E+02  0.9600E+03  0.7290E+03
      7.361  0.6184E-01  0.1115E+03  0.9600E+03  0.7558E+03
      7.602  0.1498E+01  0.1393E+03  0.9604E+03  0.7893E+03
      7.842  0.5191E+01  0.1182E+03  0.9616E+03  0.8177E+03
      8.083  0.7087E+01  0.1788E+03  0.9633E+03  0.8607E+03
      8.323  0.9292E+01  0.1454E+03  0.9656E+03  0.8956E+03
      8.563  0.1253E+02  0.6221E+02  0.9686E+03  0.9106E+03
      8.804  0.1458E+02  0.8249E+02  0.9721E+03  0.9304E+03
      9.044  0.2711E+02  0.7283E+02  0.9786E+03  0.9479E+03
      9.285  0.3349E+02  0.5732E+02  0.9866E+03  0.9617E+03
      9.525  0.3554E+02  0.2305E+02  0.9952E+03  0.9672E+03
      9.765  0.5307E+02  0.3405E+02  0.1008E+04  0.9754E+03
     10.006  0.5117E+02  0.2268E+02  0.1020E+04  0.9809E+03
     10.246  0.3375E+02  0.3887E+02  0.1028E+04  0.9902E+03
     10.487  0.2161E+02  0.4329E+02  0.1034E+04  0.1001E+04
     10.727  0.4557E+02  0.6124E+02  0.1045E+04  0.1015E+04
     10.967  0.3308E+02  0.4338E+02  0.1052E+04  0.1026E+04
     11.208  0.4371E+02  0.4017E+02  0.1063E+04  0.1035E+04
     11.448  0.7800E+02  0.3455E+02  0.1082E+04  0.1044E+04
     11.689  0.4274E+02  0.4375E+02  0.1092E+04  0.1054E+04
     11.929  0.6453E+02  0.5206E+02  0.1108E+04  0.1067E+04
     12.169  0.6673E+02  0.5737E+02  0.1124E+04  0.1081E+04
     12.410  0.6923E+02  0.5323E+02  0.1140E+04  0.1093E+04
     12.650  0.6097E+02  0.6701E+02  0.1155E+04  0.1109E+04
     12.891  0.5272E+02  0.7974E+02  0.1168E+04  0.1129E+04
     13.131  0.5846E+02  0.6450E+02  0.1182E+04  0.1144E+04
     13.371  0.4849E+02  0.6636E+02  0.1193E+04  0.1160E+04
     13.612  0.4002E+02  0.6459E+02  0.1203E+04  0.1176E+04
     13.852  0.1888E+02  0.5722E+02  0.1207E+04  0.1189E+04
     14.093  0.2508E+01  0.5303E+02  0.1208E+04  0.1202E+04
     14.333  0.0000E+00  0.2138E+02  0.1208E+04  0.1207E+04
     14.573  0.0000E+00  0.3084E+01  0.1208E+04  0.1208E+04
     14.814  0.0000E+00  0.3930E-05  0.1208E+04  0.1208E+04
     15.054  0.0000E+00  0.0000E+00  0.1208E+04  0.1208E+04
     15.295  0.0000E+00  0.0000E+00  0.1208E+04  0.1208E+04
     15.535  0.0000E+00  0.0000E+00  0.1208E+04  0.1208E+04
     15.775  0.0000E+00  0.0000E+00  0.1208E+04  0.1208E+04
     16.016  0.0000E+00  0.0000E+00  0.1208E+04  0.1208E+04
     16.256  0.0000E+00  0.0000E+00  0.1208E+04  0.1208E+04
     16.497  0.0000E+00  0.0000E+00  0.1208E+04  0.1208E+04
     16.737  0.0000E+00  0.0000E+00  0.1208E+04  0.1208E+04
     16.977  0.0000E+00  0.0000E+00  0.1208E+04  0.1208E+04
     17.218  0.0000E+00  0.0000E+00  0.1208E+04  0.1208E+04
     17.458  0.0000E+00  0.0000E+00  0.1208E+04  0.1208E+04
     17.699  0.0000E+00  0.0000E+00  0.1208E+04  0.1208E+04
