  224  224    1    2
  0.1357572E+02  0.1537960E-08  0.1537962E-08  0.1395899E-08  0.5000000E-15
  1.000000000000000E-004
  CAR 
 unknown system                          
   1664      8   1208
 
  0.0000000E+00  0.0000000E+00  0.0000000E+00  0.1250000E+00
    1      -51.143097    -46.392404   1.000000   1.000000
    2      -51.142537    -46.391581   1.000000   1.000000
    3      -51.141754    -46.391116   1.000000   1.000000
    4      -51.141596    -46.390897   1.000000   1.000000
    5      -51.141422    -46.390693   1.000000   1.000000
    6      -51.141379    -46.390616   1.000000   1.000000
    7      -51.141318    -46.390516   1.000000   1.000000
    8      -51.141236    -46.390458   1.000000   1.000000
    9      -51.141153    -46.390323   1.000000   1.000000
   10      -51.141124    -46.390315   1.000000   1.000000
   11      -51.141076    -46.390242   1.000000   1.000000
   12      -51.140998    -46.390084   1.000000   1.000000
   13      -51.140946    -46.390055   1.000000   1.000000
   14      -51.140892    -46.390011   1.000000   1.000000
   15      -51.140881    -46.389961   1.000000   1.000000
   16      -51.140829    -46.389926   1.000000   1.000000
   17      -51.140805    -46.389907   1.000000   1.000000
   18      -51.140775    -46.389820   1.000000   1.000000
   19      -51.140755    -46.389789   1.000000   1.000000
   20      -51.140678    -46.389751   1.000000   1.000000
   21      -51.140657    -46.389697   1.000000   1.000000
   22      -51.140639    -46.389661   1.000000   1.000000
   23      -51.140623    -46.389638   1.000000   1.000000
   24      -51.140604    -46.389629   1.000000   1.000000
   25      -51.140552    -46.389584   1.000000   1.000000
   26      -51.140544    -46.389565   1.000000   1.000000
   27      -51.140508    -46.389530   1.000000   1.000000
   28      -51.140505    -46.389514   1.000000   1.000000
   29      -51.140495    -46.389497   1.000000   1.000000
   30      -51.140435    -46.389440   1.000000   1.000000
   31      -51.140419    -46.389375   1.000000   1.000000
   32      -51.140385    -46.389303   1.000000   1.000000
   33      -51.140290    -46.389168   1.000000   1.000000
   34      -51.140209    -46.389058   1.000000   1.000000
   35      -51.140138    -46.388891   1.000000   1.000000
   36      -51.140102    -46.388869   1.000000   1.000000
   37      -51.140081    -46.388863   1.000000   1.000000
   38      -51.140073    -46.388830   1.000000   1.000000
   39      -51.140037    -46.388783   1.000000   1.000000
   40      -51.140022    -46.388761   1.000000   1.000000
   41      -51.140008    -46.388738   1.000000   1.000000
   42      -51.139977    -46.388714   1.000000   1.000000
   43      -51.139976    -46.388710   1.000000   1.000000
   44      -51.139959    -46.388684   1.000000   1.000000
   45      -51.139899    -46.388640   1.000000   1.000000
   46      -51.139885    -46.388606   1.000000   1.000000
   47      -51.139855    -46.388592   1.000000   1.000000
   48      -51.139834    -46.388575   1.000000   1.000000
   49      -51.139786    -46.388514   1.000000   1.000000
   50      -51.139786    -46.388487   1.000000   1.000000
   51      -51.139773    -46.388466   1.000000   1.000000
   52      -51.139686    -46.388402   1.000000   1.000000
   53      -51.139621    -46.388322   1.000000   1.000000
   54      -51.139597    -46.388308   1.000000   1.000000
   55      -51.139553    -46.388211   1.000000   1.000000
   56      -51.139503    -46.388128   1.000000   1.000000
   57      -51.139408    -46.388045   1.000000   1.000000
   58      -51.139373    -46.387974   1.000000   1.000000
   59      -51.139328    -46.387905   1.000000   1.000000
   60      -51.139251    -46.387854   1.000000   1.000000
   61      -51.139156    -46.387668   1.000000   1.000000
   62      -51.138936    -46.387530   1.000000   1.000000
   63      -51.138733    -46.387335   1.000000   1.000000
   64      -51.137877    -46.386375   1.000000   1.000000
   65      -49.649277    -45.930813   1.000000   1.000000
   66      -49.649010    -45.930281   1.000000   1.000000
   67      -49.648469    -45.929798   1.000000   1.000000
   68      -49.647941    -45.929547   1.000000   1.000000
   69      -49.647812    -45.929359   1.000000   1.000000
   70      -49.647628    -45.929197   1.000000   1.000000
   71      -49.647596    -45.929072   1.000000   1.000000
   72      -49.647563    -45.929001   1.000000   1.000000
   73      -49.647510    -45.928897   1.000000   1.000000
   74      -49.647412    -45.928876   1.000000   1.000000
   75      -49.647393    -45.928856   1.000000   1.000000
   76      -49.647381    -45.928828   1.000000   1.000000
   77      -49.647336    -45.928759   1.000000   1.000000
   78      -49.647322    -45.928679   1.000000   1.000000
   79      -49.647269    -45.928651   1.000000   1.000000
   80      -49.647255    -45.928600   1.000000   1.000000
   81      -49.647235    -45.928555   1.000000   1.000000
   82      -49.647180    -45.928543   1.000000   1.000000
   83      -49.647141    -45.928529   1.000000   1.000000
   84      -49.647103    -45.928412   1.000000   1.000000
   85      -49.647094    -45.928395   1.000000   1.000000
   86      -49.647086    -45.928378   1.000000   1.000000
   87      -49.647038    -45.928366   1.000000   1.000000
   88      -49.647018    -45.928354   1.000000   1.000000
   89      -49.646988    -45.928347   1.000000   1.000000
   90      -49.646921    -45.928314   1.000000   1.000000
   91      -49.646902    -45.928303   1.000000   1.000000
   92      -49.646877    -45.928238   1.000000   1.000000
   93      -49.646820    -45.928222   1.000000   1.000000
   94      -49.646775    -45.928202   1.000000   1.000000
   95      -49.646761    -45.928182   1.000000   1.000000
   96      -49.646713    -45.928154   1.000000   1.000000
   97      -49.646708    -45.928095   1.000000   1.000000
   98      -49.646627    -45.928058   1.000000   1.000000
   99      -49.646583    -45.928038   1.000000   1.000000
  100      -49.646558    -45.927965   1.000000   1.000000
  101      -49.646527    -45.927954   1.000000   1.000000
  102      -49.646509    -45.927902   1.000000   1.000000
  103      -49.646491    -45.927886   1.000000   1.000000
  104      -49.646426    -45.927882   1.000000   1.000000
  105      -49.646378    -45.927860   1.000000   1.000000
  106      -49.646332    -45.927800   1.000000   1.000000
  107      -49.646297    -45.927765   1.000000   1.000000
  108      -49.646278    -45.927725   1.000000   1.000000
  109      -49.646196    -45.927694   1.000000   1.000000
  110      -49.646193    -45.927668   1.000000   1.000000
  111      -49.646144    -45.927653   1.000000   1.000000
  112      -49.646116    -45.927620   1.000000   1.000000
  113      -49.646073    -45.927609   1.000000   1.000000
  114      -49.646046    -45.927603   1.000000   1.000000
  115      -49.646033    -45.927529   1.000000   1.000000
  116      -49.646016    -45.927476   1.000000   1.000000
  117      -49.645924    -45.927422   1.000000   1.000000
  118      -49.645916    -45.927410   1.000000   1.000000
  119      -49.645828    -45.927388   1.000000   1.000000
  120      -49.645765    -45.927344   1.000000   1.000000
  121      -49.645720    -45.927317   1.000000   1.000000
  122      -49.645704    -45.927268   1.000000   1.000000
  123      -49.645683    -45.927251   1.000000   1.000000
  124      -49.645635    -45.927188   1.000000   1.000000
  125      -49.645616    -45.927188   1.000000   1.000000
  126      -49.645601    -45.927169   1.000000   1.000000
  127      -49.645590    -45.927137   1.000000   1.000000
  128      -49.645522    -45.927108   1.000000   1.000000
  129      -49.645468    -45.927096   1.000000   1.000000
  130      -49.645417    -45.927071   1.000000   1.000000
  131      -49.645405    -45.927047   1.000000   1.000000
  132      -49.645400    -45.927041   1.000000   1.000000
  133      -49.645367    -45.926985   1.000000   1.000000
  134      -49.645360    -45.926965   1.000000   1.000000
  135      -49.645346    -45.926961   1.000000   1.000000
  136      -49.645333    -45.926951   1.000000   1.000000
  137      -49.645326    -45.926938   1.000000   1.000000
  138      -49.645313    -45.926905   1.000000   1.000000
  139      -49.645298    -45.926866   1.000000   1.000000
  140      -49.645185    -45.926835   1.000000   1.000000
  141      -49.645182    -45.926781   1.000000   1.000000
  142      -49.645172    -45.926756   1.000000   1.000000
  143      -49.645155    -45.926751   1.000000   1.000000
  144      -49.645131    -45.926721   1.000000   1.000000
  145      -49.645104    -45.926714   1.000000   1.000000
  146      -49.645066    -45.926710   1.000000   1.000000
  147      -49.645022    -45.926698   1.000000   1.000000
  148      -49.645016    -45.926671   1.000000   1.000000
  149      -49.644994    -45.926645   1.000000   1.000000
  150      -49.644972    -45.926603   1.000000   1.000000
  151      -49.644939    -45.926582   1.000000   1.000000
  152      -49.644932    -45.926562   1.000000   1.000000
  153      -49.644854    -45.926526   1.000000   1.000000
  154      -49.644838    -45.926510   1.000000   1.000000
  155      -49.644802    -45.926470   1.000000   1.000000
  156      -49.644766    -45.926448   1.000000   1.000000
  157      -49.644708    -45.926441   1.000000   1.000000
  158      -49.644692    -45.926371   1.000000   1.000000
  159      -49.644673    -45.926369   1.000000   1.000000
  160      -49.644646    -45.926350   1.000000   1.000000
  161      -49.644602    -45.926339   1.000000   1.000000
  162      -49.644548    -45.926314   1.000000   1.000000
  163      -49.644492    -45.926302   1.000000   1.000000
  164      -49.644472    -45.926292   1.000000   1.000000
  165      -49.644465    -45.926282   1.000000   1.000000
  166      -49.644387    -45.926226   1.000000   1.000000
  167      -49.644371    -45.926179   1.000000   1.000000
  168      -49.644368    -45.926141   1.000000   1.000000
  169      -49.644339    -45.926134   1.000000   1.000000
  170      -49.644331    -45.926113   1.000000   1.000000
  171      -49.644231    -45.926058   1.000000   1.000000
  172      -49.644209    -45.926049   1.000000   1.000000
  173      -49.644189    -45.926033   1.000000   1.000000
  174      -49.644158    -45.926000   1.000000   1.000000
  175      -49.644112    -45.925918   1.000000   1.000000
  176      -49.644092    -45.925895   1.000000   1.000000
  177      -49.644034    -45.925879   1.000000   1.000000
  178      -49.643943    -45.925831   1.000000   1.000000
  179      -49.643916    -45.925826   1.000000   1.000000
  180      -49.643876    -45.925757   1.000000   1.000000
  181      -49.643860    -45.925713   1.000000   1.000000
  182      -49.643820    -45.925627   1.000000   1.000000
  183      -49.643801    -45.925617   1.000000   1.000000
  184      -49.643777    -45.925610   1.000000   1.000000
  185      -49.643627    -45.925516   1.000000   1.000000
  186      -49.643618    -45.925383   1.000000   1.000000
  187      -49.643554    -45.925370   1.000000   1.000000
  188      -49.643510    -45.925273   1.000000   1.000000
  189      -49.643386    -45.925241   1.000000   1.000000
  190      -49.643062    -45.924853   1.000000   1.000000
  191      -49.643029    -45.924271   1.000000   1.000000
  192      -49.642053    -45.924118   1.000000   1.000000
  193      -39.641060    -39.640143   1.000000   1.000000
  194      -39.641038    -39.640120   1.000000   1.000000
  195      -39.633655    -39.632782   1.000000   1.000000
  196      -39.633466    -39.632593   1.000000   1.000000
  197      -39.633446    -39.632574   1.000000   1.000000
  198      -39.633431    -39.632558   1.000000   1.000000
  199      -39.633383    -39.632511   1.000000   1.000000
  200      -39.633365    -39.632492   1.000000   1.000000
  201      -39.633325    -39.632452   1.000000   1.000000
  202      -39.633109    -39.632236   1.000000   1.000000
  203      -39.627960    -39.627122   1.000000   1.000000
  204      -39.627816    -39.626979   1.000000   1.000000
  205      -39.627793    -39.626955   1.000000   1.000000
  206      -39.627770    -39.626933   1.000000   1.000000
  207      -39.627755    -39.626917   1.000000   1.000000
  208      -39.627707    -39.626869   1.000000   1.000000
  209      -39.627655    -39.626817   1.000000   1.000000
  210      -39.627576    -39.626738   1.000000   1.000000
  211      -39.616194    -39.615419   1.000000   1.000000
  212      -39.616078    -39.615301   1.000000   1.000000
  213      -39.616002    -39.615225   1.000000   1.000000
  214      -39.615979    -39.615202   1.000000   1.000000
  215      -39.615636    -39.614858   1.000000   1.000000
  216      -39.615620    -39.614840   1.000000   1.000000
  217      -39.615548    -39.614769   1.000000   1.000000
  218      -39.615537    -39.614757   1.000000   1.000000
  219      -39.615405    -39.614634   1.000000   1.000000
  220      -39.615266    -39.614499   1.000000   1.000000
  221      -39.615228    -39.614461   1.000000   1.000000
  222      -39.615204    -39.614437   1.000000   1.000000
  223      -39.615184    -39.614416   1.000000   1.000000
  224      -39.615158    -39.614391   1.000000   1.000000
  225      -39.615152    -39.614385   1.000000   1.000000
  226      -39.615143    -39.614375   1.000000   1.000000
  227      -39.615020    -39.614252   1.000000   1.000000
  228      -39.614997    -39.614228   1.000000   1.000000
  229      -39.614987    -39.614218   1.000000   1.000000
  230      -39.614927    -39.614159   1.000000   1.000000
  231      -39.614917    -39.614148   1.000000   1.000000
  232      -39.614897    -39.614128   1.000000   1.000000
  233      -39.614836    -39.614068   1.000000   1.000000
  234      -39.614758    -39.613992   1.000000   1.000000
  235      -39.614388    -39.613631   1.000000   1.000000
  236      -39.614300    -39.613543   1.000000   1.000000
  237      -39.614245    -39.613487   1.000000   1.000000
  238      -39.614138    -39.613378   1.000000   1.000000
  239      -39.603999    -39.603280   1.000000   1.000000
  240      -39.603889    -39.603171   1.000000   1.000000
  241      -39.603823    -39.603104   1.000000   1.000000
  242      -39.603810    -39.603091   1.000000   1.000000
  243      -39.603799    -39.603080   1.000000   1.000000
  244      -39.603785    -39.603066   1.000000   1.000000
  245      -39.603719    -39.602999   1.000000   1.000000
  246      -39.603659    -39.602940   1.000000   1.000000
  247      -39.599750    -39.599044   1.000000   1.000000
  248      -39.599625    -39.598919   1.000000   1.000000
  249      -39.599607    -39.598901   1.000000   1.000000
  250      -39.599593    -39.598887   1.000000   1.000000
  251      -39.599545    -39.598839   1.000000   1.000000
  252      -39.599529    -39.598823   1.000000   1.000000
  253      -39.599487    -39.598781   1.000000   1.000000
  254      -39.599270    -39.598564   1.000000   1.000000
  255      -39.593318    -39.592636   1.000000   1.000000
  256      -39.593244    -39.592561   1.000000   1.000000
  257      -12.747192    -12.467722   1.000000   1.000000
  258      -12.747154    -12.467683   1.000000   1.000000
  259      -12.719899    -12.440175   1.000000   1.000000
  260      -12.719407    -12.439656   1.000000   1.000000
  261      -12.719373    -12.439615   1.000000   1.000000
  262      -12.719346    -12.439591   1.000000   1.000000
  263      -12.719300    -12.439551   1.000000   1.000000
  264      -12.719277    -12.439531   1.000000   1.000000
  265      -12.719268    -12.439515   1.000000   1.000000
  266      -12.718596    -12.438815   1.000000   1.000000
  267      -12.697358    -12.417208   1.000000   1.000000
  268      -12.697044    -12.416875   1.000000   1.000000
  269      -12.695072    -12.415473   1.000000   1.000000
  270      -12.694779    -12.415170   1.000000   1.000000
  271      -12.694726    -12.415120   1.000000   1.000000
  272      -12.694397    -12.414780   1.000000   1.000000
  273      -12.692525    -12.413449   1.000000   1.000000
  274      -12.692227    -12.413110   1.000000   1.000000
  275      -12.691465    -12.411471   1.000000   1.000000
  276      -12.691275    -12.411239   1.000000   1.000000
  277      -12.691224    -12.411192   1.000000   1.000000
  278      -12.690675    -12.410661   1.000000   1.000000
  279      -12.672928    -12.392932   1.000000   1.000000
  280      -12.672704    -12.392690   1.000000   1.000000
  281      -12.672655    -12.392638   1.000000   1.000000
  282      -12.672312    -12.392285   1.000000   1.000000
  283      -12.667833    -12.388952   1.000000   1.000000
  284      -12.667634    -12.388746   1.000000   1.000000
  285      -12.667585    -12.388694   1.000000   1.000000
  286      -12.667177    -12.388247   1.000000   1.000000
  287      -12.654504    -12.374548   1.000000   1.000000
  288      -12.643727    -12.366000   1.000000   1.000000
  289       -7.800039     -7.599041   1.000000   1.000000
  290       -7.748236     -7.551515   1.000000   1.000000
  291       -7.505687     -7.319362   1.000000   1.000000
  292       -7.505409     -7.319144   1.000000   1.000000
  293       -7.505340     -7.319064   1.000000   1.000000
  294       -7.505285     -7.318995   1.000000   1.000000
  295       -7.501048     -7.308966   1.000000   1.000000
  296       -7.500954     -7.308822   1.000000   1.000000
  297       -7.500850     -7.308724   1.000000   1.000000
  298       -7.500676     -7.308592   1.000000   1.000000
  299       -7.315205     -7.117755   1.000000   1.000000
  300       -7.315127     -7.117670   1.000000   1.000000
  301       -7.297416     -7.094140   1.000000   1.000000
  302       -7.297164     -7.093884   1.000000   1.000000
  303       -7.296363     -7.093075   1.000000   1.000000
  304       -7.296343     -7.093056   1.000000   1.000000
  305       -7.269272     -7.061980   1.000000   1.000000
  306       -7.269202     -7.061900   1.000000   1.000000
  307       -7.088643     -6.893969   1.000000   1.000000
  308       -7.084770     -6.893869   1.000000   1.000000
  309       -7.084679     -6.893825   1.000000   1.000000
  310       -7.084624     -6.893743   1.000000   1.000000
  311       -7.084552     -6.796757   1.000000   1.000000
  312       -7.046575     -6.783795   1.000000   1.000000
  313       -7.000095     -6.768371   1.000000   1.000000
  314       -6.999837     -6.767938   1.000000   1.000000
  315       -6.999820     -6.767910   1.000000   1.000000
  316       -6.999818     -6.767891   1.000000   1.000000
  317       -6.999727     -6.766154   1.000000   1.000000
  318       -6.999709     -6.766143   1.000000   1.000000
  319       -6.999706     -6.766121   1.000000   1.000000
  320       -6.999560     -6.766067   1.000000   1.000000
  321       -6.994382     -6.766043   1.000000   1.000000
  322       -6.994211     -6.766025   1.000000   1.000000
  323       -6.994115     -6.766021   1.000000   1.000000
  324       -6.994003     -6.765728   1.000000   1.000000
  325       -6.955873     -6.745102   1.000000   1.000000
  326       -6.955787     -6.744914   1.000000   1.000000
  327       -6.955732     -6.744815   1.000000   1.000000
  328       -6.955658     -6.744703   1.000000   1.000000
  329       -6.948371     -6.697542   1.000000   1.000000
  330       -6.948292     -6.697433   1.000000   1.000000
  331       -6.928793     -6.689252   1.000000   1.000000
  332       -6.928641     -6.689098   1.000000   1.000000
  333       -6.928550     -6.688996   1.000000   1.000000
  334       -6.928458     -6.688900   1.000000   1.000000
  335       -6.911344     -6.639687   1.000000   1.000000
  336       -6.911317     -6.639110   1.000000   1.000000
  337       -6.886244     -6.639084   1.000000   1.000000
  338       -6.886011     -6.639073   1.000000   1.000000
  339       -6.885202     -6.639023   1.000000   1.000000
  340       -6.885161     -6.638978   1.000000   1.000000
  341       -6.877026     -6.638962   1.000000   1.000000
  342       -6.876881     -6.638943   1.000000   1.000000
  343       -6.876863     -6.638691   1.000000   1.000000
  344       -6.876860     -6.638624   1.000000   1.000000
  345       -6.876769     -6.637884   1.000000   1.000000
  346       -6.876753     -6.637792   1.000000   1.000000
  347       -6.876750     -6.628080   1.000000   1.000000
  348       -6.876552     -6.628009   1.000000   1.000000
  349       -6.832643     -6.586685   1.000000   1.000000
  350       -6.832565     -6.586598   1.000000   1.000000
  351       -6.794279     -6.499102   1.000000   1.000000
  352       -6.794264     -6.499083   1.000000   1.000000
  353       -1.525503     -0.414673   1.000000   1.000000
  354       -1.467753     -0.414587   1.000000   1.000000
  355       -1.467672     -0.414448   1.000000   1.000000
  356       -1.467634     -0.414321   1.000000   1.000000
  357       -1.467558      0.026173   1.000000   1.000000
  358       -1.460413      0.026327   1.000000   1.000000
  359       -1.460339      0.026435   1.000000   1.000000
  360       -1.460176      0.026576   1.000000   1.000000
  361       -1.460048      0.037737   1.000000   1.000000
  362       -1.421439      0.037899   1.000000   1.000000
  363       -1.421267      0.037943   1.000000   1.000000
  364       -1.382935      0.038008   1.000000   1.000000
  365       -1.382815      0.038082   1.000000   1.000000
  366       -1.382746      0.038149   1.000000   1.000000
  367       -1.382555      0.038213   1.000000   1.000000
  368       -1.332797      0.038470   1.000000   1.000000
  369       -1.332695      0.102796   1.000000   1.000000
  370       -1.332546      0.103026   1.000000   1.000000
  371       -1.332532      0.207357   1.000000   1.000000
  372       -1.332428      0.207525   1.000000   1.000000
  373       -1.332419      0.207566   1.000000   1.000000
  374       -1.332359      0.207793   1.000000   1.000000
  375       -1.332134      0.304182   1.000000   1.000000
  376       -1.292561      0.392376   1.000000   1.000000
  377       -1.292471      0.392562   1.000000   1.000000
  378       -1.292458      0.392668   1.000000   1.000000
  379       -1.292368      0.392837   1.000000   1.000000
  380       -1.256803      0.490773   1.000000   1.000000
  381       -1.256762      0.491034   1.000000   1.000000
  382       -1.232243      0.497557   1.000000   1.000000
  383       -1.232076      0.497663   1.000000   1.000000
  384       -1.220378      0.497785   1.000000   1.000000
  385       -0.822777      0.497813   1.000000   1.000000
  386       -0.822737      0.510652   1.000000   1.000000
  387       -0.822647      0.510708   1.000000   1.000000
  388       -0.822611      0.531152   1.000000   1.000000
  389       -0.722722      0.531198   1.000000   1.000000
  390       -0.722559      0.531295   1.000000   1.000000
  391       -0.699165      0.531338   1.000000   1.000000
  392       -0.699087      0.574240   1.000000   1.000000
  393       -0.699002      0.574286   1.000000   1.000000
  394       -0.698901      0.574316   1.000000   1.000000
  395       -0.688466      0.574364   1.000000   1.000000
  396       -0.688435      0.574388   1.000000   1.000000
  397       -0.688191      0.574420   1.000000   1.000000
  398       -0.688144      0.574519   1.000000   1.000000
  399       -0.666704      0.574525   1.000000   1.000000
  400       -0.666677      0.638632   1.000000   1.000000
  401       -0.666401      0.666246   1.000000   1.000000
  402       -0.666378      0.666396   1.000000   1.000000
  403       -0.651934      0.733087   1.000000   1.000000
  404       -0.651903      0.733136   1.000000   1.000000
  405       -0.651798      0.931373   1.000000   1.000000
  406       -0.651756      0.932530   1.000000   1.000000
  407       -0.589464      0.935564   1.000000   1.000000
  408       -0.589342      0.935689   1.000000   1.000000
  409       -0.576748      0.948847   1.000000   1.000000
  410       -0.576646      0.948905   1.000000   1.000000
  411       -0.576395      0.949004   1.000000   1.000000
  412       -0.576347      0.949016   1.000000   1.000000
  413       -0.553386      0.986009   1.000000   1.000000
  414       -0.553360      0.986047   1.000000   1.000000
  415       -0.553059      0.986302   1.000000   1.000000
  416       -0.552988      0.986511   1.000000   1.000000
  417       -0.497624      0.992781   1.000000   1.000000
  418       -0.496876      0.992968   1.000000   1.000000
  419       -0.472900      1.008872   1.000000   1.000000
  420       -0.472672      1.008897   1.000000   1.000000
  421       -0.461571      1.009027   1.000000   1.000000
  422       -0.461542      1.009035   1.000000   1.000000
  423       -0.461227      1.018450   1.000000   1.000000
  424       -0.461133      1.049078   1.000000   1.000000
  425       -0.459779      1.049193   1.000000   1.000000
  426       -0.459750      1.051598   1.000000   1.000000
  427       -0.459429      1.051740   1.000000   1.000000
  428       -0.459329      1.051752   1.000000   1.000000
  429       -0.410054      1.051855   1.000000   1.000000
  430       -0.409948      1.078739   1.000000   1.000000
  431       -0.407707      1.078827   1.000000   1.000000
  432       -0.407516      1.078858   1.000000   1.000000
  433       -0.407471      1.078940   1.000000   1.000000
  434       -0.407425      1.079567   1.000000   1.000000
  435       -0.407399      1.079768   1.000000   1.000000
  436       -0.407213      1.080057   1.000000   1.000000
  437       -0.383290      1.080084   1.000000   1.000000
  438       -0.383265      1.192809   1.000000   1.000000
  439       -0.378172      1.192958   1.000000   1.000000
  440       -0.368934      1.376500   1.000000   1.000000
  441       -0.368840      1.390414   1.000000   1.000000
  442       -0.368756      1.391205   1.000000   1.000000
  443       -0.368707      1.391223   1.000000   1.000000
  444       -0.368648      1.391271   1.000000   1.000000
  445       -0.368626      1.391359   1.000000   1.000000
  446       -0.368569      1.437358   1.000000   1.000000
  447       -0.368483      1.450255   1.000000   1.000000
  448       -0.353550      1.526197   1.000000   1.000000
  449       -0.353537      1.526412   1.000000   1.000000
  450       -0.349037      1.526467   1.000000   1.000000
  451       -0.341759      1.526545   1.000000   1.000000
  452       -0.335811      1.528815   1.000000   1.000000
  453       -0.335781      1.528948   1.000000   1.000000
  454       -0.335387      1.528968   1.000000   1.000000
  455       -0.335332      1.529125   1.000000   1.000000
  456       -0.334203      1.558158   1.000000   1.000000
  457       -0.334196      1.558242   1.000000   1.000000
  458       -0.334025      1.558446   1.000000   1.000000
  459       -0.334013      1.558484   1.000000   1.000000
  460       -0.324280      1.566623   1.000000   1.000000
  461       -0.324222      1.566779   1.000000   1.000000
  462       -0.323844      1.566920   1.000000   1.000000
  463       -0.323826      1.567107   1.000000   1.000000
  464       -0.321671      1.568148   1.000000   1.000000
  465       -0.321629      1.568282   1.000000   1.000000
  466       -0.321168      1.568491   1.000000   1.000000
  467       -0.321162      1.568709   1.000000   1.000000
  468       -0.303821      1.586573   1.000000   1.000000
  469       -0.295892      1.586656   1.000000   1.000000
  470       -0.287949      1.695705   1.000000   1.000000
  471       -0.287873      1.695715   1.000000   1.000000
  472       -0.287811      1.741007   1.000000   1.000000
  473       -0.287751      1.741089   1.000000   1.000000
  474       -0.280389      1.741174   1.000000   1.000000
  475       -0.280379      1.741201   1.000000   1.000000
  476       -0.275076      1.746822   1.000000   1.000000
  477       -0.275071      1.746858   1.000000   1.000000
  478       -0.274802      1.746897   1.000000   1.000000
  479       -0.274802      1.747092   1.000000   1.000000
  480       -0.241621      1.779019   1.000000   1.000000
  481       -0.241608      1.780602   1.000000   1.000000
  482       -0.241575      1.780651   1.000000   1.000000
  483       -0.241560      1.836822   1.000000   1.000000
  484       -0.241416      1.836938   1.000000   1.000000
  485       -0.241393      1.837281   1.000000   1.000000
  486       -0.241301      1.837468   1.000000   1.000000
  487       -0.241276      1.837729   1.000000   1.000000
  488       -0.207393      1.837818   1.000000   1.000000
  489       -0.207389      1.838422   1.000000   1.000000
  490       -0.199708      1.838527   1.000000   1.000000
  491       -0.199641      1.866205   1.000000   1.000000
  492       -0.199462      1.866406   1.000000   1.000000
  493       -0.199417      1.913352   1.000000   1.000000
  494       -0.194057      1.913461   1.000000   1.000000
  495       -0.193953      1.913494   1.000000   1.000000
  496       -0.163978      1.913566   1.000000   1.000000
  497       -0.163912      1.913592   1.000000   1.000000
  498       -0.163775      1.913633   1.000000   1.000000
  499       -0.163739      1.913677   1.000000   1.000000
  500       -0.156685      1.913975   1.000000   1.000000
  501       -0.156617      1.926745   1.000000   1.000000
  502       -0.156200      1.926995   1.000000   1.000000
  503       -0.156143      1.927145   1.000000   1.000000
  504       -0.139042      1.927207   1.000000   1.000000
  505       -0.139039      2.133236   1.000000   1.000000
  506       -0.138826      2.133284   1.000000   1.000000
  507       -0.138795      2.191249   1.000000   1.000000
  508       -0.090991      2.193193   1.000000   1.000000
  509       -0.090913      2.300658   1.000000   1.000000
  510       -0.082565      2.300799   1.000000   1.000000
  511       -0.082533      2.301066   1.000000   1.000000
  512       -0.082418      2.301225   1.000000   1.000000