  99  99   0   0
  0.1430410E+02  0.1177748E-08  0.1177748E-08  0.1058004E-08  0.5000000E-15
  1.000000000000000E-004
  CAR 
 unknown system                          
     17.94437404    -54.33847564  301      5.23463964      1.00000000
    -54.338  0.0000E+00  0.0000E+00  0.0000E+00  0.0000E+00
    -54.098  0.0000E+00  0.0000E+00  0.0000E+00  0.0000E+00
    -53.857  0.0000E+00  0.0000E+00  0.0000E+00  0.0000E+00
    -53.616  0.0000E+00  0.0000E+00  0.0000E+00  0.0000E+00
    -53.375  0.0000E+00  0.0000E+00  0.0000E+00  0.0000E+00
    -53.134  0.0000E+00  0.0000E+00  0.0000E+00  0.0000E+00
    -52.893  0.0000E+00  0.0000E+00  0.0000E+00  0.0000E+00
    -52.652  0.0000E+00  0.0000E+00  0.0000E+00  0.0000E+00
    -52.411  0.0000E+00  0.0000E+00  0.0000E+00  0.0000E+00
    -52.170  0.0000E+00  0.0000E+00  0.0000E+00  0.0000E+00
    -51.929  0.0000E+00  0.0000E+00  0.0000E+00  0.0000E+00
    -51.688  0.0000E+00  0.0000E+00  0.0000E+00  0.0000E+00
    -51.447  0.0000E+00  0.0000E+00  0.0000E+00  0.0000E+00
    -51.206  0.4069E-03  0.0000E+00  0.9803E-04  0.0000E+00
    -50.965  0.1470E+03  0.0000E+00  0.3543E+02  0.0000E+00
    -50.724  0.2370E+01  0.0000E+00  0.3600E+02  0.0000E+00
    -50.483  0.0000E+00  0.0000E+00  0.3600E+02  0.0000E+00
    -50.242  0.0000E+00  0.0000E+00  0.3600E+02  0.0000E+00
    -50.002  0.0000E+00  0.0000E+00  0.3600E+02  0.0000E+00
    -49.761  0.1588E+01  0.0000E+00  0.3638E+02  0.0000E+00
    -49.520  0.2698E+03  0.0000E+00  0.1014E+03  0.0000E+00
    -49.279  0.2747E+02  0.0000E+00  0.1080E+03  0.0000E+00
    -49.038  0.0000E+00  0.0000E+00  0.1080E+03  0.0000E+00
    -48.797  0.0000E+00  0.0000E+00  0.1080E+03  0.0000E+00
    -48.556  0.0000E+00  0.0000E+00  0.1080E+03  0.0000E+00
    -48.315  0.0000E+00  0.0000E+00  0.1080E+03  0.0000E+00
    -48.074  0.0000E+00  0.0000E+00  0.1080E+03  0.0000E+00
    -47.833  0.0000E+00  0.0000E+00  0.1080E+03  0.0000E+00
    -47.592  0.0000E+00  0.0000E+00  0.1080E+03  0.0000E+00
    -47.351  0.0000E+00  0.0000E+00  0.1080E+03  0.0000E+00
    -47.110  0.0000E+00  0.0000E+00  0.1080E+03  0.0000E+00
    -46.869  0.0000E+00  0.0000E+00  0.1080E+03  0.0000E+00
    -46.628  0.0000E+00  0.0000E+00  0.1080E+03  0.0000E+00
    -46.387  0.0000E+00  0.3468E+00  0.1080E+03  0.8355E-01
    -46.146  0.0000E+00  0.1490E+03  0.1080E+03  0.3599E+02
    -45.905  0.0000E+00  0.6805E+02  0.1080E+03  0.5239E+02
    -45.665  0.0000E+00  0.2308E+03  0.1080E+03  0.1080E+03
    -45.424  0.0000E+00  0.0000E+00  0.1080E+03  0.1080E+03
    -45.183  0.0000E+00  0.0000E+00  0.1080E+03  0.1080E+03
    -44.942  0.0000E+00  0.0000E+00  0.1080E+03  0.1080E+03
    -44.701  0.0000E+00  0.0000E+00  0.1080E+03  0.1080E+03
    -44.460  0.0000E+00  0.0000E+00  0.1080E+03  0.1080E+03
    -44.219  0.0000E+00  0.0000E+00  0.1080E+03  0.1080E+03
    -43.978  0.0000E+00  0.0000E+00  0.1080E+03  0.1080E+03
    -43.737  0.0000E+00  0.0000E+00  0.1080E+03  0.1080E+03
    -43.496  0.0000E+00  0.0000E+00  0.1080E+03  0.1080E+03
    -43.255  0.0000E+00  0.0000E+00  0.1080E+03  0.1080E+03
    -43.014  0.0000E+00  0.0000E+00  0.1080E+03  0.1080E+03
    -42.773  0.0000E+00  0.0000E+00  0.1080E+03  0.1080E+03
    -42.532  0.0000E+00  0.0000E+00  0.1080E+03  0.1080E+03
    -42.291  0.0000E+00  0.0000E+00  0.1080E+03  0.1080E+03
    -42.050  0.0000E+00  0.0000E+00  0.1080E+03  0.1080E+03
    -41.809  0.0000E+00  0.0000E+00  0.1080E+03  0.1080E+03
    -41.569  0.0000E+00  0.0000E+00  0.1080E+03  0.1080E+03
    -41.328  0.0000E+00  0.0000E+00  0.1080E+03  0.1080E+03
    -41.087  0.0000E+00  0.0000E+00  0.1080E+03  0.1080E+03
    -40.846  0.0000E+00  0.0000E+00  0.1080E+03  0.1080E+03
    -40.605  0.0000E+00  0.0000E+00  0.1080E+03  0.1080E+03
    -40.364  0.0000E+00  0.0000E+00  0.1080E+03  0.1080E+03
    -40.123  0.6221E-11  0.3999E-11  0.1080E+03  0.1080E+03
    -39.882  0.2131E+02  0.1985E+02  0.1131E+03  0.1128E+03
    -39.641  0.5340E+02  0.5486E+02  0.1260E+03  0.1260E+03
    -39.400  0.0000E+00  0.0000E+00  0.1260E+03  0.1260E+03
    -39.159  0.0000E+00  0.0000E+00  0.1260E+03  0.1260E+03
    -38.918  0.0000E+00  0.0000E+00  0.1260E+03  0.1260E+03
    -38.677  0.0000E+00  0.0000E+00  0.1260E+03  0.1260E+03
    -38.436  0.0000E+00  0.0000E+00  0.1260E+03  0.1260E+03
    -38.195  0.0000E+00  0.0000E+00  0.1260E+03  0.1260E+03
    -37.954  0.0000E+00  0.0000E+00  0.1260E+03  0.1260E+03
    -37.713  0.0000E+00  0.0000E+00  0.1260E+03  0.1260E+03
    -37.472  0.0000E+00  0.0000E+00  0.1260E+03  0.1260E+03
    -37.232  0.0000E+00  0.0000E+00  0.1260E+03  0.1260E+03
    -36.991  0.0000E+00  0.0000E+00  0.1260E+03  0.1260E+03
    -36.750  0.0000E+00  0.0000E+00  0.1260E+03  0.1260E+03
    -36.509  0.0000E+00  0.0000E+00  0.1260E+03  0.1260E+03
    -36.268  0.0000E+00  0.0000E+00  0.1260E+03  0.1260E+03
    -36.027  0.0000E+00  0.0000E+00  0.1260E+03  0.1260E+03
    -35.786  0.0000E+00  0.0000E+00  0.1260E+03  0.1260E+03
    -35.545  0.0000E+00  0.0000E+00  0.1260E+03  0.1260E+03
    -35.304  0.0000E+00  0.0000E+00  0.1260E+03  0.1260E+03
    -35.063  0.0000E+00  0.0000E+00  0.1260E+03  0.1260E+03
    -34.822  0.0000E+00  0.0000E+00  0.1260E+03  0.1260E+03
    -34.581  0.0000E+00  0.0000E+00  0.1260E+03  0.1260E+03
    -34.340  0.0000E+00  0.0000E+00  0.1260E+03  0.1260E+03
    -34.099  0.0000E+00  0.0000E+00  0.1260E+03  0.1260E+03
    -33.858  0.0000E+00  0.0000E+00  0.1260E+03  0.1260E+03
    -33.617  0.0000E+00  0.0000E+00  0.1260E+03  0.1260E+03
    -33.376  0.0000E+00  0.0000E+00  0.1260E+03  0.1260E+03
    -33.136  0.0000E+00  0.0000E+00  0.1260E+03  0.1260E+03
    -32.895  0.0000E+00  0.0000E+00  0.1260E+03  0.1260E+03
    -32.654  0.0000E+00  0.0000E+00  0.1260E+03  0.1260E+03
    -32.413  0.0000E+00  0.0000E+00  0.1260E+03  0.1260E+03
    -32.172  0.0000E+00  0.0000E+00  0.1260E+03  0.1260E+03
    -31.931  0.0000E+00  0.0000E+00  0.1260E+03  0.1260E+03
    -31.690  0.0000E+00  0.0000E+00  0.1260E+03  0.1260E+03
    -31.449  0.0000E+00  0.0000E+00  0.1260E+03  0.1260E+03
    -31.208  0.0000E+00  0.0000E+00  0.1260E+03  0.1260E+03
    -30.967  0.0000E+00  0.0000E+00  0.1260E+03  0.1260E+03
    -30.726  0.0000E+00  0.0000E+00  0.1260E+03  0.1260E+03
    -30.485  0.0000E+00  0.0000E+00  0.1260E+03  0.1260E+03
    -30.244  0.0000E+00  0.0000E+00  0.1260E+03  0.1260E+03
    -30.003  0.0000E+00  0.0000E+00  0.1260E+03  0.1260E+03
    -29.762  0.0000E+00  0.0000E+00  0.1260E+03  0.1260E+03
    -29.521  0.0000E+00  0.0000E+00  0.1260E+03  0.1260E+03
    -29.280  0.0000E+00  0.0000E+00  0.1260E+03  0.1260E+03
    -29.039  0.0000E+00  0.0000E+00  0.1260E+03  0.1260E+03
    -28.799  0.0000E+00  0.0000E+00  0.1260E+03  0.1260E+03
    -28.558  0.0000E+00  0.0000E+00  0.1260E+03  0.1260E+03
    -28.317  0.0000E+00  0.0000E+00  0.1260E+03  0.1260E+03
    -28.076  0.0000E+00  0.0000E+00  0.1260E+03  0.1260E+03
    -27.835  0.0000E+00  0.0000E+00  0.1260E+03  0.1260E+03
    -27.594  0.0000E+00  0.0000E+00  0.1260E+03  0.1260E+03
    -27.353  0.0000E+00  0.0000E+00  0.1260E+03  0.1260E+03
    -27.112  0.0000E+00  0.0000E+00  0.1260E+03  0.1260E+03
    -26.871  0.0000E+00  0.0000E+00  0.1260E+03  0.1260E+03
    -26.630  0.0000E+00  0.0000E+00  0.1260E+03  0.1260E+03
    -26.389  0.0000E+00  0.0000E+00  0.1260E+03  0.1260E+03
    -26.148  0.0000E+00  0.0000E+00  0.1260E+03  0.1260E+03
    -25.907  0.0000E+00  0.0000E+00  0.1260E+03  0.1260E+03
    -25.666  0.0000E+00  0.0000E+00  0.1260E+03  0.1260E+03
    -25.425  0.0000E+00  0.0000E+00  0.1260E+03  0.1260E+03
    -25.184  0.0000E+00  0.0000E+00  0.1260E+03  0.1260E+03
    -24.943  0.0000E+00  0.0000E+00  0.1260E+03  0.1260E+03
    -24.703  0.0000E+00  0.0000E+00  0.1260E+03  0.1260E+03
    -24.462  0.0000E+00  0.0000E+00  0.1260E+03  0.1260E+03
    -24.221  0.0000E+00  0.0000E+00  0.1260E+03  0.1260E+03
    -23.980  0.0000E+00  0.0000E+00  0.1260E+03  0.1260E+03
    -23.739  0.0000E+00  0.0000E+00  0.1260E+03  0.1260E+03
    -23.498  0.0000E+00  0.0000E+00  0.1260E+03  0.1260E+03
    -23.257  0.0000E+00  0.0000E+00  0.1260E+03  0.1260E+03
    -23.016  0.0000E+00  0.0000E+00  0.1260E+03  0.1260E+03
    -22.775  0.0000E+00  0.0000E+00  0.1260E+03  0.1260E+03
    -22.534  0.0000E+00  0.0000E+00  0.1260E+03  0.1260E+03
    -22.293  0.0000E+00  0.0000E+00  0.1260E+03  0.1260E+03
    -22.052  0.0000E+00  0.0000E+00  0.1260E+03  0.1260E+03
    -21.811  0.0000E+00  0.0000E+00  0.1260E+03  0.1260E+03
    -21.570  0.0000E+00  0.0000E+00  0.1260E+03  0.1260E+03
    -21.329  0.0000E+00  0.0000E+00  0.1260E+03  0.1260E+03
    -21.088  0.0000E+00  0.0000E+00  0.1260E+03  0.1260E+03
    -20.847  0.0000E+00  0.0000E+00  0.1260E+03  0.1260E+03
    -20.606  0.0000E+00  0.0000E+00  0.1260E+03  0.1260E+03
    -20.366  0.0000E+00  0.0000E+00  0.1260E+03  0.1260E+03
    -20.125  0.0000E+00  0.0000E+00  0.1260E+03  0.1260E+03
    -19.884  0.0000E+00  0.0000E+00  0.1260E+03  0.1260E+03
    -19.643  0.0000E+00  0.0000E+00  0.1260E+03  0.1260E+03
    -19.402  0.0000E+00  0.0000E+00  0.1260E+03  0.1260E+03
    -19.161  0.0000E+00  0.0000E+00  0.1260E+03  0.1260E+03
    -18.920  0.0000E+00  0.0000E+00  0.1260E+03  0.1260E+03
    -18.679  0.0000E+00  0.0000E+00  0.1260E+03  0.1260E+03
    -18.438  0.0000E+00  0.0000E+00  0.1260E+03  0.1260E+03
    -18.197  0.0000E+00  0.0000E+00  0.1260E+03  0.1260E+03
    -17.956  0.0000E+00  0.0000E+00  0.1260E+03  0.1260E+03
    -17.715  0.0000E+00  0.0000E+00  0.1260E+03  0.1260E+03
    -17.474  0.0000E+00  0.0000E+00  0.1260E+03  0.1260E+03
    -17.233  0.0000E+00  0.0000E+00  0.1260E+03  0.1260E+03
    -16.992  0.0000E+00  0.0000E+00  0.1260E+03  0.1260E+03
    -16.751  0.0000E+00  0.0000E+00  0.1260E+03  0.1260E+03
    -16.510  0.0000E+00  0.0000E+00  0.1260E+03  0.1260E+03
    -16.270  0.0000E+00  0.0000E+00  0.1260E+03  0.1260E+03
    -16.029  0.0000E+00  0.0000E+00  0.1260E+03  0.1260E+03
    -15.788  0.0000E+00  0.0000E+00  0.1260E+03  0.1260E+03
    -15.547  0.0000E+00  0.0000E+00  0.1260E+03  0.1260E+03
    -15.306  0.0000E+00  0.0000E+00  0.1260E+03  0.1260E+03
    -15.065  0.0000E+00  0.0000E+00  0.1260E+03  0.1260E+03
    -14.824  0.0000E+00  0.0000E+00  0.1260E+03  0.1260E+03
    -14.583  0.0000E+00  0.0000E+00  0.1260E+03  0.1260E+03
    -14.342  0.0000E+00  0.0000E+00  0.1260E+03  0.1260E+03
    -14.101  0.0000E+00  0.0000E+00  0.1260E+03  0.1260E+03
    -13.860  0.0000E+00  0.0000E+00  0.1260E+03  0.1260E+03
    -13.619  0.0000E+00  0.0000E+00  0.1260E+03  0.1260E+03
    -13.378  0.1613E-03  0.0000E+00  0.1260E+03  0.1260E+03
    -13.137  0.2989E+02  0.0000E+00  0.1332E+03  0.1260E+03
    -12.896  0.4454E+02  0.2070E+00  0.1439E+03  0.1260E+03
    -12.655  0.2753E+00  0.5783E+02  0.1440E+03  0.1400E+03
    -12.414  0.0000E+00  0.1667E+02  0.1440E+03  0.1440E+03
    -12.173  0.0000E+00  0.0000E+00  0.1440E+03  0.1440E+03
    -11.933  0.0000E+00  0.0000E+00  0.1440E+03  0.1440E+03
    -11.692  0.0000E+00  0.0000E+00  0.1440E+03  0.1440E+03
    -11.451  0.0000E+00  0.0000E+00  0.1440E+03  0.1440E+03
    -11.210  0.0000E+00  0.0000E+00  0.1440E+03  0.1440E+03
    -10.969  0.0000E+00  0.0000E+00  0.1440E+03  0.1440E+03
    -10.728  0.0000E+00  0.0000E+00  0.1440E+03  0.1440E+03
    -10.487  0.0000E+00  0.0000E+00  0.1440E+03  0.1440E+03
    -10.246  0.0000E+00  0.0000E+00  0.1440E+03  0.1440E+03
    -10.005  0.0000E+00  0.0000E+00  0.1440E+03  0.1440E+03
     -9.764  0.0000E+00  0.0000E+00  0.1440E+03  0.1440E+03
     -9.523  0.0000E+00  0.0000E+00  0.1440E+03  0.1440E+03
     -9.282  0.0000E+00  0.0000E+00  0.1440E+03  0.1440E+03
     -9.041  0.0000E+00  0.0000E+00  0.1440E+03  0.1440E+03
     -8.800  0.0000E+00  0.0000E+00  0.1440E+03  0.1440E+03
     -8.559  0.0000E+00  0.0000E+00  0.1440E+03  0.1440E+03
     -8.318  0.0000E+00  0.0000E+00  0.1440E+03  0.1440E+03
     -8.077  0.0000E+00  0.0000E+00  0.1440E+03  0.1440E+03
     -7.837  0.3190E-10  0.0000E+00  0.1440E+03  0.1440E+03
     -7.596  0.5604E+00  0.3995E-11  0.1441E+03  0.1440E+03
     -7.355  0.1699E+02  0.4669E+00  0.1482E+03  0.1441E+03
     -7.114  0.3244E+02  0.1884E+02  0.1560E+03  0.1487E+03
     -6.873  0.3374E+02  0.3112E+02  0.1642E+03  0.1561E+03
     -6.632  0.2833E+02  0.2501E+02  0.1710E+03  0.1622E+03
     -6.391  0.9995E-04  0.3651E+02  0.1710E+03  0.1710E+03
     -6.150  0.0000E+00  0.1152E+00  0.1710E+03  0.1710E+03
     -5.909  0.0000E+00  0.0000E+00  0.1710E+03  0.1710E+03
     -5.668  0.0000E+00  0.0000E+00  0.1710E+03  0.1710E+03
     -5.427  0.0000E+00  0.0000E+00  0.1710E+03  0.1710E+03
     -5.186  0.0000E+00  0.0000E+00  0.1710E+03  0.1710E+03
     -4.945  0.0000E+00  0.0000E+00  0.1710E+03  0.1710E+03
     -4.704  0.0000E+00  0.0000E+00  0.1710E+03  0.1710E+03
     -4.463  0.0000E+00  0.0000E+00  0.1710E+03  0.1710E+03
     -4.222  0.0000E+00  0.0000E+00  0.1710E+03  0.1710E+03
     -3.981  0.0000E+00  0.0000E+00  0.1710E+03  0.1710E+03
     -3.740  0.0000E+00  0.0000E+00  0.1710E+03  0.1710E+03
     -3.500  0.0000E+00  0.0000E+00  0.1710E+03  0.1710E+03
     -3.259  0.0000E+00  0.0000E+00  0.1710E+03  0.1710E+03
     -3.018  0.0000E+00  0.0000E+00  0.1710E+03  0.1710E+03
     -2.777  0.0000E+00  0.0000E+00  0.1710E+03  0.1710E+03
     -2.536  0.0000E+00  0.0000E+00  0.1710E+03  0.1710E+03
     -2.295  0.0000E+00  0.0000E+00  0.1710E+03  0.1710E+03
     -2.054  0.5782E-02  0.0000E+00  0.1710E+03  0.1710E+03
     -1.813  0.2334E+02  0.0000E+00  0.1766E+03  0.1710E+03
     -1.572  0.1886E+02  0.0000E+00  0.1812E+03  0.1710E+03
     -1.331  0.1467E+02  0.0000E+00  0.1847E+03  0.1710E+03
     -1.090  0.2327E+02  0.0000E+00  0.1903E+03  0.1710E+03
     -0.849  0.5604E+02  0.0000E+00  0.2038E+03  0.1710E+03
     -0.608  0.6258E+02  0.1466E-03  0.2189E+03  0.1710E+03
     -0.367  0.3949E+02  0.8628E+01  0.2284E+03  0.1731E+03
     -0.126  0.8189E+02  0.2174E+02  0.2481E+03  0.1783E+03
      0.115  0.8876E+02  0.1299E+02  0.2695E+03  0.1814E+03
      0.356  0.8369E+02  0.2350E+02  0.2897E+03  0.1871E+03
      0.596  0.7266E+02  0.3056E+02  0.3072E+03  0.1945E+03
      0.837  0.6228E+02  0.4800E+02  0.3222E+03  0.2060E+03
      1.078  0.3972E+02  0.4071E+02  0.3318E+03  0.2158E+03
      1.319  0.3489E+02  0.3376E+02  0.3402E+03  0.2240E+03
      1.560  0.5090E+02  0.2407E+02  0.3524E+03  0.2298E+03
      1.801  0.5184E+02  0.3301E+02  0.3649E+03  0.2377E+03
      2.042  0.7530E+02  0.4082E+02  0.3831E+03  0.2476E+03
      2.283  0.6601E+02  0.2872E+02  0.3990E+03  0.2545E+03
      2.524  0.3124E+02  0.2925E+02  0.4065E+03  0.2615E+03
      2.765  0.5062E+02  0.3838E+02  0.4187E+03  0.2708E+03
      3.006  0.2568E+02  0.4580E+02  0.4249E+03  0.2818E+03
      3.247  0.9376E+01  0.4878E+02  0.4272E+03  0.2936E+03
      3.488  0.3856E+02  0.4214E+02  0.4364E+03  0.3037E+03
      3.729  0.2585E+02  0.7476E+01  0.4427E+03  0.3055E+03
      3.970  0.3648E+02  0.2120E+02  0.4515E+03  0.3106E+03
      4.211  0.3946E+02  0.7256E+02  0.4610E+03  0.3281E+03
      4.452  0.3813E+02  0.4606E+02  0.4702E+03  0.3392E+03
      4.693  0.3636E+02  0.1156E+02  0.4789E+03  0.3420E+03
      4.933  0.2557E+02  0.9749E-05  0.4851E+03  0.3420E+03
      5.174  0.3831E+01  0.0000E+00  0.4860E+03  0.3420E+03
      5.415  0.0000E+00  0.0000E+00  0.4860E+03  0.3420E+03
      5.656  0.0000E+00  0.0000E+00  0.4860E+03  0.3420E+03
      5.897  0.0000E+00  0.0000E+00  0.4860E+03  0.3420E+03
      6.138  0.0000E+00  0.2915E-09  0.4860E+03  0.3420E+03
      6.379  0.0000E+00  0.1208E+01  0.4860E+03  0.3423E+03
      6.620  0.0000E+00  0.5087E+01  0.4860E+03  0.3435E+03
      6.861  0.0000E+00  0.9629E+01  0.4860E+03  0.3458E+03
      7.102  0.8507E-14  0.2006E+02  0.4860E+03  0.3507E+03
      7.343  0.4151E-01  0.5986E+02  0.4860E+03  0.3651E+03
      7.584  0.1122E+00  0.6056E+02  0.4860E+03  0.3797E+03
      7.825  0.5711E+00  0.6309E+02  0.4862E+03  0.3949E+03
      8.066  0.5509E+00  0.7471E+02  0.4863E+03  0.4129E+03
      8.307  0.2401E+01  0.7920E+02  0.4869E+03  0.4320E+03
      8.548  0.4533E+01  0.7001E+02  0.4880E+03  0.4488E+03
      8.789  0.9464E+01  0.6655E+02  0.4903E+03  0.4649E+03
      9.029  0.1502E+02  0.4725E+02  0.4939E+03  0.4763E+03
      9.270  0.1593E+02  0.3324E+02  0.4977E+03  0.4843E+03
      9.511  0.1965E+02  0.9068E+01  0.5025E+03  0.4864E+03
      9.752  0.1568E+02  0.5563E+01  0.5062E+03  0.4878E+03
      9.993  0.2405E+02  0.1140E+02  0.5120E+03  0.4905E+03
     10.234  0.1688E+02  0.1617E+02  0.5161E+03  0.4944E+03
     10.475  0.2178E+02  0.2419E+02  0.5213E+03  0.5003E+03
     10.716  0.1466E+02  0.2173E+02  0.5249E+03  0.5055E+03
     10.957  0.1503E+02  0.2193E+02  0.5285E+03  0.5108E+03
     11.198  0.2189E+02  0.3193E+02  0.5338E+03  0.5185E+03
     11.439  0.3225E+02  0.2015E+02  0.5415E+03  0.5233E+03
     11.680  0.2888E+02  0.1855E+02  0.5485E+03  0.5278E+03
     11.921  0.3281E+02  0.1181E+02  0.5564E+03  0.5306E+03
     12.162  0.3651E+02  0.2414E+02  0.5652E+03  0.5365E+03
     12.403  0.2210E+02  0.4468E+02  0.5705E+03  0.5472E+03
     12.644  0.1992E+02  0.3551E+02  0.5753E+03  0.5558E+03
     12.885  0.2556E+02  0.3318E+02  0.5815E+03  0.5638E+03
     13.126  0.2543E+02  0.2050E+02  0.5876E+03  0.5687E+03
     13.366  0.2835E+02  0.2366E+02  0.5944E+03  0.5744E+03
     13.607  0.2528E+02  0.3311E+02  0.6005E+03  0.5824E+03
     13.848  0.1856E+02  0.2647E+02  0.6050E+03  0.5888E+03
     14.089  0.4147E+01  0.2662E+02  0.6060E+03  0.5952E+03
     14.330  0.7394E-03  0.2253E+02  0.6060E+03  0.6006E+03
     14.571  0.0000E+00  0.1987E+02  0.6060E+03  0.6054E+03
     14.812  0.0000E+00  0.2492E+01  0.6060E+03  0.6060E+03
     15.053  0.0000E+00  0.2223E-05  0.6060E+03  0.6060E+03
     15.294  0.0000E+00  0.0000E+00  0.6060E+03  0.6060E+03
     15.535  0.0000E+00  0.0000E+00  0.6060E+03  0.6060E+03
     15.776  0.0000E+00  0.0000E+00  0.6060E+03  0.6060E+03
     16.017  0.0000E+00  0.0000E+00  0.6060E+03  0.6060E+03
     16.258  0.0000E+00  0.0000E+00  0.6060E+03  0.6060E+03
     16.499  0.0000E+00  0.0000E+00  0.6060E+03  0.6060E+03
     16.740  0.0000E+00  0.0000E+00  0.6060E+03  0.6060E+03
     16.981  0.0000E+00  0.0000E+00  0.6060E+03  0.6060E+03
     17.222  0.0000E+00  0.0000E+00  0.6060E+03  0.6060E+03
     17.462  0.0000E+00  0.0000E+00  0.6060E+03  0.6060E+03
     17.703  0.0000E+00  0.0000E+00  0.6060E+03  0.6060E+03
     17.944  0.0000E+00  0.0000E+00  0.6060E+03  0.6060E+03
