<?xml version="1.0" encoding="ISO-8859-1"?>
<modeling>
 <generator>
  <i name="program" type="string">vasp </i>
  <i name="version" type="string">5.4.4.18Apr17-6-g9f103f2a35  </i>
  <i name="subversion" type="string">(build Oct 25 2017 14:42:18) complex            parallel </i>
  <i name="platform" type="string">LinuxIFC </i>
  <i name="date" type="string">2021 06 02 </i>
  <i name="time" type="string">16:58:48 </i>
 </generator>
 <incar>
  <i type="string" name="PREC">accurate</i>
  <i type="string" name="ALGO"> normal</i>
  <i type="logical" name="ADDGRID"> T  </i>
  <i type="int" name="ISPIN">     2</i>
  <i type="int" name="ICHARG">     1</i>
  <i type="int" name="NELM">   200</i>
  <i type="int" name="NELMIN">     8</i>
  <i name="EDIFF">      0.00000100</i>
  <i type="int" name="ISYM">     0</i>
  <i name="ENCUT">    650.00000000</i>
  <v name="MAGMOM">      0.60000000      0.60000000      0.60000000      0.60000000      0.60000000      0.60000000      0.60000000      0.60000000      0.60000000      0.60000000      0.60000000      0.60000000      0.60000000      0.60000000      0.60000000      0.60000000      0.60000000      0.60000000      0.60000000      0.60000000
      0.60000000      0.60000000      0.60000000      0.60000000      0.60000000      0.60000000      0.60000000      0.60000000      0.60000000      0.60000000      0.60000000      0.60000000      0.60000000      0.60000000      0.60000000      0.60000000      0.60000000      0.60000000      0.60000000      0.60000000
      0.60000000      0.60000000      0.60000000      0.60000000      0.60000000      0.60000000      0.60000000      0.60000000      0.60000000      0.60000000      0.60000000      0.60000000      0.60000000      0.60000000      0.60000000      0.60000000      5.00000000      5.00000000      5.00000000      5.00000000
      5.00000000      5.00000000      5.00000000      5.00000000      5.00000000      5.00000000      5.00000000      5.00000000      5.00000000      5.00000000      5.00000000      5.00000000      5.00000000      5.00000000      5.00000000      5.00000000      5.00000000      5.00000000      5.00000000      5.00000000
      5.00000000      5.00000000      5.00000000      5.00000000      5.00000000      5.00000000      5.00000000      5.00000000</v>
  <i type="logical" name="LREAL"> F  </i>
  <i type="int" name="ISMEAR">     0</i>
  <i name="SIGMA">      0.05000000</i>
  <i type="int" name="NWRITE">     1</i>
  <i type="int" name="LMAXMIX">     4</i>
  <i type="logical" name="LWAVE"> F  </i>
  <i type="logical" name="LASPH"> T  </i>
  <v type="int" name="KPOINT_BSE">    -1     0     0     0</v>
  <i type="int" name="NELM">   200</i>
  <i type="string" name="GGA"> pe</i>
  <i type="logical" name="LDAU"> T  </i>
  <v type="int" name="LDAUTYPE">     2</v>
  <v type="int" name="LDAUL">    -1    -1    -1     2</v>
  <v name="LDAUU">      0.00000000      0.00000000      0.00000000      4.00000000</v>
  <v name="LDAUJ">      0.00000000      0.00000000      0.00000000      0.00000000</v>
  <i type="logical" name="LASPH"> T  </i>
 </incar>
 <structure name="primitive_cell" >
  <crystal>
   <varray name="basis" >
    <v>      11.11223374       0.00000000      -0.00029034 </v>
    <v>       0.00000000      11.11745194       0.00000000 </v>
    <v>      -2.77510898       0.00000000      10.19872221 </v>
   </varray>
   <i name="volume">   1259.93837498 </i>
   <varray name="rec_basis" >
    <v>       0.08999155       0.00000000       0.02448702 </v>
    <v>       0.00000000       0.08994867       0.00000000 </v>
    <v>       0.00000256       0.00000000       0.09805220 </v>
   </varray>
  </crystal>
  <varray name="positions" >
   <v>       0.28894970       0.46933910       0.15583616 </v>
   <v>       0.17529533      -0.40661825       0.19749617 </v>
   <v>       0.42345029       0.34530995       0.19749407 </v>
   <v>       0.37560721      -0.40565694      -0.00000412 </v>
   <v>       0.12439279       0.34434306       0.00000412 </v>
   <v>      -0.46151602       0.46936404       0.15397331 </v>
   <v>       0.03848398       0.46936404       0.15397331 </v>
   <v>       0.28861657       0.21935690       0.15447525 </v>
   <v>       0.28861657      -0.28064310       0.15447525 </v>
   <v>       0.21868463       0.34523395       0.37102476 </v>
   <v>       0.46681660      -0.40655103       0.37102399 </v>
   <v>       0.23507288      -0.41767349       0.39367237 </v>
   <v>       0.46175575       0.35634799       0.39367694 </v>
   <v>       0.21138343       0.46935690      -0.15447525 </v>
   <v>       0.04646972       0.21934976       0.18586770 </v>
   <v>       0.04646972      -0.28065024       0.18586770 </v>
   <v>      -0.45353028       0.21934976       0.18586770 </v>
   <v>      -0.45353028      -0.28065024       0.18586770 </v>
   <v>       0.32470467       0.34338175      -0.19749617 </v>
   <v>       0.07654971      -0.40469005      -0.19749407 </v>
   <v>       0.21105030       0.21933910      -0.15583616 </v>
   <v>       0.21105030      -0.28066090      -0.15583616 </v>
   <v>      -0.07654971       0.34530995       0.19749407 </v>
   <v>      -0.32470467      -0.40661825       0.19749617 </v>
   <v>       0.17529533       0.09338175       0.19749617 </v>
   <v>       0.42345029      -0.15469005       0.19749407 </v>
   <v>       0.45353028       0.46934976      -0.18586770 </v>
   <v>      -0.04646972       0.46934976      -0.18586770 </v>
   <v>      -0.37560721       0.34434306       0.00000412 </v>
   <v>      -0.12439279      -0.40565694      -0.00000412 </v>
   <v>       0.37560721       0.09434306      -0.00000412 </v>
   <v>       0.12439279      -0.15565694       0.00000412 </v>
   <v>      -0.03318340      -0.40655103       0.37102399 </v>
   <v>      -0.28131537       0.34523395       0.37102476 </v>
   <v>       0.21868463      -0.15476605       0.37102476 </v>
   <v>       0.46771651       0.09344897       0.37102399 </v>
   <v>       0.46151602       0.21936404      -0.15397331 </v>
   <v>       0.46151602      -0.28063596      -0.15397331 </v>
   <v>      -0.03848398       0.21936404      -0.15397331 </v>
   <v>      -0.03848398      -0.28063596      -0.15397331 </v>
   <v>       0.26492712       0.33232651      -0.39367237 </v>
   <v>      -0.46175575      -0.39365201      -0.39367694 </v>
   <v>      -0.03824425       0.35634799       0.39367694 </v>
   <v>      -0.26492712      -0.41767349       0.39367237 </v>
   <v>       0.23507288       0.08232651       0.39367237 </v>
   <v>       0.46175575      -0.14365201       0.39367694 </v>
   <v>       0.28131537      -0.40476605      -0.37102476 </v>
   <v>      -0.46681660       0.34344897      -0.37102399 </v>
   <v>      -0.21105030       0.46933910       0.15583616 </v>
   <v>       0.28894970      -0.03066090       0.15583616 </v>
   <v>       0.32470467      -0.15661825      -0.19749617 </v>
   <v>       0.07654971       0.09530995      -0.19749407 </v>
   <v>      -0.42345029      -0.40469005      -0.19749407 </v>
   <v>      -0.17529533       0.34338175      -0.19749617 </v>
   <v>       0.03318340       0.34344897      -0.37102399 </v>
   <v>      -0.07654971      -0.15469005       0.19749407 </v>
   <v>      -0.32470467       0.09338175       0.19749617 </v>
   <v>       0.03824425      -0.39365201      -0.39367694 </v>
   <v>      -0.37560721      -0.15565694       0.00000412 </v>
   <v>      -0.12439279       0.09434306      -0.00000412 </v>
   <v>      -0.21138343       0.21935690       0.15447525 </v>
   <v>      -0.21138343      -0.28064310       0.15447525 </v>
   <v>      -0.46151602      -0.03063596       0.15397331 </v>
   <v>       0.03848398      -0.03063596       0.15397331 </v>
   <v>       0.26492712      -0.16767349      -0.39367237 </v>
   <v>      -0.46175575       0.10634799      -0.39367694 </v>
   <v>      -0.03318340       0.09344897       0.37102399 </v>
   <v>      -0.28131537      -0.15476605       0.37102476 </v>
   <v>      -0.23507288       0.33232651      -0.39367237 </v>
   <v>      -0.28861657       0.46935690      -0.15447525 </v>
   <v>       0.21138343      -0.03064310      -0.15447525 </v>
   <v>      -0.21868463      -0.40476605      -0.37102476 </v>
   <v>       0.28131537       0.09523395      -0.37102476 </v>
   <v>      -0.46681660      -0.15655103      -0.37102399 </v>
   <v>      -0.03824425      -0.14365201       0.39367694 </v>
   <v>      -0.26492712       0.08232651       0.39367237 </v>
   <v>      -0.42345029       0.09530995      -0.19749407 </v>
   <v>      -0.17529533      -0.15661825      -0.19749617 </v>
   <v>       0.03318340      -0.15655103      -0.37102399 </v>
   <v>      -0.28894970       0.21933910      -0.15583616 </v>
   <v>      -0.28894970      -0.28066090      -0.15583616 </v>
   <v>       0.03824425       0.10634799      -0.39367694 </v>
   <v>       0.45353028      -0.03065024      -0.18586770 </v>
   <v>      -0.04646972      -0.03065024      -0.18586770 </v>
   <v>      -0.23507288      -0.16767349      -0.39367237 </v>
   <v>      -0.21868463       0.09523395      -0.37102476 </v>
   <v>      -0.21105030      -0.03066090       0.15583616 </v>
   <v>      -0.28861657      -0.03064310      -0.15447525 </v>
  </varray>
 </structure>
 <varray name="primitive_index" >
  <v type="int" >        1 </v>
  <v type="int" >       27 </v>
  <v type="int" >       29 </v>
  <v type="int" >       55 </v>
  <v type="int" >       49 </v>
  <v type="int" >       74 </v>
  <v type="int" >       73 </v>
  <v type="int" >       77 </v>
  <v type="int" >       79 </v>
  <v type="int" >       33 </v>
  <v type="int" >       39 </v>
  <v type="int" >       67 </v>
  <v type="int" >       69 </v>
  <v type="int" >       81 </v>
  <v type="int" >        5 </v>
  <v type="int" >        7 </v>
  <v type="int" >        6 </v>
  <v type="int" >        8 </v>
  <v type="int" >       21 </v>
  <v type="int" >       19 </v>
  <v type="int" >       13 </v>
  <v type="int" >       15 </v>
  <v type="int" >       30 </v>
  <v type="int" >       28 </v>
  <v type="int" >       25 </v>
  <v type="int" >       31 </v>
  <v type="int" >        9 </v>
  <v type="int" >       10 </v>
  <v type="int" >       50 </v>
  <v type="int" >       56 </v>
  <v type="int" >       53 </v>
  <v type="int" >       51 </v>
  <v type="int" >       40 </v>
  <v type="int" >       34 </v>
  <v type="int" >       35 </v>
  <v type="int" >       37 </v>
  <v type="int" >       85 </v>
  <v type="int" >       87 </v>
  <v type="int" >       86 </v>
  <v type="int" >       88 </v>
  <v type="int" >       61 </v>
  <v type="int" >       60 </v>
  <v type="int" >       70 </v>
  <v type="int" >       68 </v>
  <v type="int" >       65 </v>
  <v type="int" >       71 </v>
  <v type="int" >       47 </v>
  <v type="int" >       42 </v>
  <v type="int" >        2 </v>
  <v type="int" >        3 </v>
  <v type="int" >       23 </v>
  <v type="int" >       17 </v>
  <v type="int" >       20 </v>
  <v type="int" >       22 </v>
  <v type="int" >       41 </v>
  <v type="int" >       32 </v>
  <v type="int" >       26 </v>
  <v type="int" >       59 </v>
  <v type="int" >       52 </v>
  <v type="int" >       54 </v>
  <v type="int" >       78 </v>
  <v type="int" >       80 </v>
  <v type="int" >       76 </v>
  <v type="int" >       75 </v>
  <v type="int" >       63 </v>
  <v type="int" >       58 </v>
  <v type="int" >       38 </v>
  <v type="int" >       36 </v>
  <v type="int" >       62 </v>
  <v type="int" >       82 </v>
  <v type="int" >       83 </v>
  <v type="int" >       48 </v>
  <v type="int" >       45 </v>
  <v type="int" >       44 </v>
  <v type="int" >       72 </v>
  <v type="int" >       66 </v>
  <v type="int" >       18 </v>
  <v type="int" >       24 </v>
  <v type="int" >       43 </v>
  <v type="int" >       14 </v>
  <v type="int" >       16 </v>
  <v type="int" >       57 </v>
  <v type="int" >       11 </v>
  <v type="int" >       12 </v>
  <v type="int" >       64 </v>
  <v type="int" >       46 </v>
  <v type="int" >        4 </v>
  <v type="int" >       84 </v>
 </varray>
 <kpoints>
  <generation param="Gamma">
   <v type="int" name="divisions">       3        3        3 </v>
   <v name="usershift">      0.00000000       0.00000000       0.00000000 </v>
   <v name="genvec1">      0.33333333       0.00000000       0.00000000 </v>
   <v name="genvec2">      0.00000000       0.33333333       0.00000000 </v>
   <v name="genvec3">      0.00000000       0.00000000       0.33333333 </v>
   <v name="shift">      0.00000000       0.00000000       0.00000000 </v>
  </generation>
  <varray name="kpointlist" >
   <v>       0.00000000       0.00000000       0.00000000 </v>
   <v>       0.33333333       0.00000000       0.00000000 </v>
   <v>       0.00000000       0.33333333       0.00000000 </v>
   <v>       0.33333333       0.33333333       0.00000000 </v>
   <v>      -0.33333333       0.33333333      -0.00000000 </v>
   <v>       0.00000000       0.00000000       0.33333333 </v>
   <v>       0.33333333       0.00000000       0.33333333 </v>
   <v>      -0.33333333       0.00000000       0.33333333 </v>
   <v>       0.00000000       0.33333333       0.33333333 </v>
   <v>       0.33333333       0.33333333       0.33333333 </v>
   <v>      -0.33333333       0.33333333       0.33333333 </v>
   <v>       0.00000000      -0.33333333       0.33333333 </v>
   <v>       0.33333333      -0.33333333       0.33333333 </v>
   <v>      -0.33333333      -0.33333333       0.33333333 </v>
  </varray>
  <varray name="weights" >
   <v>       0.03703704 </v>
   <v>       0.07407407 </v>
   <v>       0.07407407 </v>
   <v>       0.07407407 </v>
   <v>       0.07407407 </v>
   <v>       0.07407407 </v>
   <v>       0.07407407 </v>
   <v>       0.07407407 </v>
   <v>       0.07407407 </v>
   <v>       0.07407407 </v>
   <v>       0.07407407 </v>
   <v>       0.07407407 </v>
   <v>       0.07407407 </v>
   <v>       0.07407407 </v>
  </varray>
 </kpoints>
 <parameters>
  <separator name="general" >
   <i type="string" name="SYSTEM">unknown system</i>
   <i type="logical" name="LCOMPAT"> F  </i>
  </separator>
  <separator name="electronic" >
   <i type="string" name="PREC">accura</i>
   <i name="ENMAX">    650.00000000</i>
   <i name="ENAUG">    628.94500000</i>
   <i name="EDIFF">      0.00000100</i>
   <i type="int" name="IALGO">    38</i>
   <i type="int" name="IWAVPR">    10</i>
   <i type="int" name="NBANDS">   538</i>
   <i name="NELECT">    736.00000000</i>
   <i type="int" name="TURBO">     0</i>
   <i type="int" name="IRESTART">     0</i>
   <i type="int" name="NREBOOT">     0</i>
   <i type="int" name="NMIN">     0</i>
   <i name="EREF">      0.00000000</i>
   <separator name="electronic smearing" >
    <i type="int" name="ISMEAR">     0</i>
    <i name="SIGMA">      0.05000000</i>
    <i name="KSPACING">      0.50000000</i>
    <i type="logical" name="KGAMMA"> T  </i>
   </separator>
   <separator name="electronic projectors" >
    <i type="logical" name="LREAL"> F  </i>
    <v name="ROPT">      0.00000000      0.00000000      0.00000000      0.00000000</v>
    <i type="int" name="LMAXPAW">  -100</i>
    <i type="int" name="LMAXMIX">     4</i>
    <i type="logical" name="NLSPLINE"> F  </i>
   </separator>
   <separator name="electronic startup" >
    <i type="int" name="ISTART">     0</i>
    <i type="int" name="ICHARG">     1</i>
    <i type="int" name="INIWAV">     1</i>
   </separator>
   <separator name="electronic spin" >
    <i type="int" name="ISPIN">     2</i>
    <i type="logical" name="LNONCOLLINEAR"> F  </i>
    <v name="MAGMOM">      0.60000000      0.60000000      0.60000000      0.60000000      0.60000000      0.60000000      0.60000000      0.60000000      0.60000000      0.60000000      0.60000000      0.60000000      0.60000000      0.60000000      0.60000000      0.60000000      0.60000000      0.60000000      0.60000000      0.60000000
      0.60000000      0.60000000      0.60000000      0.60000000      0.60000000      0.60000000      0.60000000      0.60000000      0.60000000      0.60000000      0.60000000      0.60000000      0.60000000      0.60000000      0.60000000      0.60000000      0.60000000      0.60000000      0.60000000      0.60000000
      0.60000000      0.60000000      0.60000000      0.60000000      0.60000000      0.60000000      0.60000000      0.60000000      0.60000000      0.60000000      0.60000000      0.60000000      0.60000000      0.60000000      0.60000000      0.60000000      5.00000000      5.00000000      5.00000000      5.00000000
      5.00000000      5.00000000      5.00000000      5.00000000      5.00000000      5.00000000      5.00000000      5.00000000      5.00000000      5.00000000      5.00000000      5.00000000      5.00000000      5.00000000      5.00000000      5.00000000      5.00000000      5.00000000      5.00000000      5.00000000
      5.00000000      5.00000000      5.00000000      5.00000000      5.00000000      5.00000000      5.00000000      5.00000000</v>
    <i name="NUPDOWN">     -1.00000000</i>
    <i type="logical" name="LSORBIT"> F  </i>
    <v name="SAXIS">      0.00000000      0.00000000      1.00000000</v>
    <i type="logical" name="LSPIRAL"> F  </i>
    <v name="QSPIRAL">      0.00000000      0.00000000      0.00000000</v>
    <i type="logical" name="LZEROZ"> F  </i>
   </separator>
   <separator name="electronic exchange-correlation" >
    <i type="logical" name="LASPH"> T  </i>
    <i type="logical" name="LMETAGGA"> F  </i>
   </separator>
   <separator name="electronic convergence" >
    <i type="int" name="NELM">   200</i>
    <i type="int" name="NELMDL">     0</i>
    <i type="int" name="NELMIN">     8</i>
    <i name="ENINI">    650.00000000</i>
    <separator name="electronic convergence detail" >
     <i type="logical" name="LDIAG"> T  </i>
     <i type="logical" name="LSUBROT"> F  </i>
     <i name="WEIMIN">      0.00000000</i>
     <i name="EBREAK">      0.00000000</i>
     <i name="DEPER">      0.30000000</i>
     <i type="int" name="NRMM">     4</i>
     <i name="TIME">      0.40000000</i>
    </separator>
   </separator>
   <separator name="electronic mixer" >
    <i name="AMIX">      0.40000000</i>
    <i name="BMIX">      1.00000000</i>
    <i name="AMIN">      0.10000000</i>
    <i name="AMIX_MAG">      1.60000000</i>
    <i name="BMIX_MAG">      1.00000000</i>
    <separator name="electronic mixer details" >
     <i type="int" name="IMIX">     4</i>
     <i type="logical" name="MIXFIRST"> F  </i>
     <i type="int" name="MAXMIX">   -45</i>
     <i name="WC">    100.00000000</i>
     <i type="int" name="INIMIX">     1</i>
     <i type="int" name="MIXPRE">     1</i>
     <i type="int" name="MREMOVE">     5</i>
    </separator>
   </separator>
   <separator name="electronic dipolcorrection" >
    <i type="logical" name="LDIPOL"> F  </i>
    <i type="logical" name="LMONO"> F  </i>
    <i type="int" name="IDIPOL">     0</i>
    <i name="EPSILON">      1.00000000</i>
    <v name="DIPOL">   -100.00000000   -100.00000000   -100.00000000</v>
    <i name="EFIELD">      0.00000000</i>
   </separator>
  </separator>
  <separator name="grids" >
   <i type="int" name="NGX">    96</i>
   <i type="int" name="NGY">    96</i>
   <i type="int" name="NGZ">    90</i>
   <i type="int" name="NGXF">   192</i>
   <i type="int" name="NGYF">   192</i>
   <i type="int" name="NGZF">   180</i>
   <i type="logical" name="ADDGRID"> T  </i>
  </separator>
  <separator name="ionic" >
   <i type="int" name="NSW">     0</i>
   <i type="int" name="IBRION">    -1</i>
   <i type="int" name="MDALGO">     0</i>
   <i type="int" name="ISIF">     2</i>
   <i name="PSTRESS">      0.00000000</i>
   <i name="EDIFFG">      0.00001000</i>
   <i type="int" name="NFREE">     0</i>
   <i name="POTIM">      0.50000000</i>
   <i name="SMASS">     -3.00000000</i>
   <i name="SCALEE">      1.00000000</i>
  </separator>
  <separator name="ionic md" >
   <i name="TEBEG">      0.00010000</i>
   <i name="TEEND">      0.00010000</i>
   <i type="int" name="NBLOCK">     1</i>
   <i type="int" name="KBLOCK">     1</i>
   <i type="int" name="NPACO">   256</i>
   <i name="APACO">     16.00000000</i>
  </separator>
  <separator name="symmetry" >
   <i type="int" name="ISYM">     0</i>
   <i name="SYMPREC">      0.00001000</i>
  </separator>
  <separator name="dos" >
   <i type="int" name="LORBIT">     0</i>
   <v name="RWIGS">     -1.00000000     -1.00000000     -1.00000000     -1.00000000</v>
   <i type="int" name="NEDOS">   301</i>
   <i name="EMIN">     10.00000000</i>
   <i name="EMAX">    -10.00000000</i>
   <i name="EFERMI">      0.00000000</i>
  </separator>
  <separator name="writing" >
   <i type="int" name="NWRITE">     1</i>
   <i type="logical" name="LWAVE"> F  </i>
   <i type="logical" name="LDOWNSAMPLE"> F  </i>
   <i type="logical" name="LCHARG"> T  </i>
   <i type="logical" name="LPARD"> F  </i>
   <i type="logical" name="LVTOT"> F  </i>
   <i type="logical" name="LVHAR"> F  </i>
   <i type="logical" name="LELF"> F  </i>
   <i type="logical" name="LOPTICS"> F  </i>
   <v name="STM">      0.00000000      0.00000000      0.00000000      0.00000000      0.00000000      0.00000000      0.00000000</v>
  </separator>
  <separator name="performance" >
   <i type="int" name="NPAR">     2</i>
   <i type="int" name="NSIM">     4</i>
   <i type="int" name="NBLK">    -1</i>
   <i type="logical" name="LPLANE"> T  </i>
   <i type="logical" name="LSCALAPACK"> T  </i>
   <i type="logical" name="LSCAAWARE"> F  </i>
   <i type="logical" name="LSCALU"> F  </i>
   <i type="logical" name="LASYNC"> F  </i>
   <i type="logical" name="LORBITALREAL"> F  </i>
  </separator>
  <separator name="miscellaneous" >
   <i type="int" name="IDIOT">     3</i>
   <i type="int" name="ISPECIAL">     0</i>
   <i type="logical" name="LMUSIC"> F  </i>
   <v name="POMASS">      7.01000000     16.00000000     32.06600000     55.84700000</v>
   <v name="DARWINR">      0.00000000      0.00000000      0.00000000      0.00000000</v>
   <v name="DARWINV">      1.00000000      1.00000000      1.00000000      1.00000000</v>
   <i type="logical" name="LCORR"> T  </i>
  </separator>
  <i type="logical" name="GGA_COMPAT"> T  </i>
  <i type="logical" name="LBERRY"> F  </i>
  <i type="int" name="ICORELEVEL">     0</i>
  <i type="logical" name="LDAU"> T  </i>
  <v type="int" name="LDAUTYPE">     2</v>
  <v type="int" name="LDAUL">    -1</v>
  <v name="LDAUU">      0.00000000</v>
  <v name="LDAUJ">      0.00000000</v>
  <i type="int" name="LDAUPRINT">     0</i>
  <i type="int" name="I_CONSTRAINED_M">     0</i>
  <separator name="electronic exchange-correlation" >
   <i type="string" name="GGA">PE</i>
   <i type="int" name="VOSKOWN">     0</i>
   <i type="logical" name="LHFCALC"> F  </i>
   <i type="string" name="PRECFOCK"></i>
   <i type="logical" name="LSYMGRAD"> F  </i>
   <i type="logical" name="LHFONE"> F  </i>
   <i type="logical" name="LRHFCALC"> F  </i>
   <i type="logical" name="LTHOMAS"> F  </i>
   <i type="logical" name="LMODELHF"> F  </i>
   <i name="ENCUT4O">     -1.00000000</i>
   <i type="int" name="EXXOEP">     0</i>
   <i type="int" name="FOURORBIT">     0</i>
   <i name="AEXX">      0.00000000</i>
   <i name="HFALPHA">      0.00000000</i>
   <i name="MCALPHA">      0.00000000</i>
   <i name="ALDAX">      1.00000000</i>
   <i name="AGGAX">      1.00000000</i>
   <i name="ALDAC">      1.00000000</i>
   <i name="AGGAC">      1.00000000</i>
   <i type="int" name="NKREDX">     1</i>
   <i type="int" name="NKREDY">     1</i>
   <i type="int" name="NKREDZ">     1</i>
   <i type="logical" name="SHIFTRED"> F  </i>
   <i type="logical" name="ODDONLY"> F  </i>
   <i type="logical" name="EVENONLY"> F  </i>
   <i type="int" name="LMAXFOCK">     0</i>
   <i type="int" name="NMAXFOCKAE">     0</i>
   <i type="logical" name="LFOCKAEDFT"> F  </i>
   <i name="HFSCREEN">      0.00000000</i>
   <i name="HFSCREENC">      0.00000000</i>
   <i type="int" name="NBANDSGWLOW">     0</i>
  </separator>
  <separator name="vdW DFT" >
   <i type="logical" name="LUSE_VDW"> F  </i>
   <i name="Zab_VDW">     -0.84910000</i>
   <i name="PARAM1">      0.12340000</i>
   <i name="PARAM2">      1.00000000</i>
   <i name="PARAM3">      0.00000000</i>
  </separator>
  <separator name="model GW" >
   <i type="int" name="MODEL_GW">     0</i>
   <i name="MODEL_EPS0">      8.59048892</i>
   <i name="MODEL_ALPHA">      1.00000000</i>
  </separator>
  <separator name="linear response parameters" >
   <i type="logical" name="LEPSILON"> F  </i>
   <i type="logical" name="LRPA"> F  </i>
   <i type="logical" name="LNABLA"> F  </i>
   <i type="logical" name="LVEL"> F  </i>
   <i type="int" name="KINTER">     0</i>
   <i name="CSHIFT">      0.10000000</i>
   <i name="OMEGAMAX">     -1.00000000</i>
   <i name="DEG_THRESHOLD">      0.00200000</i>
   <i name="RTIME">     -0.10000000</i>
   <i name="WPLASMAI">      0.00000000</i>
   <v name="DFIELD">      0.00000000      0.00000000      0.00000000</v>
   <v name="WPLASMA">      0.00000000      0.00000000      0.00000000      0.00000000      0.00000000      0.00000000      0.00000000      0.00000000      0.00000000</v>
  </separator>
  <separator name="orbital magnetization" >
   <i type="logical" name="NUCIND"> F  </i>
   <v name="MAGPOS">      0.00000000      0.00000000      0.00000000</v>
   <i type="logical" name="LNICSALL"> T  </i>
   <i type="logical" name="ORBITALMAG"> F  </i>
   <i type="logical" name="LMAGBLOCH"> F  </i>
   <i type="logical" name="LCHIMAG"> F  </i>
   <i type="logical" name="LGAUGE"> T  </i>
   <i type="int" name="MAGATOM">     0</i>
   <v name="MAGDIPOL">      0.00000000      0.00000000      0.00000000</v>
   <v name="AVECCONST">      0.00000000      0.00000000      0.00000000</v>
  </separator>
  <separator name="response functions" >
   <i type="logical" name="LADDER"> F  </i>
   <i type="logical" name="LRPAFORCE"> F  </i>
   <i type="logical" name="LFXC"> F  </i>
   <i type="logical" name="LHARTREE"> T  </i>
   <i type="int" name="IBSE">     0</i>
   <v type="int" name="KPOINT">    -1     0     0     0</v>
   <i type="logical" name="LTCTE"> F  </i>
   <i type="logical" name="LTETE"> F  </i>
   <i type="logical" name="LTRIPLET"> F  </i>
   <i type="logical" name="LFXCEPS"> F  </i>
   <i type="logical" name="LFXHEG"> F  </i>
   <i type="int" name="NATURALO">     2</i>
   <i type="logical" name="L2ORDER"> F  </i>
   <i type="logical" name="LMP2LT"> F  </i>
   <i type="logical" name="LUSEW"> F  </i>
   <i name="ENCUTGW">     -2.00000000</i>
   <i name="ENCUTGWSOFT">     -2.00000000</i>
   <i name="ENCUTLF">     -1.00000000</i>
   <i type="int" name="LMAXMP2">    -1</i>
   <i name="SCISSOR">      0.00000000</i>
   <i type="int" name="NOMEGA">     0</i>
   <i type="int" name="NOMEGAR">     0</i>
   <i type="int" name="NBANDSGW">    -1</i>
   <i type="int" name="NBANDSO">    -1</i>
   <i type="int" name="NBANDSV">    -1</i>
   <i type="int" name="NELM">   200</i>
   <i type="int" name="NELMHF">     1</i>
   <i type="int" name="DIM">     3</i>
   <i type="int" name="ANTIRES">     0</i>
   <i name="OMEGAMAX">    -30.00000000</i>
   <i name="OMEGAMIN">    -30.00000000</i>
   <i name="OMEGATL">   -200.00000000</i>
   <i type="int" name="OMEGAGRID">   140</i>
   <i name="CSHIFT">     -0.10000000</i>
   <i type="logical" name="SELFENERGY"> F  </i>
   <i type="logical" name="LSPECTRAL"> F  </i>
   <i type="logical" name="LSPECTRALGW"> F  </i>
   <i type="logical" name="LSINGLES"> F  </i>
   <i type="logical" name="LFERMIGW"> F  </i>
   <i type="logical" name="ODDONLYGW"> F  </i>
   <i type="logical" name="EVENONLYGW"> F  </i>
   <i type="int" name="NKREDLFX">     1</i>
   <i type="int" name="NKREDLFY">     1</i>
   <i type="int" name="NKREDLFZ">     1</i>
   <i type="int" name="MAXMEM">  2800</i>
   <i type="int" name="TELESCOPE">     0</i>
   <i type="int" name="TAUPAR">     1</i>
   <i type="int" name="OMEGAPAR">    -1</i>
   <i name="LAMBDA">      1.00000000</i>
  </separator>
  <separator name="External order field" >
   <i name="OFIELD_KAPPA">      0.00000000</i>
   <v name="OFIELD_K">      0.00000000      0.00000000      0.00000000</v>
   <i name="OFIELD_Q6_NEAR">      0.00000000</i>
   <i name="OFIELD_Q6_FAR">      0.00000000</i>
   <i name="OFIELD_A">      0.00000000</i>
  </separator>
 </parameters>
 <atominfo>
  <atoms>      88 </atoms>
  <types>       4 </types>
  <array name="atoms" >
   <dimension dim="1">ion</dimension>
   <field type="string">element</field>
   <field type="int">atomtype</field>
   <set>
    <rc><c>Li</c><c>   1</c></rc>
    <rc><c>Li</c><c>   1</c></rc>
    <rc><c>Li</c><c>   1</c></rc>
    <rc><c>Li</c><c>   1</c></rc>
    <rc><c>Li</c><c>   1</c></rc>
    <rc><c>Li</c><c>   1</c></rc>
    <rc><c>Li</c><c>   1</c></rc>
    <rc><c>Li</c><c>   1</c></rc>
    <rc><c>Li</c><c>   1</c></rc>
    <rc><c>Li</c><c>   1</c></rc>
    <rc><c>Li</c><c>   1</c></rc>
    <rc><c>Li</c><c>   1</c></rc>
    <rc><c>Li</c><c>   1</c></rc>
    <rc><c>Li</c><c>   1</c></rc>
    <rc><c>Li</c><c>   1</c></rc>
    <rc><c>Li</c><c>   1</c></rc>
    <rc><c>O </c><c>   2</c></rc>
    <rc><c>O </c><c>   2</c></rc>
    <rc><c>O </c><c>   2</c></rc>
    <rc><c>O </c><c>   2</c></rc>
    <rc><c>O </c><c>   2</c></rc>
    <rc><c>O </c><c>   2</c></rc>
    <rc><c>O </c><c>   2</c></rc>
    <rc><c>O </c><c>   2</c></rc>
    <rc><c>O </c><c>   2</c></rc>
    <rc><c>O </c><c>   2</c></rc>
    <rc><c>O </c><c>   2</c></rc>
    <rc><c>O </c><c>   2</c></rc>
    <rc><c>O </c><c>   2</c></rc>
    <rc><c>O </c><c>   2</c></rc>
    <rc><c>O </c><c>   2</c></rc>
    <rc><c>O </c><c>   2</c></rc>
    <rc><c>S </c><c>   3</c></rc>
    <rc><c>S </c><c>   3</c></rc>
    <rc><c>S </c><c>   3</c></rc>
    <rc><c>S </c><c>   3</c></rc>
    <rc><c>S </c><c>   3</c></rc>
    <rc><c>S </c><c>   3</c></rc>
    <rc><c>S </c><c>   3</c></rc>
    <rc><c>S </c><c>   3</c></rc>
    <rc><c>S </c><c>   3</c></rc>
    <rc><c>S </c><c>   3</c></rc>
    <rc><c>S </c><c>   3</c></rc>
    <rc><c>S </c><c>   3</c></rc>
    <rc><c>S </c><c>   3</c></rc>
    <rc><c>S </c><c>   3</c></rc>
    <rc><c>S </c><c>   3</c></rc>
    <rc><c>S </c><c>   3</c></rc>
    <rc><c>S </c><c>   3</c></rc>
    <rc><c>S </c><c>   3</c></rc>
    <rc><c>S </c><c>   3</c></rc>
    <rc><c>S </c><c>   3</c></rc>
    <rc><c>S </c><c>   3</c></rc>
    <rc><c>S </c><c>   3</c></rc>
    <rc><c>S </c><c>   3</c></rc>
    <rc><c>S </c><c>   3</c></rc>
    <rc><c>Fe</c><c>   4</c></rc>
    <rc><c>Fe</c><c>   4</c></rc>
    <rc><c>Fe</c><c>   4</c></rc>
    <rc><c>Fe</c><c>   4</c></rc>
    <rc><c>Fe</c><c>   4</c></rc>
    <rc><c>Fe</c><c>   4</c></rc>
    <rc><c>Fe</c><c>   4</c></rc>
    <rc><c>Fe</c><c>   4</c></rc>
    <rc><c>Fe</c><c>   4</c></rc>
    <rc><c>Fe</c><c>   4</c></rc>
    <rc><c>Fe</c><c>   4</c></rc>
    <rc><c>Fe</c><c>   4</c></rc>
    <rc><c>Fe</c><c>   4</c></rc>
    <rc><c>Fe</c><c>   4</c></rc>
    <rc><c>Fe</c><c>   4</c></rc>
    <rc><c>Fe</c><c>   4</c></rc>
    <rc><c>Fe</c><c>   4</c></rc>
    <rc><c>Fe</c><c>   4</c></rc>
    <rc><c>Fe</c><c>   4</c></rc>
    <rc><c>Fe</c><c>   4</c></rc>
    <rc><c>Fe</c><c>   4</c></rc>
    <rc><c>Fe</c><c>   4</c></rc>
    <rc><c>Fe</c><c>   4</c></rc>
    <rc><c>Fe</c><c>   4</c></rc>
    <rc><c>Fe</c><c>   4</c></rc>
    <rc><c>Fe</c><c>   4</c></rc>
    <rc><c>Fe</c><c>   4</c></rc>
    <rc><c>Fe</c><c>   4</c></rc>
    <rc><c>Fe</c><c>   4</c></rc>
    <rc><c>Fe</c><c>   4</c></rc>
    <rc><c>Fe</c><c>   4</c></rc>
    <rc><c>Fe</c><c>   4</c></rc>
   </set>
  </array>
  <array name="atomtypes" >
   <dimension dim="1">type</dimension>
   <field type="int">atomspertype</field>
   <field type="string">element</field>
   <field>mass</field>
   <field>valence</field>
   <field type="string">pseudopotential</field>
   <set>
    <rc><c>  16</c><c>Li</c><c>      7.01000000</c><c>      3.00000000</c><c>  PAW_PBE Li_sv 10Sep2004               </c></rc>
    <rc><c>  16</c><c>O </c><c>     16.00000000</c><c>      6.00000000</c><c>  PAW_PBE O 08Apr2002                   </c></rc>
    <rc><c>  24</c><c>S </c><c>     32.06600000</c><c>      6.00000000</c><c>  PAW_PBE S 06Sep2000                   </c></rc>
    <rc><c>  32</c><c>Fe</c><c>     55.84700000</c><c>     14.00000000</c><c>  PAW_PBE Fe_pv 02Aug2007               </c></rc>
   </set>
  </array>
 </atominfo>
 <structure name="initialpos" >
  <crystal>
   <varray name="basis" >
    <v>      11.11223374       0.00000000      -0.00029034 </v>
    <v>       0.00000000      11.11745194       0.00000000 </v>
    <v>      -2.77510898       0.00000000      10.19872221 </v>
   </varray>
   <i name="volume">   1259.93837498 </i>
   <varray name="rec_basis" >
    <v>       0.08999155       0.00000000       0.02448702 </v>
    <v>       0.00000000       0.08994867       0.00000000 </v>
    <v>       0.00000256       0.00000000       0.09805220 </v>
   </varray>
  </crystal>
  <varray name="positions" >
   <v>       0.28894969       0.46933910       0.15583616 </v>
   <v>       0.78894969       0.46933910       0.15583616 </v>
   <v>       0.28894969       0.96933910       0.15583616 </v>
   <v>       0.78894969       0.96933910       0.15583616 </v>
   <v>       0.04646972       0.21934976       0.18586770 </v>
   <v>       0.54646972       0.21934976       0.18586770 </v>
   <v>       0.04646972       0.71934976       0.18586770 </v>
   <v>       0.54646972       0.71934976       0.18586770 </v>
   <v>       0.45353028       0.46934976       0.81413230 </v>
   <v>       0.95353028       0.46934976       0.81413230 </v>
   <v>       0.45353028       0.96934976       0.81413230 </v>
   <v>       0.95353028       0.96934976       0.81413230 </v>
   <v>       0.21105031       0.21933910       0.84416384 </v>
   <v>       0.71105031       0.21933910       0.84416384 </v>
   <v>       0.21105031       0.71933910       0.84416384 </v>
   <v>       0.71105031       0.71933910       0.84416384 </v>
   <v>       0.07654971       0.09530995       0.80250593 </v>
   <v>       0.57654971       0.09530995       0.80250593 </v>
   <v>       0.07654971       0.59530995       0.80250593 </v>
   <v>       0.57654971       0.59530995       0.80250593 </v>
   <v>       0.32470466       0.34338175       0.80250383 </v>
   <v>       0.82470466       0.34338175       0.80250383 </v>
   <v>       0.32470466       0.84338175       0.80250383 </v>
   <v>       0.82470466       0.84338175       0.80250383 </v>
   <v>       0.17529534       0.09338175       0.19749617 </v>
   <v>       0.67529534       0.09338175       0.19749617 </v>
   <v>       0.17529534       0.59338175       0.19749617 </v>
   <v>       0.67529534       0.59338175       0.19749617 </v>
   <v>       0.42345029       0.34530995       0.19749407 </v>
   <v>       0.92345029       0.34530995       0.19749407 </v>
   <v>       0.42345029       0.84530995       0.19749407 </v>
   <v>       0.92345029       0.84530995       0.19749407 </v>
   <v>       0.21868463       0.34523395       0.37102476 </v>
   <v>       0.71868463       0.34523395       0.37102476 </v>
   <v>       0.21868463       0.84523395       0.37102476 </v>
   <v>       0.71868463       0.84523395       0.37102476 </v>
   <v>       0.46771651       0.09344897       0.37102399 </v>
   <v>       0.96681660       0.09344897       0.37102399 </v>
   <v>       0.46681660       0.59344897       0.37102399 </v>
   <v>       0.96681660       0.59344897       0.37102399 </v>
   <v>       0.03318340       0.34344897       0.62897601 </v>
   <v>       0.53318340       0.34344897       0.62897601 </v>
   <v>       0.03318340       0.84344897       0.62897601 </v>
   <v>       0.53318340       0.84344897       0.62897601 </v>
   <v>       0.28131537       0.09523395       0.62897524 </v>
   <v>       0.78131537       0.09523395       0.62897524 </v>
   <v>       0.28131537       0.59523395       0.62897524 </v>
   <v>       0.78131537       0.59523395       0.62897524 </v>
   <v>       0.12439279       0.34434306       0.00000412 </v>
   <v>       0.62439279       0.34434306       0.00000412 </v>
   <v>       0.12439279       0.84434306       0.00000412 </v>
   <v>       0.62439279       0.84434306       0.00000412 </v>
   <v>       0.37560721       0.09434306       0.99999588 </v>
   <v>       0.87560721       0.09434306       0.99999588 </v>
   <v>       0.37560721       0.59434306       0.99999588 </v>
   <v>       0.87560721       0.59434306       0.99999588 </v>
   <v>       0.03824426       0.10634799       0.60632306 </v>
   <v>       0.53824426       0.10634799       0.60632306 </v>
   <v>       0.03824426       0.60634799       0.60632306 </v>
   <v>       0.53824426       0.60634799       0.60632306 </v>
   <v>       0.26492712       0.33232651       0.60632763 </v>
   <v>       0.76492712       0.33232651       0.60632763 </v>
   <v>       0.26492712       0.83232651       0.60632763 </v>
   <v>       0.76492712       0.83232651       0.60632763 </v>
   <v>       0.23507288       0.08232651       0.39367237 </v>
   <v>       0.73507288       0.08232651       0.39367237 </v>
   <v>       0.23507288       0.58232651       0.39367237 </v>
   <v>       0.73507288       0.58232651       0.39367237 </v>
   <v>       0.46175574       0.35634799       0.39367694 </v>
   <v>       0.96175574       0.35634799       0.39367694 </v>
   <v>       0.46175574       0.85634799       0.39367694 </v>
   <v>       0.96175574       0.85634799       0.39367694 </v>
   <v>       0.03848398       0.46936404       0.15397331 </v>
   <v>       0.53848398       0.46936404       0.15397331 </v>
   <v>       0.03848398       0.96936404       0.15397331 </v>
   <v>       0.53848398       0.96936404       0.15397331 </v>
   <v>       0.28861657       0.21935690       0.15447525 </v>
   <v>       0.78861657       0.21935690       0.15447525 </v>
   <v>       0.28861657       0.71935690       0.15447525 </v>
   <v>       0.78861657       0.71935690       0.15447525 </v>
   <v>       0.21138343       0.46935690       0.84552475 </v>
   <v>       0.71138343       0.46935690       0.84552475 </v>
   <v>       0.21138343       0.96935690       0.84552475 </v>
   <v>       0.71138343       0.96935690       0.84552475 </v>
   <v>       0.46151602       0.21936404       0.84602669 </v>
   <v>       0.96151602       0.21936404       0.84602669 </v>
   <v>       0.46151602       0.71936404       0.84602669 </v>
   <v>       0.96151602       0.71936404       0.84602669 </v>
  </varray>
 </structure>
 <calculation>
  <scstep>
   <time name="dav">  307.57  310.10</time>
   <time name="total">  310.93  313.48</time>
   <energy>
    <i name="alphaZ">   2314.49656628 </i>
    <i name="ewald"> -57723.31732098 </i>
    <i name="hartreedc"> -30348.62271007 </i>
    <i name="XCdc">   3229.29732396 </i>
    <i name="pawpsdc">  92679.89207989 </i>
    <i name="pawaedc"> -95535.38516353 </i>
    <i name="eentropy">     -0.01850506 </i>
    <i name="bandstr">    349.81183782 </i>
    <i name="atom">  95443.47970955 </i>
    <i name="e_fr_energy">  10409.63381786 </i>
    <i name="e_wo_entrp">  10409.65232292 </i>
    <i name="e_0_energy">  10409.64307039 </i>
   </energy>
  </scstep>
  <scstep>
   <time name="dav">  302.44  305.26</time>
   <time name="total">  302.45  305.27</time>
   <energy>
    <i name="e_fr_energy">   1177.48331884 </i>
    <i name="e_wo_entrp">   1177.54912918 </i>
    <i name="e_0_energy">   1177.51622401 </i>
   </energy>
  </scstep>
  <scstep>
   <time name="dav">  319.63  323.12</time>
   <time name="total">  319.64  323.12</time>
   <energy>
    <i name="e_fr_energy">   -308.06652861 </i>
    <i name="e_wo_entrp">   -308.06652861 </i>
    <i name="e_0_energy">   -308.06652861 </i>
   </energy>
  </scstep>
  <scstep>
   <time name="dav">  340.22  343.48</time>
   <time name="total">  340.22  343.48</time>
   <energy>
    <i name="e_fr_energy">   -476.30008601 </i>
    <i name="e_wo_entrp">   -476.30008601 </i>
    <i name="e_0_energy">   -476.30008601 </i>
   </energy>
  </scstep>
  <scstep>
   <time name="dav">  454.40  458.68</time>
   <time name="total">  463.73  468.08</time>
   <energy>
    <i name="e_fr_energy">   -488.73505263 </i>
    <i name="e_wo_entrp">   -488.73505263 </i>
    <i name="e_0_energy">   -488.73505263 </i>
   </energy>
  </scstep>
  <scstep>
   <time name="dav">  392.71  396.24</time>
   <time name="total">  405.26  408.94</time>
   <energy>
    <i name="e_fr_energy">   -489.20074568 </i>
    <i name="e_wo_entrp">   -489.20074568 </i>
    <i name="e_0_energy">   -489.20074568 </i>
   </energy>
  </scstep>
  <scstep>
   <time name="dav">  427.17  431.49</time>
   <time name="total">  439.64  444.06</time>
   <energy>
    <i name="e_fr_energy">   -489.21730649 </i>
    <i name="e_wo_entrp">   -489.21730649 </i>
    <i name="e_0_energy">   -489.21730649 </i>
   </energy>
  </scstep>
  <scstep>
   <time name="dav">  399.95  403.87</time>
   <time name="total">  412.67  416.62</time>
   <energy>
    <i name="e_fr_energy">   -489.21681174 </i>
    <i name="e_wo_entrp">   -489.21681174 </i>
    <i name="e_0_energy">   -489.21681174 </i>
   </energy>
  </scstep>
  <scstep>
   <time name="dav">  436.24  440.03</time>
   <time name="total">  448.98  452.79</time>
   <energy>
    <i name="e_fr_energy">   -489.21644109 </i>
    <i name="e_wo_entrp">   -489.21644109 </i>
    <i name="e_0_energy">   -489.21644109 </i>
   </energy>
  </scstep>
  <scstep>
   <time name="dav">  421.12  424.83</time>
   <time name="total">  433.70  437.58</time>
   <energy>
    <i name="e_fr_energy">   -489.21590220 </i>
    <i name="e_wo_entrp">   -489.21590220 </i>
    <i name="e_0_energy">   -489.21590220 </i>
   </energy>
  </scstep>
  <scstep>
   <time name="dav">  390.27  394.00</time>
   <time name="total">  402.78  406.53</time>
   <energy>
    <i name="e_fr_energy">   -489.21530606 </i>
    <i name="e_wo_entrp">   -489.21530606 </i>
    <i name="e_0_energy">   -489.21530606 </i>
   </energy>
  </scstep>
  <scstep>
   <time name="dav">  359.95  363.15</time>
   <time name="total">  372.52  375.82</time>
   <energy>
    <i name="e_fr_energy">   -489.21527250 </i>
    <i name="e_wo_entrp">   -489.21527250 </i>
    <i name="e_0_energy">   -489.21527250 </i>
   </energy>
  </scstep>
  <scstep>
   <time name="dav">  371.81  375.56</time>
   <time name="total">  384.38  388.14</time>
   <energy>
    <i name="e_fr_energy">   -489.21527878 </i>
    <i name="e_wo_entrp">   -489.21527878 </i>
    <i name="e_0_energy">   -489.21527878 </i>
   </energy>
  </scstep>
  <scstep>
   <time name="dav">  245.91  248.54</time>
   <time name="total">  258.41  261.07</time>
   <energy>
    <i name="e_fr_energy">   -489.21527553 </i>
    <i name="e_wo_entrp">   -489.21527553 </i>
    <i name="e_0_energy">   -489.21527553 </i>
   </energy>
  </scstep>
  <scstep>
   <time name="dav">  351.23  354.68</time>
   <time name="total">  363.64  367.38</time>
   <energy>
    <i name="e_fr_energy">   -489.21525515 </i>
    <i name="e_wo_entrp">   -489.21525515 </i>
    <i name="e_0_energy">   -489.21525515 </i>
   </energy>
  </scstep>
  <scstep>
   <time name="dav">  308.50  311.23</time>
   <time name="total">  321.07  323.90</time>
   <energy>
    <i name="e_fr_energy">   -489.21525615 </i>
    <i name="e_wo_entrp">   -489.21525615 </i>
    <i name="e_0_energy">   -489.21525615 </i>
   </energy>
  </scstep>
  <scstep>
   <time name="dav">  218.86  220.82</time>
   <time name="total">  222.20  224.17</time>
   <energy>
    <i name="alphaZ">   2314.49656628 </i>
    <i name="ewald"> -57723.31732098 </i>
    <i name="hartreedc"> -30348.58913905 </i>
    <i name="XCdc">   3229.29720965 </i>
    <i name="pawpsdc">  92678.74627593 </i>
    <i name="pawaedc"> -95534.22763282 </i>
    <i name="eentropy">     -0.00000000 </i>
    <i name="bandstr"> -10549.10092534 </i>
    <i name="atom">  95443.47970955 </i>
    <i name="e_fr_energy">   -489.21525677 </i>
    <i name="e_wo_entrp">   -489.21525677 </i>
    <i name="e_0_energy">   -489.21525677 </i>
   </energy>
  </scstep>
  <structure>
   <crystal>
    <varray name="basis" >
     <v>      11.11223374       0.00000000      -0.00029034 </v>
     <v>       0.00000000      11.11745194       0.00000000 </v>
     <v>      -2.77510898       0.00000000      10.19872221 </v>
    </varray>
    <i name="volume">   1259.93837498 </i>
    <varray name="rec_basis" >
     <v>       0.08999155       0.00000000       0.02448702 </v>
     <v>       0.00000000       0.08994867       0.00000000 </v>
     <v>       0.00000256       0.00000000       0.09805220 </v>
    </varray>
   </crystal>
   <varray name="positions" >
    <v>       0.28894969       0.46933910       0.15583616 </v>
    <v>       0.78894969       0.46933910       0.15583616 </v>
    <v>       0.28894969       0.96933910       0.15583616 </v>
    <v>       0.78894969       0.96933910       0.15583616 </v>
    <v>       0.04646972       0.21934976       0.18586770 </v>
    <v>       0.54646972       0.21934976       0.18586770 </v>
    <v>       0.04646972       0.71934976       0.18586770 </v>
    <v>       0.54646972       0.71934976       0.18586770 </v>
    <v>       0.45353028       0.46934976       0.81413230 </v>
    <v>       0.95353028       0.46934976       0.81413230 </v>
    <v>       0.45353028       0.96934976       0.81413230 </v>
    <v>       0.95353028       0.96934976       0.81413230 </v>
    <v>       0.21105031       0.21933910       0.84416384 </v>
    <v>       0.71105031       0.21933910       0.84416384 </v>
    <v>       0.21105031       0.71933910       0.84416384 </v>
    <v>       0.71105031       0.71933910       0.84416384 </v>
    <v>       0.07654971       0.09530995       0.80250593 </v>
    <v>       0.57654971       0.09530995       0.80250593 </v>
    <v>       0.07654971       0.59530995       0.80250593 </v>
    <v>       0.57654971       0.59530995       0.80250593 </v>
    <v>       0.32470466       0.34338175       0.80250383 </v>
    <v>       0.82470466       0.34338175       0.80250383 </v>
    <v>       0.32470466       0.84338175       0.80250383 </v>
    <v>       0.82470466       0.84338175       0.80250383 </v>
    <v>       0.17529534       0.09338175       0.19749617 </v>
    <v>       0.67529534       0.09338175       0.19749617 </v>
    <v>       0.17529534       0.59338175       0.19749617 </v>
    <v>       0.67529534       0.59338175       0.19749617 </v>
    <v>       0.42345029       0.34530995       0.19749407 </v>
    <v>       0.92345029       0.34530995       0.19749407 </v>
    <v>       0.42345029       0.84530995       0.19749407 </v>
    <v>       0.92345029       0.84530995       0.19749407 </v>
    <v>       0.21868463       0.34523395       0.37102476 </v>
    <v>       0.71868463       0.34523395       0.37102476 </v>
    <v>       0.21868463       0.84523395       0.37102476 </v>
    <v>       0.71868463       0.84523395       0.37102476 </v>
    <v>       0.46771651       0.09344897       0.37102399 </v>
    <v>       0.96681660       0.09344897       0.37102399 </v>
    <v>       0.46681660       0.59344897       0.37102399 </v>
    <v>       0.96681660       0.59344897       0.37102399 </v>
    <v>       0.03318340       0.34344897       0.62897601 </v>
    <v>       0.53318340       0.34344897       0.62897601 </v>
    <v>       0.03318340       0.84344897       0.62897601 </v>
    <v>       0.53318340       0.84344897       0.62897601 </v>
    <v>       0.28131537       0.09523395       0.62897524 </v>
    <v>       0.78131537       0.09523395       0.62897524 </v>
    <v>       0.28131537       0.59523395       0.62897524 </v>
    <v>       0.78131537       0.59523395       0.62897524 </v>
    <v>       0.12439279       0.34434306       0.00000412 </v>
    <v>       0.62439279       0.34434306       0.00000412 </v>
    <v>       0.12439279       0.84434306       0.00000412 </v>
    <v>       0.62439279       0.84434306       0.00000412 </v>
    <v>       0.37560721       0.09434306       0.99999588 </v>
    <v>       0.87560721       0.09434306       0.99999588 </v>
    <v>       0.37560721       0.59434306       0.99999588 </v>
    <v>       0.87560721       0.59434306       0.99999588 </v>
    <v>       0.03824426       0.10634799       0.60632306 </v>
    <v>       0.53824426       0.10634799       0.60632306 </v>
    <v>       0.03824426       0.60634799       0.60632306 </v>
    <v>       0.53824426       0.60634799       0.60632306 </v>
    <v>       0.26492712       0.33232651       0.60632763 </v>
    <v>       0.76492712       0.33232651       0.60632763 </v>
    <v>       0.26492712       0.83232651       0.60632763 </v>
    <v>       0.76492712       0.83232651       0.60632763 </v>
    <v>       0.23507288       0.08232651       0.39367237 </v>
    <v>       0.73507288       0.08232651       0.39367237 </v>
    <v>       0.23507288       0.58232651       0.39367237 </v>
    <v>       0.73507288       0.58232651       0.39367237 </v>
    <v>       0.46175574       0.35634799       0.39367694 </v>
    <v>       0.96175574       0.35634799       0.39367694 </v>
    <v>       0.46175574       0.85634799       0.39367694 </v>
    <v>       0.96175574       0.85634799       0.39367694 </v>
    <v>       0.03848398       0.46936404       0.15397331 </v>
    <v>       0.53848398       0.46936404       0.15397331 </v>
    <v>       0.03848398       0.96936404       0.15397331 </v>
    <v>       0.53848398       0.96936404       0.15397331 </v>
    <v>       0.28861657       0.21935690       0.15447525 </v>
    <v>       0.78861657       0.21935690       0.15447525 </v>
    <v>       0.28861657       0.71935690       0.15447525 </v>
    <v>       0.78861657       0.71935690       0.15447525 </v>
    <v>       0.21138343       0.46935690       0.84552475 </v>
    <v>       0.71138343       0.46935690       0.84552475 </v>
    <v>       0.21138343       0.96935690       0.84552475 </v>
    <v>       0.71138343       0.96935690       0.84552475 </v>
    <v>       0.46151602       0.21936404       0.84602669 </v>
    <v>       0.96151602       0.21936404       0.84602669 </v>
    <v>       0.46151602       0.71936404       0.84602669 </v>
    <v>       0.96151602       0.71936404       0.84602669 </v>
   </varray>
  </structure>
  <varray name="forces" >
   <v>       0.00031158       0.00013359      -0.00020841 </v>
   <v>      -0.00017721      -0.00007101       0.00013487 </v>
   <v>       0.00095809      -0.00091909      -0.00123124 </v>
   <v>      -0.00077652       0.00062790       0.00012436 </v>
   <v>      -0.00107580       0.00057911      -0.00022195 </v>
   <v>       0.00156200      -0.00067827       0.00076888 </v>
   <v>      -0.00047971      -0.00016853      -0.00035394 </v>
   <v>       0.00030146       0.00022563       0.00019585 </v>
   <v>       0.00031051      -0.00000818       0.00010437 </v>
   <v>      -0.00021500       0.00005378      -0.00011765 </v>
   <v>       0.00058896      -0.00028809       0.00038559 </v>
   <v>      -0.00052453       0.00051719      -0.00050593 </v>
   <v>      -0.00035627       0.00027139       0.00042186 </v>
   <v>       0.00016318      -0.00012539      -0.00017830 </v>
   <v>      -0.00008045      -0.00003487       0.00003592 </v>
   <v>      -0.00007560       0.00012016       0.00008085 </v>
   <v>       0.00244467      -0.00036672       0.00001371 </v>
   <v>      -0.00099163       0.00015988      -0.00004137 </v>
   <v>       0.00039819      -0.00008857       0.00006451 </v>
   <v>      -0.00005197      -0.00004151      -0.00021042 </v>
   <v>      -0.00030341      -0.00037460      -0.00047626 </v>
   <v>      -0.00010369       0.00050504       0.00027639 </v>
   <v>      -0.00050418       0.00058018      -0.00044856 </v>
   <v>       0.00011080      -0.00045978       0.00025627 </v>
   <v>       0.00968054       0.00040693       0.00803606 </v>
   <v>       0.00925734       0.00068055      -0.00741944 </v>
   <v>       0.00016374       0.00012543       0.00070266 </v>
   <v>       0.00002401      -0.00005973      -0.00042639 </v>
   <v>      -0.00227126      -0.00054303      -0.00028049 </v>
   <v>       0.00095253       0.00041061       0.00018433 </v>
   <v>      -0.00254537      -0.00061218       0.00031502 </v>
   <v>       0.00108107       0.00030519       0.00007585 </v>
   <v>       0.00147497      -0.00338406      -0.00012433 </v>
   <v>       0.00148316       0.00274861       0.00036271 </v>
   <v>       0.00222577       0.00358631      -0.00002768 </v>
   <v>       0.00220415      -0.00341321       0.00037934 </v>
   <v>      -0.03678040      -0.00242309      -0.00125530 </v>
   <v>       0.00330947       0.00008664       0.00030196 </v>
   <v>      -0.00076705       0.00008389       0.00012152 </v>
   <v>       0.00117157       0.00016903       0.00022957 </v>
   <v>       0.00071427       0.00011936      -0.00011766 </v>
   <v>      -0.00116107       0.00014097      -0.00038221 </v>
   <v>       0.00071811       0.00016960      -0.00007341 </v>
   <v>      -0.00116553      -0.00014240      -0.00025515 </v>
   <v>       0.00436943      -0.00014193      -0.00551158 </v>
   <v>       0.00441604       0.00018305       0.00547335 </v>
   <v>      -0.00003204      -0.00010812      -0.00063203 </v>
   <v>       0.00005062      -0.00016716       0.00033792 </v>
   <v>       0.00017662      -0.00021697       0.00075943 </v>
   <v>      -0.00016547       0.00025107      -0.00038279 </v>
   <v>       0.00008521       0.00027781       0.00054623 </v>
   <v>      -0.00007495      -0.00029409      -0.00057216 </v>
   <v>      -0.00131393       0.00013624      -0.00053528 </v>
   <v>       0.00110075      -0.00014307       0.00038781 </v>
   <v>      -0.00023484      -0.00005415      -0.00019159 </v>
   <v>       0.00027494      -0.00003593       0.00002858 </v>
   <v>      -0.00261402      -0.00000380      -0.00013336 </v>
   <v>       0.00248200      -0.00018438       0.00181797 </v>
   <v>      -0.00052068      -0.00000985      -0.00002906 </v>
   <v>      -0.00003048       0.00011514       0.00023373 </v>
   <v>       0.00014396       0.00078279       0.00082522 </v>
   <v>       0.00024633      -0.00087600      -0.00051285 </v>
   <v>       0.00013871      -0.00066861       0.00110639 </v>
   <v>       0.00028907       0.00058625      -0.00077759 </v>
   <v>       0.00445933       0.00028019      -0.00090568 </v>
   <v>      -0.00674833       0.00073942      -0.00038735 </v>
   <v>       0.00005803      -0.00004629       0.00001371 </v>
   <v>      -0.00010912      -0.00000297      -0.00021427 </v>
   <v>       0.00226954      -0.00012714      -0.00008296 </v>
   <v>      -0.00096354       0.00003813      -0.00027281 </v>
   <v>       0.00233612       0.00106039       0.00017746 </v>
   <v>      -0.00126275       0.00000253      -0.00008891 </v>
   <v>      -0.00079376      -0.00002982      -0.00028941 </v>
   <v>       0.00064642      -0.00003282       0.00030061 </v>
   <v>      -0.00234741      -0.00162228      -0.00059537 </v>
   <v>       0.00229160       0.00210952       0.00224124 </v>
   <v>       0.00225525       0.00201332      -0.00161368 </v>
   <v>      -0.00194775      -0.00189235       0.00039948 </v>
   <v>       0.00074158      -0.00002427      -0.00037622 </v>
   <v>      -0.00061731       0.00002130       0.00030307 </v>
   <v>      -0.00012453       0.00013299       0.00004033 </v>
   <v>       0.00009103      -0.00016865       0.00008814 </v>
   <v>      -0.00063084      -0.00037824       0.00066496 </v>
   <v>       0.00030963       0.00017356      -0.00027747 </v>
   <v>       0.00093022       0.00030228       0.00052935 </v>
   <v>      -0.00099367      -0.00063348      -0.00095492 </v>
   <v>       0.00066291       0.00000195       0.00013115 </v>
   <v>      -0.00050339       0.00004978      -0.00028511 </v>
  </varray>
  <varray name="stress" >
   <v>       2.09317282      -0.00063323      -0.09986278 </v>
   <v>      -0.00062593       1.86555083      -0.00398232 </v>
   <v>      -0.10024010      -0.00391320       0.50767309 </v>
  </varray>
  <energy>
   <i name="e_fr_energy">   -489.21525677 </i>
   <i name="e_wo_entrp">   -489.21525677 </i>
   <i name="e_0_energy">     -0.00000000 </i>
  </energy>
  <time name="totalsc"> 6725.62 6788.37</time>
  <eigenvalues>
   <array>
    <dimension dim="1">band</dimension>
    <dimension dim="2">kpoint</dimension>
    <dimension dim="3">spin</dimension>
    <field>eigene</field>
    <field>occ</field>
    <set>
     <set comment="spin 1">
      <set comment="kpoint 1">
       <r>  -51.0602    1.0000 </r>
       <r>  -51.0550    1.0000 </r>
       <r>  -51.0549    1.0000 </r>
       <r>  -51.0548    1.0000 </r>
       <r>  -51.0540    1.0000 </r>
       <r>  -51.0537    1.0000 </r>
       <r>  -51.0536    1.0000 </r>
       <r>  -51.0533    1.0000 </r>
       <r>  -51.0530    1.0000 </r>
       <r>  -51.0528    1.0000 </r>
       <r>  -51.0526    1.0000 </r>
       <r>  -51.0523    1.0000 </r>
       <r>  -51.0517    1.0000 </r>
       <r>  -51.0510    1.0000 </r>
       <r>  -51.0505    1.0000 </r>
       <r>  -51.0483    1.0000 </r>
       <r>  -51.0459    1.0000 </r>
       <r>  -51.0446    1.0000 </r>
       <r>  -51.0444    1.0000 </r>
       <r>  -51.0444    1.0000 </r>
       <r>  -51.0437    1.0000 </r>
       <r>  -51.0437    1.0000 </r>
       <r>  -51.0434    1.0000 </r>
       <r>  -51.0422    1.0000 </r>
       <r>  -51.0408    1.0000 </r>
       <r>  -51.0397    1.0000 </r>
       <r>  -51.0396    1.0000 </r>
       <r>  -51.0394    1.0000 </r>
       <r>  -51.0393    1.0000 </r>
       <r>  -51.0392    1.0000 </r>
       <r>  -51.0391    1.0000 </r>
       <r>  -51.0375    1.0000 </r>
       <r>  -49.7037    1.0000 </r>
       <r>  -49.7022    1.0000 </r>
       <r>  -49.7019    1.0000 </r>
       <r>  -49.7018    1.0000 </r>
       <r>  -49.7013    1.0000 </r>
       <r>  -49.7011    1.0000 </r>
       <r>  -49.7010    1.0000 </r>
       <r>  -49.7003    1.0000 </r>
       <r>  -49.6952    1.0000 </r>
       <r>  -49.6944    1.0000 </r>
       <r>  -49.6943    1.0000 </r>
       <r>  -49.6940    1.0000 </r>
       <r>  -49.6940    1.0000 </r>
       <r>  -49.6938    1.0000 </r>
       <r>  -49.6936    1.0000 </r>
       <r>  -49.6917    1.0000 </r>
       <r>  -49.6039    1.0000 </r>
       <r>  -49.5987    1.0000 </r>
       <r>  -49.5980    1.0000 </r>
       <r>  -49.5977    1.0000 </r>
       <r>  -49.5974    1.0000 </r>
       <r>  -49.5972    1.0000 </r>
       <r>  -49.5970    1.0000 </r>
       <r>  -49.5970    1.0000 </r>
       <r>  -49.5964    1.0000 </r>
       <r>  -49.5962    1.0000 </r>
       <r>  -49.5961    1.0000 </r>
       <r>  -49.5959    1.0000 </r>
       <r>  -49.5958    1.0000 </r>
       <r>  -49.5954    1.0000 </r>
       <r>  -49.5953    1.0000 </r>
       <r>  -49.5908    1.0000 </r>
       <r>  -49.5733    1.0000 </r>
       <r>  -49.5673    1.0000 </r>
       <r>  -49.5666    1.0000 </r>
       <r>  -49.5664    1.0000 </r>
       <r>  -49.5659    1.0000 </r>
       <r>  -49.5656    1.0000 </r>
       <r>  -49.5654    1.0000 </r>
       <r>  -49.5652    1.0000 </r>
       <r>  -49.5648    1.0000 </r>
       <r>  -49.5647    1.0000 </r>
       <r>  -49.5645    1.0000 </r>
       <r>  -49.5644    1.0000 </r>
       <r>  -49.5638    1.0000 </r>
       <r>  -49.5636    1.0000 </r>
       <r>  -49.5634    1.0000 </r>
       <r>  -49.5602    1.0000 </r>
       <r>  -49.5555    1.0000 </r>
       <r>  -49.5547    1.0000 </r>
       <r>  -49.5545    1.0000 </r>
       <r>  -49.5544    1.0000 </r>
       <r>  -49.5539    1.0000 </r>
       <r>  -49.5537    1.0000 </r>
       <r>  -49.5536    1.0000 </r>
       <r>  -49.5530    1.0000 </r>
       <r>  -49.5404    1.0000 </r>
       <r>  -49.5398    1.0000 </r>
       <r>  -49.5397    1.0000 </r>
       <r>  -49.5395    1.0000 </r>
       <r>  -49.5394    1.0000 </r>
       <r>  -49.5392    1.0000 </r>
       <r>  -49.5391    1.0000 </r>
       <r>  -49.5381    1.0000 </r>
       <r>  -39.8670    1.0000 </r>
       <r>  -39.8660    1.0000 </r>
       <r>  -39.8658    1.0000 </r>
       <r>  -39.8656    1.0000 </r>
       <r>  -39.8655    1.0000 </r>
       <r>  -39.8651    1.0000 </r>
       <r>  -39.8650    1.0000 </r>
       <r>  -39.8649    1.0000 </r>
       <r>  -39.8648    1.0000 </r>
       <r>  -39.8647    1.0000 </r>
       <r>  -39.8646    1.0000 </r>
       <r>  -39.8643    1.0000 </r>
       <r>  -39.8641    1.0000 </r>
       <r>  -39.8640    1.0000 </r>
       <r>  -39.8638    1.0000 </r>
       <r>  -39.8618    1.0000 </r>
       <r>  -13.2249    1.0000 </r>
       <r>  -13.2248    1.0000 </r>
       <r>  -13.2104    1.0000 </r>
       <r>  -13.1835    1.0000 </r>
       <r>  -13.1012    1.0000 </r>
       <r>  -13.0989    1.0000 </r>
       <r>  -13.0989    1.0000 </r>
       <r>  -13.0931    1.0000 </r>
       <r>  -13.0861    1.0000 </r>
       <r>  -13.0801    1.0000 </r>
       <r>  -13.0800    1.0000 </r>
       <r>  -13.0776    1.0000 </r>
       <r>  -12.9881    1.0000 </r>
       <r>  -12.9774    1.0000 </r>
       <r>  -12.9418    1.0000 </r>
       <r>  -12.9418    1.0000 </r>
       <r>   -7.6453    1.0000 </r>
       <r>   -7.4068    1.0000 </r>
       <r>   -7.3262    1.0000 </r>
       <r>   -7.3261    1.0000 </r>
       <r>   -7.3093    1.0000 </r>
       <r>   -7.3092    1.0000 </r>
       <r>   -7.3087    1.0000 </r>
       <r>   -7.3072    1.0000 </r>
       <r>   -7.1694    1.0000 </r>
       <r>   -7.1574    1.0000 </r>
       <r>   -7.1239    1.0000 </r>
       <r>   -7.1237    1.0000 </r>
       <r>   -7.0366    1.0000 </r>
       <r>   -7.0218    1.0000 </r>
       <r>   -7.0024    1.0000 </r>
       <r>   -7.0020    1.0000 </r>
       <r>   -6.9410    1.0000 </r>
       <r>   -6.9404    1.0000 </r>
       <r>   -6.8872    1.0000 </r>
       <r>   -6.8870    1.0000 </r>
       <r>   -6.8654    1.0000 </r>
       <r>   -6.8617    1.0000 </r>
       <r>   -6.8344    1.0000 </r>
       <r>   -6.8037    1.0000 </r>
       <r>   -1.9355    1.0000 </r>
       <r>   -1.9355    1.0000 </r>
       <r>   -1.9105    1.0000 </r>
       <r>   -1.8935    1.0000 </r>
       <r>   -1.6665    1.0000 </r>
       <r>   -1.6664    1.0000 </r>
       <r>   -1.6587    1.0000 </r>
       <r>   -1.6572    1.0000 </r>
       <r>   -1.5998    1.0000 </r>
       <r>   -1.5980    1.0000 </r>
       <r>   -1.5863    1.0000 </r>
       <r>   -1.5861    1.0000 </r>
       <r>   -1.2982    1.0000 </r>
       <r>   -1.1747    1.0000 </r>
       <r>   -1.1746    1.0000 </r>
       <r>   -1.1136    1.0000 </r>
       <r>   -1.1132    1.0000 </r>
       <r>   -1.1072    1.0000 </r>
       <r>   -1.0494    1.0000 </r>
       <r>   -0.9809    1.0000 </r>
       <r>   -0.9646    1.0000 </r>
       <r>   -0.9595    1.0000 </r>
       <r>   -0.9577    1.0000 </r>
       <r>   -0.9575    1.0000 </r>
       <r>   -0.9470    1.0000 </r>
       <r>   -0.9452    1.0000 </r>
       <r>   -0.9230    1.0000 </r>
       <r>   -0.8712    1.0000 </r>
       <r>   -0.8712    1.0000 </r>
       <r>   -0.8036    1.0000 </r>
       <r>   -0.8027    1.0000 </r>
       <r>   -0.8026    1.0000 </r>
       <r>   -0.7752    1.0000 </r>
       <r>   -0.7743    1.0000 </r>
       <r>   -0.7739    1.0000 </r>
       <r>   -0.7610    1.0000 </r>
       <r>   -0.7168    1.0000 </r>
       <r>   -0.7166    1.0000 </r>
       <r>   -0.7066    1.0000 </r>
       <r>   -0.7050    1.0000 </r>
       <r>   -0.6993    1.0000 </r>
       <r>   -0.6990    1.0000 </r>
       <r>   -0.6087    1.0000 </r>
       <r>   -0.6083    1.0000 </r>
       <r>   -0.5615    1.0000 </r>
       <r>   -0.5614    1.0000 </r>
       <r>   -0.5494    1.0000 </r>
       <r>   -0.5481    1.0000 </r>
       <r>   -0.4082    1.0000 </r>
       <r>   -0.4078    1.0000 </r>
       <r>   -0.3574    1.0000 </r>
       <r>   -0.3479    1.0000 </r>
       <r>   -0.3295    1.0000 </r>
       <r>   -0.3292    1.0000 </r>
       <r>   -0.2985    1.0000 </r>
       <r>   -0.2984    1.0000 </r>
       <r>   -0.2814    1.0000 </r>
       <r>   -0.2693    1.0000 </r>
       <r>   -0.2630    1.0000 </r>
       <r>   -0.2557    1.0000 </r>
       <r>   -0.2549    1.0000 </r>
       <r>   -0.2091    1.0000 </r>
       <r>   -0.2088    1.0000 </r>
       <r>   -0.1886    1.0000 </r>
       <r>   -0.1867    1.0000 </r>
       <r>   -0.1867    1.0000 </r>
       <r>   -0.1758    1.0000 </r>
       <r>   -0.1579    1.0000 </r>
       <r>   -0.1254    1.0000 </r>
       <r>   -0.1254    1.0000 </r>
       <r>   -0.1095    1.0000 </r>
       <r>   -0.0709    1.0000 </r>
       <r>   -0.0703    1.0000 </r>
       <r>   -0.0606    1.0000 </r>
       <r>   -0.0435    1.0000 </r>
       <r>   -0.0176    1.0000 </r>
       <r>   -0.0174    1.0000 </r>
       <r>   -0.0115    1.0000 </r>
       <r>    0.0016    1.0000 </r>
       <r>    0.0017    1.0000 </r>
       <r>    0.0464    1.0000 </r>
       <r>    0.0494    1.0000 </r>
       <r>    0.0496    1.0000 </r>
       <r>    0.0914    1.0000 </r>
       <r>    0.0933    1.0000 </r>
       <r>    0.1185    1.0000 </r>
       <r>    0.1185    1.0000 </r>
       <r>    0.1578    1.0000 </r>
       <r>    0.1626    1.0000 </r>
       <r>    0.1768    1.0000 </r>
       <r>    0.1792    1.0000 </r>
       <r>    0.1819    1.0000 </r>
       <r>    0.1823    1.0000 </r>
       <r>    0.1856    1.0000 </r>
       <r>    0.1890    1.0000 </r>
       <r>    0.1933    1.0000 </r>
       <r>    0.1941    1.0000 </r>
       <r>    0.2009    1.0000 </r>
       <r>    0.2010    1.0000 </r>
       <r>    0.2387    1.0000 </r>
       <r>    0.2513    1.0000 </r>
       <r>    0.2567    1.0000 </r>
       <r>    0.2571    1.0000 </r>
       <r>    0.2766    1.0000 </r>
       <r>    0.3373    1.0000 </r>
       <r>    0.3474    1.0000 </r>
       <r>    0.3588    1.0000 </r>
       <r>    0.3589    1.0000 </r>
       <r>    0.3605    1.0000 </r>
       <r>    0.3605    1.0000 </r>
       <r>    0.3882    1.0000 </r>
       <r>    0.4017    1.0000 </r>
       <r>    0.4525    1.0000 </r>
       <r>    0.4528    1.0000 </r>
       <r>    0.5788    1.0000 </r>
       <r>    0.5790    1.0000 </r>
       <r>    0.5843    1.0000 </r>
       <r>    0.6019    1.0000 </r>
       <r>    0.6021    1.0000 </r>
       <r>    0.6064    1.0000 </r>
       <r>    0.6081    1.0000 </r>
       <r>    0.6400    1.0000 </r>
       <r>    0.6512    1.0000 </r>
       <r>    0.6513    1.0000 </r>
       <r>    0.6620    1.0000 </r>
       <r>    0.6621    1.0000 </r>
       <r>    0.6656    1.0000 </r>
       <r>    0.6731    1.0000 </r>
       <r>    0.6749    1.0000 </r>
       <r>    0.6750    1.0000 </r>
       <r>    0.6966    1.0000 </r>
       <r>    0.7230    1.0000 </r>
       <r>    0.7833    1.0000 </r>
       <r>    0.8197    1.0000 </r>
       <r>    0.8295    1.0000 </r>
       <r>    0.8319    1.0000 </r>
       <r>    0.8325    1.0000 </r>
       <r>    0.8611    1.0000 </r>
       <r>    0.8614    1.0000 </r>
       <r>    0.9092    1.0000 </r>
       <r>    0.9407    1.0000 </r>
       <r>    0.9482    1.0000 </r>
       <r>    0.9485    1.0000 </r>
       <r>    0.9831    1.0000 </r>
       <r>    1.0256    1.0000 </r>
       <r>    1.0703    1.0000 </r>
       <r>    1.2694    1.0000 </r>
       <r>    1.2981    1.0000 </r>
       <r>    1.2983    1.0000 </r>
       <r>    1.3118    1.0000 </r>
       <r>    1.3331    1.0000 </r>
       <r>    1.3335    1.0000 </r>
       <r>    1.3377    1.0000 </r>
       <r>    1.3848    1.0000 </r>
       <r>    1.4048    1.0000 </r>
       <r>    1.4283    1.0000 </r>
       <r>    1.4670    1.0000 </r>
       <r>    1.4680    1.0000 </r>
       <r>    1.4683    1.0000 </r>
       <r>    1.4817    1.0000 </r>
       <r>    1.5109    1.0000 </r>
       <r>    1.5110    1.0000 </r>
       <r>    1.5409    1.0000 </r>
       <r>    1.5611    1.0000 </r>
       <r>    1.5769    1.0000 </r>
       <r>    1.6463    1.0000 </r>
       <r>    1.6554    1.0000 </r>
       <r>    1.7558    1.0000 </r>
       <r>    1.7563    1.0000 </r>
       <r>    1.7629    1.0000 </r>
       <r>    1.7783    1.0000 </r>
       <r>    1.8029    1.0000 </r>
       <r>    1.8029    1.0000 </r>
       <r>    1.8108    1.0000 </r>
       <r>    1.8233    1.0000 </r>
       <r>    1.8365    1.0000 </r>
       <r>    1.8366    1.0000 </r>
       <r>    1.8461    1.0000 </r>
       <r>    1.8468    1.0000 </r>
       <r>    1.8784    1.0000 </r>
       <r>    1.8900    1.0000 </r>
       <r>    1.9471    1.0000 </r>
       <r>    1.9932    1.0000 </r>
       <r>    1.9935    1.0000 </r>
       <r>    2.0063    1.0000 </r>
       <r>    2.0066    1.0000 </r>
       <r>    2.0099    1.0000 </r>
       <r>    2.0186    1.0000 </r>
       <r>    2.0202    1.0000 </r>
       <r>    2.0202    1.0000 </r>
       <r>    2.0398    1.0000 </r>
       <r>    2.0465    1.0000 </r>
       <r>    2.0468    1.0000 </r>
       <r>    2.0568    1.0000 </r>
       <r>    2.0687    1.0000 </r>
       <r>    2.0689    1.0000 </r>
       <r>    2.0916    1.0000 </r>
       <r>    2.1129    1.0000 </r>
       <r>    2.1907    1.0000 </r>
       <r>    2.1908    1.0000 </r>
       <r>    2.2470    1.0000 </r>
       <r>    2.2470    1.0000 </r>
       <r>    2.2706    1.0000 </r>
       <r>    2.2731    1.0000 </r>
       <r>    2.2847    1.0000 </r>
       <r>    2.4277    1.0000 </r>
       <r>    2.4662    1.0000 </r>
       <r>    2.4666    1.0000 </r>
       <r>    2.4778    1.0000 </r>
       <r>    2.5036    1.0000 </r>
       <r>    2.5276    1.0000 </r>
       <r>    2.5543    1.0000 </r>
       <r>    2.5922    1.0000 </r>
       <r>    2.6268    1.0000 </r>
       <r>    2.6268    1.0000 </r>
       <r>    2.6560    1.0000 </r>
       <r>    2.7384    1.0000 </r>
       <r>    2.7387    1.0000 </r>
       <r>    2.7608    1.0000 </r>
       <r>    2.7611    1.0000 </r>
       <r>    2.8340    1.0000 </r>
       <r>    2.8728    1.0000 </r>
       <r>    2.9266    1.0000 </r>
       <r>    2.9343    1.0000 </r>
       <r>    2.9346    1.0000 </r>
       <r>    2.9689    1.0000 </r>
       <r>    3.0272    1.0000 </r>
       <r>    3.0276    1.0000 </r>
       <r>    3.0616    1.0000 </r>
       <r>    3.0966    1.0000 </r>
       <r>    3.3076    1.0000 </r>
       <r>    3.3103    1.0000 </r>
       <r>    3.3482    1.0000 </r>
       <r>    3.3762    1.0000 </r>
       <r>    3.4211    1.0000 </r>
       <r>    3.4217    1.0000 </r>
       <r>    3.4404    1.0000 </r>
       <r>    3.4574    1.0000 </r>
       <r>    3.4588    1.0000 </r>
       <r>    3.5315    1.0000 </r>
       <r>    3.7474    1.0000 </r>
       <r>    3.8083    1.0000 </r>
       <r>    3.8093    1.0000 </r>
       <r>    3.8150    1.0000 </r>
       <r>    3.8154    1.0000 </r>
       <r>    3.8825    1.0000 </r>
       <r>    3.8825    1.0000 </r>
       <r>    3.9323    1.0000 </r>
       <r>    3.9351    1.0000 </r>
       <r>    3.9405    1.0000 </r>
       <r>    3.9406    1.0000 </r>
       <r>    4.0391    1.0000 </r>
       <r>    4.0392    1.0000 </r>
       <r>    4.0704    1.0000 </r>
       <r>    4.1384    1.0000 </r>
       <r>    4.1487    1.0000 </r>
       <r>    4.1513    1.0000 </r>
       <r>    4.3148    1.0000 </r>
       <r>    4.3181    1.0000 </r>
       <r>    4.3379    1.0000 </r>
       <r>    4.3582    1.0000 </r>
       <r>    4.3586    1.0000 </r>
       <r>    4.4290    1.0000 </r>
       <r>    4.4444    1.0000 </r>
       <r>    4.4461    1.0000 </r>
       <r>    4.4535    1.0000 </r>
       <r>    4.4564    1.0000 </r>
       <r>    4.4565    1.0000 </r>
       <r>    4.6360    1.0000 </r>
       <r>    4.6366    1.0000 </r>
       <r>    4.7322    1.0000 </r>
       <r>    4.7328    1.0000 </r>
       <r>    4.7639    1.0000 </r>
       <r>    4.7641    1.0000 </r>
       <r>    4.7694    1.0000 </r>
       <r>    4.7696    1.0000 </r>
       <r>    4.8108    1.0000 </r>
       <r>    4.8528    1.0000 </r>
       <r>    4.8535    1.0000 </r>
       <r>    4.8569    1.0000 </r>
       <r>    7.3436    0.0000 </r>
       <r>    8.1284    0.0000 </r>
       <r>    8.4448    0.0000 </r>
       <r>    8.6422    0.0000 </r>
       <r>    8.6425    0.0000 </r>
       <r>    8.8579    0.0000 </r>
       <r>    9.0844    0.0000 </r>
       <r>    9.0847    0.0000 </r>
       <r>    9.2612    0.0000 </r>
       <r>    9.2732    0.0000 </r>
       <r>    9.2883    0.0000 </r>
       <r>    9.2898    0.0000 </r>
       <r>    9.7266    0.0000 </r>
       <r>    9.7712    0.0000 </r>
       <r>    9.7726    0.0000 </r>
       <r>    9.7901    0.0000 </r>
       <r>    9.8544    0.0000 </r>
       <r>    9.8552    0.0000 </r>
       <r>    9.8590    0.0000 </r>
       <r>    9.8789    0.0000 </r>
       <r>    9.8892    0.0000 </r>
       <r>   10.0619    0.0000 </r>
       <r>   10.0839    0.0000 </r>
       <r>   10.1356    0.0000 </r>
       <r>   10.1366    0.0000 </r>
       <r>   10.3056    0.0000 </r>
       <r>   10.3069    0.0000 </r>
       <r>   10.4162    0.0000 </r>
       <r>   10.5270    0.0000 </r>
       <r>   10.5703    0.0000 </r>
       <r>   10.5715    0.0000 </r>
       <r>   10.5723    0.0000 </r>
       <r>   10.5782    0.0000 </r>
       <r>   10.5784    0.0000 </r>
       <r>   10.6757    0.0000 </r>
       <r>   10.9751    0.0000 </r>
       <r>   11.0200    0.0000 </r>
       <r>   11.0203    0.0000 </r>
       <r>   11.0398    0.0000 </r>
       <r>   11.0416    0.0000 </r>
       <r>   11.0760    0.0000 </r>
       <r>   11.1287    0.0000 </r>
       <r>   11.1782    0.0000 </r>
       <r>   11.1896    0.0000 </r>
       <r>   11.2283    0.0000 </r>
       <r>   11.2495    0.0000 </r>
       <r>   11.2496    0.0000 </r>
       <r>   11.2905    0.0000 </r>
       <r>   11.3031    0.0000 </r>
       <r>   11.4175    0.0000 </r>
       <r>   11.4177    0.0000 </r>
       <r>   11.4587    0.0000 </r>
       <r>   11.5209    0.0000 </r>
       <r>   11.5217    0.0000 </r>
       <r>   11.5301    0.0000 </r>
       <r>   11.5767    0.0000 </r>
       <r>   11.6799    0.0000 </r>
       <r>   11.6800    0.0000 </r>
       <r>   11.7950    0.0000 </r>
       <r>   11.7996    0.0000 </r>
       <r>   11.8156    0.0000 </r>
       <r>   11.8158    0.0000 </r>
       <r>   11.8820    0.0000 </r>
       <r>   11.9417    0.0000 </r>
       <r>   11.9753    0.0000 </r>
       <r>   11.9769    0.0000 </r>
       <r>   11.9816    0.0000 </r>
       <r>   12.0277    0.0000 </r>
       <r>   12.0282    0.0000 </r>
       <r>   12.0586    0.0000 </r>
       <r>   12.1618    0.0000 </r>
       <r>   12.2423    0.0000 </r>
       <r>   12.2552    0.0000 </r>
       <r>   12.2572    0.0000 </r>
       <r>   12.3156    0.0000 </r>
       <r>   12.3162    0.0000 </r>
       <r>   12.3220    0.0000 </r>
       <r>   12.3466    0.0000 </r>
       <r>   12.4618    0.0000 </r>
       <r>   12.4813    0.0000 </r>
       <r>   12.5156    0.0000 </r>
       <r>   12.5179    0.0000 </r>
       <r>   12.6124    0.0000 </r>
       <r>   12.6136    0.0000 </r>
       <r>   12.6608    0.0000 </r>
       <r>   12.6629    0.0000 </r>
       <r>   12.6639    0.0000 </r>
       <r>   12.6898    0.0000 </r>
       <r>   12.7472    0.0000 </r>
       <r>   12.8317    0.0000 </r>
       <r>   12.8713    0.0000 </r>
       <r>   12.8724    0.0000 </r>
       <r>   12.8729    0.0000 </r>
       <r>   13.1196    0.0000 </r>
       <r>   13.1217    0.0000 </r>
       <r>   13.2008    0.0000 </r>
       <r>   13.3797    0.0000 </r>
       <r>   13.4096    0.0000 </r>
       <r>   13.4112    0.0000 </r>
       <r>   13.4324    0.0000 </r>
       <r>   13.4383    0.0000 </r>
       <r>   13.4506    0.0000 </r>
       <r>   13.4868    0.0000 </r>
       <r>   13.5092    0.0000 </r>
       <r>   13.5449    0.0000 </r>
       <r>   13.5467    0.0000 </r>
      </set>
      <set comment="kpoint 2">
       <r>  -51.0602    1.0000 </r>
       <r>  -51.0549    1.0000 </r>
       <r>  -51.0549    1.0000 </r>
       <r>  -51.0547    1.0000 </r>
       <r>  -51.0541    1.0000 </r>
       <r>  -51.0539    1.0000 </r>
       <r>  -51.0536    1.0000 </r>
       <r>  -51.0535    1.0000 </r>
       <r>  -51.0533    1.0000 </r>
       <r>  -51.0527    1.0000 </r>
       <r>  -51.0522    1.0000 </r>
       <r>  -51.0520    1.0000 </r>
       <r>  -51.0516    1.0000 </r>
       <r>  -51.0511    1.0000 </r>
       <r>  -51.0507    1.0000 </r>
       <r>  -51.0483    1.0000 </r>
       <r>  -51.0459    1.0000 </r>
       <r>  -51.0445    1.0000 </r>
       <r>  -51.0444    1.0000 </r>
       <r>  -51.0443    1.0000 </r>
       <r>  -51.0437    1.0000 </r>
       <r>  -51.0437    1.0000 </r>
       <r>  -51.0435    1.0000 </r>
       <r>  -51.0422    1.0000 </r>
       <r>  -51.0408    1.0000 </r>
       <r>  -51.0397    1.0000 </r>
       <r>  -51.0396    1.0000 </r>
       <r>  -51.0394    1.0000 </r>
       <r>  -51.0393    1.0000 </r>
       <r>  -51.0392    1.0000 </r>
       <r>  -51.0391    1.0000 </r>
       <r>  -51.0375    1.0000 </r>
       <r>  -49.7037    1.0000 </r>
       <r>  -49.7022    1.0000 </r>
       <r>  -49.7019    1.0000 </r>
       <r>  -49.7018    1.0000 </r>
       <r>  -49.7013    1.0000 </r>
       <r>  -49.7011    1.0000 </r>
       <r>  -49.7010    1.0000 </r>
       <r>  -49.7003    1.0000 </r>
       <r>  -49.6952    1.0000 </r>
       <r>  -49.6944    1.0000 </r>
       <r>  -49.6943    1.0000 </r>
       <r>  -49.6940    1.0000 </r>
       <r>  -49.6940    1.0000 </r>
       <r>  -49.6938    1.0000 </r>
       <r>  -49.6936    1.0000 </r>
       <r>  -49.6917    1.0000 </r>
       <r>  -49.6039    1.0000 </r>
       <r>  -49.5986    1.0000 </r>
       <r>  -49.5980    1.0000 </r>
       <r>  -49.5977    1.0000 </r>
       <r>  -49.5974    1.0000 </r>
       <r>  -49.5973    1.0000 </r>
       <r>  -49.5970    1.0000 </r>
       <r>  -49.5969    1.0000 </r>
       <r>  -49.5964    1.0000 </r>
       <r>  -49.5962    1.0000 </r>
       <r>  -49.5961    1.0000 </r>
       <r>  -49.5959    1.0000 </r>
       <r>  -49.5958    1.0000 </r>
       <r>  -49.5954    1.0000 </r>
       <r>  -49.5953    1.0000 </r>
       <r>  -49.5908    1.0000 </r>
       <r>  -49.5733    1.0000 </r>
       <r>  -49.5673    1.0000 </r>
       <r>  -49.5666    1.0000 </r>
       <r>  -49.5666    1.0000 </r>
       <r>  -49.5658    1.0000 </r>
       <r>  -49.5656    1.0000 </r>
       <r>  -49.5654    1.0000 </r>
       <r>  -49.5652    1.0000 </r>
       <r>  -49.5648    1.0000 </r>
       <r>  -49.5647    1.0000 </r>
       <r>  -49.5646    1.0000 </r>
       <r>  -49.5644    1.0000 </r>
       <r>  -49.5638    1.0000 </r>
       <r>  -49.5636    1.0000 </r>
       <r>  -49.5634    1.0000 </r>
       <r>  -49.5602    1.0000 </r>
       <r>  -49.5555    1.0000 </r>
       <r>  -49.5547    1.0000 </r>
       <r>  -49.5545    1.0000 </r>
       <r>  -49.5544    1.0000 </r>
       <r>  -49.5539    1.0000 </r>
       <r>  -49.5537    1.0000 </r>
       <r>  -49.5536    1.0000 </r>
       <r>  -49.5530    1.0000 </r>
       <r>  -49.5404    1.0000 </r>
       <r>  -49.5398    1.0000 </r>
       <r>  -49.5397    1.0000 </r>
       <r>  -49.5395    1.0000 </r>
       <r>  -49.5394    1.0000 </r>
       <r>  -49.5392    1.0000 </r>
       <r>  -49.5391    1.0000 </r>
       <r>  -49.5381    1.0000 </r>
       <r>  -39.8670    1.0000 </r>
       <r>  -39.8660    1.0000 </r>
       <r>  -39.8658    1.0000 </r>
       <r>  -39.8656    1.0000 </r>
       <r>  -39.8655    1.0000 </r>
       <r>  -39.8652    1.0000 </r>
       <r>  -39.8651    1.0000 </r>
       <r>  -39.8649    1.0000 </r>
       <r>  -39.8647    1.0000 </r>
       <r>  -39.8646    1.0000 </r>
       <r>  -39.8645    1.0000 </r>
       <r>  -39.8643    1.0000 </r>
       <r>  -39.8641    1.0000 </r>
[...]
       <r>   -49.2867     0.0000     0.0000 </r>
       <r>   -49.0458     0.0000     0.0000 </r>
       <r>   -48.8050     0.0000     0.0000 </r>
       <r>   -48.5642     0.0000     0.0000 </r>
       <r>   -48.3233     0.0000     0.0000 </r>
       <r>   -48.0825     0.0000     0.0000 </r>
       <r>   -47.8416     0.0000     0.0000 </r>
       <r>   -47.6008     0.0000     0.0000 </r>
       <r>   -47.3599     0.0000     0.0000 </r>
       <r>   -47.1191     0.0000     0.0000 </r>
       <r>   -46.8783     0.0000     0.0000 </r>
       <r>   -46.6374     0.0000     0.0000 </r>
       <r>   -46.3966     0.2930     0.0706 </r>
       <r>   -46.1557   132.5156    31.9859 </r>
       <r>   -45.9149    56.5621    45.6085 </r>
       <r>   -45.6741   209.2305    96.0000 </r>
       <r>   -45.4332     0.0000    96.0000 </r>
       <r>   -45.1924     0.0000    96.0000 </r>
       <r>   -44.9515     0.0000    96.0000 </r>
       <r>   -44.7107     0.0000    96.0000 </r>
       <r>   -44.4698     0.0000    96.0000 </r>
       <r>   -44.2290     0.0000    96.0000 </r>
       <r>   -43.9882     0.0000    96.0000 </r>
       <r>   -43.7473     0.0000    96.0000 </r>
       <r>   -43.5065     0.0000    96.0000 </r>
       <r>   -43.2656     0.0000    96.0000 </r>
       <r>   -43.0248     0.0000    96.0000 </r>
       <r>   -42.7839     0.0000    96.0000 </r>
       <r>   -42.5431     0.0000    96.0000 </r>
       <r>   -42.3023     0.0000    96.0000 </r>
       <r>   -42.0614     0.0000    96.0000 </r>
       <r>   -41.8206     0.0000    96.0000 </r>
       <r>   -41.5797     0.0000    96.0000 </r>
       <r>   -41.3389     0.0000    96.0000 </r>
       <r>   -41.0981     0.0000    96.0000 </r>
       <r>   -40.8572     0.0000    96.0000 </r>
       <r>   -40.6164     0.0000    96.0000 </r>
       <r>   -40.3755     0.0000    96.0000 </r>
       <r>   -40.1347     0.0000    96.0000 </r>
       <r>   -39.8938    12.6002    99.0347 </r>
       <r>   -39.6530    53.8333   112.0000 </r>
       <r>   -39.4122     0.0000   112.0000 </r>
       <r>   -39.1713     0.0000   112.0000 </r>
       <r>   -38.9305     0.0000   112.0000 </r>
       <r>   -38.6896     0.0000   112.0000 </r>
       <r>   -38.4488     0.0000   112.0000 </r>
       <r>   -38.2079     0.0000   112.0000 </r>
       <r>   -37.9671     0.0000   112.0000 </r>
       <r>   -37.7263     0.0000   112.0000 </r>
       <r>   -37.4854     0.0000   112.0000 </r>
       <r>   -37.2446     0.0000   112.0000 </r>
       <r>   -37.0037     0.0000   112.0000 </r>
       <r>   -36.7629     0.0000   112.0000 </r>
       <r>   -36.5220     0.0000   112.0000 </r>
       <r>   -36.2812     0.0000   112.0000 </r>
       <r>   -36.0404     0.0000   112.0000 </r>
       <r>   -35.7995     0.0000   112.0000 </r>
       <r>   -35.5587     0.0000   112.0000 </r>
       <r>   -35.3178     0.0000   112.0000 </r>
       <r>   -35.0770     0.0000   112.0000 </r>
       <r>   -34.8362     0.0000   112.0000 </r>
       <r>   -34.5953     0.0000   112.0000 </r>
       <r>   -34.3545     0.0000   112.0000 </r>
       <r>   -34.1136     0.0000   112.0000 </r>
       <r>   -33.8728     0.0000   112.0000 </r>
       <r>   -33.6319     0.0000   112.0000 </r>
       <r>   -33.3911     0.0000   112.0000 </r>
       <r>   -33.1503     0.0000   112.0000 </r>
       <r>   -32.9094     0.0000   112.0000 </r>
       <r>   -32.6686     0.0000   112.0000 </r>
       <r>   -32.4277     0.0000   112.0000 </r>
       <r>   -32.1869     0.0000   112.0000 </r>
       <r>   -31.9460     0.0000   112.0000 </r>
       <r>   -31.7052     0.0000   112.0000 </r>
       <r>   -31.4644     0.0000   112.0000 </r>
       <r>   -31.2235     0.0000   112.0000 </r>
       <r>   -30.9827     0.0000   112.0000 </r>
       <r>   -30.7418     0.0000   112.0000 </r>
       <r>   -30.5010     0.0000   112.0000 </r>
       <r>   -30.2602     0.0000   112.0000 </r>
       <r>   -30.0193     0.0000   112.0000 </r>
       <r>   -29.7785     0.0000   112.0000 </r>
       <r>   -29.5376     0.0000   112.0000 </r>
       <r>   -29.2968     0.0000   112.0000 </r>
       <r>   -29.0559     0.0000   112.0000 </r>
       <r>   -28.8151     0.0000   112.0000 </r>
       <r>   -28.5743     0.0000   112.0000 </r>
       <r>   -28.3334     0.0000   112.0000 </r>
       <r>   -28.0926     0.0000   112.0000 </r>
       <r>   -27.8517     0.0000   112.0000 </r>
       <r>   -27.6109     0.0000   112.0000 </r>
       <r>   -27.3700     0.0000   112.0000 </r>
       <r>   -27.1292     0.0000   112.0000 </r>
       <r>   -26.8884     0.0000   112.0000 </r>
       <r>   -26.6475     0.0000   112.0000 </r>
       <r>   -26.4067     0.0000   112.0000 </r>
       <r>   -26.1658     0.0000   112.0000 </r>
       <r>   -25.9250     0.0000   112.0000 </r>
       <r>   -25.6842     0.0000   112.0000 </r>
       <r>   -25.4433     0.0000   112.0000 </r>
       <r>   -25.2025     0.0000   112.0000 </r>
       <r>   -24.9616     0.0000   112.0000 </r>
       <r>   -24.7208     0.0000   112.0000 </r>
       <r>   -24.4799     0.0000   112.0000 </r>
       <r>   -24.2391     0.0000   112.0000 </r>
       <r>   -23.9983     0.0000   112.0000 </r>
       <r>   -23.7574     0.0000   112.0000 </r>
       <r>   -23.5166     0.0000   112.0000 </r>
       <r>   -23.2757     0.0000   112.0000 </r>
       <r>   -23.0349     0.0000   112.0000 </r>
       <r>   -22.7940     0.0000   112.0000 </r>
       <r>   -22.5532     0.0000   112.0000 </r>
       <r>   -22.3124     0.0000   112.0000 </r>
       <r>   -22.0715     0.0000   112.0000 </r>
       <r>   -21.8307     0.0000   112.0000 </r>
       <r>   -21.5898     0.0000   112.0000 </r>
       <r>   -21.3490     0.0000   112.0000 </r>
       <r>   -21.1081     0.0000   112.0000 </r>
       <r>   -20.8673     0.0000   112.0000 </r>
       <r>   -20.6265     0.0000   112.0000 </r>
       <r>   -20.3856     0.0000   112.0000 </r>
       <r>   -20.1448     0.0000   112.0000 </r>
       <r>   -19.9039     0.0000   112.0000 </r>
       <r>   -19.6631     0.0000   112.0000 </r>
       <r>   -19.4223     0.0000   112.0000 </r>
       <r>   -19.1814     0.0000   112.0000 </r>
       <r>   -18.9406     0.0000   112.0000 </r>
       <r>   -18.6997     0.0000   112.0000 </r>
       <r>   -18.4589     0.0000   112.0000 </r>
       <r>   -18.2180     0.0000   112.0000 </r>
       <r>   -17.9772     0.0000   112.0000 </r>
       <r>   -17.7364     0.0000   112.0000 </r>
       <r>   -17.4955     0.0000   112.0000 </r>
       <r>   -17.2547     0.0000   112.0000 </r>
       <r>   -17.0138     0.0000   112.0000 </r>
       <r>   -16.7730     0.0000   112.0000 </r>
       <r>   -16.5321     0.0000   112.0000 </r>
       <r>   -16.2913     0.0000   112.0000 </r>
       <r>   -16.0505     0.0000   112.0000 </r>
       <r>   -15.8096     0.0000   112.0000 </r>
       <r>   -15.5688     0.0000   112.0000 </r>
       <r>   -15.3279     0.0000   112.0000 </r>
       <r>   -15.0871     0.0000   112.0000 </r>
       <r>   -14.8463     0.0000   112.0000 </r>
       <r>   -14.6054     0.0000   112.0000 </r>
       <r>   -14.3646     0.0000   112.0000 </r>
       <r>   -14.1237     0.0000   112.0000 </r>
       <r>   -13.8829     0.0000   112.0000 </r>
       <r>   -13.6420     0.0000   112.0000 </r>
       <r>   -13.4012     0.0000   112.0000 </r>
       <r>   -13.1604     0.0000   112.0000 </r>
       <r>   -12.9195     0.0077   112.0019 </r>
       <r>   -12.6787    42.3360   122.1982 </r>
       <r>   -12.4378    24.0898   128.0000 </r>
       <r>   -12.1970     0.0000   128.0000 </r>
       <r>   -11.9561     0.0000   128.0000 </r>
       <r>   -11.7153     0.0000   128.0000 </r>
       <r>   -11.4745     0.0000   128.0000 </r>
       <r>   -11.2336     0.0000   128.0000 </r>
       <r>   -10.9928     0.0000   128.0000 </r>
       <r>   -10.7519     0.0000   128.0000 </r>
       <r>   -10.5111     0.0000   128.0000 </r>
       <r>   -10.2702     0.0000   128.0000 </r>
       <r>   -10.0294     0.0000   128.0000 </r>
       <r>    -9.7886     0.0000   128.0000 </r>
       <r>    -9.5477     0.0000   128.0000 </r>
       <r>    -9.3069     0.0000   128.0000 </r>
       <r>    -9.0660     0.0000   128.0000 </r>
       <r>    -8.8252     0.0000   128.0000 </r>
       <r>    -8.5844     0.0000   128.0000 </r>
       <r>    -8.3435     0.0000   128.0000 </r>
       <r>    -8.1027     0.0000   128.0000 </r>
       <r>    -7.8618     0.0000   128.0000 </r>
       <r>    -7.6210     0.0000   128.0000 </r>
       <r>    -7.3801     0.5049   128.1216 </r>
       <r>    -7.1393    13.8541   131.4583 </r>
       <r>    -6.8985    29.4697   138.5558 </r>
       <r>    -6.6576    26.1198   144.8466 </r>
       <r>    -6.4168    29.6462   151.9866 </r>
       <r>    -6.1759     0.0555   152.0000 </r>
       <r>    -5.9351     0.0000   152.0000 </r>
       <r>    -5.6942     0.0000   152.0000 </r>
       <r>    -5.4534     0.0000   152.0000 </r>
       <r>    -5.2126     0.0000   152.0000 </r>
       <r>    -4.9717     0.0000   152.0000 </r>
       <r>    -4.7309     0.0000   152.0000 </r>
       <r>    -4.4900     0.0000   152.0000 </r>
       <r>    -4.2492     0.0000   152.0000 </r>
       <r>    -4.0084     0.0000   152.0000 </r>
       <r>    -3.7675     0.0000   152.0000 </r>
       <r>    -3.5267     0.0000   152.0000 </r>
       <r>    -3.2858     0.0000   152.0000 </r>
       <r>    -3.0450     0.0000   152.0000 </r>
       <r>    -2.8041     0.0000   152.0000 </r>
       <r>    -2.5633     0.0000   152.0000 </r>
       <r>    -2.3225     0.0000   152.0000 </r>
       <r>    -2.0816     0.0000   152.0000 </r>
       <r>    -1.8408     0.0000   152.0000 </r>
       <r>    -1.5999     0.0000   152.0000 </r>
       <r>    -1.3591     0.0000   152.0000 </r>
       <r>    -1.1182     0.0000   152.0000 </r>
       <r>    -0.8774     0.0000   152.0000 </r>
       <r>    -0.6366     0.0000   152.0000 </r>
       <r>    -0.3957     4.1917   153.0095 </r>
       <r>    -0.1549    20.3439   157.9092 </r>
       <r>     0.0860    12.2396   160.8570 </r>
       <r>     0.3268    18.5547   165.3258 </r>
       <r>     0.5676    29.5688   172.4472 </r>
       <r>     0.8085    39.2236   181.8939 </r>
       <r>     1.0493    37.3132   190.8805 </r>
       <r>     1.2902    31.1836   198.3908 </r>
       <r>     1.5310    20.7365   203.3850 </r>
       <r>     1.7719    28.9314   210.3529 </r>
       <r>     2.0127    36.9458   219.2510 </r>
       <r>     2.2535    27.5810   225.8937 </r>
       <r>     2.4944    27.0192   232.4011 </r>
       <r>     2.7352    30.7661   239.8108 </r>
       <r>     2.9761    44.3978   250.5037 </r>
       <r>     3.2169    45.5126   261.4651 </r>
       <r>     3.4578    32.1069   269.1978 </r>
       <r>     3.6986    12.4315   272.1918 </r>
       <r>     3.9394    17.7631   276.4699 </r>
       <r>     4.1803    52.4814   289.1096 </r>
       <r>     4.4211    44.9096   299.9258 </r>
       <r>     4.6620    16.9118   303.9989 </r>
       <r>     4.9028     0.0047   304.0000 </r>
       <r>     5.1437     0.0000   304.0000 </r>
       <r>     5.3845     0.0000   304.0000 </r>
       <r>     5.6253     0.0000   304.0000 </r>
       <r>     5.8662     0.0000   304.0000 </r>
       <r>     6.1070     0.0000   304.0000 </r>
       <r>     6.3479     0.4026   304.0970 </r>
       <r>     6.5887     4.2003   305.1086 </r>
       <r>     6.8295     7.8902   307.0089 </r>
       <r>     7.0704    19.3491   311.6690 </r>
       <r>     7.3112    44.2311   322.3217 </r>
       <r>     7.5521    53.4515   335.1951 </r>
       <r>     7.7929    63.2540   350.4293 </r>
       <r>     8.0338    65.9481   366.3124 </r>
       <r>     8.2746    70.1588   383.2096 </r>
       <r>     8.5154    59.1170   397.4475 </r>
       <r>     8.7563    58.7102   411.5874 </r>
       <r>     8.9971    47.7500   423.0876 </r>
       <r>     9.2380    29.8030   430.2654 </r>
       <r>     9.4788     8.8595   432.3992 </r>
       <r>     9.7197     3.0445   433.1324 </r>
       <r>     9.9605     8.3662   435.1473 </r>
       <r>    10.2013    18.6956   439.6500 </r>
       <r>    10.4422    17.9745   443.9790 </r>
       <r>    10.6830    17.1854   448.1180 </r>
       <r>    10.9239    27.5895   454.7627 </r>
       <r>    11.1647    18.9635   459.3299 </r>
       <r>    11.4055    24.0175   465.1143 </r>
       <r>    11.6464    14.7476   468.6662 </r>
       <r>    11.8872    13.8232   471.9954 </r>
       <r>    12.1281    16.0904   475.8706 </r>
       <r>    12.3689    36.8168   484.7377 </r>
       <r>    12.6098    32.6355   492.5977 </r>
       <r>    12.8506    29.7797   499.7699 </r>
       <r>    13.0914    20.2336   504.6430 </r>
       <r>    13.3323    22.2525   510.0024 </r>
       <r>    13.5731    27.2241   516.5591 </r>
       <r>    13.8140    23.7389   522.2764 </r>
       <r>    14.0548    26.2543   528.5995 </r>
       <r>    14.2957    19.2493   533.2356 </r>
       <r>    14.5365    16.8055   537.2831 </r>
       <r>    14.7773     2.9768   538.0000 </r>
       <r>    15.0182     0.0000   538.0000 </r>
       <r>    15.2590     0.0000   538.0000 </r>
       <r>    15.4999     0.0000   538.0000 </r>
       <r>    15.7407     0.0000   538.0000 </r>
       <r>    15.9816     0.0000   538.0000 </r>
       <r>    16.2224     0.0000   538.0000 </r>
       <r>    16.4632     0.0000   538.0000 </r>
       <r>    16.7041     0.0000   538.0000 </r>
       <r>    16.9449     0.0000   538.0000 </r>
       <r>    17.1858     0.0000   538.0000 </r>
       <r>    17.4266     0.0000   538.0000 </r>
       <r>    17.6674     0.0000   538.0000 </r>
       <r>    17.9083     0.0000   538.0000 </r>
      </set>
     </set>
    </array>
   </total>
  </dos>
 </calculation>
 <structure name="finalpos" >
  <crystal>
   <varray name="basis" >
    <v>      11.11223374       0.00000000      -0.00029034 </v>
    <v>       0.00000000      11.11745194       0.00000000 </v>
    <v>      -2.77510898       0.00000000      10.19872221 </v>
   </varray>
   <i name="volume">   1259.93837498 </i>
   <varray name="rec_basis" >
    <v>       0.08999155       0.00000000       0.02448702 </v>
    <v>       0.00000000       0.08994867       0.00000000 </v>
    <v>       0.00000256       0.00000000       0.09805220 </v>
   </varray>
  </crystal>
  <varray name="positions" >
   <v>       0.28894969       0.46933910       0.15583616 </v>
   <v>       0.78894969       0.46933910       0.15583616 </v>
   <v>       0.28894969       0.96933910       0.15583616 </v>
   <v>       0.78894969       0.96933910       0.15583616 </v>
   <v>       0.04646972       0.21934976       0.18586770 </v>
   <v>       0.54646972       0.21934976       0.18586770 </v>
   <v>       0.04646972       0.71934976       0.18586770 </v>
   <v>       0.54646972       0.71934976       0.18586770 </v>
   <v>       0.45353028       0.46934976       0.81413230 </v>
   <v>       0.95353028       0.46934976       0.81413230 </v>
   <v>       0.45353028       0.96934976       0.81413230 </v>
   <v>       0.95353028       0.96934976       0.81413230 </v>
   <v>       0.21105031       0.21933910       0.84416384 </v>
   <v>       0.71105031       0.21933910       0.84416384 </v>
   <v>       0.21105031       0.71933910       0.84416384 </v>
   <v>       0.71105031       0.71933910       0.84416384 </v>
   <v>       0.07654971       0.09530995       0.80250593 </v>
   <v>       0.57654971       0.09530995       0.80250593 </v>
   <v>       0.07654971       0.59530995       0.80250593 </v>
   <v>       0.57654971       0.59530995       0.80250593 </v>
   <v>       0.32470466       0.34338175       0.80250383 </v>
   <v>       0.82470466       0.34338175       0.80250383 </v>
   <v>       0.32470466       0.84338175       0.80250383 </v>
   <v>       0.82470466       0.84338175       0.80250383 </v>
   <v>       0.17529534       0.09338175       0.19749617 </v>
   <v>       0.67529534       0.09338175       0.19749617 </v>
   <v>       0.17529534       0.59338175       0.19749617 </v>
   <v>       0.67529534       0.59338175       0.19749617 </v>
   <v>       0.42345029       0.34530995       0.19749407 </v>
   <v>       0.92345029       0.34530995       0.19749407 </v>
   <v>       0.42345029       0.84530995       0.19749407 </v>
   <v>       0.92345029       0.84530995       0.19749407 </v>
   <v>       0.21868463       0.34523395       0.37102476 </v>
   <v>       0.71868463       0.34523395       0.37102476 </v>
   <v>       0.21868463       0.84523395       0.37102476 </v>
   <v>       0.71868463       0.84523395       0.37102476 </v>
   <v>       0.46771651       0.09344897       0.37102399 </v>
   <v>       0.96681660       0.09344897       0.37102399 </v>
   <v>       0.46681660       0.59344897       0.37102399 </v>
   <v>       0.96681660       0.59344897       0.37102399 </v>
   <v>       0.03318340       0.34344897       0.62897601 </v>
   <v>       0.53318340       0.34344897       0.62897601 </v>
   <v>       0.03318340       0.84344897       0.62897601 </v>
   <v>       0.53318340       0.84344897       0.62897601 </v>
   <v>       0.28131537       0.09523395       0.62897524 </v>
   <v>       0.78131537       0.09523395       0.62897524 </v>
   <v>       0.28131537       0.59523395       0.62897524 </v>
   <v>       0.78131537       0.59523395       0.62897524 </v>
   <v>       0.12439279       0.34434306       0.00000412 </v>
   <v>       0.62439279       0.34434306       0.00000412 </v>
   <v>       0.12439279       0.84434306       0.00000412 </v>
   <v>       0.62439279       0.84434306       0.00000412 </v>
   <v>       0.37560721       0.09434306       0.99999588 </v>
   <v>       0.87560721       0.09434306       0.99999588 </v>
   <v>       0.37560721       0.59434306       0.99999588 </v>
   <v>       0.87560721       0.59434306       0.99999588 </v>
   <v>       0.03824426       0.10634799       0.60632306 </v>
   <v>       0.53824426       0.10634799       0.60632306 </v>
   <v>       0.03824426       0.60634799       0.60632306 </v>
   <v>       0.53824426       0.60634799       0.60632306 </v>
   <v>       0.26492712       0.33232651       0.60632763 </v>
   <v>       0.76492712       0.33232651       0.60632763 </v>
   <v>       0.26492712       0.83232651       0.60632763 </v>
   <v>       0.76492712       0.83232651       0.60632763 </v>
   <v>       0.23507288       0.08232651       0.39367237 </v>
   <v>       0.73507288       0.08232651       0.39367237 </v>
   <v>       0.23507288       0.58232651       0.39367237 </v>
   <v>       0.73507288       0.58232651       0.39367237 </v>
   <v>       0.46175574       0.35634799       0.39367694 </v>
   <v>       0.96175574       0.35634799       0.39367694 </v>
   <v>       0.46175574       0.85634799       0.39367694 </v>
   <v>       0.96175574       0.85634799       0.39367694 </v>
   <v>       0.03848398       0.46936404       0.15397331 </v>
   <v>       0.53848398       0.46936404       0.15397331 </v>
   <v>       0.03848398       0.96936404       0.15397331 </v>
   <v>       0.53848398       0.96936404       0.15397331 </v>
   <v>       0.28861657       0.21935690       0.15447525 </v>
   <v>       0.78861657       0.21935690       0.15447525 </v>
   <v>       0.28861657       0.71935690       0.15447525 </v>
   <v>       0.78861657       0.71935690       0.15447525 </v>
   <v>       0.21138343       0.46935690       0.84552475 </v>
   <v>       0.71138343       0.46935690       0.84552475 </v>
   <v>       0.21138343       0.96935690       0.84552475 </v>
   <v>       0.71138343       0.96935690       0.84552475 </v>
   <v>       0.46151602       0.21936404       0.84602669 </v>
   <v>       0.96151602       0.21936404       0.84602669 </v>
   <v>       0.46151602       0.71936404       0.84602669 </v>
   <v>       0.96151602       0.71936404       0.84602669 </v>
  </varray>
 </structure>
</modeling>
