  88  88   0   0
  0.1431748E+02  0.1111223E-08  0.1111745E-08  0.1056954E-08  0.5000000E-15
  1.000000000000000E-004
  CAR 
 unknown system                          
     17.91755906    -54.34072561  301      5.21214401      1.00000000
    -54.341  0.0000E+00  0.0000E+00  0.0000E+00  0.0000E+00
    -54.100  0.0000E+00  0.0000E+00  0.0000E+00  0.0000E+00
    -53.859  0.0000E+00  0.0000E+00  0.0000E+00  0.0000E+00
    -53.618  0.0000E+00  0.0000E+00  0.0000E+00  0.0000E+00
    -53.377  0.0000E+00  0.0000E+00  0.0000E+00  0.0000E+00
    -53.136  0.0000E+00  0.0000E+00  0.0000E+00  0.0000E+00
    -52.896  0.0000E+00  0.0000E+00  0.0000E+00  0.0000E+00
    -52.655  0.0000E+00  0.0000E+00  0.0000E+00  0.0000E+00
    -52.414  0.0000E+00  0.0000E+00  0.0000E+00  0.0000E+00
    -52.173  0.0000E+00  0.0000E+00  0.0000E+00  0.0000E+00
    -51.932  0.0000E+00  0.0000E+00  0.0000E+00  0.0000E+00
    -51.691  0.0000E+00  0.0000E+00  0.0000E+00  0.0000E+00
    -51.450  0.0000E+00  0.0000E+00  0.0000E+00  0.0000E+00
    -51.210  0.3902E-03  0.0000E+00  0.9398E-04  0.0000E+00
    -50.969  0.1310E+03  0.0000E+00  0.3155E+02  0.0000E+00
    -50.728  0.1882E+01  0.0000E+00  0.3200E+02  0.0000E+00
    -50.487  0.0000E+00  0.0000E+00  0.3200E+02  0.0000E+00
    -50.246  0.0000E+00  0.0000E+00  0.3200E+02  0.0000E+00
    -50.005  0.0000E+00  0.0000E+00  0.3200E+02  0.0000E+00
    -49.764  0.2125E+01  0.0000E+00  0.3251E+02  0.0000E+00
    -49.524  0.2371E+03  0.0000E+00  0.8961E+02  0.0000E+00
    -49.283  0.2652E+02  0.0000E+00  0.9600E+02  0.0000E+00
    -49.042  0.0000E+00  0.0000E+00  0.9600E+02  0.0000E+00
    -48.801  0.0000E+00  0.0000E+00  0.9600E+02  0.0000E+00
    -48.560  0.0000E+00  0.0000E+00  0.9600E+02  0.0000E+00
    -48.319  0.0000E+00  0.0000E+00  0.9600E+02  0.0000E+00
    -48.078  0.0000E+00  0.0000E+00  0.9600E+02  0.0000E+00
    -47.837  0.0000E+00  0.0000E+00  0.9600E+02  0.0000E+00
    -47.597  0.0000E+00  0.0000E+00  0.9600E+02  0.0000E+00
    -47.356  0.0000E+00  0.0000E+00  0.9600E+02  0.0000E+00
    -47.115  0.0000E+00  0.0000E+00  0.9600E+02  0.0000E+00
    -46.874  0.0000E+00  0.0000E+00  0.9600E+02  0.0000E+00
    -46.633  0.0000E+00  0.0000E+00  0.9600E+02  0.0000E+00
    -46.392  0.0000E+00  0.3900E+00  0.9600E+02  0.9394E-01
    -46.151  0.0000E+00  0.1324E+03  0.9600E+02  0.3199E+02
    -45.911  0.0000E+00  0.6191E+02  0.9600E+02  0.4690E+02
    -45.670  0.0000E+00  0.2038E+03  0.9600E+02  0.9600E+02
    -45.429  0.0000E+00  0.0000E+00  0.9600E+02  0.9600E+02
    -45.188  0.0000E+00  0.0000E+00  0.9600E+02  0.9600E+02
    -44.947  0.0000E+00  0.0000E+00  0.9600E+02  0.9600E+02
    -44.706  0.0000E+00  0.0000E+00  0.9600E+02  0.9600E+02
    -44.465  0.0000E+00  0.0000E+00  0.9600E+02  0.9600E+02
    -44.225  0.0000E+00  0.0000E+00  0.9600E+02  0.9600E+02
    -43.984  0.0000E+00  0.0000E+00  0.9600E+02  0.9600E+02
    -43.743  0.0000E+00  0.0000E+00  0.9600E+02  0.9600E+02
    -43.502  0.0000E+00  0.0000E+00  0.9600E+02  0.9600E+02
    -43.261  0.0000E+00  0.0000E+00  0.9600E+02  0.9600E+02
    -43.020  0.0000E+00  0.0000E+00  0.9600E+02  0.9600E+02
    -42.779  0.0000E+00  0.0000E+00  0.9600E+02  0.9600E+02
    -42.539  0.0000E+00  0.0000E+00  0.9600E+02  0.9600E+02
    -42.298  0.0000E+00  0.0000E+00  0.9600E+02  0.9600E+02
    -42.057  0.0000E+00  0.0000E+00  0.9600E+02  0.9600E+02
    -41.816  0.0000E+00  0.0000E+00  0.9600E+02  0.9600E+02
    -41.575  0.0000E+00  0.0000E+00  0.9600E+02  0.9600E+02
    -41.334  0.0000E+00  0.0000E+00  0.9600E+02  0.9600E+02
    -41.093  0.0000E+00  0.0000E+00  0.9600E+02  0.9600E+02
    -40.853  0.0000E+00  0.0000E+00  0.9600E+02  0.9600E+02
    -40.612  0.0000E+00  0.0000E+00  0.9600E+02  0.9600E+02
    -40.371  0.0000E+00  0.0000E+00  0.9600E+02  0.9600E+02
    -40.130  0.7014E-11  0.4364E-11  0.9600E+02  0.9600E+02
    -39.889  0.1968E+02  0.1824E+02  0.1007E+03  0.1004E+03
    -39.648  0.4675E+02  0.4818E+02  0.1120E+03  0.1120E+03
    -39.407  0.0000E+00  0.0000E+00  0.1120E+03  0.1120E+03
    -39.166  0.0000E+00  0.0000E+00  0.1120E+03  0.1120E+03
    -38.926  0.0000E+00  0.0000E+00  0.1120E+03  0.1120E+03
    -38.685  0.0000E+00  0.0000E+00  0.1120E+03  0.1120E+03
    -38.444  0.0000E+00  0.0000E+00  0.1120E+03  0.1120E+03
    -38.203  0.0000E+00  0.0000E+00  0.1120E+03  0.1120E+03
    -37.962  0.0000E+00  0.0000E+00  0.1120E+03  0.1120E+03
    -37.721  0.0000E+00  0.0000E+00  0.1120E+03  0.1120E+03
    -37.480  0.0000E+00  0.0000E+00  0.1120E+03  0.1120E+03
    -37.240  0.0000E+00  0.0000E+00  0.1120E+03  0.1120E+03
    -36.999  0.0000E+00  0.0000E+00  0.1120E+03  0.1120E+03
    -36.758  0.0000E+00  0.0000E+00  0.1120E+03  0.1120E+03
    -36.517  0.0000E+00  0.0000E+00  0.1120E+03  0.1120E+03
    -36.276  0.0000E+00  0.0000E+00  0.1120E+03  0.1120E+03
    -36.035  0.0000E+00  0.0000E+00  0.1120E+03  0.1120E+03
    -35.794  0.0000E+00  0.0000E+00  0.1120E+03  0.1120E+03
    -35.554  0.0000E+00  0.0000E+00  0.1120E+03  0.1120E+03
    -35.313  0.0000E+00  0.0000E+00  0.1120E+03  0.1120E+03
    -35.072  0.0000E+00  0.0000E+00  0.1120E+03  0.1120E+03
    -34.831  0.0000E+00  0.0000E+00  0.1120E+03  0.1120E+03
    -34.590  0.0000E+00  0.0000E+00  0.1120E+03  0.1120E+03
    -34.349  0.0000E+00  0.0000E+00  0.1120E+03  0.1120E+03
    -34.108  0.0000E+00  0.0000E+00  0.1120E+03  0.1120E+03
    -33.868  0.0000E+00  0.0000E+00  0.1120E+03  0.1120E+03
    -33.627  0.0000E+00  0.0000E+00  0.1120E+03  0.1120E+03
    -33.386  0.0000E+00  0.0000E+00  0.1120E+03  0.1120E+03
    -33.145  0.0000E+00  0.0000E+00  0.1120E+03  0.1120E+03
    -32.904  0.0000E+00  0.0000E+00  0.1120E+03  0.1120E+03
    -32.663  0.0000E+00  0.0000E+00  0.1120E+03  0.1120E+03
    -32.422  0.0000E+00  0.0000E+00  0.1120E+03  0.1120E+03
    -32.182  0.0000E+00  0.0000E+00  0.1120E+03  0.1120E+03
    -31.941  0.0000E+00  0.0000E+00  0.1120E+03  0.1120E+03
    -31.700  0.0000E+00  0.0000E+00  0.1120E+03  0.1120E+03
    -31.459  0.0000E+00  0.0000E+00  0.1120E+03  0.1120E+03
    -31.218  0.0000E+00  0.0000E+00  0.1120E+03  0.1120E+03
    -30.977  0.0000E+00  0.0000E+00  0.1120E+03  0.1120E+03
    -30.736  0.0000E+00  0.0000E+00  0.1120E+03  0.1120E+03
    -30.495  0.0000E+00  0.0000E+00  0.1120E+03  0.1120E+03
    -30.255  0.0000E+00  0.0000E+00  0.1120E+03  0.1120E+03
    -30.014  0.0000E+00  0.0000E+00  0.1120E+03  0.1120E+03
    -29.773  0.0000E+00  0.0000E+00  0.1120E+03  0.1120E+03
    -29.532  0.0000E+00  0.0000E+00  0.1120E+03  0.1120E+03
    -29.291  0.0000E+00  0.0000E+00  0.1120E+03  0.1120E+03
    -29.050  0.0000E+00  0.0000E+00  0.1120E+03  0.1120E+03
    -28.809  0.0000E+00  0.0000E+00  0.1120E+03  0.1120E+03
    -28.569  0.0000E+00  0.0000E+00  0.1120E+03  0.1120E+03
    -28.328  0.0000E+00  0.0000E+00  0.1120E+03  0.1120E+03
    -28.087  0.0000E+00  0.0000E+00  0.1120E+03  0.1120E+03
    -27.846  0.0000E+00  0.0000E+00  0.1120E+03  0.1120E+03
    -27.605  0.0000E+00  0.0000E+00  0.1120E+03  0.1120E+03
    -27.364  0.0000E+00  0.0000E+00  0.1120E+03  0.1120E+03
    -27.123  0.0000E+00  0.0000E+00  0.1120E+03  0.1120E+03
    -26.883  0.0000E+00  0.0000E+00  0.1120E+03  0.1120E+03
    -26.642  0.0000E+00  0.0000E+00  0.1120E+03  0.1120E+03
    -26.401  0.0000E+00  0.0000E+00  0.1120E+03  0.1120E+03
    -26.160  0.0000E+00  0.0000E+00  0.1120E+03  0.1120E+03
    -25.919  0.0000E+00  0.0000E+00  0.1120E+03  0.1120E+03
    -25.678  0.0000E+00  0.0000E+00  0.1120E+03  0.1120E+03
    -25.437  0.0000E+00  0.0000E+00  0.1120E+03  0.1120E+03
    -25.197  0.0000E+00  0.0000E+00  0.1120E+03  0.1120E+03
    -24.956  0.0000E+00  0.0000E+00  0.1120E+03  0.1120E+03
    -24.715  0.0000E+00  0.0000E+00  0.1120E+03  0.1120E+03
    -24.474  0.0000E+00  0.0000E+00  0.1120E+03  0.1120E+03
    -24.233  0.0000E+00  0.0000E+00  0.1120E+03  0.1120E+03
    -23.992  0.0000E+00  0.0000E+00  0.1120E+03  0.1120E+03
    -23.751  0.0000E+00  0.0000E+00  0.1120E+03  0.1120E+03
    -23.511  0.0000E+00  0.0000E+00  0.1120E+03  0.1120E+03
    -23.270  0.0000E+00  0.0000E+00  0.1120E+03  0.1120E+03
    -23.029  0.0000E+00  0.0000E+00  0.1120E+03  0.1120E+03
    -22.788  0.0000E+00  0.0000E+00  0.1120E+03  0.1120E+03
    -22.547  0.0000E+00  0.0000E+00  0.1120E+03  0.1120E+03
    -22.306  0.0000E+00  0.0000E+00  0.1120E+03  0.1120E+03
    -22.065  0.0000E+00  0.0000E+00  0.1120E+03  0.1120E+03
    -21.824  0.0000E+00  0.0000E+00  0.1120E+03  0.1120E+03
    -21.584  0.0000E+00  0.0000E+00  0.1120E+03  0.1120E+03
    -21.343  0.0000E+00  0.0000E+00  0.1120E+03  0.1120E+03
    -21.102  0.0000E+00  0.0000E+00  0.1120E+03  0.1120E+03
    -20.861  0.0000E+00  0.0000E+00  0.1120E+03  0.1120E+03
    -20.620  0.0000E+00  0.0000E+00  0.1120E+03  0.1120E+03
    -20.379  0.0000E+00  0.0000E+00  0.1120E+03  0.1120E+03
    -20.138  0.0000E+00  0.0000E+00  0.1120E+03  0.1120E+03
    -19.898  0.0000E+00  0.0000E+00  0.1120E+03  0.1120E+03
    -19.657  0.0000E+00  0.0000E+00  0.1120E+03  0.1120E+03
    -19.416  0.0000E+00  0.0000E+00  0.1120E+03  0.1120E+03
    -19.175  0.0000E+00  0.0000E+00  0.1120E+03  0.1120E+03
    -18.934  0.0000E+00  0.0000E+00  0.1120E+03  0.1120E+03
    -18.693  0.0000E+00  0.0000E+00  0.1120E+03  0.1120E+03
    -18.452  0.0000E+00  0.0000E+00  0.1120E+03  0.1120E+03
    -18.212  0.0000E+00  0.0000E+00  0.1120E+03  0.1120E+03
    -17.971  0.0000E+00  0.0000E+00  0.1120E+03  0.1120E+03
    -17.730  0.0000E+00  0.0000E+00  0.1120E+03  0.1120E+03
    -17.489  0.0000E+00  0.0000E+00  0.1120E+03  0.1120E+03
    -17.248  0.0000E+00  0.0000E+00  0.1120E+03  0.1120E+03
    -17.007  0.0000E+00  0.0000E+00  0.1120E+03  0.1120E+03
    -16.766  0.0000E+00  0.0000E+00  0.1120E+03  0.1120E+03
    -16.526  0.0000E+00  0.0000E+00  0.1120E+03  0.1120E+03
    -16.285  0.0000E+00  0.0000E+00  0.1120E+03  0.1120E+03
    -16.044  0.0000E+00  0.0000E+00  0.1120E+03  0.1120E+03
    -15.803  0.0000E+00  0.0000E+00  0.1120E+03  0.1120E+03
    -15.562  0.0000E+00  0.0000E+00  0.1120E+03  0.1120E+03
    -15.321  0.0000E+00  0.0000E+00  0.1120E+03  0.1120E+03
    -15.080  0.0000E+00  0.0000E+00  0.1120E+03  0.1120E+03
    -14.840  0.0000E+00  0.0000E+00  0.1120E+03  0.1120E+03
    -14.599  0.0000E+00  0.0000E+00  0.1120E+03  0.1120E+03
    -14.358  0.0000E+00  0.0000E+00  0.1120E+03  0.1120E+03
    -14.117  0.0000E+00  0.0000E+00  0.1120E+03  0.1120E+03
    -13.876  0.0000E+00  0.0000E+00  0.1120E+03  0.1120E+03
    -13.635  0.0000E+00  0.0000E+00  0.1120E+03  0.1120E+03
    -13.394  0.1837E-05  0.0000E+00  0.1120E+03  0.1120E+03
    -13.154  0.2065E+02  0.0000E+00  0.1170E+03  0.1120E+03
    -12.913  0.4480E+02  0.1565E-01  0.1278E+03  0.1120E+03
    -12.672  0.9710E+00  0.4436E+02  0.1280E+03  0.1227E+03
    -12.431  0.0000E+00  0.2205E+02  0.1280E+03  0.1280E+03
    -12.190  0.0000E+00  0.0000E+00  0.1280E+03  0.1280E+03
    -11.949  0.0000E+00  0.0000E+00  0.1280E+03  0.1280E+03
    -11.708  0.0000E+00  0.0000E+00  0.1280E+03  0.1280E+03
    -11.467  0.0000E+00  0.0000E+00  0.1280E+03  0.1280E+03
    -11.227  0.0000E+00  0.0000E+00  0.1280E+03  0.1280E+03
    -10.986  0.0000E+00  0.0000E+00  0.1280E+03  0.1280E+03
    -10.745  0.0000E+00  0.0000E+00  0.1280E+03  0.1280E+03
    -10.504  0.0000E+00  0.0000E+00  0.1280E+03  0.1280E+03
    -10.263  0.0000E+00  0.0000E+00  0.1280E+03  0.1280E+03
    -10.022  0.0000E+00  0.0000E+00  0.1280E+03  0.1280E+03
     -9.781  0.0000E+00  0.0000E+00  0.1280E+03  0.1280E+03
     -9.541  0.0000E+00  0.0000E+00  0.1280E+03  0.1280E+03
     -9.300  0.0000E+00  0.0000E+00  0.1280E+03  0.1280E+03
     -9.059  0.0000E+00  0.0000E+00  0.1280E+03  0.1280E+03
     -8.818  0.0000E+00  0.0000E+00  0.1280E+03  0.1280E+03
     -8.577  0.0000E+00  0.0000E+00  0.1280E+03  0.1280E+03
     -8.336  0.0000E+00  0.0000E+00  0.1280E+03  0.1280E+03
     -8.095  0.0000E+00  0.0000E+00  0.1280E+03  0.1280E+03
     -7.855  0.2649E-09  0.0000E+00  0.1280E+03  0.1280E+03
     -7.614  0.7154E+00  0.5007E-10  0.1282E+03  0.1280E+03
     -7.373  0.1326E+02  0.6410E+00  0.1314E+03  0.1282E+03
     -7.132  0.3023E+02  0.1458E+02  0.1386E+03  0.1317E+03
     -6.891  0.3511E+02  0.2933E+02  0.1471E+03  0.1387E+03
     -6.650  0.2033E+02  0.2685E+02  0.1520E+03  0.1452E+03
     -6.409  0.8136E-05  0.2820E+02  0.1520E+03  0.1520E+03
     -6.169  0.0000E+00  0.3419E-01  0.1520E+03  0.1520E+03
     -5.928  0.0000E+00  0.0000E+00  0.1520E+03  0.1520E+03
     -5.687  0.0000E+00  0.0000E+00  0.1520E+03  0.1520E+03
     -5.446  0.0000E+00  0.0000E+00  0.1520E+03  0.1520E+03
     -5.205  0.0000E+00  0.0000E+00  0.1520E+03  0.1520E+03
     -4.964  0.0000E+00  0.0000E+00  0.1520E+03  0.1520E+03
     -4.723  0.0000E+00  0.0000E+00  0.1520E+03  0.1520E+03
     -4.483  0.0000E+00  0.0000E+00  0.1520E+03  0.1520E+03
     -4.242  0.0000E+00  0.0000E+00  0.1520E+03  0.1520E+03
     -4.001  0.0000E+00  0.0000E+00  0.1520E+03  0.1520E+03
     -3.760  0.0000E+00  0.0000E+00  0.1520E+03  0.1520E+03
     -3.519  0.0000E+00  0.0000E+00  0.1520E+03  0.1520E+03
     -3.278  0.0000E+00  0.0000E+00  0.1520E+03  0.1520E+03
     -3.037  0.0000E+00  0.0000E+00  0.1520E+03  0.1520E+03
     -2.796  0.0000E+00  0.0000E+00  0.1520E+03  0.1520E+03
     -2.556  0.0000E+00  0.0000E+00  0.1520E+03  0.1520E+03
     -2.315  0.0000E+00  0.0000E+00  0.1520E+03  0.1520E+03
     -2.074  0.7166E-04  0.0000E+00  0.1520E+03  0.1520E+03
     -1.833  0.1695E+02  0.0000E+00  0.1561E+03  0.1520E+03
     -1.592  0.1920E+02  0.0000E+00  0.1607E+03  0.1520E+03
     -1.351  0.1451E+02  0.0000E+00  0.1642E+03  0.1520E+03
     -1.110  0.1742E+02  0.0000E+00  0.1684E+03  0.1520E+03
     -0.870  0.4692E+02  0.0000E+00  0.1797E+03  0.1520E+03
     -0.629  0.5912E+02  0.2957E-05  0.1939E+03  0.1520E+03
     -0.388  0.3878E+02  0.4811E+01  0.2033E+03  0.1532E+03
     -0.147  0.6878E+02  0.2026E+02  0.2198E+03  0.1580E+03
      0.094  0.7334E+02  0.1229E+02  0.2375E+03  0.1610E+03
      0.335  0.7768E+02  0.1891E+02  0.2562E+03  0.1656E+03
      0.576  0.7003E+02  0.2973E+02  0.2731E+03  0.1727E+03
      0.816  0.5416E+02  0.3954E+02  0.2861E+03  0.1822E+03
      1.057  0.3628E+02  0.3728E+02  0.2949E+03  0.1912E+03
      1.298  0.3085E+02  0.3060E+02  0.3023E+03  0.1986E+03
      1.539  0.4502E+02  0.2089E+02  0.3131E+03  0.2036E+03
      1.780  0.4325E+02  0.2873E+02  0.3236E+03  0.2105E+03
      2.021  0.6916E+02  0.3756E+02  0.3402E+03  0.2196E+03
      2.262  0.5627E+02  0.2675E+02  0.3538E+03  0.2260E+03
      2.502  0.2721E+02  0.2714E+02  0.3603E+03  0.2326E+03
      2.743  0.4291E+02  0.3163E+02  0.3707E+03  0.2402E+03
      2.984  0.2876E+02  0.4476E+02  0.3776E+03  0.2510E+03
      3.225  0.8785E+01  0.4537E+02  0.3797E+03  0.2619E+03
      3.466  0.2885E+02  0.3093E+02  0.3867E+03  0.2693E+03
      3.707  0.2663E+02  0.1203E+02  0.3931E+03  0.2722E+03
      3.948  0.3124E+02  0.1878E+02  0.4006E+03  0.2768E+03
      4.188  0.3591E+02  0.5185E+02  0.4092E+03  0.2893E+03
      4.429  0.3637E+02  0.4557E+02  0.4180E+03  0.3002E+03
      4.670  0.2994E+02  0.1565E+02  0.4252E+03  0.3040E+03
      4.911  0.2553E+02  0.2146E-02  0.4314E+03  0.3040E+03
      5.152  0.2628E+01  0.0000E+00  0.4320E+03  0.3040E+03
      5.393  0.0000E+00  0.0000E+00  0.4320E+03  0.3040E+03
      5.634  0.0000E+00  0.0000E+00  0.4320E+03  0.3040E+03
      5.875  0.0000E+00  0.0000E+00  0.4320E+03  0.3040E+03
      6.115  0.0000E+00  0.1669E-08  0.4320E+03  0.3040E+03
      6.356  0.0000E+00  0.4568E+00  0.4320E+03  0.3041E+03
      6.597  0.0000E+00  0.4220E+01  0.4320E+03  0.3051E+03
      6.838  0.0000E+00  0.8085E+01  0.4320E+03  0.3071E+03
      7.079  0.5053E-14  0.2019E+02  0.4320E+03  0.3119E+03
      7.320  0.3800E-01  0.4481E+02  0.4320E+03  0.3227E+03
      7.561  0.1158E+00  0.5412E+02  0.4320E+03  0.3358E+03
      7.801  0.3019E+00  0.6288E+02  0.4321E+03  0.3509E+03
      8.042  0.6992E+00  0.6635E+02  0.4323E+03  0.3669E+03
      8.283  0.2265E+01  0.7054E+02  0.4328E+03  0.3839E+03
      8.524  0.2658E+01  0.5853E+02  0.4335E+03  0.3980E+03
      8.765  0.9011E+01  0.5881E+02  0.4356E+03  0.4121E+03
      9.006  0.1270E+02  0.4665E+02  0.4387E+03  0.4234E+03
      9.247  0.1323E+02  0.2898E+02  0.4419E+03  0.4304E+03
      9.487  0.1812E+02  0.8523E+01  0.4462E+03  0.4324E+03
      9.728  0.1610E+02  0.3227E+01  0.4501E+03  0.4332E+03
      9.969  0.1574E+02  0.8504E+01  0.4539E+03  0.4352E+03
     10.210  0.2250E+02  0.1890E+02  0.4593E+03  0.4398E+03
     10.451  0.1484E+02  0.1798E+02  0.4629E+03  0.4441E+03
     10.692  0.1522E+02  0.1742E+02  0.4666E+03  0.4483E+03
     10.933  0.1341E+02  0.2749E+02  0.4698E+03  0.4549E+03
     11.173  0.2072E+02  0.1891E+02  0.4748E+03  0.4595E+03
     11.414  0.2515E+02  0.2414E+02  0.4809E+03  0.4653E+03
     11.655  0.2691E+02  0.1432E+02  0.4873E+03  0.4688E+03
     11.896  0.2516E+02  0.1395E+02  0.4934E+03  0.4721E+03
     12.137  0.3298E+02  0.1643E+02  0.5013E+03  0.4761E+03
     12.378  0.1979E+02  0.3739E+02  0.5061E+03  0.4851E+03
     12.619  0.2310E+02  0.3247E+02  0.5117E+03  0.4929E+03
     12.859  0.2165E+02  0.2917E+02  0.5169E+03  0.4999E+03
     13.100  0.1985E+02  0.2017E+02  0.5217E+03  0.5048E+03
     13.341  0.2467E+02  0.2264E+02  0.5276E+03  0.5102E+03
     13.582  0.2347E+02  0.2731E+02  0.5333E+03  0.5168E+03
     13.823  0.1301E+02  0.2377E+02  0.5364E+03  0.5225E+03
     14.064  0.6688E+01  0.2606E+02  0.5380E+03  0.5288E+03
     14.305  0.7885E-02  0.1878E+02  0.5380E+03  0.5333E+03
     14.546  0.0000E+00  0.1602E+02  0.5380E+03  0.5372E+03
     14.786  0.0000E+00  0.3331E+01  0.5380E+03  0.5380E+03
     15.027  0.0000E+00  0.3894E-05  0.5380E+03  0.5380E+03
     15.268  0.0000E+00  0.0000E+00  0.5380E+03  0.5380E+03
     15.509  0.0000E+00  0.0000E+00  0.5380E+03  0.5380E+03
     15.750  0.0000E+00  0.0000E+00  0.5380E+03  0.5380E+03
     15.991  0.0000E+00  0.0000E+00  0.5380E+03  0.5380E+03
     16.232  0.0000E+00  0.0000E+00  0.5380E+03  0.5380E+03
     16.472  0.0000E+00  0.0000E+00  0.5380E+03  0.5380E+03
     16.713  0.0000E+00  0.0000E+00  0.5380E+03  0.5380E+03
     16.954  0.0000E+00  0.0000E+00  0.5380E+03  0.5380E+03
     17.195  0.0000E+00  0.0000E+00  0.5380E+03  0.5380E+03
     17.436  0.0000E+00  0.0000E+00  0.5380E+03  0.5380E+03
     17.677  0.0000E+00  0.0000E+00  0.5380E+03  0.5380E+03
     17.918  0.0000E+00  0.0000E+00  0.5380E+03  0.5380E+03
