  99  99   0   0
  0.1430410E+02  0.1177748E-08  0.1177748E-08  0.1058004E-08  0.5000000E-15
  1.000000000000000E-004
  CAR 
 unknown system                          
     18.03093410    -54.33992196  301      5.30572524      1.00000000
    -54.340  0.0000E+00  0.0000E+00  0.0000E+00  0.0000E+00
    -54.099  0.0000E+00  0.0000E+00  0.0000E+00  0.0000E+00
    -53.857  0.0000E+00  0.0000E+00  0.0000E+00  0.0000E+00
    -53.616  0.0000E+00  0.0000E+00  0.0000E+00  0.0000E+00
    -53.375  0.0000E+00  0.0000E+00  0.0000E+00  0.0000E+00
    -53.134  0.0000E+00  0.0000E+00  0.0000E+00  0.0000E+00
    -52.893  0.0000E+00  0.0000E+00  0.0000E+00  0.0000E+00
    -52.651  0.0000E+00  0.0000E+00  0.0000E+00  0.0000E+00
    -52.410  0.0000E+00  0.0000E+00  0.0000E+00  0.0000E+00
    -52.169  0.0000E+00  0.0000E+00  0.0000E+00  0.0000E+00
    -51.928  0.0000E+00  0.0000E+00  0.0000E+00  0.0000E+00
    -51.686  0.0000E+00  0.0000E+00  0.0000E+00  0.0000E+00
    -51.445  0.0000E+00  0.0000E+00  0.0000E+00  0.0000E+00
    -51.204  0.5117E-03  0.0000E+00  0.1234E-03  0.0000E+00
    -50.963  0.1473E+03  0.0000E+00  0.3554E+02  0.0000E+00
    -50.721  0.1926E+01  0.0000E+00  0.3600E+02  0.0000E+00
    -50.480  0.0000E+00  0.0000E+00  0.3600E+02  0.0000E+00
    -50.239  0.0000E+00  0.0000E+00  0.3600E+02  0.0000E+00
    -49.998  0.0000E+00  0.0000E+00  0.3600E+02  0.0000E+00
    -49.756  0.2178E+01  0.0000E+00  0.3653E+02  0.0000E+00
    -49.515  0.2736E+03  0.0000E+00  0.1025E+03  0.0000E+00
    -49.274  0.2266E+02  0.0000E+00  0.1080E+03  0.0000E+00
    -49.033  0.0000E+00  0.0000E+00  0.1080E+03  0.0000E+00
    -48.791  0.0000E+00  0.0000E+00  0.1080E+03  0.0000E+00
    -48.550  0.0000E+00  0.0000E+00  0.1080E+03  0.0000E+00
    -48.309  0.0000E+00  0.0000E+00  0.1080E+03  0.0000E+00
    -48.068  0.0000E+00  0.0000E+00  0.1080E+03  0.0000E+00
    -47.827  0.0000E+00  0.0000E+00  0.1080E+03  0.0000E+00
    -47.585  0.0000E+00  0.0000E+00  0.1080E+03  0.0000E+00
    -47.344  0.0000E+00  0.0000E+00  0.1080E+03  0.0000E+00
    -47.103  0.0000E+00  0.0000E+00  0.1080E+03  0.0000E+00
    -46.862  0.0000E+00  0.0000E+00  0.1080E+03  0.0000E+00
    -46.620  0.0000E+00  0.0000E+00  0.1080E+03  0.0000E+00
    -46.379  0.0000E+00  0.6313E+00  0.1080E+03  0.1523E+00
    -46.138  0.0000E+00  0.1486E+03  0.1080E+03  0.3600E+02
    -45.897  0.0000E+00  0.8045E+02  0.1080E+03  0.5540E+02
    -45.655  0.0000E+00  0.2180E+03  0.1080E+03  0.1080E+03
    -45.414  0.0000E+00  0.0000E+00  0.1080E+03  0.1080E+03
    -45.173  0.0000E+00  0.0000E+00  0.1080E+03  0.1080E+03
    -44.932  0.0000E+00  0.0000E+00  0.1080E+03  0.1080E+03
    -44.690  0.0000E+00  0.0000E+00  0.1080E+03  0.1080E+03
    -44.449  0.0000E+00  0.0000E+00  0.1080E+03  0.1080E+03
    -44.208  0.0000E+00  0.0000E+00  0.1080E+03  0.1080E+03
    -43.967  0.0000E+00  0.0000E+00  0.1080E+03  0.1080E+03
    -43.726  0.0000E+00  0.0000E+00  0.1080E+03  0.1080E+03
    -43.484  0.0000E+00  0.0000E+00  0.1080E+03  0.1080E+03
    -43.243  0.0000E+00  0.0000E+00  0.1080E+03  0.1080E+03
    -43.002  0.0000E+00  0.0000E+00  0.1080E+03  0.1080E+03
    -42.761  0.0000E+00  0.0000E+00  0.1080E+03  0.1080E+03
    -42.519  0.0000E+00  0.0000E+00  0.1080E+03  0.1080E+03
    -42.278  0.0000E+00  0.0000E+00  0.1080E+03  0.1080E+03
    -42.037  0.0000E+00  0.0000E+00  0.1080E+03  0.1080E+03
    -41.796  0.0000E+00  0.0000E+00  0.1080E+03  0.1080E+03
    -41.554  0.0000E+00  0.0000E+00  0.1080E+03  0.1080E+03
    -41.313  0.0000E+00  0.0000E+00  0.1080E+03  0.1080E+03
    -41.072  0.0000E+00  0.0000E+00  0.1080E+03  0.1080E+03
    -40.831  0.0000E+00  0.0000E+00  0.1080E+03  0.1080E+03
    -40.589  0.0000E+00  0.0000E+00  0.1080E+03  0.1080E+03
    -40.348  0.0000E+00  0.0000E+00  0.1080E+03  0.1080E+03
    -40.107  0.3169E-08  0.1977E-08  0.1080E+03  0.1080E+03
    -39.866  0.4698E+02  0.4496E+02  0.1193E+03  0.1188E+03
    -39.625  0.2764E+02  0.2965E+02  0.1260E+03  0.1260E+03
    -39.383  0.0000E+00  0.0000E+00  0.1260E+03  0.1260E+03
    -39.142  0.0000E+00  0.0000E+00  0.1260E+03  0.1260E+03
    -38.901  0.0000E+00  0.0000E+00  0.1260E+03  0.1260E+03
    -38.660  0.0000E+00  0.0000E+00  0.1260E+03  0.1260E+03
    -38.418  0.0000E+00  0.0000E+00  0.1260E+03  0.1260E+03
    -38.177  0.0000E+00  0.0000E+00  0.1260E+03  0.1260E+03
    -37.936  0.0000E+00  0.0000E+00  0.1260E+03  0.1260E+03
    -37.695  0.0000E+00  0.0000E+00  0.1260E+03  0.1260E+03
    -37.453  0.0000E+00  0.0000E+00  0.1260E+03  0.1260E+03
    -37.212  0.0000E+00  0.0000E+00  0.1260E+03  0.1260E+03
    -36.971  0.0000E+00  0.0000E+00  0.1260E+03  0.1260E+03
    -36.730  0.0000E+00  0.0000E+00  0.1260E+03  0.1260E+03
    -36.488  0.0000E+00  0.0000E+00  0.1260E+03  0.1260E+03
    -36.247  0.0000E+00  0.0000E+00  0.1260E+03  0.1260E+03
    -36.006  0.0000E+00  0.0000E+00  0.1260E+03  0.1260E+03
    -35.765  0.0000E+00  0.0000E+00  0.1260E+03  0.1260E+03
    -35.523  0.0000E+00  0.0000E+00  0.1260E+03  0.1260E+03
    -35.282  0.0000E+00  0.0000E+00  0.1260E+03  0.1260E+03
    -35.041  0.0000E+00  0.0000E+00  0.1260E+03  0.1260E+03
    -34.800  0.0000E+00  0.0000E+00  0.1260E+03  0.1260E+03
    -34.559  0.0000E+00  0.0000E+00  0.1260E+03  0.1260E+03
    -34.317  0.0000E+00  0.0000E+00  0.1260E+03  0.1260E+03
    -34.076  0.0000E+00  0.0000E+00  0.1260E+03  0.1260E+03
    -33.835  0.0000E+00  0.0000E+00  0.1260E+03  0.1260E+03
    -33.594  0.0000E+00  0.0000E+00  0.1260E+03  0.1260E+03
    -33.352  0.0000E+00  0.0000E+00  0.1260E+03  0.1260E+03
    -33.111  0.0000E+00  0.0000E+00  0.1260E+03  0.1260E+03
    -32.870  0.0000E+00  0.0000E+00  0.1260E+03  0.1260E+03
    -32.629  0.0000E+00  0.0000E+00  0.1260E+03  0.1260E+03
    -32.387  0.0000E+00  0.0000E+00  0.1260E+03  0.1260E+03
    -32.146  0.0000E+00  0.0000E+00  0.1260E+03  0.1260E+03
    -31.905  0.0000E+00  0.0000E+00  0.1260E+03  0.1260E+03
    -31.664  0.0000E+00  0.0000E+00  0.1260E+03  0.1260E+03
    -31.422  0.0000E+00  0.0000E+00  0.1260E+03  0.1260E+03
    -31.181  0.0000E+00  0.0000E+00  0.1260E+03  0.1260E+03
    -30.940  0.0000E+00  0.0000E+00  0.1260E+03  0.1260E+03
    -30.699  0.0000E+00  0.0000E+00  0.1260E+03  0.1260E+03
    -30.458  0.0000E+00  0.0000E+00  0.1260E+03  0.1260E+03
    -30.216  0.0000E+00  0.0000E+00  0.1260E+03  0.1260E+03
    -29.975  0.0000E+00  0.0000E+00  0.1260E+03  0.1260E+03
    -29.734  0.0000E+00  0.0000E+00  0.1260E+03  0.1260E+03
    -29.493  0.0000E+00  0.0000E+00  0.1260E+03  0.1260E+03
    -29.251  0.0000E+00  0.0000E+00  0.1260E+03  0.1260E+03
    -29.010  0.0000E+00  0.0000E+00  0.1260E+03  0.1260E+03
    -28.769  0.0000E+00  0.0000E+00  0.1260E+03  0.1260E+03
    -28.528  0.0000E+00  0.0000E+00  0.1260E+03  0.1260E+03
    -28.286  0.0000E+00  0.0000E+00  0.1260E+03  0.1260E+03
    -28.045  0.0000E+00  0.0000E+00  0.1260E+03  0.1260E+03
    -27.804  0.0000E+00  0.0000E+00  0.1260E+03  0.1260E+03
    -27.563  0.0000E+00  0.0000E+00  0.1260E+03  0.1260E+03
    -27.321  0.0000E+00  0.0000E+00  0.1260E+03  0.1260E+03
    -27.080  0.0000E+00  0.0000E+00  0.1260E+03  0.1260E+03
    -26.839  0.0000E+00  0.0000E+00  0.1260E+03  0.1260E+03
    -26.598  0.0000E+00  0.0000E+00  0.1260E+03  0.1260E+03
    -26.357  0.0000E+00  0.0000E+00  0.1260E+03  0.1260E+03
    -26.115  0.0000E+00  0.0000E+00  0.1260E+03  0.1260E+03
    -25.874  0.0000E+00  0.0000E+00  0.1260E+03  0.1260E+03
    -25.633  0.0000E+00  0.0000E+00  0.1260E+03  0.1260E+03
    -25.392  0.0000E+00  0.0000E+00  0.1260E+03  0.1260E+03
    -25.150  0.0000E+00  0.0000E+00  0.1260E+03  0.1260E+03
    -24.909  0.0000E+00  0.0000E+00  0.1260E+03  0.1260E+03
    -24.668  0.0000E+00  0.0000E+00  0.1260E+03  0.1260E+03
    -24.427  0.0000E+00  0.0000E+00  0.1260E+03  0.1260E+03
    -24.185  0.0000E+00  0.0000E+00  0.1260E+03  0.1260E+03
    -23.944  0.0000E+00  0.0000E+00  0.1260E+03  0.1260E+03
    -23.703  0.0000E+00  0.0000E+00  0.1260E+03  0.1260E+03
    -23.462  0.0000E+00  0.0000E+00  0.1260E+03  0.1260E+03
    -23.220  0.0000E+00  0.0000E+00  0.1260E+03  0.1260E+03
    -22.979  0.0000E+00  0.0000E+00  0.1260E+03  0.1260E+03
    -22.738  0.0000E+00  0.0000E+00  0.1260E+03  0.1260E+03
    -22.497  0.0000E+00  0.0000E+00  0.1260E+03  0.1260E+03
    -22.256  0.0000E+00  0.0000E+00  0.1260E+03  0.1260E+03
    -22.014  0.0000E+00  0.0000E+00  0.1260E+03  0.1260E+03
    -21.773  0.0000E+00  0.0000E+00  0.1260E+03  0.1260E+03
    -21.532  0.0000E+00  0.0000E+00  0.1260E+03  0.1260E+03
    -21.291  0.0000E+00  0.0000E+00  0.1260E+03  0.1260E+03
    -21.049  0.0000E+00  0.0000E+00  0.1260E+03  0.1260E+03
    -20.808  0.0000E+00  0.0000E+00  0.1260E+03  0.1260E+03
    -20.567  0.0000E+00  0.0000E+00  0.1260E+03  0.1260E+03
    -20.326  0.0000E+00  0.0000E+00  0.1260E+03  0.1260E+03
    -20.084  0.0000E+00  0.0000E+00  0.1260E+03  0.1260E+03
    -19.843  0.0000E+00  0.0000E+00  0.1260E+03  0.1260E+03
    -19.602  0.0000E+00  0.0000E+00  0.1260E+03  0.1260E+03
    -19.361  0.0000E+00  0.0000E+00  0.1260E+03  0.1260E+03
    -19.119  0.0000E+00  0.0000E+00  0.1260E+03  0.1260E+03
    -18.878  0.0000E+00  0.0000E+00  0.1260E+03  0.1260E+03
    -18.637  0.0000E+00  0.0000E+00  0.1260E+03  0.1260E+03
    -18.396  0.0000E+00  0.0000E+00  0.1260E+03  0.1260E+03
    -18.154  0.0000E+00  0.0000E+00  0.1260E+03  0.1260E+03
    -17.913  0.0000E+00  0.0000E+00  0.1260E+03  0.1260E+03
    -17.672  0.0000E+00  0.0000E+00  0.1260E+03  0.1260E+03
    -17.431  0.0000E+00  0.0000E+00  0.1260E+03  0.1260E+03
    -17.190  0.0000E+00  0.0000E+00  0.1260E+03  0.1260E+03
    -16.948  0.0000E+00  0.0000E+00  0.1260E+03  0.1260E+03
    -16.707  0.0000E+00  0.0000E+00  0.1260E+03  0.1260E+03
    -16.466  0.0000E+00  0.0000E+00  0.1260E+03  0.1260E+03
    -16.225  0.0000E+00  0.0000E+00  0.1260E+03  0.1260E+03
    -15.983  0.0000E+00  0.0000E+00  0.1260E+03  0.1260E+03
    -15.742  0.0000E+00  0.0000E+00  0.1260E+03  0.1260E+03
    -15.501  0.0000E+00  0.0000E+00  0.1260E+03  0.1260E+03
    -15.260  0.0000E+00  0.0000E+00  0.1260E+03  0.1260E+03
    -15.018  0.0000E+00  0.0000E+00  0.1260E+03  0.1260E+03
    -14.777  0.0000E+00  0.0000E+00  0.1260E+03  0.1260E+03
    -14.536  0.0000E+00  0.0000E+00  0.1260E+03  0.1260E+03
    -14.295  0.0000E+00  0.0000E+00  0.1260E+03  0.1260E+03
    -14.053  0.0000E+00  0.0000E+00  0.1260E+03  0.1260E+03
    -13.812  0.0000E+00  0.0000E+00  0.1260E+03  0.1260E+03
    -13.571  0.0000E+00  0.0000E+00  0.1260E+03  0.1260E+03
    -13.330  0.2627E-01  0.0000E+00  0.1260E+03  0.1260E+03
    -13.089  0.4019E+02  0.5046E-12  0.1357E+03  0.1260E+03
    -12.847  0.3439E+02  0.3476E+01  0.1440E+03  0.1268E+03
    -12.606  0.3783E-02  0.6700E+02  0.1440E+03  0.1430E+03
    -12.365  0.0000E+00  0.4143E+01  0.1440E+03  0.1440E+03
    -12.124  0.0000E+00  0.0000E+00  0.1440E+03  0.1440E+03
    -11.882  0.0000E+00  0.0000E+00  0.1440E+03  0.1440E+03
    -11.641  0.0000E+00  0.0000E+00  0.1440E+03  0.1440E+03
    -11.400  0.0000E+00  0.0000E+00  0.1440E+03  0.1440E+03
    -11.159  0.0000E+00  0.0000E+00  0.1440E+03  0.1440E+03
    -10.917  0.0000E+00  0.0000E+00  0.1440E+03  0.1440E+03
    -10.676  0.0000E+00  0.0000E+00  0.1440E+03  0.1440E+03
    -10.435  0.0000E+00  0.0000E+00  0.1440E+03  0.1440E+03
    -10.194  0.0000E+00  0.0000E+00  0.1440E+03  0.1440E+03
     -9.952  0.0000E+00  0.0000E+00  0.1440E+03  0.1440E+03
     -9.711  0.0000E+00  0.0000E+00  0.1440E+03  0.1440E+03
     -9.470  0.0000E+00  0.0000E+00  0.1440E+03  0.1440E+03
     -9.229  0.0000E+00  0.0000E+00  0.1440E+03  0.1440E+03
     -8.988  0.0000E+00  0.0000E+00  0.1440E+03  0.1440E+03
     -8.746  0.0000E+00  0.0000E+00  0.1440E+03  0.1440E+03
     -8.505  0.0000E+00  0.0000E+00  0.1440E+03  0.1440E+03
     -8.264  0.0000E+00  0.0000E+00  0.1440E+03  0.1440E+03
     -8.023  0.0000E+00  0.0000E+00  0.1440E+03  0.1440E+03
     -7.781  0.1888E-06  0.0000E+00  0.1440E+03  0.1440E+03
     -7.540  0.2147E+01  0.4033E-07  0.1445E+03  0.1440E+03
     -7.299  0.2455E+02  0.2070E+01  0.1504E+03  0.1445E+03
     -7.058  0.2860E+02  0.2651E+02  0.1573E+03  0.1509E+03
     -6.816  0.4407E+02  0.2668E+02  0.1680E+03  0.1573E+03
     -6.575  0.1256E+02  0.3412E+02  0.1710E+03  0.1656E+03
     -6.334  0.0000E+00  0.2255E+02  0.1710E+03  0.1710E+03
     -6.093  0.0000E+00  0.1403E-02  0.1710E+03  0.1710E+03
     -5.851  0.0000E+00  0.0000E+00  0.1710E+03  0.1710E+03
     -5.610  0.0000E+00  0.0000E+00  0.1710E+03  0.1710E+03
     -5.369  0.0000E+00  0.0000E+00  0.1710E+03  0.1710E+03
     -5.128  0.0000E+00  0.0000E+00  0.1710E+03  0.1710E+03
     -4.887  0.0000E+00  0.0000E+00  0.1710E+03  0.1710E+03
     -4.645  0.0000E+00  0.0000E+00  0.1710E+03  0.1710E+03
     -4.404  0.0000E+00  0.0000E+00  0.1710E+03  0.1710E+03
     -4.163  0.0000E+00  0.0000E+00  0.1710E+03  0.1710E+03
     -3.922  0.0000E+00  0.0000E+00  0.1710E+03  0.1710E+03
     -3.680  0.0000E+00  0.0000E+00  0.1710E+03  0.1710E+03
     -3.439  0.0000E+00  0.0000E+00  0.1710E+03  0.1710E+03
     -3.198  0.0000E+00  0.0000E+00  0.1710E+03  0.1710E+03
     -2.957  0.0000E+00  0.0000E+00  0.1710E+03  0.1710E+03
     -2.715  0.0000E+00  0.0000E+00  0.1710E+03  0.1710E+03
     -2.474  0.0000E+00  0.0000E+00  0.1710E+03  0.1710E+03
     -2.233  0.9545E-15  0.0000E+00  0.1710E+03  0.1710E+03
     -1.992  0.7314E+00  0.0000E+00  0.1712E+03  0.1710E+03
     -1.750  0.3045E+02  0.0000E+00  0.1785E+03  0.1710E+03
     -1.509  0.1751E+02  0.0000E+00  0.1827E+03  0.1710E+03
     -1.268  0.1610E+02  0.0000E+00  0.1866E+03  0.1710E+03
     -1.027  0.2707E+02  0.0000E+00  0.1932E+03  0.1710E+03
     -0.785  0.5882E+02  0.0000E+00  0.2073E+03  0.1710E+03
     -0.544  0.6198E+02  0.3640E-01  0.2223E+03  0.1710E+03
     -0.303  0.4768E+02  0.1639E+02  0.2338E+03  0.1750E+03
     -0.062  0.7976E+02  0.1689E+02  0.2530E+03  0.1790E+03
      0.179  0.9432E+02  0.1553E+02  0.2758E+03  0.1828E+03
      0.421  0.7823E+02  0.2423E+02  0.2947E+03  0.1886E+03
      0.662  0.7552E+02  0.3832E+02  0.3129E+03  0.1979E+03
      0.903  0.5114E+02  0.4581E+02  0.3252E+03  0.2089E+03
      1.144  0.3523E+02  0.3926E+02  0.3337E+03  0.2184E+03
      1.386  0.4272E+02  0.3001E+02  0.3440E+03  0.2256E+03
      1.627  0.4678E+02  0.2761E+02  0.3553E+03  0.2323E+03
      1.868  0.6484E+02  0.3341E+02  0.3710E+03  0.2404E+03
      2.109  0.7903E+02  0.3997E+02  0.3900E+03  0.2500E+03
      2.351  0.4493E+02  0.2483E+02  0.4009E+03  0.2560E+03
      2.592  0.3661E+02  0.3054E+02  0.4097E+03  0.2634E+03
      2.833  0.5050E+02  0.4447E+02  0.4219E+03  0.2741E+03
      3.074  0.1421E+02  0.4966E+02  0.4253E+03  0.2861E+03
      3.316  0.1500E+02  0.4337E+02  0.4289E+03  0.2965E+03
      3.557  0.3841E+02  0.3270E+02  0.4382E+03  0.3044E+03
      3.798  0.2682E+02  0.7177E+01  0.4447E+03  0.3061E+03
      4.039  0.4104E+02  0.3655E+02  0.4546E+03  0.3150E+03
      4.280  0.3780E+02  0.7624E+02  0.4637E+03  0.3334E+03
      4.522  0.3908E+02  0.3127E+02  0.4731E+03  0.3409E+03
      4.763  0.3228E+02  0.4558E+01  0.4809E+03  0.3420E+03
      5.004  0.2039E+02  0.0000E+00  0.4858E+03  0.3420E+03
      5.245  0.8045E+00  0.0000E+00  0.4860E+03  0.3420E+03
      5.487  0.0000E+00  0.0000E+00  0.4860E+03  0.3420E+03
      5.728  0.0000E+00  0.0000E+00  0.4860E+03  0.3420E+03
      5.969  0.0000E+00  0.0000E+00  0.4860E+03  0.3420E+03
      6.210  0.0000E+00  0.1504E-04  0.4860E+03  0.3420E+03
      6.452  0.0000E+00  0.2105E+01  0.4860E+03  0.3425E+03
      6.693  0.0000E+00  0.5280E+01  0.4860E+03  0.3438E+03
      6.934  0.0000E+00  0.1434E+02  0.4860E+03  0.3472E+03
      7.175  0.6581E-08  0.2891E+02  0.4860E+03  0.3542E+03
      7.417  0.1426E+00  0.5964E+02  0.4860E+03  0.3686E+03
      7.658  0.1124E-01  0.6691E+02  0.4860E+03  0.3847E+03
      7.899  0.6491E+00  0.6464E+02  0.4862E+03  0.4003E+03
      8.140  0.1299E+01  0.7541E+02  0.4865E+03  0.4185E+03
      8.381  0.2842E+01  0.8309E+02  0.4872E+03  0.4386E+03
      8.623  0.5202E+01  0.6580E+02  0.4884E+03  0.4545E+03
      8.864  0.1124E+02  0.6133E+02  0.4912E+03  0.4692E+03
      9.105  0.1452E+02  0.4202E+02  0.4947E+03  0.4794E+03
      9.346  0.2012E+02  0.2475E+02  0.4995E+03  0.4854E+03
      9.588  0.1621E+02  0.5867E+01  0.5034E+03  0.4868E+03
      9.829  0.1817E+02  0.7569E+01  0.5078E+03  0.4886E+03
     10.070  0.2464E+02  0.1168E+02  0.5138E+03  0.4914E+03
     10.311  0.1831E+02  0.2163E+02  0.5182E+03  0.4966E+03
     10.553  0.1990E+02  0.2142E+02  0.5230E+03  0.5018E+03
     10.794  0.1171E+02  0.2270E+02  0.5258E+03  0.5073E+03
     11.035  0.1851E+02  0.2812E+02  0.5303E+03  0.5141E+03
     11.276  0.2514E+02  0.2487E+02  0.5363E+03  0.5201E+03
     11.518  0.3217E+02  0.2096E+02  0.5441E+03  0.5251E+03
     11.759  0.2737E+02  0.1504E+02  0.5507E+03  0.5287E+03
     12.000  0.3394E+02  0.1186E+02  0.5589E+03  0.5316E+03
     12.241  0.3267E+02  0.3157E+02  0.5668E+03  0.5392E+03
     12.483  0.2271E+02  0.4614E+02  0.5722E+03  0.5503E+03
     12.724  0.2047E+02  0.3587E+02  0.5772E+03  0.5590E+03
     12.965  0.2410E+02  0.2543E+02  0.5830E+03  0.5651E+03
     13.206  0.2801E+02  0.2074E+02  0.5897E+03  0.5701E+03
     13.447  0.2799E+02  0.2874E+02  0.5965E+03  0.5771E+03
     13.689  0.2260E+02  0.3087E+02  0.6019E+03  0.5845E+03
     13.930  0.1521E+02  0.2670E+02  0.6056E+03  0.5910E+03
     14.171  0.1598E+01  0.2447E+02  0.6060E+03  0.5969E+03
     14.412  0.0000E+00  0.2250E+02  0.6060E+03  0.6023E+03
     14.654  0.0000E+00  0.1459E+02  0.6060E+03  0.6058E+03
     14.895  0.0000E+00  0.7961E+00  0.6060E+03  0.6060E+03
     15.136  0.0000E+00  0.2167E-05  0.6060E+03  0.6060E+03
     15.377  0.0000E+00  0.0000E+00  0.6060E+03  0.6060E+03
     15.619  0.0000E+00  0.0000E+00  0.6060E+03  0.6060E+03
     15.860  0.0000E+00  0.0000E+00  0.6060E+03  0.6060E+03
     16.101  0.0000E+00  0.0000E+00  0.6060E+03  0.6060E+03
     16.342  0.0000E+00  0.0000E+00  0.6060E+03  0.6060E+03
     16.584  0.0000E+00  0.0000E+00  0.6060E+03  0.6060E+03
     16.825  0.0000E+00  0.0000E+00  0.6060E+03  0.6060E+03
     17.066  0.0000E+00  0.0000E+00  0.6060E+03  0.6060E+03
     17.307  0.0000E+00  0.0000E+00  0.6060E+03  0.6060E+03
     17.548  0.0000E+00  0.0000E+00  0.6060E+03  0.6060E+03
     17.790  0.0000E+00  0.0000E+00  0.6060E+03  0.6060E+03
     18.031  0.0000E+00  0.0000E+00  0.6060E+03  0.6060E+03
