  88  88   0   0
  0.1431748E+02  0.1111223E-08  0.1111745E-08  0.1056954E-08  0.5000000E-15
  1.000000000000000E-004
  CAR 
 unknown system                          
     17.90642911    -54.33868739  301      5.20332946      1.00000000
    -54.339  0.0000E+00  0.0000E+00  0.0000E+00  0.0000E+00
    -54.098  0.0000E+00  0.0000E+00  0.0000E+00  0.0000E+00
    -53.857  0.0000E+00  0.0000E+00  0.0000E+00  0.0000E+00
    -53.616  0.0000E+00  0.0000E+00  0.0000E+00  0.0000E+00
    -53.375  0.0000E+00  0.0000E+00  0.0000E+00  0.0000E+00
    -53.135  0.0000E+00  0.0000E+00  0.0000E+00  0.0000E+00
    -52.894  0.0000E+00  0.0000E+00  0.0000E+00  0.0000E+00
    -52.653  0.0000E+00  0.0000E+00  0.0000E+00  0.0000E+00
    -52.412  0.0000E+00  0.0000E+00  0.0000E+00  0.0000E+00
    -52.171  0.0000E+00  0.0000E+00  0.0000E+00  0.0000E+00
    -51.931  0.0000E+00  0.0000E+00  0.0000E+00  0.0000E+00
    -51.690  0.0000E+00  0.0000E+00  0.0000E+00  0.0000E+00
    -51.449  0.0000E+00  0.0000E+00  0.0000E+00  0.0000E+00
    -51.208  0.4701E-03  0.0000E+00  0.1132E-03  0.0000E+00
    -50.967  0.1312E+03  0.0000E+00  0.3159E+02  0.0000E+00
    -50.726  0.1683E+01  0.0000E+00  0.3200E+02  0.0000E+00
    -50.486  0.0000E+00  0.0000E+00  0.3200E+02  0.0000E+00
    -50.245  0.0000E+00  0.0000E+00  0.3200E+02  0.0000E+00
    -50.004  0.0000E+00  0.0000E+00  0.3200E+02  0.0000E+00
    -49.763  0.2246E+01  0.0000E+00  0.3254E+02  0.0000E+00
    -49.522  0.2383E+03  0.0000E+00  0.8993E+02  0.0000E+00
    -49.282  0.2522E+02  0.0000E+00  0.9600E+02  0.0000E+00
    -49.041  0.0000E+00  0.0000E+00  0.9600E+02  0.0000E+00
    -48.800  0.0000E+00  0.0000E+00  0.9600E+02  0.0000E+00
    -48.559  0.0000E+00  0.0000E+00  0.9600E+02  0.0000E+00
    -48.318  0.0000E+00  0.0000E+00  0.9600E+02  0.0000E+00
    -48.077  0.0000E+00  0.0000E+00  0.9600E+02  0.0000E+00
    -47.837  0.0000E+00  0.0000E+00  0.9600E+02  0.0000E+00
    -47.596  0.0000E+00  0.0000E+00  0.9600E+02  0.0000E+00
    -47.355  0.0000E+00  0.0000E+00  0.9600E+02  0.0000E+00
    -47.114  0.0000E+00  0.0000E+00  0.9600E+02  0.0000E+00
    -46.873  0.0000E+00  0.0000E+00  0.9600E+02  0.0000E+00
    -46.633  0.0000E+00  0.0000E+00  0.9600E+02  0.0000E+00
    -46.392  0.0000E+00  0.4127E+00  0.9600E+02  0.9938E-01
    -46.151  0.0000E+00  0.1324E+03  0.9600E+02  0.3199E+02
    -45.910  0.0000E+00  0.6246E+02  0.9600E+02  0.4703E+02
    -45.669  0.0000E+00  0.2033E+03  0.9600E+02  0.9600E+02
    -45.428  0.0000E+00  0.0000E+00  0.9600E+02  0.9600E+02
    -45.188  0.0000E+00  0.0000E+00  0.9600E+02  0.9600E+02
    -44.947  0.0000E+00  0.0000E+00  0.9600E+02  0.9600E+02
    -44.706  0.0000E+00  0.0000E+00  0.9600E+02  0.9600E+02
    -44.465  0.0000E+00  0.0000E+00  0.9600E+02  0.9600E+02
    -44.224  0.0000E+00  0.0000E+00  0.9600E+02  0.9600E+02
    -43.984  0.0000E+00  0.0000E+00  0.9600E+02  0.9600E+02
    -43.743  0.0000E+00  0.0000E+00  0.9600E+02  0.9600E+02
    -43.502  0.0000E+00  0.0000E+00  0.9600E+02  0.9600E+02
    -43.261  0.0000E+00  0.0000E+00  0.9600E+02  0.9600E+02
    -43.020  0.0000E+00  0.0000E+00  0.9600E+02  0.9600E+02
    -42.779  0.0000E+00  0.0000E+00  0.9600E+02  0.9600E+02
    -42.539  0.0000E+00  0.0000E+00  0.9600E+02  0.9600E+02
    -42.298  0.0000E+00  0.0000E+00  0.9600E+02  0.9600E+02
    -42.057  0.0000E+00  0.0000E+00  0.9600E+02  0.9600E+02
    -41.816  0.0000E+00  0.0000E+00  0.9600E+02  0.9600E+02
    -41.575  0.0000E+00  0.0000E+00  0.9600E+02  0.9600E+02
    -41.335  0.0000E+00  0.0000E+00  0.9600E+02  0.9600E+02
    -41.094  0.0000E+00  0.0000E+00  0.9600E+02  0.9600E+02
    -40.853  0.0000E+00  0.0000E+00  0.9600E+02  0.9600E+02
    -40.612  0.0000E+00  0.0000E+00  0.9600E+02  0.9600E+02
    -40.371  0.0000E+00  0.0000E+00  0.9600E+02  0.9600E+02
    -40.130  0.2328E-11  0.1477E-11  0.9600E+02  0.9600E+02
    -39.890  0.1655E+02  0.1531E+02  0.9998E+02  0.9969E+02
    -39.649  0.4989E+02  0.5113E+02  0.1120E+03  0.1120E+03
    -39.408  0.0000E+00  0.0000E+00  0.1120E+03  0.1120E+03
    -39.167  0.0000E+00  0.0000E+00  0.1120E+03  0.1120E+03
    -38.926  0.0000E+00  0.0000E+00  0.1120E+03  0.1120E+03
    -38.686  0.0000E+00  0.0000E+00  0.1120E+03  0.1120E+03
    -38.445  0.0000E+00  0.0000E+00  0.1120E+03  0.1120E+03
    -38.204  0.0000E+00  0.0000E+00  0.1120E+03  0.1120E+03
    -37.963  0.0000E+00  0.0000E+00  0.1120E+03  0.1120E+03
    -37.722  0.0000E+00  0.0000E+00  0.1120E+03  0.1120E+03
    -37.481  0.0000E+00  0.0000E+00  0.1120E+03  0.1120E+03
    -37.241  0.0000E+00  0.0000E+00  0.1120E+03  0.1120E+03
    -37.000  0.0000E+00  0.0000E+00  0.1120E+03  0.1120E+03
    -36.759  0.0000E+00  0.0000E+00  0.1120E+03  0.1120E+03
    -36.518  0.0000E+00  0.0000E+00  0.1120E+03  0.1120E+03
    -36.277  0.0000E+00  0.0000E+00  0.1120E+03  0.1120E+03
    -36.037  0.0000E+00  0.0000E+00  0.1120E+03  0.1120E+03
    -35.796  0.0000E+00  0.0000E+00  0.1120E+03  0.1120E+03
    -35.555  0.0000E+00  0.0000E+00  0.1120E+03  0.1120E+03
    -35.314  0.0000E+00  0.0000E+00  0.1120E+03  0.1120E+03
    -35.073  0.0000E+00  0.0000E+00  0.1120E+03  0.1120E+03
    -34.833  0.0000E+00  0.0000E+00  0.1120E+03  0.1120E+03
    -34.592  0.0000E+00  0.0000E+00  0.1120E+03  0.1120E+03
    -34.351  0.0000E+00  0.0000E+00  0.1120E+03  0.1120E+03
    -34.110  0.0000E+00  0.0000E+00  0.1120E+03  0.1120E+03
    -33.869  0.0000E+00  0.0000E+00  0.1120E+03  0.1120E+03
    -33.628  0.0000E+00  0.0000E+00  0.1120E+03  0.1120E+03
    -33.388  0.0000E+00  0.0000E+00  0.1120E+03  0.1120E+03
    -33.147  0.0000E+00  0.0000E+00  0.1120E+03  0.1120E+03
    -32.906  0.0000E+00  0.0000E+00  0.1120E+03  0.1120E+03
    -32.665  0.0000E+00  0.0000E+00  0.1120E+03  0.1120E+03
    -32.424  0.0000E+00  0.0000E+00  0.1120E+03  0.1120E+03
    -32.184  0.0000E+00  0.0000E+00  0.1120E+03  0.1120E+03
    -31.943  0.0000E+00  0.0000E+00  0.1120E+03  0.1120E+03
    -31.702  0.0000E+00  0.0000E+00  0.1120E+03  0.1120E+03
    -31.461  0.0000E+00  0.0000E+00  0.1120E+03  0.1120E+03
    -31.220  0.0000E+00  0.0000E+00  0.1120E+03  0.1120E+03
    -30.979  0.0000E+00  0.0000E+00  0.1120E+03  0.1120E+03
    -30.739  0.0000E+00  0.0000E+00  0.1120E+03  0.1120E+03
    -30.498  0.0000E+00  0.0000E+00  0.1120E+03  0.1120E+03
    -30.257  0.0000E+00  0.0000E+00  0.1120E+03  0.1120E+03
    -30.016  0.0000E+00  0.0000E+00  0.1120E+03  0.1120E+03
    -29.775  0.0000E+00  0.0000E+00  0.1120E+03  0.1120E+03
    -29.535  0.0000E+00  0.0000E+00  0.1120E+03  0.1120E+03
    -29.294  0.0000E+00  0.0000E+00  0.1120E+03  0.1120E+03
    -29.053  0.0000E+00  0.0000E+00  0.1120E+03  0.1120E+03
    -28.812  0.0000E+00  0.0000E+00  0.1120E+03  0.1120E+03
    -28.571  0.0000E+00  0.0000E+00  0.1120E+03  0.1120E+03
    -28.330  0.0000E+00  0.0000E+00  0.1120E+03  0.1120E+03
    -28.090  0.0000E+00  0.0000E+00  0.1120E+03  0.1120E+03
    -27.849  0.0000E+00  0.0000E+00  0.1120E+03  0.1120E+03
    -27.608  0.0000E+00  0.0000E+00  0.1120E+03  0.1120E+03
    -27.367  0.0000E+00  0.0000E+00  0.1120E+03  0.1120E+03
    -27.126  0.0000E+00  0.0000E+00  0.1120E+03  0.1120E+03
    -26.886  0.0000E+00  0.0000E+00  0.1120E+03  0.1120E+03
    -26.645  0.0000E+00  0.0000E+00  0.1120E+03  0.1120E+03
    -26.404  0.0000E+00  0.0000E+00  0.1120E+03  0.1120E+03
    -26.163  0.0000E+00  0.0000E+00  0.1120E+03  0.1120E+03
    -25.922  0.0000E+00  0.0000E+00  0.1120E+03  0.1120E+03
    -25.681  0.0000E+00  0.0000E+00  0.1120E+03  0.1120E+03
    -25.441  0.0000E+00  0.0000E+00  0.1120E+03  0.1120E+03
    -25.200  0.0000E+00  0.0000E+00  0.1120E+03  0.1120E+03
    -24.959  0.0000E+00  0.0000E+00  0.1120E+03  0.1120E+03
    -24.718  0.0000E+00  0.0000E+00  0.1120E+03  0.1120E+03
    -24.477  0.0000E+00  0.0000E+00  0.1120E+03  0.1120E+03
    -24.237  0.0000E+00  0.0000E+00  0.1120E+03  0.1120E+03
    -23.996  0.0000E+00  0.0000E+00  0.1120E+03  0.1120E+03
    -23.755  0.0000E+00  0.0000E+00  0.1120E+03  0.1120E+03
    -23.514  0.0000E+00  0.0000E+00  0.1120E+03  0.1120E+03
    -23.273  0.0000E+00  0.0000E+00  0.1120E+03  0.1120E+03
    -23.032  0.0000E+00  0.0000E+00  0.1120E+03  0.1120E+03
    -22.792  0.0000E+00  0.0000E+00  0.1120E+03  0.1120E+03
    -22.551  0.0000E+00  0.0000E+00  0.1120E+03  0.1120E+03
    -22.310  0.0000E+00  0.0000E+00  0.1120E+03  0.1120E+03
    -22.069  0.0000E+00  0.0000E+00  0.1120E+03  0.1120E+03
    -21.828  0.0000E+00  0.0000E+00  0.1120E+03  0.1120E+03
    -21.588  0.0000E+00  0.0000E+00  0.1120E+03  0.1120E+03
    -21.347  0.0000E+00  0.0000E+00  0.1120E+03  0.1120E+03
    -21.106  0.0000E+00  0.0000E+00  0.1120E+03  0.1120E+03
    -20.865  0.0000E+00  0.0000E+00  0.1120E+03  0.1120E+03
    -20.624  0.0000E+00  0.0000E+00  0.1120E+03  0.1120E+03
    -20.383  0.0000E+00  0.0000E+00  0.1120E+03  0.1120E+03
    -20.143  0.0000E+00  0.0000E+00  0.1120E+03  0.1120E+03
    -19.902  0.0000E+00  0.0000E+00  0.1120E+03  0.1120E+03
    -19.661  0.0000E+00  0.0000E+00  0.1120E+03  0.1120E+03
    -19.420  0.0000E+00  0.0000E+00  0.1120E+03  0.1120E+03
    -19.179  0.0000E+00  0.0000E+00  0.1120E+03  0.1120E+03
    -18.939  0.0000E+00  0.0000E+00  0.1120E+03  0.1120E+03
    -18.698  0.0000E+00  0.0000E+00  0.1120E+03  0.1120E+03
    -18.457  0.0000E+00  0.0000E+00  0.1120E+03  0.1120E+03
    -18.216  0.0000E+00  0.0000E+00  0.1120E+03  0.1120E+03
    -17.975  0.0000E+00  0.0000E+00  0.1120E+03  0.1120E+03
    -17.734  0.0000E+00  0.0000E+00  0.1120E+03  0.1120E+03
    -17.494  0.0000E+00  0.0000E+00  0.1120E+03  0.1120E+03
    -17.253  0.0000E+00  0.0000E+00  0.1120E+03  0.1120E+03
    -17.012  0.0000E+00  0.0000E+00  0.1120E+03  0.1120E+03
    -16.771  0.0000E+00  0.0000E+00  0.1120E+03  0.1120E+03
    -16.530  0.0000E+00  0.0000E+00  0.1120E+03  0.1120E+03
    -16.290  0.0000E+00  0.0000E+00  0.1120E+03  0.1120E+03
    -16.049  0.0000E+00  0.0000E+00  0.1120E+03  0.1120E+03
    -15.808  0.0000E+00  0.0000E+00  0.1120E+03  0.1120E+03
    -15.567  0.0000E+00  0.0000E+00  0.1120E+03  0.1120E+03
    -15.326  0.0000E+00  0.0000E+00  0.1120E+03  0.1120E+03
    -15.086  0.0000E+00  0.0000E+00  0.1120E+03  0.1120E+03
    -14.845  0.0000E+00  0.0000E+00  0.1120E+03  0.1120E+03
    -14.604  0.0000E+00  0.0000E+00  0.1120E+03  0.1120E+03
    -14.363  0.0000E+00  0.0000E+00  0.1120E+03  0.1120E+03
    -14.122  0.0000E+00  0.0000E+00  0.1120E+03  0.1120E+03
    -13.881  0.0000E+00  0.0000E+00  0.1120E+03  0.1120E+03
    -13.641  0.0000E+00  0.0000E+00  0.1120E+03  0.1120E+03
    -13.400  0.7669E-06  0.0000E+00  0.1120E+03  0.1120E+03
    -13.159  0.1931E+02  0.0000E+00  0.1167E+03  0.1120E+03
    -12.918  0.4582E+02  0.8839E-02  0.1277E+03  0.1120E+03
    -12.677  0.1308E+01  0.4271E+02  0.1280E+03  0.1223E+03
    -12.437  0.0000E+00  0.2372E+02  0.1280E+03  0.1280E+03
    -12.196  0.0000E+00  0.0000E+00  0.1280E+03  0.1280E+03
    -11.955  0.0000E+00  0.0000E+00  0.1280E+03  0.1280E+03
    -11.714  0.0000E+00  0.0000E+00  0.1280E+03  0.1280E+03
    -11.473  0.0000E+00  0.0000E+00  0.1280E+03  0.1280E+03
    -11.232  0.0000E+00  0.0000E+00  0.1280E+03  0.1280E+03
    -10.992  0.0000E+00  0.0000E+00  0.1280E+03  0.1280E+03
    -10.751  0.0000E+00  0.0000E+00  0.1280E+03  0.1280E+03
    -10.510  0.0000E+00  0.0000E+00  0.1280E+03  0.1280E+03
    -10.269  0.0000E+00  0.0000E+00  0.1280E+03  0.1280E+03
    -10.028  0.0000E+00  0.0000E+00  0.1280E+03  0.1280E+03
     -9.788  0.0000E+00  0.0000E+00  0.1280E+03  0.1280E+03
     -9.547  0.0000E+00  0.0000E+00  0.1280E+03  0.1280E+03
     -9.306  0.0000E+00  0.0000E+00  0.1280E+03  0.1280E+03
     -9.065  0.0000E+00  0.0000E+00  0.1280E+03  0.1280E+03
     -8.824  0.0000E+00  0.0000E+00  0.1280E+03  0.1280E+03
     -8.583  0.0000E+00  0.0000E+00  0.1280E+03  0.1280E+03
     -8.343  0.0000E+00  0.0000E+00  0.1280E+03  0.1280E+03
     -8.102  0.0000E+00  0.0000E+00  0.1280E+03  0.1280E+03
     -7.861  0.7861E-10  0.0000E+00  0.1280E+03  0.1280E+03
     -7.620  0.5808E+00  0.1388E-10  0.1281E+03  0.1280E+03
     -7.379  0.1274E+02  0.5113E+00  0.1312E+03  0.1281E+03
     -7.139  0.3023E+02  0.1400E+02  0.1385E+03  0.1315E+03
     -6.898  0.3401E+02  0.2942E+02  0.1467E+03  0.1386E+03
     -6.657  0.2210E+02  0.2607E+02  0.1520E+03  0.1449E+03
     -6.416  0.2120E-04  0.2961E+02  0.1520E+03  0.1520E+03
     -6.175  0.0000E+00  0.5452E-01  0.1520E+03  0.1520E+03
     -5.934  0.0000E+00  0.0000E+00  0.1520E+03  0.1520E+03
     -5.694  0.0000E+00  0.0000E+00  0.1520E+03  0.1520E+03
     -5.453  0.0000E+00  0.0000E+00  0.1520E+03  0.1520E+03
     -5.212  0.0000E+00  0.0000E+00  0.1520E+03  0.1520E+03
     -4.971  0.0000E+00  0.0000E+00  0.1520E+03  0.1520E+03
     -4.730  0.0000E+00  0.0000E+00  0.1520E+03  0.1520E+03
     -4.490  0.0000E+00  0.0000E+00  0.1520E+03  0.1520E+03
     -4.249  0.0000E+00  0.0000E+00  0.1520E+03  0.1520E+03
     -4.008  0.0000E+00  0.0000E+00  0.1520E+03  0.1520E+03
     -3.767  0.0000E+00  0.0000E+00  0.1520E+03  0.1520E+03
     -3.526  0.0000E+00  0.0000E+00  0.1520E+03  0.1520E+03
     -3.285  0.0000E+00  0.0000E+00  0.1520E+03  0.1520E+03
     -3.045  0.0000E+00  0.0000E+00  0.1520E+03  0.1520E+03
     -2.804  0.0000E+00  0.0000E+00  0.1520E+03  0.1520E+03
     -2.563  0.0000E+00  0.0000E+00  0.1520E+03  0.1520E+03
     -2.322  0.0000E+00  0.0000E+00  0.1520E+03  0.1520E+03
     -2.081  0.2684E-04  0.0000E+00  0.1520E+03  0.1520E+03
     -1.841  0.1605E+02  0.0000E+00  0.1559E+03  0.1520E+03
     -1.600  0.1952E+02  0.0000E+00  0.1606E+03  0.1520E+03
     -1.359  0.1478E+02  0.0000E+00  0.1641E+03  0.1520E+03
     -1.118  0.1714E+02  0.0000E+00  0.1683E+03  0.1520E+03
     -0.877  0.4591E+02  0.0000E+00  0.1793E+03  0.1520E+03
     -0.636  0.5899E+02  0.9742E-06  0.1935E+03  0.1520E+03
     -0.396  0.3870E+02  0.4200E+01  0.2028E+03  0.1530E+03
     -0.155  0.6801E+02  0.2035E+02  0.2192E+03  0.1579E+03
      0.086  0.7369E+02  0.1224E+02  0.2370E+03  0.1609E+03
      0.327  0.7760E+02  0.1854E+02  0.2556E+03  0.1653E+03
      0.568  0.6981E+02  0.2957E+02  0.2725E+03  0.1724E+03
      0.808  0.5553E+02  0.3923E+02  0.2858E+03  0.1819E+03
      1.049  0.3644E+02  0.3732E+02  0.2946E+03  0.1909E+03
      1.290  0.3061E+02  0.3117E+02  0.3020E+03  0.1984E+03
      1.531  0.4509E+02  0.2076E+02  0.3128E+03  0.2034E+03
      1.772  0.4223E+02  0.2892E+02  0.3230E+03  0.2104E+03
      2.013  0.6884E+02  0.3695E+02  0.3396E+03  0.2192E+03
      2.253  0.5797E+02  0.2759E+02  0.3535E+03  0.2259E+03
      2.494  0.2680E+02  0.2701E+02  0.3600E+03  0.2324E+03
      2.735  0.4266E+02  0.3071E+02  0.3703E+03  0.2398E+03
      2.976  0.3015E+02  0.4442E+02  0.3775E+03  0.2505E+03
      3.217  0.8672E+01  0.4544E+02  0.3796E+03  0.2614E+03
      3.457  0.2793E+02  0.3217E+02  0.3863E+03  0.2692E+03
      3.698  0.2721E+02  0.1247E+02  0.3929E+03  0.2722E+03
      3.939  0.3094E+02  0.1773E+02  0.4003E+03  0.2765E+03
      4.180  0.3591E+02  0.5252E+02  0.4090E+03  0.2891E+03
      4.421  0.3634E+02  0.4484E+02  0.4177E+03  0.2999E+03
      4.661  0.3023E+02  0.1701E+02  0.4250E+03  0.3040E+03
      4.902  0.2580E+02  0.4809E-02  0.4312E+03  0.3040E+03
      5.143  0.3158E+01  0.0000E+00  0.4320E+03  0.3040E+03
      5.384  0.0000E+00  0.0000E+00  0.4320E+03  0.3040E+03
      5.625  0.0000E+00  0.0000E+00  0.4320E+03  0.3040E+03
      5.866  0.0000E+00  0.0000E+00  0.4320E+03  0.3040E+03
      6.106  0.0000E+00  0.3529E-09  0.4320E+03  0.3040E+03
      6.347  0.0000E+00  0.3969E+00  0.4320E+03  0.3041E+03
      6.588  0.0000E+00  0.4198E+01  0.4320E+03  0.3051E+03
      6.829  0.0000E+00  0.7856E+01  0.4320E+03  0.3070E+03
      7.070  0.7086E-15  0.1926E+02  0.4320E+03  0.3116E+03
      7.310  0.2675E-01  0.4421E+02  0.4320E+03  0.3223E+03
      7.551  0.1270E+00  0.5339E+02  0.4320E+03  0.3351E+03
      7.792  0.2461E+00  0.6332E+02  0.4321E+03  0.3504E+03
      8.033  0.7310E+00  0.6587E+02  0.4323E+03  0.3662E+03
      8.274  0.2119E+01  0.7007E+02  0.4328E+03  0.3831E+03
      8.515  0.2639E+01  0.5929E+02  0.4334E+03  0.3974E+03
      8.755  0.8893E+01  0.5864E+02  0.4356E+03  0.4115E+03
      8.996  0.1246E+02  0.4785E+02  0.4386E+03  0.4230E+03
      9.237  0.1309E+02  0.2992E+02  0.4417E+03  0.4303E+03
      9.478  0.1807E+02  0.8914E+01  0.4461E+03  0.4324E+03
      9.719  0.1628E+02  0.3003E+01  0.4500E+03  0.4331E+03
      9.959  0.1572E+02  0.8361E+01  0.4538E+03  0.4351E+03
     10.200  0.2248E+02  0.1866E+02  0.4592E+03  0.4396E+03
     10.441  0.1485E+02  0.1798E+02  0.4628E+03  0.4440E+03
     10.682  0.1531E+02  0.1719E+02  0.4665E+03  0.4481E+03
     10.923  0.1319E+02  0.2758E+02  0.4696E+03  0.4547E+03
     11.164  0.2062E+02  0.1896E+02  0.4746E+03  0.4593E+03
     11.404  0.2476E+02  0.2398E+02  0.4806E+03  0.4651E+03
     11.645  0.2726E+02  0.1483E+02  0.4871E+03  0.4687E+03
     11.886  0.2464E+02  0.1381E+02  0.4931E+03  0.4720E+03
     12.127  0.3351E+02  0.1603E+02  0.5011E+03  0.4758E+03
     12.368  0.1989E+02  0.3675E+02  0.5059E+03  0.4847E+03
     12.608  0.2305E+02  0.3268E+02  0.5115E+03  0.4926E+03
     12.849  0.2143E+02  0.2986E+02  0.5166E+03  0.4997E+03
     13.090  0.2029E+02  0.2025E+02  0.5215E+03  0.5046E+03
     13.331  0.2390E+02  0.2217E+02  0.5273E+03  0.5100E+03
     13.572  0.2434E+02  0.2724E+02  0.5331E+03  0.5165E+03
     13.813  0.1355E+02  0.2373E+02  0.5364E+03  0.5222E+03
     14.053  0.6698E+01  0.2626E+02  0.5380E+03  0.5286E+03
     14.294  0.7154E-03  0.1931E+02  0.5380E+03  0.5332E+03
     14.535  0.0000E+00  0.1682E+02  0.5380E+03  0.5373E+03
     14.776  0.0000E+00  0.3070E+01  0.5380E+03  0.5380E+03
     15.017  0.0000E+00  0.2247E-05  0.5380E+03  0.5380E+03
     15.257  0.0000E+00  0.0000E+00  0.5380E+03  0.5380E+03
     15.498  0.0000E+00  0.0000E+00  0.5380E+03  0.5380E+03
     15.739  0.0000E+00  0.0000E+00  0.5380E+03  0.5380E+03
     15.980  0.0000E+00  0.0000E+00  0.5380E+03  0.5380E+03
     16.221  0.0000E+00  0.0000E+00  0.5380E+03  0.5380E+03
     16.462  0.0000E+00  0.0000E+00  0.5380E+03  0.5380E+03
     16.702  0.0000E+00  0.0000E+00  0.5380E+03  0.5380E+03
     16.943  0.0000E+00  0.0000E+00  0.5380E+03  0.5380E+03
     17.184  0.0000E+00  0.0000E+00  0.5380E+03  0.5380E+03
     17.425  0.0000E+00  0.0000E+00  0.5380E+03  0.5380E+03
     17.666  0.0000E+00  0.0000E+00  0.5380E+03  0.5380E+03
     17.906  0.0000E+00  0.0000E+00  0.5380E+03  0.5380E+03
