 vasp.5.4.4.18Apr17-6-g9f103f2a35 (build Oct 25 2017 14:42:18) complex          
  
 executed on             LinuxIFC date 2021.06.02  18:58:33
 running on   24 total cores
 distrk:  each k-point on   12 cores,    2 groups
 distr:  one band on NCORES_PER_BAND=   6 cores,    2 groups


--------------------------------------------------------------------------------------------------------


 INCAR:
 POTCAR:    PAW_PBE Li_sv 10Sep2004               
 POTCAR:    PAW_PBE O 08Apr2002                   
 POTCAR:    PAW_PBE S 06Sep2000                   
 POTCAR:    PAW_PBE Fe_pv 02Aug2007               

 ----------------------------------------------------------------------------- 
|                                                                             |
|           W    W    AA    RRRRR   N    N  II  N    N   GGGG   !!!           |
|           W    W   A  A   R    R  NN   N  II  NN   N  G    G  !!!           |
|           W    W  A    A  R    R  N N  N  II  N N  N  G       !!!           |
|           W WW W  AAAAAA  RRRRR   N  N N  II  N  N N  G  GGG   !            |
|           WW  WW  A    A  R   R   N   NN  II  N   NN  G    G                |
|           W    W  A    A  R    R  N    N  II  N    N   GGGG   !!!           |
|                                                                             |
|      You have enabled k-point parallelism (KPAR>1).                         |
|      This developmental code was originally  written by Paul Kent at ORNL,  |
|      and carefully double checked in Vienna.                                |
|      GW as well as linear response parallelism added by Martijn Marsman     |
|      and Georg Kresse.                                                      |
|      Carefully verify results versus KPAR=1.                                |
|      Report problems to Paul Kent and Vienna.                               |
|                                                                             |
 ----------------------------------------------------------------------------- 

 POTCAR:    PAW_PBE Li_sv 10Sep2004               
  local pseudopotential read in
  atomic valenz-charges read in
  non local Contribution for L=           0  read in
    real space projection operators read in
  non local Contribution for L=           0  read in
    real space projection operators read in
  non local Contribution for L=           1  read in
    real space projection operators read in
    PAW grid and wavefunctions read in
 
   number of l-projection  operators is LMAX  =           3
   number of lm-projection operators is LMMAX =           5
 
 POTCAR:    PAW_PBE O 08Apr2002                   
  local pseudopotential read in
  partial core-charges read in
  partial kinetic energy density read in
  kinetic energy density of atom read in
  atomic valenz-charges read in
  non local Contribution for L=           0  read in
    real space projection operators read in
  non local Contribution for L=           0  read in
    real space projection operators read in
  non local Contribution for L=           1  read in
    real space projection operators read in
  non local Contribution for L=           1  read in
    real space projection operators read in
    PAW grid and wavefunctions read in
 
   number of l-projection  operators is LMAX  =           4
   number of lm-projection operators is LMMAX =           8
 
 POTCAR:    PAW_PBE S 06Sep2000                   
  local pseudopotential read in
  partial core-charges read in
  partial kinetic energy density read in
  atomic valenz-charges read in
  non local Contribution for L=           0  read in
    real space projection operators read in
  non local Contribution for L=           0  read in
    real space projection operators read in
  non local Contribution for L=           1  read in
    real space projection operators read in
  non local Contribution for L=           1  read in
    real space projection operators read in
    PAW grid and wavefunctions read in
 
   number of l-projection  operators is LMAX  =           4
   number of lm-projection operators is LMMAX =           8
 
 POTCAR:    PAW_PBE Fe_pv 02Aug2007               
  local pseudopotential read in
  partial core-charges read in
  partial kinetic energy density read in
  atomic valenz-charges read in
  non local Contribution for L=           1  read in
    real space projection operators read in
  non local Contribution for L=           1  read in
    real space projection operators read in
  non local Contribution for L=           2  read in
    real space projection operators read in
  non local Contribution for L=           2  read in
    real space projection operators read in
  non local Contribution for L=           0  read in
    real space projection operators read in
  non local Contribution for L=           0  read in
    real space projection operators read in
    PAW grid and wavefunctions read in
 
   number of l-projection  operators is LMAX  =           6
   number of lm-projection operators is LMMAX =          18
 

 ----------------------------------------------------------------------------- 
|                                                                             |
|  ADVICE TO THIS USER RUNNING 'VASP/VAMP'   (HEAR YOUR MASTER'S VOICE ...):  |
|                                                                             |
|      You have a (more or less) 'large supercell' and for larger cells       |
|      it might be more efficient to use real space projection opertators     |
|      So try LREAL= Auto  in the INCAR   file.                               |
|      Mind:          For very  accurate calculation you might also keep the  |
|      reciprocal projection scheme          (i.e. LREAL=.FALSE.)             |
|                                                                             |
 ----------------------------------------------------------------------------- 

  PAW_PBE Li_sv 10Sep2004               :
 energy of atom  1       EATOM= -202.7858
 kinetic energy error for atom=    0.0072 (will be added to EATOM!!)
  PAW_PBE O 08Apr2002                   :
 energy of atom  2       EATOM= -432.3788
 kinetic energy error for atom=    0.0129 (will be added to EATOM!!)
  PAW_PBE S 06Sep2000                   :
 energy of atom  3       EATOM= -276.8230
 kinetic energy error for atom=    0.0008 (will be added to EATOM!!)
  PAW_PBE Fe_pv 02Aug2007               :
 energy of atom  4       EATOM=-2457.4239
 kinetic energy error for atom=    0.0041 (will be added to EATOM!!)
 
 
 POSCAR: # Compound: Li16O16S24Fe32. Old comment:
  positions in direct lattice
  No initial velocities read in
 exchange correlation table for  LEXCH =        8
   RHO(1)=    0.500       N(1)  =     2000
   RHO(2)=  100.500       N(2)  =     4000
 


--------------------------------------------------------------------------------------------------------


 ion  position               nearest neighbor table
   1  0.289  0.469  0.156-  27 2.00  29 2.00  55 2.53  49 2.53
   2  0.789  0.469  0.156-  28 2.00  30 2.00  56 2.53  50 2.53
   3  0.289  0.969  0.156-  25 2.00  31 2.00  53 2.53  51 2.53
   4  0.789  0.969  0.156-  26 2.00  32 2.00  54 2.53  52 2.53
   5  0.046  0.219  0.186-  30 1.98  25 1.98
   6  0.546  0.219  0.186-  29 1.98  26 1.98
   7  0.046  0.719  0.186-  32 1.98  27 1.98
   8  0.546  0.719  0.186-  31 1.98  28 1.98
   9  0.454  0.469  0.814-  20 1.98  21 1.98
  10  0.954  0.469  0.814-  19 1.98  22 1.98
  11  0.454  0.969  0.814-  18 1.98  23 1.98
  12  0.954  0.969  0.814-  17 1.98  24 1.98
  13  0.211  0.219  0.844-  21 2.00  17 2.00  49 2.53  53 2.53
  14  0.711  0.219  0.844-  22 2.00  18 2.00  50 2.53  54 2.53
  15  0.211  0.719  0.844-  23 2.00  19 2.00  51 2.53  55 2.53
  16  0.711  0.719  0.844-  24 2.00  20 2.00  52 2.53  56 2.53
  17  0.077  0.095  0.803-  12 1.98  13 2.00  57 2.01  83 2.01  86 2.01
  18  0.577  0.095  0.803-  11 1.98  14 2.00  58 2.01  84 2.01  85 2.01
  19  0.077  0.595  0.803-  10 1.98  15 2.00  59 2.01  81 2.01  88 2.01
  20  0.577  0.595  0.803-   9 1.98  16 2.00  60 2.01  82 2.01  87 2.01
  21  0.325  0.343  0.803-   9 1.98  13 2.00  61 2.01  81 2.01  85 2.01
  22  0.825  0.343  0.803-  10 1.98  14 2.00  62 2.01  82 2.01  86 2.01
  23  0.325  0.843  0.803-  11 1.98  15 2.00  63 2.01  83 2.01  87 2.01
  24  0.825  0.843  0.803-  12 1.98  16 2.00  64 2.01  84 2.01  88 2.01
  25  0.175  0.093  0.197-   5 1.98   3 2.00  65 2.01  77 2.01  75 2.01
  26  0.675  0.093  0.197-   6 1.98   4 2.00  66 2.01  78 2.01  76 2.01
  27  0.175  0.593  0.197-   7 1.98   1 2.00  67 2.01  79 2.01  73 2.01
  28  0.675  0.593  0.197-   8 1.98   2 2.00  68 2.01  80 2.01  74 2.01
  29  0.423  0.345  0.197-   6 1.98   1 2.00  69 2.01  77 2.01  74 2.01
  30  0.923  0.345  0.197-   5 1.98   2 2.00  70 2.01  78 2.01  73 2.02
  31  0.423  0.845  0.197-   8 1.98   3 2.00  71 2.01  79 2.01  76 2.01
  32  0.923  0.845  0.197-   7 1.98   4 2.00  72 2.01  80 2.01  75 2.01
  33  0.219  0.345  0.371-  61 2.41  67 2.65  69 2.65
  34  0.719  0.345  0.371-  62 2.41  68 2.65  70 2.65
  35  0.219  0.845  0.371-  63 2.41  65 2.65  71 2.65
  36  0.719  0.845  0.371-  64 2.41  66 2.65  72 2.65
  37  0.467  0.093  0.371-  58 2.41  71 2.65  65 2.65
  38  0.967  0.093  0.371-  57 2.41  72 2.65  66 2.65
  39  0.467  0.593  0.371-  60 2.41  69 2.65  67 2.65
  40  0.967  0.593  0.371-  59 2.41  70 2.65  68 2.65
  41  0.033  0.343  0.629-  70 2.41  57 2.65  61 2.65
  42  0.533  0.343  0.629-  69 2.41  58 2.65  62 2.65
  43  0.033  0.843  0.629-  72 2.41  59 2.65  63 2.65
  44  0.533  0.843  0.629-  71 2.41  60 2.65  64 2.65
  45  0.281  0.095  0.629-  65 2.41  61 2.65  57 2.65
  46  0.781  0.095  0.629-  66 2.41  62 2.65  58 2.65
  47  0.281  0.595  0.629-  67 2.41  63 2.65  59 2.65
  48  0.781  0.595  0.629-  68 2.41  64 2.65  60 2.65
  49  0.124  0.344  0.000-  73 2.50  86 2.51  81 2.52  77 2.52  13 2.53   1 2.53
  50  0.624  0.344  0.000-  74 2.51  85 2.51  82 2.52  78 2.52  14 2.53   2 2.53
  51  0.124  0.844  0.000-  75 2.51  88 2.51  83 2.52  79 2.52  15 2.53   3 2.53
  52  0.624  0.844  0.000-  76 2.51  87 2.51  84 2.52  80 2.52  16 2.53   4 2.53
  53  0.376  0.094  1.000-  85 2.51  76 2.51  77 2.52  83 2.52   3 2.53  13 2.53
  54  0.876  0.094  1.000-  86 2.51  75 2.51  78 2.52  84 2.52   4 2.53  14 2.53
  55  0.376  0.594  1.000-  87 2.51  74 2.51  79 2.52  81 2.52   1 2.53  15 2.53
  56  0.876  0.594  1.000-  73 2.51  88 2.51  80 2.52  82 2.52   2 2.53  16 2.53
  57  0.038  0.106  0.606-  17 2.01  38 2.41  41 2.65  45 2.65
  58  0.538  0.106  0.606-  18 2.01  37 2.41  42 2.65  46 2.65
  59  0.038  0.606  0.606-  19 2.01  40 2.41  43 2.65  47 2.65
  60  0.538  0.606  0.606-  20 2.01  39 2.41  44 2.65  48 2.65
  61  0.265  0.332  0.606-  21 2.01  33 2.41  45 2.65  41 2.65
  62  0.765  0.332  0.606-  22 2.01  34 2.41  46 2.65  42 2.65
  63  0.265  0.832  0.606-  23 2.01  35 2.41  47 2.65  43 2.65
  64  0.765  0.832  0.606-  24 2.01  36 2.41  48 2.65  44 2.65
  65  0.235  0.082  0.394-  25 2.01  45 2.41  35 2.65  37 2.65
  66  0.735  0.082  0.394-  26 2.01  46 2.41  36 2.65  38 2.65
  67  0.235  0.582  0.394-  27 2.01  47 2.41  33 2.65  39 2.65
  68  0.735  0.582  0.394-  28 2.01  48 2.41  34 2.65  40 2.65
  69  0.462  0.356  0.394-  29 2.01  42 2.41  39 2.65  33 2.65
  70  0.962  0.356  0.394-  30 2.01  41 2.41  40 2.65  34 2.65
  71  0.462  0.856  0.394-  31 2.01  44 2.41  37 2.65  35 2.65
  72  0.962  0.856  0.394-  32 2.01  43 2.41  38 2.65  36 2.65
  73  0.038  0.469  0.153-  27 2.01  30 2.02  49 2.50  56 2.51
  74  0.538  0.469  0.154-  29 2.01  28 2.01  50 2.51  55 2.51
  75  0.038  0.969  0.154-  32 2.01  25 2.01  51 2.51  54 2.51
  76  0.538  0.969  0.154-  31 2.01  26 2.01  52 2.51  53 2.51
  77  0.289  0.219  0.154-  25 2.01  29 2.01  53 2.52  49 2.52
  78  0.789  0.219  0.154-  26 2.01  30 2.01  54 2.52  50 2.52
  79  0.289  0.719  0.154-  27 2.01  31 2.01  55 2.52  51 2.52
  80  0.789  0.719  0.154-  28 2.01  32 2.01  56 2.52  52 2.52
  81  0.211  0.469  0.846-  21 2.01  19 2.01  49 2.52  55 2.52
  82  0.711  0.469  0.846-  22 2.01  20 2.01  50 2.52  56 2.52
  83  0.211  0.969  0.846-  23 2.01  17 2.01  51 2.52  53 2.52
  84  0.711  0.969  0.846-  24 2.01  18 2.01  52 2.52  54 2.52
  85  0.462  0.219  0.846-  18 2.01  21 2.01  53 2.51  50 2.51
  86  0.962  0.219  0.846-  17 2.01  22 2.01  54 2.51  49 2.51
  87  0.462  0.719  0.846-  20 2.01  23 2.01  55 2.51  52 2.51
  88  0.962  0.719  0.846-  19 2.01  24 2.01  56 2.51  51 2.51
 

IMPORTANT INFORMATION: All symmetrisations will be switched off!
NOSYMM: (Re-)initialisation of all symmetry stuff for point group C_1.

 
 
 KPOINTS: # No comment                            

Automatic generation of k-mesh.
Space group operators:
 irot       det(A)        alpha          n_x          n_y          n_z        tau_x        tau_y        tau_z
    1     1.000000     0.000000     1.000000     0.000000     0.000000     0.000000     0.000000     0.000000
 
 Subroutine IBZKPT returns following result:
 ===========================================
 
 Found     14 irreducible k-points:
 
 Following reciprocal coordinates:
            Coordinates               Weight
  0.000000  0.000000  0.000000      1.000000
  0.333333  0.000000  0.000000      2.000000
  0.000000  0.333333  0.000000      2.000000
  0.333333  0.333333  0.000000      2.000000
 -0.333333  0.333333 -0.000000      2.000000
  0.000000  0.000000  0.333333      2.000000
  0.333333  0.000000  0.333333      2.000000
 -0.333333  0.000000  0.333333      2.000000
  0.000000  0.333333  0.333333      2.000000
  0.333333  0.333333  0.333333      2.000000
 -0.333333  0.333333  0.333333      2.000000
  0.000000 -0.333333  0.333333      2.000000
  0.333333 -0.333333  0.333333      2.000000
 -0.333333 -0.333333  0.333333      2.000000
 
 Following cartesian coordinates:
            Coordinates               Weight
  0.000000  0.000000  0.000000      1.000000
  0.029997  0.000000  0.008162      2.000000
  0.000000  0.029983  0.000000      2.000000
  0.029997  0.029983  0.008162      2.000000
 -0.029997  0.029983 -0.008162      2.000000
  0.000001  0.000000  0.032684      2.000000
  0.029998  0.000000  0.040846      2.000000
 -0.029996  0.000000  0.024522      2.000000
  0.000001  0.029983  0.032684      2.000000
  0.029998  0.029983  0.040846      2.000000
 -0.029996  0.029983  0.024522      2.000000
  0.000001 -0.029983  0.032684      2.000000
  0.029998 -0.029983  0.040846      2.000000
 -0.029996 -0.029983  0.024522      2.000000
 


--------------------------------------------------------------------------------------------------------




 Dimension of arrays:
   k-points           NKPTS =     14   k-points in BZ     NKDIM =     14   number of bands    NBANDS=    538
   number of dos      NEDOS =    301   number of ions     NIONS =     88
   non local maximal  LDIM  =      6   non local SUM 2l+1 LMDIM =     18
   total plane-waves  NPLWV = 829440
   max r-space proj   IRMAX =      1   max aug-charges    IRDMAX= 166102
   dimension x,y,z NGX =    96 NGY =   96 NGZ =   90
   dimension x,y,z NGXF=   192 NGYF=  192 NGZF=  180
   support grid    NGXF=   384 NGYF=  384 NGZF=  360
   ions per type =              16  16  24  32
   NGX,Y,Z   is equivalent  to a cutoff of  14.36, 14.36, 14.16 a.u.
   NGXF,Y,Z  is equivalent  to a cutoff of  28.72, 28.71, 28.31 a.u.

 SYSTEM =  unknown system                          
 POSCAR =  # Compound: Li16O16S24Fe32. Old comment:

 Startparameter for this run:
   NWRITE =      1    write-flag & timer
   PREC   = accura    normal or accurate (medium, high low for compatibility)
   ISTART =      0    job   : 0-new  1-cont  2-samecut
   ICHARG =      1    charge: 1-file 2-atom 10-const
   ISPIN  =      2    spin polarized calculation?
   LNONCOLLINEAR =      F non collinear calculations
   LSORBIT =      F    spin-orbit coupling
   INIWAV =      1    electr: 0-lowe 1-rand  2-diag
   LASPH  =      T    aspherical Exc in radial PAW
   METAGGA=      F    non-selfconsistent MetaGGA calc.

 Electronic Relaxation 1
   ENCUT  =  650.0 eV  47.77 Ry    6.91 a.u.  23.10 23.11 21.97*2*pi/ulx,y,z
   ENINI  =  650.0     initial cutoff
   ENAUG  =  628.9 eV  augmentation charge cutoff
   NELM   =    200;   NELMIN=  8; NELMDL=  0     # of ELM steps 
   EDIFF  = 0.1E-05   stopping-criterion for ELM
   LREAL  =      F    real-space projection
   NLSPLINE    = F    spline interpolate recip. space projectors
   LCOMPAT=      F    compatible to vasp.4.4
   GGA_COMPAT  = T    GGA compatible to vasp.4.4-vasp.4.6
   LMAXPAW     = -100 max onsite density
   LMAXMIX     =    4 max onsite mixed and CHGCAR
   VOSKOWN=      0    Vosko Wilk Nusair interpolation
   ROPT   =    0.00000   0.00000   0.00000   0.00000
 Ionic relaxation
   EDIFFG = 0.1E-04   stopping-criterion for IOM
   NSW    =      0    number of steps for IOM
   NBLOCK =      1;   KBLOCK =      1    inner block; outer block 
   IBRION =     -1    ionic relax: 0-MD 1-quasi-New 2-CG
   NFREE  =      0    steps in history (QN), initial steepest desc. (CG)
   ISIF   =      2    stress and relaxation
   IWAVPR =     10    prediction:  0-non 1-charg 2-wave 3-comb
   ISYM   =      0    0-nonsym 1-usesym 2-fastsym
   LCORR  =      T    Harris-Foulkes like correction to forces

   POTIM  = 0.5000    time-step for ionic-motion
   TEIN   =    0.0    initial temperature
   TEBEG  =    0.0;   TEEND  =   0.0 temperature during run
   SMASS  =  -3.00    Nose mass-parameter (am)
   estimated Nose-frequenzy (Omega)   =  0.10E-29 period in steps =****** mass=  -0.282E-26a.u.
   SCALEE = 1.0000    scale energy and forces
   NPACO  =    256;   APACO  = 16.0  distance and # of slots for P.C.
   PSTRESS=    0.0 pullay stress

  Mass of Ions in am
   POMASS =   7.01 16.00 32.07 55.85
  Ionic Valenz
   ZVAL   =   3.00  6.00  6.00 14.00
  Atomic Wigner-Seitz radii
   RWIGS  =  -1.00 -1.00 -1.00 -1.00
  virtual crystal weights 
   VCA    =   1.00  1.00  1.00  1.00
   NELECT =     736.0000    total number of electrons
   NUPDOWN=      -1.0000    fix difference up-down

 DOS related values:
   EMIN   =  10.00;   EMAX   =-10.00  energy-range for DOS
   EFERMI =   0.00
   ISMEAR =     0;   SIGMA  =   0.05  broadening in eV -4-tet -1-fermi 0-gaus

 Electronic relaxation 2 (details)
   IALGO  =     38    algorithm
   LDIAG  =      T    sub-space diagonalisation (order eigenvalues)
   LSUBROT=      F    optimize rotation matrix (better conditioning)
   TURBO    =      0    0=normal 1=particle mesh
   IRESTART =      0    0=no restart 2=restart with 2 vectors
   NREBOOT  =      0    no. of reboots
   NMIN     =      0    reboot dimension
   EREF     =   0.00    reference energy to select bands
   IMIX   =      4    mixing-type and parameters
     AMIX     =   0.40;   BMIX     =  1.00
     AMIX_MAG =   1.60;   BMIX_MAG =  1.00
     AMIN     =   0.10
     WC   =   100.;   INIMIX=   1;  MIXPRE=   1;  MAXMIX= -45

 Intra band minimization:
   WEIMIN = 0.0000     energy-eigenvalue tresh-hold
   EBREAK =  0.46E-09  absolut break condition
   DEPER  =   0.30     relativ break condition  

   TIME   =   0.40     timestep for ELM

  volume/ion in A,a.u.               =      14.32        96.62
  Fermi-wavevector in a.u.,A,eV,Ry     =   1.368520  2.586127 25.481613  1.872846
  Thomas-Fermi vector in A             =   2.494476
 
 Write flags
   LWAVE        =      F    write WAVECAR
   LDOWNSAMPLE  =      F    k-point downsampling of WAVECAR
   LCHARG       =      T    write CHGCAR
   LVTOT        =      F    write LOCPOT, total local potential
   LVHAR        =      F    write LOCPOT, Hartree potential only
   LELF         =      F    write electronic localiz. function (ELF)
   LORBIT       =      0    0 simple, 1 ext, 2 COOP (PROOUT), +10 PAW based schemes


 Dipole corrections
   LMONO  =      F    monopole corrections only (constant potential shift)
   LDIPOL =      F    correct potential (dipole corrections)
   IDIPOL =      0    1-x, 2-y, 3-z, 4-all directions 
   EPSILON=  1.0000000 bulk dielectric constant

 LDA+U is selected, type is set to LDAUTYPE =  2
   angular momentum for each species LDAUL =    -1   -1   -1    2
   U (eV)           for each species LDAUU =   0.0  0.0  0.0  4.0
   J (eV)           for each species LDAUJ =   0.0  0.0  0.0  0.0
 Exchange correlation treatment:
   GGA     =    PE    GGA type
   LEXCH   =     8    internal setting for exchange type
   VOSKOWN=      0    Vosko Wilk Nusair interpolation
   LHFCALC =     F    Hartree Fock is set to
   LHFONE  =     F    Hartree Fock one center treatment
   AEXX    =    0.0000 exact exchange contribution

 Linear response parameters
   LEPSILON=     F    determine dielectric tensor
   LRPA    =     F    only Hartree local field effects (RPA)
   LNABLA  =     F    use nabla operator in PAW spheres
   LVEL    =     F    velocity operator in full k-point grid
   LINTERFAST=   F  fast interpolation
   KINTER  =     0    interpolate to denser k-point grid
   CSHIFT  =0.1000    complex shift for real part using Kramers Kronig
   OMEGAMAX=  -1.0    maximum frequency
   DEG_THRESHOLD= 0.2000000E-02 threshold for treating states as degnerate
   RTIME   =   -0.100 relaxation time in fs
  (WPLASMAI=    0.000 imaginary part of plasma frequency in eV, 0.658/RTIME)
   DFIELD  = 0.0000000 0.0000000 0.0000000 field for delta impulse in time
 
 Orbital magnetization related:
   ORBITALMAG=     F  switch on orbital magnetization
   LCHIMAG   =     F  perturbation theory with respect to B field
   DQ        =  0.001000  dq finite difference perturbation B field
   LLRAUG    =     F  two centre corrections for induced B field



--------------------------------------------------------------------------------------------------------


 Static calculation
 charge density and potential will be updated during run
 spin polarized calculation
 Variant of blocked Davidson
 Davidson routine will perform the subspace rotation
 perform sub-space diagonalisation
    after iterative eigenvector-optimisation
 modified Broyden-mixing scheme, WC =      100.0
 initial mixing is a Kerker type mixing with AMIX =  0.4000 and BMIX =      1.0000
 Hartree-type preconditioning will be used
 using additional bands          170
 reciprocal scheme for non local part
 use partial core corrections
 calculate Harris-corrections to forces 
   (improved forces if not selfconsistent)
 use gradient corrections 
 use of overlap-Matrix (Vanderbilt PP)
 Gauss-broadening in eV      SIGMA  =   0.05


--------------------------------------------------------------------------------------------------------


  energy-cutoff  :      650.00
  volume of cell :     1259.94
      direct lattice vectors                 reciprocal lattice vectors
    11.112233740  0.000000000 -0.000290340     0.089991547  0.000000000  0.024487024
     0.000000000 11.117451940  0.000000000     0.000000000  0.089948669  0.000000000
    -2.775108980  0.000000000 10.198722210     0.000002562  0.000000000  0.098052196

  length of vectors
    11.112233744 11.117451940 10.569539468     0.093263567  0.089948669  0.098052196


 
 k-points in units of 2pi/SCALE and weight: # No comment                            
   0.00000000  0.00000000  0.00000000       0.037
   0.02999718  0.00000000  0.00816234       0.074
   0.00000000  0.02998289  0.00000000       0.074
   0.02999718  0.02998289  0.00816234       0.074
  -0.02999718  0.02998289 -0.00816234       0.074
   0.00000085  0.00000000  0.03268407       0.074
   0.02999804  0.00000000  0.04084641       0.074
  -0.02999633  0.00000000  0.02452172       0.074
   0.00000085  0.02998289  0.03268407       0.074
   0.02999804  0.02998289  0.04084641       0.074
  -0.02999633  0.02998289  0.02452172       0.074
   0.00000085 -0.02998289  0.03268407       0.074
   0.02999804 -0.02998289  0.04084641       0.074
  -0.02999633 -0.02998289  0.02452172       0.074
 
 k-points in reciprocal lattice and weights: # No comment                            
   0.00000000  0.00000000  0.00000000       0.037
   0.33333333  0.00000000  0.00000000       0.074
   0.00000000  0.33333333  0.00000000       0.074
   0.33333333  0.33333333  0.00000000       0.074
  -0.33333333  0.33333333 -0.00000000       0.074
   0.00000000  0.00000000  0.33333333       0.074
   0.33333333  0.00000000  0.33333333       0.074
  -0.33333333  0.00000000  0.33333333       0.074
   0.00000000  0.33333333  0.33333333       0.074
   0.33333333  0.33333333  0.33333333       0.074
  -0.33333333  0.33333333  0.33333333       0.074
   0.00000000 -0.33333333  0.33333333       0.074
   0.33333333 -0.33333333  0.33333333       0.074
  -0.33333333 -0.33333333  0.33333333       0.074
 
 position of ions in fractional coordinates (direct lattice) 
   0.28894969  0.46933910  0.15583616
   0.78894969  0.46933910  0.15583616
   0.28894969  0.96933910  0.15583616
   0.78894969  0.96933910  0.15583616
   0.04646972  0.21934976  0.18586770
   0.54646972  0.21934976  0.18586770
   0.04646972  0.71934976  0.18586770
   0.54646972  0.71934976  0.18586770
   0.45353028  0.46934976  0.81413230
   0.95353028  0.46934976  0.81413230
   0.45353028  0.96934976  0.81413230
   0.95353028  0.96934976  0.81413230
   0.21105031  0.21933910  0.84416384
   0.71105031  0.21933910  0.84416384
   0.21105031  0.71933910  0.84416384
   0.71105031  0.71933910  0.84416384
   0.07654971  0.09530995  0.80250593
   0.57654971  0.09530995  0.80250593
   0.07654971  0.59530995  0.80250593
   0.57654971  0.59530995  0.80250593
   0.32470466  0.34338175  0.80250383
   0.82470466  0.34338175  0.80250383
   0.32470466  0.84338175  0.80250383
   0.82470466  0.84338175  0.80250383
   0.17529534  0.09338175  0.19749617
   0.67529534  0.09338175  0.19749617
   0.17529534  0.59338175  0.19749617
   0.67529534  0.59338175  0.19749617
   0.42345029  0.34530995  0.19749407
   0.92345029  0.34530995  0.19749407
   0.42345029  0.84530995  0.19749407
   0.92345029  0.84530995  0.19749407
   0.21868463  0.34523395  0.37102476
   0.71868463  0.34523395  0.37102476
   0.21868463  0.84523395  0.37102476
   0.71868463  0.84523395  0.37102476
   0.46681660  0.09344897  0.37102399
   0.96681660  0.09344897  0.37102399
   0.46681660  0.59344897  0.37102399
   0.96681660  0.59344897  0.37102399
   0.03318340  0.34344897  0.62897601
   0.53318340  0.34344897  0.62897601
   0.03318340  0.84344897  0.62897601
   0.53318340  0.84344897  0.62897601
   0.28131537  0.09523395  0.62897524
   0.78131537  0.09523395  0.62897524
   0.28131537  0.59523395  0.62897524
   0.78131537  0.59523395  0.62897524
   0.12439279  0.34434306  0.00000412
   0.62439279  0.34434306  0.00000412
   0.12439279  0.84434306  0.00000412
   0.62439279  0.84434306  0.00000412
   0.37560721  0.09434306  0.99999588
   0.87560721  0.09434306  0.99999588
   0.37560721  0.59434306  0.99999588
   0.87560721  0.59434306  0.99999588
   0.03824426  0.10634799  0.60632306
   0.53824426  0.10634799  0.60632306
   0.03824426  0.60634799  0.60632306
   0.53824426  0.60634799  0.60632306
   0.26492712  0.33232651  0.60632763
   0.76492712  0.33232651  0.60632763
   0.26492712  0.83232651  0.60632763
   0.76492712  0.83232651  0.60632763
   0.23507288  0.08232651  0.39367237
   0.73507288  0.08232651  0.39367237
   0.23507288  0.58232651  0.39367237
   0.73507288  0.58232651  0.39367237
   0.46175574  0.35634799  0.39367694
   0.96175574  0.35634799  0.39367694
   0.46175574  0.85634799  0.39367694
   0.96175574  0.85634799  0.39367694
   0.03848398  0.46936404  0.15302719
   0.53848398  0.46936404  0.15397331
   0.03848398  0.96936404  0.15397331
   0.53848398  0.96936404  0.15397331
   0.28861657  0.21935690  0.15447525
   0.78861657  0.21935690  0.15447525
   0.28861657  0.71935690  0.15447525
   0.78861657  0.71935690  0.15447525
   0.21138343  0.46935690  0.84552475
   0.71138343  0.46935690  0.84552475
   0.21138343  0.96935690  0.84552475
   0.71138343  0.96935690  0.84552475
   0.46151602  0.21936404  0.84602669
   0.96151602  0.21936404  0.84602669
   0.46151602  0.71936404  0.84602669
   0.96151602  0.71936404  0.84602669
 
 position of ions in cartesian coordinates  (Angst):
   2.77841422  5.21785483  1.58924581
   8.33453109  5.21785483  1.58910064
   2.77841422 10.77658080  1.58924581
   8.33453109 10.77658080  1.58910064
   0.00057921  2.43861041  1.89559955
   5.55669608  2.43861041  1.89545438
   0.00057921  7.99733638  1.89559955
   5.55669608  7.99733638  1.89545438
   2.78042868  5.21797340  8.30297749
   8.33654555  5.21797340  8.30283232
   2.78042868 10.77669937  8.30297749
   8.33654555 10.77669937  8.30283232
   0.00259367  2.43849185  8.60933123
   5.55871054  2.43849185  8.60918606
   0.00259367  7.99721782  8.60933123
   5.55871054  7.99721782  8.60918606
  -1.37640314  1.05960384  8.18451283
   4.17971373  1.05960384  8.18436766
  -1.37640314  6.61832981  8.18451283
   4.17971373  6.61832981  8.18436766
   1.38115855  3.81753010  8.18441936
   6.93727542  3.81753010  8.18427419
   1.38115855  9.37625607  8.18441936
   6.93727542  9.37625607  8.18427419
   1.39984934  1.03816712  2.01415768
   6.95596621  1.03816712  2.01401251
   1.39984934  6.59689309  2.01415768
   6.95596621  6.59689309  2.01401251
   4.15741103  3.83896683  2.01406421
   9.71352790  3.83896683  2.01391904
   4.15741103  9.39769280  2.01406421
   9.71352790  9.39769280  2.01391904
   1.40044058  3.83812185  3.78391497
   6.95655745  3.83812185  3.78376980
   1.40044058  9.39684782  3.78391497
   6.95655745  9.39684782  3.78376980
   4.15774317  1.03891443  3.78383507
   9.71386004  1.03891443  3.78368990
   4.15774317  6.59764040  3.78383507
   9.71386004  6.59764040  3.78368990
  -1.37673528  3.81827742  6.41474197
   4.17938159  3.81827742  6.41459680
  -1.37673528  9.37700339  6.41474197
   4.17938159  9.37700339  6.41459680
   1.38056731  1.05875886  6.41466207
   6.93668418  1.05875886  6.41451690
   1.38056731  6.61748483  6.41466207
   6.93668418  6.61748483  6.41451690
   1.38227032  3.82821742  0.00000590
   6.93838719  3.82821742 -0.00013927
   1.38227032  9.38694339  0.00000590
   6.93838719  9.38694339 -0.00013927
   1.39873757  1.04885444 10.19857114
   6.95485444  1.04885444 10.19842597
   1.39873757  6.60758041 10.19857114
   6.95485444  6.60758041 10.19842597
  -1.25763347  1.18231867  6.18370935
   4.29848340  1.18231867  6.18356418
  -1.25763347  6.74104464  6.18370935
   4.29848340  6.74104464  6.18356418
   1.26130689  3.69462400  6.18369015
   6.81742376  3.69462400  6.18354498
   1.26130689  9.25334997  6.18369015
   6.81742376  9.25334997  6.18354498
   1.51970100  0.91526102  4.01488689
   7.07581787  0.91526102  4.01474172
   1.51970100  6.47398699  4.01488689
   7.07581787  6.47398699  4.01474172
   4.03864136  3.96168165  4.01486769
   9.59475823  3.96168165  4.01472252
   4.03864136  9.52040762  4.01486769
   9.59475823  9.52040762  4.01472252
   0.00297584  5.21813216  1.56067068
   5.55646714  5.21813216  1.57017467
   0.00035027 10.77685813  1.57031984
   5.55646714 10.77685813  1.57017467
   2.77848919  2.43868979  1.57536637
   8.33460606  2.43868979  1.57522120
   2.77848919  7.99741576  1.57536637
   8.33460606  7.99741576  1.57522120
   0.00251870  5.21805278  8.62321067
   5.55863557  5.21805278  8.62306550
   0.00251870 10.77677875  8.62321067
   5.55863557 10.77677875  8.62306550
   2.78065762  2.43876917  8.62825720
   8.33677449  2.43876917  8.62811203
   2.78065762  7.99749514  8.62825720
   8.33677449  7.99749514  8.62811203
 


--------------------------------------------------------------------------------------------------------


 k-point  1 :   0.0000 0.0000 0.0000  plane waves:   47369
 k-point  2 :   0.3333 0.0000 0.0000  plane waves:   47373
 k-point  3 :   0.0000 0.3333 0.0000  plane waves:   47370
 k-point  4 :   0.3333 0.3333 0.0000  plane waves:   47404
 k-point  5 :  -0.3333 0.3333-0.0000  plane waves:   47404
 k-point  6 :   0.0000 0.0000 0.3333  plane waves:   47419
 k-point  7 :   0.3333 0.0000 0.3333  plane waves:   47399
 k-point  8 :  -0.3333 0.0000 0.3333  plane waves:   47417
 k-point  9 :   0.0000 0.3333 0.3333  plane waves:   47409
 k-point 10 :   0.3333 0.3333 0.3333  plane waves:   47422
 k-point 11 :  -0.3333 0.3333 0.3333  plane waves:   47440
 k-point 12 :   0.0000-0.3333 0.3333  plane waves:   47409
 k-point 13 :   0.3333-0.3333 0.3333  plane waves:   47422
 k-point 14 :  -0.3333-0.3333 0.3333  plane waves:   47440

 maximum and minimum number of plane-waves per node :      7942     7858

 maximum number of plane-waves:     47440
 maximum index in each direction: 
   IXMAX=   23   IYMAX=   23   IZMAX=   21
   IXMIN=  -23   IYMIN=  -23   IZMIN=  -22


 parallel 3D FFT for wavefunctions:
    minimum data exchange during FFTs selected (reduces bandwidth)
 parallel 3D FFT for charge:
    minimum data exchange during FFTs selected (reduces bandwidth)


 total amount of memory used by VASP MPI-rank0  1233264. kBytes
=======================================================================

   base      :      30000. kBytes
   nonl-proj :      75226. kBytes
   fftplans  :      85054. kBytes
   grid      :      64684. kBytes
   one-center:        466. kBytes
   wavefun   :     977834. kBytes
 
     INWAV:  cpu time    0.0000: real time    0.0000
 Broyden mixing: mesh for mixing (old mesh)
   NGX = 47   NGY = 47   NGZ = 43
  (NGX  =192   NGY  =192   NGZ  =180)
  gives a total of  94987 points

 initial charge density was supplied:
 number of electron     736.0000016 magnetization     127.9999885
 keeping initial charge density in first step


--------------------------------------------------------------------------------------------------------


 Maximum index for augmentation-charges        13229 (set IRDMAX)


--------------------------------------------------------------------------------------------------------


 First call to EWALD:  gamma=   0.164
 Maximum number of real-space cells 3x 3x 3
 Maximum number of reciprocal cells 3x 3x 3

    FEWALD:  cpu time    0.0048: real time    0.0048


--------------------------------------- Iteration      1(   1)  ---------------------------------------


    POTLOK:  cpu time    1.0523: real time    1.0695
    SETDIJ:  cpu time    2.2994: real time    2.3066
     EDDAV:  cpu time  314.6316: real time  317.4094
       DOS:  cpu time    0.0077: real time    0.0077
    --------------------------------------------
      LOOP:  cpu time  317.9911: real time  320.7932

 eigenvalue-minimisations  : 30944
 total energy-change (2. order) : 0.1040948E+05  (-0.4118869E+05)
 number of electron     736.0000016 magnetization     127.9999885
 augmentation part      736.0000016 magnetization     127.9999885

 Free energy of the ion-electron system (eV)
  ---------------------------------------------------
  alpha Z        PSCENC =      2314.49656628
  Ewald energy   TEWEN  =    -57725.06332462
  -Hartree energ DENC   =    -30346.91844050
  -exchange      EXHF   =         0.00000000
  -V(xc)+E(xc)   XCENC  =      3229.29898214
  PAW double counting   =     92679.89207989   -95535.38516353
  entropy T*S    EENTRO =        -0.01943683
  eigenvalues    EBANDS =       349.70154955
  atomic energy  EATOM  =     95443.47970955
  Solvation  Ediel_sol  =         0.00000000
  ---------------------------------------------------
  free energy    TOTEN  =     10409.48252193 eV

  energy without entropy =    10409.50195876  energy(sigma->0) =    10409.49224034


--------------------------------------------------------------------------------------------------------




--------------------------------------- Iteration      1(   2)  ---------------------------------------


     EDDAV:  cpu time  308.0559: real time  310.6197
       DOS:  cpu time    0.0087: real time    0.0087
    --------------------------------------------
      LOOP:  cpu time  308.0645: real time  310.6284

 eigenvalue-minimisations  : 30128
 total energy-change (2. order) :-0.9232067E+04  (-0.8658201E+04)
 number of electron     736.0000016 magnetization     127.9999885
 augmentation part      736.0000016 magnetization     127.9999885

 Free energy of the ion-electron system (eV)
  ---------------------------------------------------
  alpha Z        PSCENC =      2314.49656628
  Ewald energy   TEWEN  =    -57725.06332462
  -Hartree energ DENC   =    -30346.91844050
  -exchange      EXHF   =         0.00000000
  -V(xc)+E(xc)   XCENC  =      3229.29898214
  PAW double counting   =     92679.89207989   -95535.38516353
  entropy T*S    EENTRO =        -0.06497607
  eigenvalues    EBANDS =     -8882.31990185
  atomic energy  EATOM  =     95443.47970955
  Solvation  Ediel_sol  =         0.00000000
  ---------------------------------------------------
  free energy    TOTEN  =      1177.41553130 eV

  energy without entropy =     1177.48050736  energy(sigma->0) =     1177.44801933


--------------------------------------------------------------------------------------------------------




--------------------------------------- Iteration      1(   3)  ---------------------------------------


     EDDAV:  cpu time  326.0752: real time  329.0329
       DOS:  cpu time    0.0026: real time    0.0026
    --------------------------------------------
      LOOP:  cpu time  326.0779: real time  329.0355

 eigenvalue-minimisations  : 32368
 total energy-change (2. order) :-0.1485620E+04  (-0.1278944E+04)
 number of electron     736.0000016 magnetization     127.9999885
 augmentation part      736.0000016 magnetization     127.9999885

 Free energy of the ion-electron system (eV)
  ---------------------------------------------------
  alpha Z        PSCENC =      2314.49656628
  Ewald energy   TEWEN  =    -57725.06332462
  -Hartree energ DENC   =    -30346.91844050
  -exchange      EXHF   =         0.00000000
  -V(xc)+E(xc)   XCENC  =      3229.29898214
  PAW double counting   =     92679.89207989   -95535.38516353
  entropy T*S    EENTRO =        -0.00000000
  eigenvalues    EBANDS =    -10368.00480164
  atomic energy  EATOM  =     95443.47970955
  Solvation  Ediel_sol  =         0.00000000
  ---------------------------------------------------
  free energy    TOTEN  =      -308.20439243 eV

  energy without entropy =     -308.20439243  energy(sigma->0) =     -308.20439243


--------------------------------------------------------------------------------------------------------




--------------------------------------- Iteration      1(   4)  ---------------------------------------


     EDDAV:  cpu time  346.7483: real time  349.6770
       DOS:  cpu time    0.0025: real time    0.0025
    --------------------------------------------
      LOOP:  cpu time  346.7508: real time  349.6795

 eigenvalue-minimisations  : 35016
 total energy-change (2. order) :-0.1680977E+03  (-0.1653432E+03)
 number of electron     736.0000016 magnetization     127.9999885
 augmentation part      736.0000016 magnetization     127.9999885

 Free energy of the ion-electron system (eV)
  ---------------------------------------------------
  alpha Z        PSCENC =      2314.49656628
  Ewald energy   TEWEN  =    -57725.06332462
  -Hartree energ DENC   =    -30346.91844050
  -exchange      EXHF   =         0.00000000
  -V(xc)+E(xc)   XCENC  =      3229.29898214
  PAW double counting   =     92679.89207989   -95535.38516353
  entropy T*S    EENTRO =        -0.00000000
  eigenvalues    EBANDS =    -10536.10251340
  atomic energy  EATOM  =     95443.47970955
  Solvation  Ediel_sol  =         0.00000000
  ---------------------------------------------------
  free energy    TOTEN  =      -476.30210419 eV

  energy without entropy =     -476.30210419  energy(sigma->0) =     -476.30210419


--------------------------------------------------------------------------------------------------------




--------------------------------------- Iteration      1(   5)  ---------------------------------------


     EDDAV:  cpu time  461.2803: real time  465.4704
       DOS:  cpu time    0.0026: real time    0.0026
    CHARGE:  cpu time    9.4497: real time    9.4735
    MIXING:  cpu time    0.0464: real time    0.0470
    --------------------------------------------
      LOOP:  cpu time  470.7790: real time  474.9935

 eigenvalue-minimisations  : 49784
 total energy-change (2. order) :-0.1242743E+02  (-0.1230412E+02)
 number of electron     736.0000016 magnetization     127.9999932
 augmentation part      278.4616922 magnetization      84.1337205

 Broyden mixing:
  rms(total) = 0.22131E+00    rms(broyden)= 0.22114E+00
  rms(prec ) = 0.22455E+00
  weight for this iteration     100.00

 Free energy of the ion-electron system (eV)
  ---------------------------------------------------
  alpha Z        PSCENC =      2314.49656628
  Ewald energy   TEWEN  =    -57725.06332462
  -Hartree energ DENC   =    -30346.91844050
  -exchange      EXHF   =         0.00000000
  -V(xc)+E(xc)   XCENC  =      3229.29898214
  PAW double counting   =     92679.89207989   -95535.38516353
  entropy T*S    EENTRO =        -0.00000000
  eigenvalues    EBANDS =    -10548.52994814
  atomic energy  EATOM  =     95443.47970955
  Solvation  Ediel_sol  =         0.00000000
  ---------------------------------------------------
  free energy    TOTEN  =      -488.72953893 eV

  energy without entropy =     -488.72953893  energy(sigma->0) =     -488.72953893


--------------------------------------------------------------------------------------------------------




--------------------------------------- Iteration      1(   6)  ---------------------------------------


    POTLOK:  cpu time    1.0427: real time    1.0604
    SETDIJ:  cpu time    2.2473: real time    2.2911
     EDDAV:  cpu time  404.0911: real time  407.5560
       DOS:  cpu time    0.0030: real time    0.0030
    CHARGE:  cpu time    9.3810: real time    9.4028
    MIXING:  cpu time    0.0373: real time    0.0391
    --------------------------------------------
      LOOP:  cpu time  416.8025: real time  420.3523

 eigenvalue-minimisations  : 42480
 total energy-change (2. order) :-0.4705100E+00  (-0.4817904E+00)
 number of electron     736.0000016 magnetization     127.9999951
 augmentation part      277.9586212 magnetization      84.1638325

 Broyden mixing:
  rms(total) = 0.10973E+00    rms(broyden)= 0.10958E+00
  rms(prec ) = 0.11044E+00
  weight for this iteration     100.00

 eigenvalues of (default mixing * dielectric matrix)
  average eigenvalue GAMMA=   0.6634
  0.6634

 Free energy of the ion-electron system (eV)
  ---------------------------------------------------
  alpha Z        PSCENC =      2314.49656628
  Ewald energy   TEWEN  =    -57725.06332462
  -Hartree energ DENC   =    -30345.07775039
  -exchange      EXHF   =         0.00000000
  -V(xc)+E(xc)   XCENC  =      3228.99768570
  PAW double counting   =     92519.31433766   -95373.14995855
  entropy T*S    EENTRO =        -0.00000000
  eigenvalues    EBANDS =    -10552.19731458
  atomic energy  EATOM  =     95443.47970955
  Solvation  Ediel_sol  =         0.00000000
  ---------------------------------------------------
  free energy    TOTEN  =      -489.20004895 eV

  energy without entropy =     -489.20004895  energy(sigma->0) =     -489.20004895


--------------------------------------------------------------------------------------------------------




--------------------------------------- Iteration      1(   7)  ---------------------------------------


    POTLOK:  cpu time    1.0436: real time    1.0581
    SETDIJ:  cpu time    2.2678: real time    2.2891
     EDDAV:  cpu time  431.3224: real time  435.5156
       DOS:  cpu time    0.0029: real time    0.0029
    CHARGE:  cpu time    9.3131: real time    9.3906
    MIXING:  cpu time    0.0321: real time    0.0331
    --------------------------------------------
      LOOP:  cpu time  443.9819: real time  448.2893

 eigenvalue-minimisations  : 45640
 total energy-change (2. order) :-0.1716593E-01  (-0.1730894E-01)
 number of electron     736.0000016 magnetization     127.9999958
 augmentation part      277.8789338 magnetization      84.1552049

 Broyden mixing:
  rms(total) = 0.60390E-01    rms(broyden)= 0.60349E-01
  rms(prec ) = 0.61821E-01
  weight for this iteration     100.00

 eigenvalues of (default mixing * dielectric matrix)
  average eigenvalue GAMMA=   0.5505
  0.5505  0.5505

 Free energy of the ion-electron system (eV)
  ---------------------------------------------------
  alpha Z        PSCENC =      2314.49656628
  Ewald energy   TEWEN  =    -57725.06332462
  -Hartree energ DENC   =    -30346.00891243
  -exchange      EXHF   =         0.00000000
  -V(xc)+E(xc)   XCENC  =      3229.08201783
  PAW double counting   =     92578.39619167   -95432.80546874
  entropy T*S    EENTRO =        -0.00000000
  eigenvalues    EBANDS =    -10550.79399443
  atomic energy  EATOM  =     95443.47970955
  Solvation  Ediel_sol  =         0.00000000
  ---------------------------------------------------
  free energy    TOTEN  =      -489.21721488 eV

  energy without entropy =     -489.21721488  energy(sigma->0) =     -489.21721488


--------------------------------------------------------------------------------------------------------




--------------------------------------- Iteration      1(   8)  ---------------------------------------


    POTLOK:  cpu time    1.0352: real time    1.0570
    SETDIJ:  cpu time    2.2570: real time    2.2932
     EDDAV:  cpu time  411.0516: real time  414.8357
       DOS:  cpu time    0.0031: real time    0.0031
    CHARGE:  cpu time    9.1275: real time    9.2230
    MIXING:  cpu time    0.0322: real time    0.0324
    --------------------------------------------
      LOOP:  cpu time  423.5067: real time  427.4444

 eigenvalue-minimisations  : 43080
 total energy-change (2. order) : 0.4376175E-03  (-0.3682936E-03)
 number of electron     736.0000016 magnetization     127.9999967
 augmentation part      277.8709093 magnetization      84.1569771

 Broyden mixing:
  rms(total) = 0.54241E-01    rms(broyden)= 0.54237E-01
  rms(prec ) = 0.55503E-01
  weight for this iteration     100.00

 eigenvalues of (default mixing * dielectric matrix)
  average eigenvalue GAMMA=   0.6017
  0.5409  0.6321  0.6321

 Free energy of the ion-electron system (eV)
  ---------------------------------------------------
  alpha Z        PSCENC =      2314.49656628
  Ewald energy   TEWEN  =    -57725.06332462
  -Hartree energ DENC   =    -30345.99361213
  -exchange      EXHF   =         0.00000000
  -V(xc)+E(xc)   XCENC  =      3229.11079957
  PAW double counting   =     92592.08419386   -95446.62914968
  entropy T*S    EENTRO =        -0.00000000
  eigenvalues    EBANDS =    -10550.70196010
  atomic energy  EATOM  =     95443.47970955
  Solvation  Ediel_sol  =         0.00000000
  ---------------------------------------------------
  free energy    TOTEN  =      -489.21677726 eV

  energy without entropy =     -489.21677726  energy(sigma->0) =     -489.21677726


--------------------------------------------------------------------------------------------------------




--------------------------------------- Iteration      1(   9)  ---------------------------------------


    POTLOK:  cpu time    1.0533: real time    1.0565
    SETDIJ:  cpu time    2.2843: real time    2.2896
     EDDAV:  cpu time  445.5400: real time  449.5705
       DOS:  cpu time    0.0031: real time    0.0031
    CHARGE:  cpu time    9.3834: real time    9.4687
    MIXING:  cpu time    0.0301: real time    0.0304
    --------------------------------------------
      LOOP:  cpu time  458.2940: real time  462.4188

 eigenvalue-minimisations  : 47424
 total energy-change (2. order) : 0.7258312E-03  (-0.2205158E-04)
 number of electron     736.0000016 magnetization     127.9999997
 augmentation part      277.8734918 magnetization      84.1571975

 Broyden mixing:
  rms(total) = 0.43072E-01    rms(broyden)= 0.43072E-01
  rms(prec ) = 0.44010E-01
  weight for this iteration     100.00

 eigenvalues of (default mixing * dielectric matrix)
  average eigenvalue GAMMA=   1.0934
  1.8614  1.2419  0.6352  0.6352

 Free energy of the ion-electron system (eV)
  ---------------------------------------------------
  alpha Z        PSCENC =      2314.49656628
  Ewald energy   TEWEN  =    -57725.06332462
  -Hartree energ DENC   =    -30346.14583671
  -exchange      EXHF   =         0.00000000
  -V(xc)+E(xc)   XCENC  =      3229.15433591
  PAW double counting   =     92607.68111066   -95462.43219651
  entropy T*S    EENTRO =        -0.00000000
  eigenvalues    EBANDS =    -10550.38641599
  atomic energy  EATOM  =     95443.47970955
  Solvation  Ediel_sol  =         0.00000000
  ---------------------------------------------------
  free energy    TOTEN  =      -489.21605143 eV

  energy without entropy =     -489.21605143  energy(sigma->0) =     -489.21605143


--------------------------------------------------------------------------------------------------------




--------------------------------------- Iteration      1(  10)  ---------------------------------------


    POTLOK:  cpu time    1.0378: real time    1.0608
    SETDIJ:  cpu time    2.2573: real time    2.3119
     EDDAV:  cpu time  457.7141: real time  461.4250
       DOS:  cpu time    0.0030: real time    0.0037
    CHARGE:  cpu time    9.4356: real time    9.4506
    MIXING:  cpu time    0.0393: real time    0.0393
    --------------------------------------------
      LOOP:  cpu time  470.4872: real time  474.2915

 eigenvalue-minimisations  : 48880
 total energy-change (2. order) : 0.8829859E-03  (-0.1881019E-03)
 number of electron     736.0000016 magnetization     128.0000003
 augmentation part      277.8911837 magnetization      84.1588786

 Broyden mixing:
  rms(total) = 0.85338E-02    rms(broyden)= 0.85300E-02
  rms(prec ) = 0.85749E-02
  weight for this iteration     100.00

 eigenvalues of (default mixing * dielectric matrix)
  average eigenvalue GAMMA=   1.0603
  2.5109  0.9383  0.6492  0.6492  0.5539

 Free energy of the ion-electron system (eV)
  ---------------------------------------------------
  alpha Z        PSCENC =      2314.49656628
  Ewald energy   TEWEN  =    -57725.06332462
  -Hartree energ DENC   =    -30346.86686033
  -exchange      EXHF   =         0.00000000
  -V(xc)+E(xc)   XCENC  =      3229.30172928
  PAW double counting   =     92662.73544225   -95518.18844774
  entropy T*S    EENTRO =        -0.00000000
  eigenvalues    EBANDS =    -10549.10998312
  atomic energy  EATOM  =     95443.47970955
  Solvation  Ediel_sol  =         0.00000000
  ---------------------------------------------------
  free energy    TOTEN  =      -489.21516845 eV

  energy without entropy =     -489.21516845  energy(sigma->0) =     -489.21516845


--------------------------------------------------------------------------------------------------------




--------------------------------------- Iteration      1(  11)  ---------------------------------------


    POTLOK:  cpu time    1.0516: real time    1.0553
    SETDIJ:  cpu time    2.2981: real time    2.3076
     EDDAV:  cpu time  372.8304: real time  376.2668
       DOS:  cpu time    0.0027: real time    0.0027
    CHARGE:  cpu time    9.3643: real time    9.3925
    MIXING:  cpu time    0.0386: real time    0.0386
    --------------------------------------------
      LOOP:  cpu time  385.5857: real time  389.0631

 eigenvalue-minimisations  : 38304
 total energy-change (2. order) :-0.8284600E-04  (-0.5568190E-04)
 number of electron     736.0000016 magnetization     128.0000003
 augmentation part      277.8945025 magnetization      84.1587998

 Broyden mixing:
  rms(total) = 0.62439E-02    rms(broyden)= 0.62417E-02
  rms(prec ) = 0.65826E-02
  weight for this iteration     100.00

 eigenvalues of (default mixing * dielectric matrix)
  average eigenvalue GAMMA=   1.0205
  2.5525  0.7248  0.7248  0.8862  0.6173  0.6173

 Free energy of the ion-electron system (eV)
  ---------------------------------------------------
  alpha Z        PSCENC =      2314.49656628
  Ewald energy   TEWEN  =    -57725.06332462
  -Hartree energ DENC   =    -30346.99745114
  -exchange      EXHF   =         0.00000000
  -V(xc)+E(xc)   XCENC  =      3229.32424197
  PAW double counting   =     92675.47684393   -95531.04941220
  entropy T*S    EENTRO =        -0.00000000
  eigenvalues    EBANDS =    -10548.88242506
  atomic energy  EATOM  =     95443.47970955
  Solvation  Ediel_sol  =         0.00000000
  ---------------------------------------------------
  free energy    TOTEN  =      -489.21525129 eV

  energy without entropy =     -489.21525129  energy(sigma->0) =     -489.21525129


--------------------------------------------------------------------------------------------------------




--------------------------------------- Iteration      1(  12)  ---------------------------------------


    POTLOK:  cpu time    1.0486: real time    1.0511
    SETDIJ:  cpu time    2.2908: real time    2.2923
     EDDAV:  cpu time  392.8552: real time  396.5056
       DOS:  cpu time    0.0028: real time    0.0028
    CHARGE:  cpu time    9.3076: real time    9.3568
    MIXING:  cpu time    0.0431: real time    0.0431
    --------------------------------------------
      LOOP:  cpu time  405.5481: real time  409.2517

 eigenvalue-minimisations  : 40944
 total energy-change (2. order) : 0.1174344E-04  (-0.5134847E-05)
 number of electron     736.0000016 magnetization     128.0000004
 augmentation part      277.8963452 magnetization      84.1586799

 Broyden mixing:
  rms(total) = 0.52796E-02    rms(broyden)= 0.52780E-02
  rms(prec ) = 0.55576E-02
  weight for this iteration     100.00

 eigenvalues of (default mixing * dielectric matrix)
  average eigenvalue GAMMA=   1.1067
  2.5319  1.2631  1.2631  0.8861  0.6438  0.6438  0.5154

 Free energy of the ion-electron system (eV)
  ---------------------------------------------------
  alpha Z        PSCENC =      2314.49656628
  Ewald energy   TEWEN  =    -57725.06332462
  -Hartree energ DENC   =    -30346.98899593
  -exchange      EXHF   =         0.00000000
  -V(xc)+E(xc)   XCENC  =      3229.31882976
  PAW double counting   =     92676.26350685   -95531.81384033
  entropy T*S    EENTRO =        -0.00000000
  eigenvalues    EBANDS =    -10548.90769112
  atomic energy  EATOM  =     95443.47970955
  Solvation  Ediel_sol  =         0.00000000
  ---------------------------------------------------
  free energy    TOTEN  =      -489.21523955 eV

  energy without entropy =     -489.21523955  energy(sigma->0) =     -489.21523955


--------------------------------------------------------------------------------------------------------




--------------------------------------- Iteration      1(  13)  ---------------------------------------


    POTLOK:  cpu time    1.0501: real time    1.0513
    SETDIJ:  cpu time    2.2945: real time    2.2961
     EDDAV:  cpu time  355.9745: real time  358.8103
       DOS:  cpu time    0.0027: real time    0.0027
    CHARGE:  cpu time    9.1944: real time    9.3442
    MIXING:  cpu time    0.0362: real time    0.0367
    --------------------------------------------
      LOOP:  cpu time  368.5524: real time  371.5414

 eigenvalue-minimisations  : 36072
 total energy-change (2. order) : 0.1531010E-04  (-0.2114323E-05)
 number of electron     736.0000016 magnetization     128.0000005
 augmentation part      277.8946861 magnetization      84.1585166

 Broyden mixing:
  rms(total) = 0.17669E-02    rms(broyden)= 0.17634E-02
  rms(prec ) = 0.18219E-02
  weight for this iteration     100.00

 eigenvalues of (default mixing * dielectric matrix)
  average eigenvalue GAMMA=   1.1867
  2.7937  1.7779  1.3985  0.9515  0.6924  0.6924  0.5935  0.5935

 Free energy of the ion-electron system (eV)
  ---------------------------------------------------
  alpha Z        PSCENC =      2314.49656628
  Ewald energy   TEWEN  =    -57725.06332462
  -Hartree energ DENC   =    -30346.93753714
  -exchange      EXHF   =         0.00000000
  -V(xc)+E(xc)   XCENC  =      3229.30258597
  PAW double counting   =     92677.55698446   -95533.04962867
  entropy T*S    EENTRO =        -0.00000000
  eigenvalues    EBANDS =    -10549.00058007
  atomic energy  EATOM  =     95443.47970955
  Solvation  Ediel_sol  =         0.00000000
  ---------------------------------------------------
  free energy    TOTEN  =      -489.21522424 eV

  energy without entropy =     -489.21522424  energy(sigma->0) =     -489.21522424


--------------------------------------------------------------------------------------------------------




--------------------------------------- Iteration      1(  14)  ---------------------------------------


    POTLOK:  cpu time    1.0467: real time    1.0548
    SETDIJ:  cpu time    2.2849: real time    2.3070
     EDDAV:  cpu time  322.4825: real time  325.4939
       DOS:  cpu time    0.0028: real time    0.0028
    CHARGE:  cpu time    9.3615: real time    9.3868
    MIXING:  cpu time    0.0330: real time    0.0337
    --------------------------------------------
      LOOP:  cpu time  335.2115: real time  338.2790

 eigenvalue-minimisations  : 31904
 total energy-change (2. order) :-0.5685157E-05  (-0.2437882E-05)
 number of electron     736.0000016 magnetization     128.0000005
 augmentation part      277.8929632 magnetization      84.1583089

 Broyden mixing:
  rms(total) = 0.99558E-03    rms(broyden)= 0.98925E-03
  rms(prec ) = 0.10338E-02
  weight for this iteration     100.00

 eigenvalues of (default mixing * dielectric matrix)
  average eigenvalue GAMMA=   1.1208
  2.8686  1.5299  1.5299  0.9578  0.7125  0.7125  0.6371  0.6371  0.5017

 Free energy of the ion-electron system (eV)
  ---------------------------------------------------
  alpha Z        PSCENC =      2314.49656628
  Ewald energy   TEWEN  =    -57725.06332462
  -Hartree energ DENC   =    -30346.92719021
  -exchange      EXHF   =         0.00000000
  -V(xc)+E(xc)   XCENC  =      3229.29630109
  PAW double counting   =     92679.14816486   -95534.62456648
  entropy T*S    EENTRO =        -0.00000000
  eigenvalues    EBANDS =    -10549.02089040
  atomic energy  EATOM  =     95443.47970955
  Solvation  Ediel_sol  =         0.00000000
  ---------------------------------------------------
  free energy    TOTEN  =      -489.21522992 eV

  energy without entropy =     -489.21522992  energy(sigma->0) =     -489.21522992


--------------------------------------------------------------------------------------------------------




--------------------------------------- Iteration      1(  15)  ---------------------------------------


    POTLOK:  cpu time    1.0350: real time    1.0582
    SETDIJ:  cpu time    2.3081: real time    2.3234
     EDDAV:  cpu time  310.6982: real time  313.5790
       DOS:  cpu time    0.0028: real time    0.0028
    CHARGE:  cpu time    9.3221: real time    9.3323
    MIXING:  cpu time    0.0441: real time    0.0441
    --------------------------------------------
      LOOP:  cpu time  323.4102: real time  326.3399

 eigenvalue-minimisations  : 30432
 total energy-change (2. order) : 0.1429915E-05  (-0.3837143E-06)
 number of electron     736.0000016 magnetization     128.0000004
 augmentation part      277.8926110 magnetization      84.1583427

 Broyden mixing:
  rms(total) = 0.65031E-03    rms(broyden)= 0.64075E-03
  rms(prec ) = 0.66184E-03
  weight for this iteration     100.00

 eigenvalues of (default mixing * dielectric matrix)
  average eigenvalue GAMMA=   1.1007
  2.7681  1.5190  1.2348  1.2348  0.8760  0.8760  0.6550  0.6550  0.5940  0.5940

 Free energy of the ion-electron system (eV)
  ---------------------------------------------------
  alpha Z        PSCENC =      2314.49656628
  Ewald energy   TEWEN  =    -57725.06332462
  -Hartree energ DENC   =    -30346.93113755
  -exchange      EXHF   =         0.00000000
  -V(xc)+E(xc)   XCENC  =      3229.29816357
  PAW double counting   =     92679.51588096   -95535.00297868
  entropy T*S    EENTRO =        -0.00000000
  eigenvalues    EBANDS =    -10549.00810802
  atomic energy  EATOM  =     95443.47970955
  Solvation  Ediel_sol  =         0.00000000
  ---------------------------------------------------
  free energy    TOTEN  =      -489.21522849 eV

  energy without entropy =     -489.21522849  energy(sigma->0) =     -489.21522849


--------------------------------------------------------------------------------------------------------




--------------------------------------- Iteration      1(  16)  ---------------------------------------


    POTLOK:  cpu time    1.0500: real time    1.0507
    SETDIJ:  cpu time    2.2729: real time    2.2744
     EDDAV:  cpu time  219.5971: real time  221.6606
       DOS:  cpu time    0.0025: real time    0.0025
    --------------------------------------------
      LOOP:  cpu time  222.9225: real time  224.9881

 eigenvalue-minimisations  : 18480
 total energy-change (2. order) :-0.2365996E-06  (-0.3662012E-07)
 number of electron     736.0000016 magnetization     128.0000004
 augmentation part      277.8926110 magnetization      84.1583427

 Free energy of the ion-electron system (eV)
  ---------------------------------------------------
  alpha Z        PSCENC =      2314.49656628
  Ewald energy   TEWEN  =    -57725.06332462
  -Hartree energ DENC   =    -30346.92802940
  -exchange      EXHF   =         0.00000000
  -V(xc)+E(xc)   XCENC  =      3229.29778111
  PAW double counting   =     92679.71025774   -95535.19800695
  entropy T*S    EENTRO =        -0.00000000
  eigenvalues    EBANDS =    -10549.01018244
  atomic energy  EATOM  =     95443.47970955
  Solvation  Ediel_sol  =         0.00000000
  ---------------------------------------------------
  free energy    TOTEN  =      -489.21522873 eV

  energy without entropy =     -489.21522873  energy(sigma->0) =     -489.21522873


--------------------------------------------------------------------------------------------------------




 average (electrostatic) potential at core
  the test charge radii are     0.7079  0.7215  0.9698  0.9500
  (the norm of the test charge is              1.0000)
       1 -58.9512       2 -58.9470       3 -58.9492       4 -58.9488       5 -58.9468
       6 -58.9477       7 -58.9480       8 -58.9478       9 -58.9485      10 -58.9505
      11 -58.9481      12 -58.9488      13 -58.9516      14 -58.9491      15 -58.9494
      16 -58.9505      17 -69.8170      18 -69.8163      19 -69.8174      20 -69.8167
      21 -69.8169      22 -69.8175      23 -69.8163      24 -69.8167      25 -69.8165
      26 -69.8157      27 -69.8164      28 -69.8160      29 -69.8164      30 -69.8085
      31 -69.8162      32 -69.8161      33 -85.5758      34 -85.5786      35 -85.5793
      36 -85.5791      37 -85.5793      38 -85.5788      39 -85.5793      40 -85.5741
      41 -85.5793      42 -85.5793      43 -85.5791      44 -85.5796      45 -85.5792
      46 -85.5796      47 -85.5792      48 -85.5793      49 -85.6473      50 -85.6385
      51 -85.6391      52 -85.6392      53 -85.6393      54 -85.6387      55 -85.6393
      56 -85.6443      57 -78.5738      58 -78.5739      59 -78.5726      60 -78.5739
      61 -78.5730      62 -78.5738      63 -78.5737      64 -78.5739      65 -78.5733
      66 -78.5734      67 -78.5726      68 -78.5726      69 -78.5729      70 -78.5707
      71 -78.5737      72 -78.5729      73 -78.5856      74 -78.5819      75 -78.5819
      76 -78.5820      77 -78.5931      78 -78.5893      79 -78.5914      80 -78.5924
      81 -78.5935      82 -78.5927      83 -78.5917      84 -78.5917      85 -78.5820
      86 -78.5840      87 -78.5822      88 -78.5832
 
 
 
 E-fermi :   5.2045     XC(G=0): -10.4850     alpha+bet :-11.8156


 spin component 1

 k-point     1 :       0.0000    0.0000    0.0000
  band No.  band energies     occupation 
      1     -51.0548      1.00000
      2     -51.0545      1.00000
      3     -51.0542      1.00000
      4     -51.0540      1.00000
      5     -51.0536      1.00000
      6     -51.0534      1.00000
      7     -51.0533      1.00000
      8     -51.0528      1.00000
      9     -51.0524      1.00000
     10     -51.0521      1.00000
     11     -51.0518      1.00000
     12     -51.0517      1.00000
     13     -51.0514      1.00000
     14     -51.0506      1.00000
     15     -51.0499      1.00000
     16     -51.0491      1.00000
     17     -51.0452      1.00000
     18     -51.0450      1.00000
     19     -51.0450      1.00000
     20     -51.0442      1.00000
     21     -51.0441      1.00000
     22     -51.0440      1.00000
     23     -51.0440      1.00000
     24     -51.0426      1.00000
     25     -51.0411      1.00000
     26     -51.0410      1.00000
     27     -51.0403      1.00000
     28     -51.0395      1.00000
     29     -51.0394      1.00000
     30     -51.0393      1.00000
     31     -51.0392      1.00000
     32     -51.0391      1.00000
     33     -49.7035      1.00000
     34     -49.7032      1.00000
     35     -49.7028      1.00000
     36     -49.7026      1.00000
     37     -49.7017      1.00000
     38     -49.7017      1.00000
     39     -49.7013      1.00000
     40     -49.7010      1.00000
     41     -49.6993      1.00000
     42     -49.6960      1.00000
     43     -49.6952      1.00000
     44     -49.6942      1.00000
     45     -49.6941      1.00000
     46     -49.6940      1.00000
     47     -49.6939      1.00000
     48     -49.6939      1.00000
     49     -49.5977      1.00000
     50     -49.5970      1.00000
     51     -49.5968      1.00000
     52     -49.5967      1.00000
     53     -49.5966      1.00000
     54     -49.5964      1.00000
     55     -49.5960      1.00000
     56     -49.5958      1.00000
     57     -49.5956      1.00000
     58     -49.5955      1.00000
     59     -49.5954      1.00000
     60     -49.5953      1.00000
     61     -49.5950      1.00000
     62     -49.5949      1.00000
     63     -49.5948      1.00000
     64     -49.5935      1.00000
     65     -49.5665      1.00000
     66     -49.5658      1.00000
     67     -49.5656      1.00000
     68     -49.5655      1.00000
     69     -49.5652      1.00000
     70     -49.5650      1.00000
     71     -49.5643      1.00000
     72     -49.5640      1.00000
     73     -49.5639      1.00000
     74     -49.5636      1.00000
     75     -49.5636      1.00000
     76     -49.5634      1.00000
     77     -49.5633      1.00000
     78     -49.5630      1.00000
     79     -49.5625      1.00000
     80     -49.5610      1.00000
     81     -49.5562      1.00000
     82     -49.5558      1.00000
     83     -49.5553      1.00000
     84     -49.5549      1.00000
     85     -49.5543      1.00000
     86     -49.5542      1.00000
     87     -49.5540      1.00000
     88     -49.5522      1.00000
     89     -49.5415      1.00000
     90     -49.5406      1.00000
     91     -49.5397      1.00000
     92     -49.5395      1.00000
     93     -49.5394      1.00000
     94     -49.5394      1.00000
     95     -49.5393      1.00000
     96     -49.5389      1.00000
     97     -39.8680      1.00000
     98     -39.8675      1.00000
     99     -39.8674      1.00000
    100     -39.8669      1.00000
    101     -39.8658      1.00000
    102     -39.8657      1.00000
    103     -39.8656      1.00000
    104     -39.8654      1.00000
    105     -39.8653      1.00000
    106     -39.8652      1.00000
    107     -39.8648      1.00000
    108     -39.8648      1.00000
    109     -39.8647      1.00000
    110     -39.8645      1.00000
    111     -39.8637      1.00000
    112     -39.8631      1.00000
    113     -13.2254      1.00000
    114     -13.2232      1.00000
    115     -13.2098      1.00000
    116     -13.1829      1.00000
    117     -13.1010      1.00000
    118     -13.0992      1.00000
    119     -13.0979      1.00000
    120     -13.0922      1.00000
    121     -13.0859      1.00000
    122     -13.0802      1.00000
    123     -13.0793      1.00000
    124     -13.0759      1.00000
    125     -12.9878      1.00000
    126     -12.9769      1.00000
    127     -12.9424      1.00000
    128     -12.9403      1.00000
    129      -7.6447      1.00000
    130      -7.4091      1.00000
    131      -7.3278      1.00000
    132      -7.3269      1.00000
    133      -7.3122      1.00000
    134      -7.3113      1.00000
    135      -7.3090      1.00000
    136      -7.3079      1.00000
    137      -7.1695      1.00000
    138      -7.1574      1.00000
    139      -7.1245      1.00000
    140      -7.1240      1.00000
    141      -7.0387      1.00000
    142      -7.0207      1.00000
    143      -7.0013      1.00000
    144      -7.0004      1.00000
    145      -6.9408      1.00000
    146      -6.9400      1.00000
    147      -6.8861      1.00000
    148      -6.8859      1.00000
    149      -6.8644      1.00000
    150      -6.8608      1.00000
    151      -6.8333      1.00000
    152      -6.8030      1.00000
    153      -1.9360      1.00000
    154      -1.9329      1.00000
    155      -1.9093      1.00000
    156      -1.8920      1.00000
    157      -1.6664      1.00000
    158      -1.6659      1.00000
    159      -1.6585      1.00000
    160      -1.6565      1.00000
    161      -1.5995      1.00000
    162      -1.5975      1.00000
    163      -1.5861      1.00000
    164      -1.5853      1.00000
    165      -1.2983      1.00000
    166      -1.1747      1.00000
    167      -1.1737      1.00000
    168      -1.1134      1.00000
    169      -1.1127      1.00000
    170      -1.1072      1.00000
    171      -1.0495      1.00000
    172      -0.9801      1.00000
    173      -0.9647      1.00000
    174      -0.9598      1.00000
    175      -0.9574      1.00000
    176      -0.9568      1.00000
    177      -0.9463      1.00000
    178      -0.9446      1.00000
    179      -0.9229      1.00000
    180      -0.8715      1.00000
    181      -0.8711      1.00000
    182      -0.8031      1.00000
    183      -0.8022      1.00000
    184      -0.8016      1.00000
    185      -0.7748      1.00000
    186      -0.7739      1.00000
    187      -0.7736      1.00000
    188      -0.7608      1.00000
    189      -0.7167      1.00000
    190      -0.7163      1.00000
    191      -0.7063      1.00000
    192      -0.7052      1.00000
    193      -0.6987      1.00000
    194      -0.6981      1.00000
    195      -0.6079      1.00000
    196      -0.6075      1.00000
    197      -0.5609      1.00000
    198      -0.5608      1.00000
    199      -0.5488      1.00000
    200      -0.5472      1.00000
    201      -0.4086      1.00000
    202      -0.4080      1.00000
    203      -0.3574      1.00000
    204      -0.3484      1.00000
    205      -0.3293      1.00000
    206      -0.3291      1.00000
    207      -0.2982      1.00000
    208      -0.2977      1.00000
    209      -0.2822      1.00000
    210      -0.2690      1.00000
    211      -0.2622      1.00000
    212      -0.2553      1.00000
    213      -0.2545      1.00000
    214      -0.2090      1.00000
    215      -0.2086      1.00000
    216      -0.1882      1.00000
    217      -0.1875      1.00000
    218      -0.1872      1.00000
    219      -0.1756      1.00000
    220      -0.1580      1.00000
    221      -0.1261      1.00000
    222      -0.1256      1.00000
    223      -0.1097      1.00000
    224      -0.0711      1.00000
    225      -0.0704      1.00000
    226      -0.0599      1.00000
    227      -0.0431      1.00000
    228      -0.0171      1.00000
    229      -0.0167      1.00000
    230      -0.0122      1.00000
    231       0.0015      1.00000
    232       0.0021      1.00000
    233       0.0460      1.00000
    234       0.0490      1.00000
    235       0.0498      1.00000
    236       0.0910      1.00000
    237       0.0928      1.00000
    238       0.1184      1.00000
    239       0.1189      1.00000
    240       0.1569      1.00000
    241       0.1631      1.00000
    242       0.1757      1.00000
    243       0.1795      1.00000
    244       0.1816      1.00000
    245       0.1824      1.00000
    246       0.1863      1.00000
    247       0.1895      1.00000
    248       0.1929      1.00000
    249       0.1936      1.00000
    250       0.2000      1.00000
    251       0.2008      1.00000
    252       0.2385      1.00000
    253       0.2516      1.00000
    254       0.2571      1.00000
    255       0.2572      1.00000
    256       0.2768      1.00000
    257       0.3377      1.00000
    258       0.3475      1.00000
    259       0.3584      1.00000
    260       0.3587      1.00000
    261       0.3600      1.00000
    262       0.3602      1.00000
    263       0.3878      1.00000
    264       0.4017      1.00000
    265       0.4530      1.00000
    266       0.4533      1.00000
    267       0.5789      1.00000
    268       0.5790      1.00000
    269       0.5841      1.00000
    270       0.6023      1.00000
    271       0.6024      1.00000
    272       0.6064      1.00000
    273       0.6089      1.00000
    274       0.6396      1.00000
    275       0.6507      1.00000
    276       0.6508      1.00000
    277       0.6616      1.00000
    278       0.6622      1.00000
    279       0.6661      1.00000
    280       0.6735      1.00000
    281       0.6753      1.00000
    282       0.6754      1.00000
    283       0.6967      1.00000
    284       0.7230      1.00000
    285       0.7843      1.00000
    286       0.8203      1.00000
    287       0.8299      1.00000
    288       0.8326      1.00000
    289       0.8331      1.00000
    290       0.8613      1.00000
    291       0.8613      1.00000
    292       0.9102      1.00000
    293       0.9402      1.00000
    294       0.9476      1.00000
    295       0.9477      1.00000
    296       0.9824      1.00000
    297       1.0260      1.00000
    298       1.0710      1.00000
    299       1.2700      1.00000
    300       1.2981      1.00000
    301       1.2983      1.00000
    302       1.3118      1.00000
    303       1.3329      1.00000
    304       1.3337      1.00000
    305       1.3382      1.00000
    306       1.3850      1.00000
    307       1.4053      1.00000
    308       1.4286      1.00000
    309       1.4672      1.00000
    310       1.4679      1.00000
    311       1.4684      1.00000
    312       1.4820      1.00000
    313       1.5104      1.00000
    314       1.5108      1.00000
    315       1.5405      1.00000
    316       1.5613      1.00000
    317       1.5759      1.00000
    318       1.6473      1.00000
    319       1.6552      1.00000
    320       1.7567      1.00000
    321       1.7569      1.00000
    322       1.7633      1.00000
    323       1.7790      1.00000
    324       1.8028      1.00000
    325       1.8030      1.00000
    326       1.8100      1.00000
    327       1.8231      1.00000
    328       1.8357      1.00000
    329       1.8367      1.00000
    330       1.8464      1.00000
    331       1.8482      1.00000
    332       1.8778      1.00000
    333       1.8900      1.00000
    334       1.9470      1.00000
    335       1.9933      1.00000
    336       1.9939      1.00000
    337       2.0058      1.00000
    338       2.0066      1.00000
    339       2.0109      1.00000
    340       2.0197      1.00000
    341       2.0205      1.00000
    342       2.0213      1.00000
    343       2.0396      1.00000
    344       2.0472      1.00000
    345       2.0476      1.00000
    346       2.0573      1.00000
    347       2.0690      1.00000
    348       2.0693      1.00000
    349       2.0918      1.00000
    350       2.1126      1.00000
    351       2.1901      1.00000
    352       2.1939      1.00000
    353       2.2468      1.00000
    354       2.2471      1.00000
    355       2.2705      1.00000
    356       2.2732      1.00000
    357       2.2850      1.00000
    358       2.4280      1.00000
    359       2.4657      1.00000
    360       2.4666      1.00000
    361       2.4769      1.00000
    362       2.5037      1.00000
    363       2.5269      1.00000
    364       2.5538      1.00000
    365       2.5925      1.00000
    366       2.6259      1.00000
    367       2.6270      1.00000
    368       2.6566      1.00000
    369       2.7380      1.00000
    370       2.7389      1.00000
    371       2.7607      1.00000
    372       2.7612      1.00000
    373       2.8347      1.00000
    374       2.8731      1.00000
    375       2.9263      1.00000
    376       2.9346      1.00000
    377       2.9348      1.00000
    378       2.9691      1.00000
    379       3.0279      1.00000
    380       3.0279      1.00000
    381       3.0622      1.00000
    382       3.0976      1.00000
    383       3.3074      1.00000
    384       3.3099      1.00000
    385       3.3482      1.00000
    386       3.3765      1.00000
    387       3.4214      1.00000
    388       3.4219      1.00000
    389       3.4415      1.00000
    390       3.4583      1.00000
    391       3.4589      1.00000
    392       3.5321      1.00000
    393       3.7474      1.00000
    394       3.8081      1.00000
    395       3.8092      1.00000
    396       3.8150      1.00000
    397       3.8155      1.00000
    398       3.8812      1.00000
    399       3.8823      1.00000
    400       3.9318      1.00000
    401       3.9352      1.00000
    402       3.9394      1.00000
    403       3.9399      1.00000
    404       4.0389      1.00000
    405       4.0391      1.00000
    406       4.0691      1.00000
    407       4.1389      1.00000
    408       4.1498      1.00000
    409       4.1519      1.00000
    410       4.3136      1.00000
    411       4.3186      1.00000
    412       4.3370      1.00000
    413       4.3577      1.00000
    414       4.3584      1.00000
    415       4.4290      1.00000
    416       4.4438      1.00000
    417       4.4455      1.00000
    418       4.4547      1.00000
    419       4.4569      1.00000
    420       4.4573      1.00000
    421       4.6369      1.00000
    422       4.6372      1.00000
    423       4.7325      1.00000
    424       4.7330      1.00000
    425       4.7646      1.00000
    426       4.7647      1.00000
    427       4.7698      1.00000
    428       4.7702      1.00000
    429       4.8110      1.00000
    430       4.8535      1.00000
    431       4.8543      1.00000
    432       4.8579      1.00000
    433       7.3437      0.00000
    434       8.1289      0.00000
    435       8.4458      0.00000
    436       8.6426      0.00000
    437       8.6429      0.00000
    438       8.8590      0.00000
    439       9.0845      0.00000
    440       9.0850      0.00000
    441       9.2612      0.00000
    442       9.2738      0.00000
    443       9.2895      0.00000
    444       9.2902      0.00000
    445       9.7269      0.00000
    446       9.7715      0.00000
    447       9.7723      0.00000
    448       9.7902      0.00000
    449       9.8548      0.00000
    450       9.8549      0.00000
    451       9.8573      0.00000
    452       9.8778      0.00000
    453       9.8879      0.00000
    454      10.0611      0.00000
    455      10.0832      0.00000
    456      10.1366      0.00000
    457      10.1368      0.00000
    458      10.3057      0.00000
    459      10.3062      0.00000
    460      10.4172      0.00000
    461      10.5274      0.00000
    462      10.5705      0.00000
    463      10.5710      0.00000
    464      10.5716      0.00000
    465      10.5787      0.00000
    466      10.5796      0.00000
    467      10.6759      0.00000
    468      10.9759      0.00000
    469      11.0195      0.00000
    470      11.0200      0.00000
    471      11.0409      0.00000
    472      11.0411      0.00000
    473      11.0779      0.00000
    474      11.1288      0.00000
    475      11.1777      0.00000
[...]
   0.220E-01 0.225E-02 -.256E+02   -.224E-01 -.120E-02 0.254E+02   0.202E-03 -.811E-03 0.254E+00   -.159E-05 0.710E-05 0.135E-03
   -.169E-02 0.177E-02 -.259E+02   0.178E-02 -.118E-02 0.257E+02   -.581E-04 -.558E-03 0.251E+00   -.113E-04 -.323E-05 0.610E-04
   0.462E-03 0.150E-02 -.259E+02   -.431E-03 -.118E-02 0.257E+02   0.204E-05 -.417E-03 0.251E+00   -.894E-05 0.106E-04 0.801E-04
   -.346E-01 0.529E-01 -.420E+02   0.388E-01 -.554E-01 0.420E+02   -.314E-02 0.146E-02 0.145E-01   -.185E-04 0.143E-04 0.402E-04
   0.426E-01 0.421E-01 -.420E+02   -.431E-01 -.414E-01 0.420E+02   0.107E-03 -.854E-03 0.107E-01   0.244E-04 0.237E-04 0.143E-05
   -.379E-01 -.296E-01 -.420E+02   0.388E-01 0.315E-01 0.420E+02   -.722E-03 -.158E-02 0.111E-01   -.341E-04 -.333E-04 0.718E-05
   0.412E-01 -.140E-01 -.420E+02   -.431E-01 0.175E-01 0.420E+02   0.128E-02 -.285E-02 0.134E-01   0.999E-05 -.230E-04 0.349E-04
   0.159E+02 0.150E+02 -.126E+03   -.162E+02 -.154E+02 0.131E+03   0.386E+00 0.386E+00 -.462E+01   -.359E-05 0.194E-03 0.156E-03
   0.159E+02 0.149E+02 -.126E+03   -.163E+02 -.153E+02 0.131E+03   0.386E+00 0.380E+00 -.463E+01   -.535E-04 0.485E-04 0.514E-04
   0.157E+02 0.148E+02 -.126E+03   -.161E+02 -.151E+02 0.130E+03   0.384E+00 0.375E+00 -.462E+01   -.134E-03 -.191E-04 0.167E-03
   0.159E+02 0.149E+02 -.126E+03   -.163E+02 -.153E+02 0.131E+03   0.390E+00 0.380E+00 -.462E+01   0.458E-05 0.126E-03 0.103E-03
   -.160E+02 -.149E+02 -.126E+03   0.164E+02 0.152E+02 0.131E+03   -.395E+00 -.379E+00 -.462E+01   -.789E-04 -.784E-04 0.138E-03
   -.158E+02 -.148E+02 -.126E+03   0.162E+02 0.151E+02 0.130E+03   -.384E+00 -.377E+00 -.462E+01   0.101E-03 0.512E-04 0.162E-03
   -.159E+02 -.149E+02 -.126E+03   0.163E+02 0.153E+02 0.131E+03   -.389E+00 -.379E+00 -.463E+01   0.258E-04 -.532E-04 0.765E-04
   -.159E+02 -.149E+02 -.126E+03   0.163E+02 0.153E+02 0.131E+03   -.390E+00 -.382E+00 -.462E+01   -.855E-04 -.170E-03 0.147E-03
   0.160E+02 -.149E+02 0.126E+03   -.163E+02 0.153E+02 -.131E+03   0.391E+00 -.377E+00 0.462E+01   0.247E-05 -.353E-04 -.160E-03
   0.159E+02 -.149E+02 0.126E+03   -.163E+02 0.153E+02 -.131E+03   0.387E+00 -.381E+00 0.463E+01   -.699E-04 -.692E-04 -.134E-03
   0.164E+02 -.148E+02 0.125E+03   -.168E+02 0.152E+02 -.129E+03   0.409E+00 -.380E+00 0.455E+01   -.370E-04 -.139E-03 -.574E-03
   0.158E+02 -.148E+02 0.126E+03   -.162E+02 0.152E+02 -.131E+03   0.388E+00 -.378E+00 0.462E+01   -.682E-04 -.221E-04 -.141E-03
   -.159E+02 0.149E+02 0.126E+03   0.163E+02 -.153E+02 -.131E+03   -.390E+00 0.380E+00 0.462E+01   0.305E-04 0.122E-03 -.126E-03
   -.167E+02 0.138E+02 0.125E+03   0.171E+02 -.141E+02 -.130E+03   -.427E+00 0.321E+00 0.458E+01   0.722E-04 -.863E-04 -.509E-03
   -.159E+02 0.149E+02 0.126E+03   0.163E+02 -.153E+02 -.131E+03   -.386E+00 0.380E+00 0.463E+01   0.746E-04 0.374E-04 -.866E-04
   -.159E+02 0.150E+02 0.126E+03   0.163E+02 -.154E+02 -.131E+03   -.387E+00 0.380E+00 0.462E+01   0.863E-04 0.782E-04 -.126E-03
   0.285E+02 0.278E+02 0.336E+02   -.288E+02 -.282E+02 -.341E+02   0.362E+00 0.345E+00 0.525E+00   0.951E-04 -.637E-04 0.684E-04
   0.279E+02 0.281E+02 0.334E+02   -.282E+02 -.285E+02 -.339E+02   0.348E+00 0.352E+00 0.519E+00   -.989E-04 0.479E-04 0.124E-03
   0.281E+02 0.283E+02 0.333E+02   -.284E+02 -.286E+02 -.338E+02   0.351E+00 0.353E+00 0.518E+00   0.539E-05 0.662E-04 0.243E-04
   0.280E+02 0.282E+02 0.333E+02   -.283E+02 -.286E+02 -.339E+02   0.349E+00 0.354E+00 0.518E+00   -.163E-05 0.386E-04 0.338E-04
   -.279E+02 -.282E+02 0.333E+02   0.283E+02 0.286E+02 -.338E+02   -.349E+00 -.355E+00 0.518E+00   -.388E-04 -.511E-04 0.777E-04
   -.279E+02 -.283E+02 0.333E+02   0.283E+02 0.287E+02 -.338E+02   -.349E+00 -.356E+00 0.520E+00   0.467E-04 -.116E-03 0.788E-04
   -.279E+02 -.282E+02 0.333E+02   0.282E+02 0.286E+02 -.338E+02   -.349E+00 -.353E+00 0.518E+00   0.347E-04 -.526E-04 0.567E-04
   -.284E+02 -.277E+02 0.338E+02   0.287E+02 0.280E+02 -.343E+02   -.360E+00 -.341E+00 0.530E+00   -.348E-04 0.655E-04 0.565E-04
   0.278E+02 -.282E+02 -.330E+02   -.282E+02 0.286E+02 0.336E+02   0.349E+00 -.355E+00 -.514E+00   -.789E-04 -.502E-04 0.309E-04
   0.280E+02 -.282E+02 -.333E+02   -.283E+02 0.286E+02 0.338E+02   0.350E+00 -.354E+00 -.517E+00   0.273E-04 -.468E-04 -.559E-04
   0.279E+02 -.282E+02 -.332E+02   -.282E+02 0.286E+02 0.337E+02   0.349E+00 -.352E+00 -.516E+00   0.286E-04 -.907E-04 -.320E-04
   0.279E+02 -.282E+02 -.333E+02   -.283E+02 0.286E+02 0.338E+02   0.349E+00 -.354E+00 -.518E+00   -.199E-04 -.687E-04 -.317E-04
   -.280E+02 0.282E+02 -.333E+02   0.283E+02 -.285E+02 0.338E+02   -.350E+00 0.352E+00 -.517E+00   0.497E-04 0.399E-04 -.160E-04
   -.280E+02 0.282E+02 -.333E+02   0.284E+02 -.285E+02 0.338E+02   -.350E+00 0.353E+00 -.518E+00   0.137E-04 0.820E-04 -.176E-04
   -.280E+02 0.282E+02 -.332E+02   0.283E+02 -.286E+02 0.337E+02   -.350E+00 0.353E+00 -.516E+00   0.566E-04 0.110E-03 0.370E-04
   -.280E+02 0.282E+02 -.332E+02   0.284E+02 -.285E+02 0.337E+02   -.352E+00 0.353E+00 -.515E+00   0.475E-04 0.131E-04 0.179E-04
   0.915E+01 0.979E+00 0.369E+00   -.926E+01 -.992E+00 -.374E+00   0.114E+00 0.484E-02 -.454E-02   -.147E-03 0.101E-03 0.350E-04
   0.993E+01 0.587E-01 -.796E-01   -.100E+02 -.601E-01 0.806E-01   0.114E+00 0.170E-02 -.181E-02   -.802E-04 0.659E-04 -.306E-04
   0.988E+01 -.542E-01 -.481E-01   -.999E+01 0.545E-01 0.485E-01   0.114E+00 -.628E-03 -.583E-03   -.102E-03 -.570E-04 0.276E-04
   0.990E+01 0.400E-01 -.385E-01   -.100E+02 -.396E-01 0.384E-01   0.116E+00 -.986E-03 0.172E-03   -.703E-04 -.340E-05 -.840E-05
   -.993E+01 0.723E-01 -.633E-02   0.100E+02 -.737E-01 0.575E-02   -.117E+00 0.204E-02 0.511E-03   0.217E-04 0.188E-04 -.840E-05
   -.985E+01 0.110E+00 -.529E-01   0.997E+01 -.111E+00 0.540E-01   -.113E+00 0.425E-03 -.214E-02   0.168E-03 0.414E-04 -.401E-04
   -.100E+02 -.319E-02 -.862E-02   0.102E+02 0.365E-02 0.916E-02   -.116E+00 -.106E-02 -.892E-03   0.109E-04 -.325E-04 -.159E-04
   -.915E+01 -.523E+00 -.321E-01   0.925E+01 0.530E+00 0.313E-01   -.109E+00 -.212E-02 -.593E-02   0.180E-03 -.383E-04 -.490E-04
   0.190E+02 0.189E+02 0.185E+03   -.179E+02 -.178E+02 -.183E+03   -.106E+01 -.108E+01 -.240E+01   0.937E-06 0.108E-03 -.719E-04
   0.191E+02 0.189E+02 0.185E+03   -.180E+02 -.178E+02 -.183E+03   -.106E+01 -.109E+01 -.241E+01   0.352E-04 0.636E-04 -.177E-03
   0.188E+02 0.190E+02 0.186E+03   -.178E+02 -.179E+02 -.183E+03   -.106E+01 -.109E+01 -.239E+01   -.447E-04 0.110E-03 0.360E-03
   0.191E+02 0.189E+02 0.185E+03   -.181E+02 -.179E+02 -.183E+03   -.106E+01 -.108E+01 -.241E+01   0.564E-04 0.101E-03 -.100E-03
   -.188E+02 -.190E+02 0.185E+03   0.177E+02 0.179E+02 -.183E+03   0.106E+01 0.109E+01 -.240E+01   0.639E-04 -.205E-03 -.269E-04
   -.189E+02 -.189E+02 0.185E+03   0.179E+02 0.178E+02 -.183E+03   0.107E+01 0.108E+01 -.240E+01   0.504E-04 -.890E-04 -.151E-04
   -.189E+02 -.188E+02 0.185E+03   0.178E+02 0.177E+02 -.183E+03   0.107E+01 0.109E+01 -.241E+01   0.545E-04 -.140E-03 -.135E-03
   -.189E+02 -.189E+02 0.185E+03   0.178E+02 0.178E+02 -.183E+03   0.106E+01 0.109E+01 -.241E+01   -.305E-04 -.191E-03 -.189E-03
   0.190E+02 -.190E+02 -.185E+03   -.179E+02 0.179E+02 0.183E+03   -.106E+01 0.108E+01 0.241E+01   0.522E-04 -.212E-03 0.145E-03
   0.188E+02 -.189E+02 -.185E+03   -.178E+02 0.178E+02 0.183E+03   -.107E+01 0.108E+01 0.241E+01   -.600E-04 -.148E-03 0.528E-03
   0.199E+02 -.182E+02 -.184E+03   -.188E+02 0.171E+02 0.182E+03   -.106E+01 0.109E+01 0.241E+01   0.284E-03 0.112E-03 0.271E-03
   0.186E+02 -.188E+02 -.185E+03   -.175E+02 0.177E+02 0.183E+03   -.107E+01 0.109E+01 0.241E+01   -.260E-03 -.117E-03 0.407E-03
   -.189E+02 0.189E+02 -.185E+03   0.178E+02 -.178E+02 0.183E+03   0.107E+01 -.108E+01 0.241E+01   0.836E-04 0.940E-04 0.201E-03
   -.199E+02 0.180E+02 -.184E+03   0.189E+02 -.169E+02 0.182E+03   0.105E+01 -.109E+01 0.243E+01   -.335E-03 -.198E-03 0.921E-03
   -.190E+02 0.190E+02 -.185E+03   0.179E+02 -.179E+02 0.183E+03   0.106E+01 -.108E+01 0.241E+01   -.876E-04 0.765E-04 0.182E-03
   -.191E+02 0.191E+02 -.185E+03   0.180E+02 -.180E+02 0.183E+03   0.106E+01 -.108E+01 0.241E+01   -.562E-04 0.205E-03 0.151E-03
   0.160E+01 0.734E+00 0.206E+03   -.159E+01 -.717E+00 -.208E+03   -.348E-01 -.265E-01 0.209E+01   0.123E-02 -.137E-03 -.457E-02
   -.150E+00 -.710E-01 0.209E+03   0.152E+00 0.685E-01 -.211E+03   -.121E-02 0.251E-02 0.206E+01   -.140E-03 -.401E-04 -.555E-03
   0.665E-01 -.710E-01 0.209E+03   -.689E-01 0.685E-01 -.211E+03   0.195E-02 0.241E-02 0.206E+01   0.117E-03 0.146E-04 -.568E-03
   -.158E-01 -.699E-01 0.209E+03   0.166E-01 0.685E-01 -.211E+03   -.476E-03 0.174E-02 0.206E+01   -.163E-03 -.233E-03 -.652E-03
   -.563E-01 0.105E+00 0.199E+03   0.640E-01 -.115E+00 -.201E+03   -.656E-02 0.854E-02 0.205E+01   -.279E-03 0.110E-04 -.884E-03
   -.508E-01 -.205E+00 0.199E+03   0.687E-01 0.221E+00 -.201E+03   -.145E-01 -.131E-01 0.206E+01   -.172E-03 -.149E-03 -.847E-03
   -.660E-01 -.221E+00 0.199E+03   0.640E-01 0.217E+00 -.201E+03   0.265E-02 0.474E-02 0.206E+01   -.211E-03 -.161E-03 -.738E-03
   -.721E-01 0.120E+00 0.199E+03   0.687E-01 -.119E+00 -.201E+03   0.359E-02 -.124E-02 0.205E+01   0.329E-05 0.783E-04 -.888E-03
   -.576E+00 -.433E-01 -.198E+03   0.589E+00 0.512E-01 0.201E+03   -.997E-02 -.607E-02 -.205E+01   -.272E-03 -.551E-04 0.834E-03
   0.417E+00 -.597E-01 -.199E+03   -.427E+00 0.512E-01 0.201E+03   0.747E-02 0.720E-02 -.205E+01   0.403E-03 0.323E-04 0.668E-03
   -.783E-01 -.552E-01 -.199E+03   0.795E-01 0.512E-01 0.201E+03   -.112E-02 0.339E-02 -.206E+01   0.663E-04 0.384E-04 0.616E-03
   0.297E-01 -.513E-01 -.199E+03   -.297E-01 0.512E-01 0.201E+03   -.135E-03 0.549E-03 -.206E+01   0.179E-04 -.970E-04 0.561E-03
   -.386E-01 -.358E-01 -.209E+03   0.420E-01 0.338E-01 0.211E+03   -.269E-02 0.195E-02 -.206E+01   -.120E-03 0.488E-04 0.493E-03
   0.252E-01 0.406E+00 -.209E+03   -.364E-01 -.421E+00 0.211E+03   0.905E-02 0.125E-01 -.205E+01   0.828E-04 0.295E-03 0.748E-03
   -.424E-01 -.105E+00 -.209E+03   0.420E-01 0.103E+00 0.211E+03   0.116E-03 0.157E-02 -.206E+01   0.546E-04 -.291E-04 0.544E-03
   0.414E-01 -.551E+00 -.208E+03   -.364E-01 0.558E+00 0.211E+03   -.407E-02 -.426E-02 -.206E+01   0.746E-04 -.413E-03 0.731E-03
 -----------------------------------------------------------------------------------------------
   0.771E-01 0.634E-01 -.148E-01   -.271E-12 -.843E-13 0.398E-12   -.775E-01 -.633E-01 0.173E-01   0.441E-03 -.122E-02 -.271E-02
 
 
 POSITION                                       TOTAL-FORCE (eV/Angst)
 -----------------------------------------------------------------------------------
      2.77841      5.21785      1.58925         0.004090      0.000577      0.003259
      8.33453      5.21785      1.58910         0.003184     -0.001450      0.003226
      2.77841     10.77658      1.58925         0.000090     -0.000106      0.000303
      8.33453     10.77658      1.58910         0.000080      0.000251      0.000342
      0.00058      2.43861      1.89560        -0.002190      0.001139      0.003181
      5.55670      2.43861      1.89545         0.000307      0.000033      0.000375
      0.00058      7.99734      1.89560        -0.000397     -0.000797      0.002899
      5.55670      7.99734      1.89545        -0.000035     -0.000001      0.000417
      2.78043      5.21797      8.30298         0.000172     -0.000048     -0.000209
      8.33655      5.21797      8.30283        -0.000242      0.000258     -0.003286
      2.78043     10.77670      8.30298         0.000021      0.000045     -0.000371
      8.33655     10.77670      8.30283         0.000024     -0.000072     -0.000193
      0.00259      2.43849      8.60933         0.001095     -0.000988     -0.001897
      5.55871      2.43849      8.60919        -0.000363     -0.000127      0.000026
      0.00259      7.99722      8.60933         0.000177      0.000314     -0.000281
      5.55871      7.99722      8.60919        -0.000627      0.000672     -0.001364
     -1.37640      1.05960      8.18451        -0.000184      0.001642      0.001826
      4.17971      1.05960      8.18437         0.000151     -0.000172      0.000294
     -1.37640      6.61833      8.18451        -0.000397     -0.001180      0.002905
      4.17971      6.61833      8.18437         0.001123     -0.000084      0.001263
      1.38116      3.81753      8.18442        -0.001744      0.000348      0.001827
      6.93728      3.81753      8.18427         0.001162      0.000480      0.002121
      1.38116      9.37626      8.18442        -0.000022      0.000026      0.000533
      6.93728      9.37626      8.18427        -0.000036     -0.000895      0.000992
      1.39985      1.03817      2.01416         0.000683      0.000640     -0.001659
      6.95597      1.03817      2.01401        -0.000625     -0.000759     -0.000288
      1.39985      6.59689      2.01416         0.000438     -0.001420     -0.007338
      6.95597      6.59689      2.01401        -0.000104      0.000474     -0.001615
      4.15741      3.83897      2.01406        -0.001017     -0.000344     -0.001876
      9.71353      3.83897      2.01392         0.014000      0.012279     -0.008387
      4.15741      9.39769      2.01406        -0.000129      0.000039     -0.000487
      9.71353      9.39769      2.01392        -0.000277     -0.000087     -0.001618
      1.40044      3.83812      3.78391         0.002487     -0.001178      0.001257
      6.95656      3.83812      3.78377        -0.001096     -0.000431      0.000648
      1.40044      9.39685      3.78391         0.000266     -0.000103     -0.000206
      6.95656      9.39685      3.78377        -0.000502      0.000211     -0.000029
      4.15774      1.03891      3.78384         0.000223     -0.000195     -0.000049
      9.71386      1.03891      3.78369         0.000027     -0.000755      0.000641
      4.15774      6.59764      3.78384         0.000109      0.000471     -0.000031
      9.71386      6.59764      3.78369        -0.001454      0.002161      0.003405
     -1.37674      3.81828      6.41474        -0.000409     -0.000299      0.002312
      4.17938      3.81828      6.41460         0.000512      0.000187      0.000904
     -1.37674      9.37700      6.41474        -0.000105      0.000867      0.001236
      4.17938      9.37700      6.41460        -0.000010      0.000135      0.000151
      1.38057      1.05876      6.41466         0.000027     -0.000578      0.000790
      6.93668      1.05876      6.41452         0.000068     -0.000107      0.000524
      1.38057      6.61748      6.41466         0.000466      0.000074      0.001184
      6.93668      6.61748      6.41452        -0.000708     -0.000185      0.001498
      1.38227      3.82822      0.00001         0.008587     -0.007603     -0.009293
      6.93839      3.82822     -0.00014        -0.000306      0.000409     -0.000806
      1.38227      9.38694      0.00001        -0.000307     -0.000382     -0.000157
      6.93839      9.38694     -0.00014         0.000477     -0.000602     -0.000009
      1.39874      1.04885     10.19857        -0.000799      0.000667     -0.000072
      6.95485      1.04885     10.19843         0.000694     -0.000095     -0.001041
      1.39874      6.60758     10.19857        -0.000633     -0.000619     -0.000364
      6.95485      6.60758     10.19843        -0.003506      0.004694     -0.006791
     -1.25763      1.18232      6.18371        -0.000087     -0.000046     -0.000970
      4.29848      1.18232      6.18356        -0.000381      0.000161     -0.000127
     -1.25763      6.74104      6.18371        -0.000863      0.000434     -0.004455
      4.29848      6.74104      6.18356        -0.000222     -0.000086     -0.000411
      1.26131      3.69462      6.18369         0.000687     -0.000238     -0.002769
      6.81742      3.69462      6.18354         0.000035      0.000127     -0.001294
      1.26131      9.25335      6.18369        -0.000024     -0.000073     -0.000089
      6.81742      9.25335      6.18354         0.000352     -0.000167     -0.000490
      1.51970      0.91526      4.01489        -0.000295      0.001210      0.000373
      7.07582      0.91526      4.01474        -0.000023      0.000113     -0.000467
      1.51970      6.47399      4.01489        -0.004933     -0.004008     -0.003500
      7.07582      6.47399      4.01474         0.002078      0.000026      0.000141
      4.03864      3.96168      4.01487        -0.001163     -0.000265      0.000618
      9.59476      3.96168      4.01472         0.005097      0.005071     -0.010246
      4.03864      9.52041      4.01487         0.000317      0.000044     -0.000085
      9.59476      9.52041      4.01472         0.000208     -0.001614      0.000367
      0.00298      5.21813      1.56067        -0.027861     -0.010467      0.035512
      5.55647      5.21813      1.57017         0.000454     -0.000019      0.000570
      0.00035     10.77686      1.57032        -0.000364     -0.000056      0.000588
      5.55647     10.77686      1.57017         0.000225      0.000162      0.000908
      2.77849      2.43869      1.57537         0.000897     -0.000914      0.003792
      8.33461      2.43869      1.57522         0.003160      0.003234      0.001177
      2.77849      7.99742      1.57537         0.000444      0.000359      0.000426
      8.33461      7.99742      1.57522         0.000175     -0.000271      0.003605
      0.00252      5.21805      8.62321         0.002410      0.001744     -0.003581
      5.55864      5.21805      8.62307        -0.001979     -0.001295     -0.002316
      0.00252     10.77678      8.62321         0.000164     -0.000545     -0.000601
      5.55864     10.77678      8.62307        -0.000082      0.000369     -0.000195
      2.78066      2.43877      8.62826         0.000578      0.000036     -0.000385
      8.33677      2.43877      8.62811        -0.002131     -0.002410     -0.003463
      2.78066      7.99750      8.62826        -0.000302      0.000099     -0.000634
      8.33677      7.99750      8.62811         0.000916      0.001855     -0.002625
 -----------------------------------------------------------------------------------
    total drift:                                0.000019     -0.001123     -0.000262


--------------------------------------------------------------------------------------------------------



  FREE ENERGIE OF THE ION-ELECTRON SYSTEM (eV)
  ---------------------------------------------------
  free  energy   TOTEN  =      -489.21522873 eV

  energy  without entropy=     -489.21522873  energy(sigma->0) =     -489.21522873
 


--------------------------------------------------------------------------------------------------------


    POTLOK:  cpu time    3.2926: real time    3.4070


--------------------------------------------------------------------------------------------------------


     LOOP+:  cpu time 6559.1360: real time 6616.7084
    4ORBIT:  cpu time    0.0000: real time    0.0000

 total amount of memory used by VASP MPI-rank0  1233264. kBytes
=======================================================================

   base      :      30000. kBytes
   nonl-proj :      75226. kBytes
   fftplans  :      85054. kBytes
   grid      :      64684. kBytes
   one-center:        466. kBytes
   wavefun   :     977834. kBytes
 
  
  
 General timing and accounting informations for this job:
 ========================================================
  
                  Total CPU time used (sec):     6656.525
                            User time (sec):     6587.941
                          System time (sec):       68.584
                         Elapsed time (sec):     6716.066
  
                   Maximum memory used (kb):     1433888.
                   Average memory used (kb):           0.
  
                          Minor page faults:       843001
                          Major page faults:            8
                 Voluntary context switches:        64924
