  24  24   0   0
  0.1325381E+02  0.7732111E-09  0.4048303E-09  0.1054520E-08  0.5000000E-15
  1.000000000000000E-004
  CAR 
 unknown system                          
     22.32335485    -55.12311404  301      5.09151553      1.00000000
    -55.123  0.0000E+00  0.0000E+00  0.0000E+00  0.0000E+00
    -54.865  0.0000E+00  0.0000E+00  0.0000E+00  0.0000E+00
    -54.607  0.0000E+00  0.0000E+00  0.0000E+00  0.0000E+00
    -54.349  0.0000E+00  0.0000E+00  0.0000E+00  0.0000E+00
    -54.090  0.0000E+00  0.0000E+00  0.0000E+00  0.0000E+00
    -53.832  0.0000E+00  0.0000E+00  0.0000E+00  0.0000E+00
    -53.574  0.0000E+00  0.0000E+00  0.0000E+00  0.0000E+00
    -53.316  0.0000E+00  0.0000E+00  0.0000E+00  0.0000E+00
    -53.058  0.0000E+00  0.0000E+00  0.0000E+00  0.0000E+00
    -52.800  0.0000E+00  0.0000E+00  0.0000E+00  0.0000E+00
    -52.542  0.0000E+00  0.0000E+00  0.0000E+00  0.0000E+00
    -52.283  0.0000E+00  0.0000E+00  0.0000E+00  0.0000E+00
    -52.025  0.0000E+00  0.0000E+00  0.0000E+00  0.0000E+00
    -51.767  0.1264E-04  0.0000E+00  0.3264E-05  0.0000E+00
    -51.509  0.7754E+01  0.0000E+00  0.2002E+01  0.0000E+00
    -51.251  0.1477E+02  0.0000E+00  0.5814E+01  0.0000E+00
    -50.993  0.7199E+00  0.0000E+00  0.6000E+01  0.0000E+00
    -50.734  0.0000E+00  0.0000E+00  0.6000E+01  0.0000E+00
    -50.476  0.0000E+00  0.0000E+00  0.6000E+01  0.0000E+00
    -50.218  0.3288E+00  0.0000E+00  0.6085E+01  0.0000E+00
    -49.960  0.2255E+02  0.0000E+00  0.1191E+02  0.0000E+00
    -49.702  0.2360E+02  0.0000E+00  0.1800E+02  0.0000E+00
    -49.444  0.0000E+00  0.0000E+00  0.1800E+02  0.0000E+00
    -49.186  0.0000E+00  0.0000E+00  0.1800E+02  0.0000E+00
    -48.927  0.0000E+00  0.0000E+00  0.1800E+02  0.0000E+00
    -48.669  0.0000E+00  0.0000E+00  0.1800E+02  0.0000E+00
    -48.411  0.0000E+00  0.0000E+00  0.1800E+02  0.0000E+00
    -48.153  0.0000E+00  0.0000E+00  0.1800E+02  0.0000E+00
    -47.895  0.0000E+00  0.0000E+00  0.1800E+02  0.0000E+00
    -47.637  0.0000E+00  0.0000E+00  0.1800E+02  0.0000E+00
    -47.378  0.0000E+00  0.0000E+00  0.1800E+02  0.0000E+00
    -47.120  0.0000E+00  0.4270E-12  0.1800E+02  0.1102E-12
    -46.862  0.0000E+00  0.3484E+01  0.1800E+02  0.8994E+00
    -46.604  0.0000E+00  0.1147E+02  0.1800E+02  0.3861E+01
    -46.346  0.0000E+00  0.2152E+02  0.1800E+02  0.9415E+01
    -46.088  0.0000E+00  0.3248E+02  0.1800E+02  0.1780E+02
    -45.830  0.0000E+00  0.7742E+00  0.1800E+02  0.1800E+02
    -45.571  0.0000E+00  0.0000E+00  0.1800E+02  0.1800E+02
    -45.313  0.0000E+00  0.0000E+00  0.1800E+02  0.1800E+02
    -45.055  0.0000E+00  0.0000E+00  0.1800E+02  0.1800E+02
    -44.797  0.0000E+00  0.0000E+00  0.1800E+02  0.1800E+02
    -44.539  0.0000E+00  0.0000E+00  0.1800E+02  0.1800E+02
    -44.281  0.0000E+00  0.0000E+00  0.1800E+02  0.1800E+02
    -44.022  0.0000E+00  0.0000E+00  0.1800E+02  0.1800E+02
    -43.764  0.0000E+00  0.0000E+00  0.1800E+02  0.1800E+02
    -43.506  0.0000E+00  0.0000E+00  0.1800E+02  0.1800E+02
    -43.248  0.0000E+00  0.0000E+00  0.1800E+02  0.1800E+02
    -42.990  0.0000E+00  0.0000E+00  0.1800E+02  0.1800E+02
    -42.732  0.0000E+00  0.0000E+00  0.1800E+02  0.1800E+02
    -42.474  0.0000E+00  0.0000E+00  0.1800E+02  0.1800E+02
    -42.215  0.0000E+00  0.0000E+00  0.1800E+02  0.1800E+02
    -41.957  0.0000E+00  0.0000E+00  0.1800E+02  0.1800E+02
    -41.699  0.0000E+00  0.0000E+00  0.1800E+02  0.1800E+02
    -41.441  0.0000E+00  0.0000E+00  0.1800E+02  0.1800E+02
    -41.183  0.0000E+00  0.0000E+00  0.1800E+02  0.1800E+02
    -40.925  0.0000E+00  0.0000E+00  0.1800E+02  0.1800E+02
    -40.666  0.1320E-04  0.5846E-05  0.1800E+02  0.1800E+02
    -40.408  0.7716E+01  0.7697E+01  0.1999E+02  0.1999E+02
    -40.150  0.7938E+01  0.7990E+01  0.2204E+02  0.2205E+02
    -39.892  0.1533E+02  0.1530E+02  0.2600E+02  0.2600E+02
    -39.634  0.1201E-02  0.1204E-02  0.2600E+02  0.2600E+02
    -39.376  0.0000E+00  0.0000E+00  0.2600E+02  0.2600E+02
    -39.118  0.0000E+00  0.0000E+00  0.2600E+02  0.2600E+02
    -38.859  0.0000E+00  0.0000E+00  0.2600E+02  0.2600E+02
    -38.601  0.0000E+00  0.0000E+00  0.2600E+02  0.2600E+02
    -38.343  0.0000E+00  0.0000E+00  0.2600E+02  0.2600E+02
    -38.085  0.0000E+00  0.0000E+00  0.2600E+02  0.2600E+02
    -37.827  0.0000E+00  0.0000E+00  0.2600E+02  0.2600E+02
    -37.569  0.0000E+00  0.0000E+00  0.2600E+02  0.2600E+02
    -37.310  0.0000E+00  0.0000E+00  0.2600E+02  0.2600E+02
    -37.052  0.0000E+00  0.0000E+00  0.2600E+02  0.2600E+02
    -36.794  0.0000E+00  0.0000E+00  0.2600E+02  0.2600E+02
    -36.536  0.0000E+00  0.0000E+00  0.2600E+02  0.2600E+02
    -36.278  0.0000E+00  0.0000E+00  0.2600E+02  0.2600E+02
    -36.020  0.0000E+00  0.0000E+00  0.2600E+02  0.2600E+02
    -35.761  0.0000E+00  0.0000E+00  0.2600E+02  0.2600E+02
    -35.503  0.0000E+00  0.0000E+00  0.2600E+02  0.2600E+02
    -35.245  0.0000E+00  0.0000E+00  0.2600E+02  0.2600E+02
    -34.987  0.0000E+00  0.0000E+00  0.2600E+02  0.2600E+02
    -34.729  0.0000E+00  0.0000E+00  0.2600E+02  0.2600E+02
    -34.471  0.0000E+00  0.0000E+00  0.2600E+02  0.2600E+02
    -34.213  0.0000E+00  0.0000E+00  0.2600E+02  0.2600E+02
    -33.954  0.0000E+00  0.0000E+00  0.2600E+02  0.2600E+02
    -33.696  0.0000E+00  0.0000E+00  0.2600E+02  0.2600E+02
    -33.438  0.0000E+00  0.0000E+00  0.2600E+02  0.2600E+02
    -33.180  0.0000E+00  0.0000E+00  0.2600E+02  0.2600E+02
    -32.922  0.0000E+00  0.0000E+00  0.2600E+02  0.2600E+02
    -32.664  0.0000E+00  0.0000E+00  0.2600E+02  0.2600E+02
    -32.405  0.0000E+00  0.0000E+00  0.2600E+02  0.2600E+02
    -32.147  0.0000E+00  0.0000E+00  0.2600E+02  0.2600E+02
    -31.889  0.0000E+00  0.0000E+00  0.2600E+02  0.2600E+02
    -31.631  0.0000E+00  0.0000E+00  0.2600E+02  0.2600E+02
    -31.373  0.0000E+00  0.0000E+00  0.2600E+02  0.2600E+02
    -31.115  0.0000E+00  0.0000E+00  0.2600E+02  0.2600E+02
    -30.857  0.0000E+00  0.0000E+00  0.2600E+02  0.2600E+02
    -30.598  0.0000E+00  0.0000E+00  0.2600E+02  0.2600E+02
    -30.340  0.0000E+00  0.0000E+00  0.2600E+02  0.2600E+02
    -30.082  0.0000E+00  0.0000E+00  0.2600E+02  0.2600E+02
    -29.824  0.0000E+00  0.0000E+00  0.2600E+02  0.2600E+02
    -29.566  0.0000E+00  0.0000E+00  0.2600E+02  0.2600E+02
    -29.308  0.0000E+00  0.0000E+00  0.2600E+02  0.2600E+02
    -29.049  0.0000E+00  0.0000E+00  0.2600E+02  0.2600E+02
    -28.791  0.0000E+00  0.0000E+00  0.2600E+02  0.2600E+02
    -28.533  0.0000E+00  0.0000E+00  0.2600E+02  0.2600E+02
    -28.275  0.0000E+00  0.0000E+00  0.2600E+02  0.2600E+02
    -28.017  0.0000E+00  0.0000E+00  0.2600E+02  0.2600E+02
    -27.759  0.0000E+00  0.0000E+00  0.2600E+02  0.2600E+02
    -27.501  0.0000E+00  0.0000E+00  0.2600E+02  0.2600E+02
    -27.242  0.0000E+00  0.0000E+00  0.2600E+02  0.2600E+02
    -26.984  0.0000E+00  0.0000E+00  0.2600E+02  0.2600E+02
    -26.726  0.0000E+00  0.0000E+00  0.2600E+02  0.2600E+02
    -26.468  0.0000E+00  0.0000E+00  0.2600E+02  0.2600E+02
    -26.210  0.0000E+00  0.0000E+00  0.2600E+02  0.2600E+02
    -25.952  0.0000E+00  0.0000E+00  0.2600E+02  0.2600E+02
    -25.693  0.0000E+00  0.0000E+00  0.2600E+02  0.2600E+02
    -25.435  0.0000E+00  0.0000E+00  0.2600E+02  0.2600E+02
    -25.177  0.0000E+00  0.0000E+00  0.2600E+02  0.2600E+02
    -24.919  0.0000E+00  0.0000E+00  0.2600E+02  0.2600E+02
    -24.661  0.0000E+00  0.0000E+00  0.2600E+02  0.2600E+02
    -24.403  0.0000E+00  0.0000E+00  0.2600E+02  0.2600E+02
    -24.145  0.0000E+00  0.0000E+00  0.2600E+02  0.2600E+02
    -23.886  0.0000E+00  0.0000E+00  0.2600E+02  0.2600E+02
    -23.628  0.0000E+00  0.0000E+00  0.2600E+02  0.2600E+02
    -23.370  0.0000E+00  0.0000E+00  0.2600E+02  0.2600E+02
    -23.112  0.0000E+00  0.0000E+00  0.2600E+02  0.2600E+02
    -22.854  0.0000E+00  0.0000E+00  0.2600E+02  0.2600E+02
    -22.596  0.0000E+00  0.0000E+00  0.2600E+02  0.2600E+02
    -22.337  0.0000E+00  0.0000E+00  0.2600E+02  0.2600E+02
    -22.079  0.0000E+00  0.0000E+00  0.2600E+02  0.2600E+02
    -21.821  0.0000E+00  0.0000E+00  0.2600E+02  0.2600E+02
    -21.563  0.0000E+00  0.0000E+00  0.2600E+02  0.2600E+02
    -21.305  0.0000E+00  0.0000E+00  0.2600E+02  0.2600E+02
    -21.047  0.0000E+00  0.0000E+00  0.2600E+02  0.2600E+02
    -20.789  0.0000E+00  0.0000E+00  0.2600E+02  0.2600E+02
    -20.530  0.0000E+00  0.0000E+00  0.2600E+02  0.2600E+02
    -20.272  0.0000E+00  0.0000E+00  0.2600E+02  0.2600E+02
    -20.014  0.0000E+00  0.0000E+00  0.2600E+02  0.2600E+02
    -19.756  0.0000E+00  0.0000E+00  0.2600E+02  0.2600E+02
    -19.498  0.0000E+00  0.0000E+00  0.2600E+02  0.2600E+02
    -19.240  0.0000E+00  0.0000E+00  0.2600E+02  0.2600E+02
    -18.981  0.0000E+00  0.0000E+00  0.2600E+02  0.2600E+02
    -18.723  0.0000E+00  0.0000E+00  0.2600E+02  0.2600E+02
    -18.465  0.0000E+00  0.0000E+00  0.2600E+02  0.2600E+02
    -18.207  0.0000E+00  0.0000E+00  0.2600E+02  0.2600E+02
    -17.949  0.0000E+00  0.0000E+00  0.2600E+02  0.2600E+02
    -17.691  0.0000E+00  0.0000E+00  0.2600E+02  0.2600E+02
    -17.432  0.0000E+00  0.0000E+00  0.2600E+02  0.2600E+02
    -17.174  0.0000E+00  0.0000E+00  0.2600E+02  0.2600E+02
    -16.916  0.0000E+00  0.0000E+00  0.2600E+02  0.2600E+02
    -16.658  0.0000E+00  0.0000E+00  0.2600E+02  0.2600E+02
    -16.400  0.0000E+00  0.0000E+00  0.2600E+02  0.2600E+02
    -16.142  0.0000E+00  0.0000E+00  0.2600E+02  0.2600E+02
    -15.884  0.0000E+00  0.0000E+00  0.2600E+02  0.2600E+02
    -15.625  0.0000E+00  0.0000E+00  0.2600E+02  0.2600E+02
    -15.367  0.0000E+00  0.0000E+00  0.2600E+02  0.2600E+02
    -15.109  0.0000E+00  0.0000E+00  0.2600E+02  0.2600E+02
    -14.851  0.0000E+00  0.0000E+00  0.2600E+02  0.2600E+02
    -14.593  0.0000E+00  0.0000E+00  0.2600E+02  0.2600E+02
    -14.335  0.0000E+00  0.0000E+00  0.2600E+02  0.2600E+02
    -14.076  0.0000E+00  0.0000E+00  0.2600E+02  0.2600E+02
    -13.818  0.1280E+00  0.0000E+00  0.2603E+02  0.2600E+02
    -13.560  0.5259E+01  0.7327E-06  0.2739E+02  0.2600E+02
    -13.302  0.2364E+01  0.3568E+01  0.2800E+02  0.2692E+02
    -13.044  0.4002E+01  0.4179E+01  0.2903E+02  0.2800E+02
    -12.786  0.3741E+01  0.4054E+01  0.3000E+02  0.2905E+02
    -12.528  0.1466E-03  0.3694E+01  0.3000E+02  0.3000E+02
    -12.269  0.0000E+00  0.0000E+00  0.3000E+02  0.3000E+02
    -12.011  0.0000E+00  0.0000E+00  0.3000E+02  0.3000E+02
    -11.753  0.0000E+00  0.0000E+00  0.3000E+02  0.3000E+02
    -11.495  0.0000E+00  0.0000E+00  0.3000E+02  0.3000E+02
    -11.237  0.0000E+00  0.0000E+00  0.3000E+02  0.3000E+02
    -10.979  0.0000E+00  0.0000E+00  0.3000E+02  0.3000E+02
    -10.720  0.0000E+00  0.0000E+00  0.3000E+02  0.3000E+02
    -10.462  0.0000E+00  0.0000E+00  0.3000E+02  0.3000E+02
    -10.204  0.0000E+00  0.0000E+00  0.3000E+02  0.3000E+02
     -9.946  0.0000E+00  0.0000E+00  0.3000E+02  0.3000E+02
     -9.688  0.0000E+00  0.0000E+00  0.3000E+02  0.3000E+02
     -9.430  0.0000E+00  0.0000E+00  0.3000E+02  0.3000E+02
     -9.172  0.0000E+00  0.0000E+00  0.3000E+02  0.3000E+02
     -8.913  0.0000E+00  0.0000E+00  0.3000E+02  0.3000E+02
     -8.655  0.0000E+00  0.0000E+00  0.3000E+02  0.3000E+02
     -8.397  0.0000E+00  0.0000E+00  0.3000E+02  0.3000E+02
     -8.139  0.0000E+00  0.0000E+00  0.3000E+02  0.3000E+02
     -7.881  0.3533E-02  0.1408E-15  0.3000E+02  0.3000E+02
     -7.623  0.1959E+01  0.4355E-01  0.3051E+02  0.3001E+02
     -7.364  0.4921E+01  0.2604E+01  0.3178E+02  0.3068E+02
     -7.106  0.1116E+02  0.6482E+01  0.3466E+02  0.3236E+02
     -6.848  0.5194E+01  0.1080E+02  0.3600E+02  0.3515E+02
     -6.590  0.7223E-02  0.3308E+01  0.3600E+02  0.3600E+02
     -6.332  0.0000E+00  0.1568E-02  0.3600E+02  0.3600E+02
     -6.074  0.0000E+00  0.0000E+00  0.3600E+02  0.3600E+02
     -5.816  0.0000E+00  0.0000E+00  0.3600E+02  0.3600E+02
     -5.557  0.0000E+00  0.0000E+00  0.3600E+02  0.3600E+02
     -5.299  0.0000E+00  0.0000E+00  0.3600E+02  0.3600E+02
     -5.041  0.0000E+00  0.0000E+00  0.3600E+02  0.3600E+02
     -4.783  0.0000E+00  0.0000E+00  0.3600E+02  0.3600E+02
     -4.525  0.0000E+00  0.0000E+00  0.3600E+02  0.3600E+02
     -4.267  0.0000E+00  0.0000E+00  0.3600E+02  0.3600E+02
     -4.008  0.0000E+00  0.0000E+00  0.3600E+02  0.3600E+02
     -3.750  0.0000E+00  0.0000E+00  0.3600E+02  0.3600E+02
     -3.492  0.0000E+00  0.0000E+00  0.3600E+02  0.3600E+02
     -3.234  0.0000E+00  0.0000E+00  0.3600E+02  0.3600E+02
     -2.976  0.0000E+00  0.0000E+00  0.3600E+02  0.3600E+02
     -2.718  0.2311E-04  0.0000E+00  0.3600E+02  0.3600E+02
     -2.460  0.2203E+01  0.0000E+00  0.3657E+02  0.3600E+02
     -2.201  0.3777E+00  0.0000E+00  0.3667E+02  0.3600E+02
     -1.943  0.4050E+01  0.0000E+00  0.3771E+02  0.3600E+02
     -1.685  0.2011E+01  0.0000E+00  0.3823E+02  0.3600E+02
     -1.427  0.7129E+01  0.7168E-16  0.4007E+02  0.3600E+02
     -1.169  0.5647E+01  0.3428E-01  0.4153E+02  0.3601E+02
     -0.911  0.8735E+01  0.8707E+00  0.4378E+02  0.3623E+02
     -0.652  0.1501E+02  0.2764E+01  0.4766E+02  0.3695E+02
     -0.394  0.1534E+02  0.2723E+01  0.5162E+02  0.3765E+02
     -0.136  0.1510E+02  0.4200E+01  0.5552E+02  0.3873E+02
      0.122  0.1702E+02  0.7136E+01  0.5991E+02  0.4058E+02
      0.380  0.7937E+01  0.4558E+01  0.6196E+02  0.4175E+02
      0.638  0.6758E+01  0.7978E+01  0.6371E+02  0.4381E+02
      0.896  0.8522E+01  0.6820E+01  0.6591E+02  0.4557E+02
      1.155  0.8687E+01  0.1072E+02  0.6815E+02  0.4834E+02
      1.413  0.9835E+01  0.7429E+01  0.7069E+02  0.5026E+02
      1.671  0.1731E+02  0.7054E+01  0.7516E+02  0.5208E+02
      1.929  0.8459E+01  0.6349E+01  0.7734E+02  0.5372E+02
      2.187  0.6004E+01  0.6216E+01  0.7889E+02  0.5532E+02
      2.445  0.8138E+01  0.6338E+01  0.8099E+02  0.5696E+02
      2.704  0.7293E+01  0.9263E+01  0.8287E+02  0.5935E+02
      2.962  0.8040E+01  0.1021E+02  0.8495E+02  0.6199E+02
      3.220  0.6146E+01  0.9937E+01  0.8653E+02  0.6455E+02
      3.478  0.9058E+01  0.5384E+01  0.8887E+02  0.6594E+02
      3.736  0.8338E+01  0.7980E+01  0.9103E+02  0.6800E+02
      3.994  0.5709E+01  0.1443E+02  0.9250E+02  0.7173E+02
      4.253  0.6636E+01  0.1061E+01  0.9421E+02  0.7200E+02
      4.511  0.4654E+01  0.9159E-05  0.9541E+02  0.7200E+02
      4.769  0.2105E+01  0.0000E+00  0.9596E+02  0.7200E+02
      5.027  0.1652E+00  0.0000E+00  0.9600E+02  0.7200E+02
      5.285  0.0000E+00  0.0000E+00  0.9600E+02  0.7200E+02
      5.543  0.0000E+00  0.0000E+00  0.9600E+02  0.7200E+02
      5.801  0.0000E+00  0.0000E+00  0.9600E+02  0.7200E+02
      6.060  0.0000E+00  0.1267E-06  0.9600E+02  0.7200E+02
      6.318  0.0000E+00  0.2011E+00  0.9600E+02  0.7205E+02
      6.576  0.0000E+00  0.2889E+01  0.9600E+02  0.7280E+02
      6.834  0.0000E+00  0.6023E+01  0.9600E+02  0.7435E+02
      7.092  0.1475E-03  0.9761E+01  0.9600E+02  0.7687E+02
      7.350  0.4597E-01  0.1387E+02  0.9601E+02  0.8045E+02
      7.609  0.1463E-01  0.1144E+02  0.9602E+02  0.8341E+02
      7.867  0.5494E+00  0.1406E+02  0.9616E+02  0.8704E+02
      8.125  0.6255E+00  0.1249E+02  0.9632E+02  0.9026E+02
      8.383  0.1405E+01  0.9018E+01  0.9668E+02  0.9259E+02
      8.641  0.2444E+01  0.6322E+01  0.9731E+02  0.9422E+02
      8.899  0.3956E+01  0.5978E+01  0.9833E+02  0.9576E+02
      9.157  0.3664E+01  0.2781E+01  0.9928E+02  0.9648E+02
      9.416  0.4352E+01  0.2479E+01  0.1004E+03  0.9712E+02
      9.674  0.5148E+01  0.4220E+01  0.1017E+03  0.9821E+02
      9.932  0.4680E+01  0.5064E+01  0.1029E+03  0.9952E+02
     10.190  0.4298E+01  0.4453E+01  0.1040E+03  0.1007E+03
     10.448  0.3550E+01  0.6766E+01  0.1050E+03  0.1024E+03
     10.706  0.4558E+01  0.4229E+01  0.1061E+03  0.1035E+03
     10.965  0.6122E+01  0.4480E+01  0.1077E+03  0.1047E+03
     11.223  0.6089E+01  0.3495E+01  0.1093E+03  0.1056E+03
     11.481  0.5682E+01  0.4838E+01  0.1108E+03  0.1068E+03
     11.739  0.7394E+01  0.6527E+01  0.1127E+03  0.1085E+03
     11.997  0.7756E+01  0.7198E+01  0.1147E+03  0.1104E+03
     12.255  0.6467E+01  0.8744E+01  0.1163E+03  0.1126E+03
     12.513  0.5914E+01  0.7555E+01  0.1179E+03  0.1146E+03
     12.772  0.5908E+01  0.6626E+01  0.1194E+03  0.1163E+03
     13.030  0.5835E+01  0.6138E+01  0.1209E+03  0.1179E+03
     13.288  0.4473E+01  0.5826E+01  0.1221E+03  0.1194E+03
     13.546  0.5612E+01  0.5769E+01  0.1235E+03  0.1209E+03
     13.804  0.5961E+01  0.5306E+01  0.1250E+03  0.1222E+03
     14.062  0.4594E+01  0.5651E+01  0.1262E+03  0.1237E+03
     14.321  0.3581E+01  0.5032E+01  0.1272E+03  0.1250E+03
     14.579  0.3442E+01  0.4763E+01  0.1280E+03  0.1262E+03
     14.837  0.2451E+01  0.4255E+01  0.1287E+03  0.1273E+03
     15.095  0.3483E+01  0.2849E+01  0.1296E+03  0.1280E+03
     15.353  0.3270E+01  0.2413E+01  0.1304E+03  0.1287E+03
     15.611  0.4426E+01  0.3379E+01  0.1316E+03  0.1295E+03
     15.869  0.4449E+01  0.3735E+01  0.1327E+03  0.1305E+03
     16.128  0.4572E+01  0.4508E+01  0.1339E+03  0.1317E+03
     16.386  0.5069E+01  0.4325E+01  0.1352E+03  0.1328E+03
     16.644  0.5942E+01  0.5114E+01  0.1367E+03  0.1341E+03
     16.902  0.4963E+01  0.5141E+01  0.1380E+03  0.1354E+03
     17.160  0.5765E+01  0.5429E+01  0.1395E+03  0.1368E+03
     17.418  0.5144E+01  0.5643E+01  0.1408E+03  0.1383E+03
     17.677  0.4447E+01  0.5415E+01  0.1420E+03  0.1397E+03
     17.935  0.4333E+01  0.4865E+01  0.1431E+03  0.1409E+03
     18.193  0.3058E+01  0.4758E+01  0.1439E+03  0.1422E+03
     18.451  0.4116E+00  0.4469E+01  0.1440E+03  0.1433E+03
     18.709  0.3203E-01  0.2198E+01  0.1440E+03  0.1439E+03
     18.967  0.0000E+00  0.4086E+00  0.1440E+03  0.1440E+03
     19.225  0.0000E+00  0.0000E+00  0.1440E+03  0.1440E+03
     19.484  0.0000E+00  0.0000E+00  0.1440E+03  0.1440E+03
     19.742  0.0000E+00  0.0000E+00  0.1440E+03  0.1440E+03
     20.000  0.0000E+00  0.0000E+00  0.1440E+03  0.1440E+03
     20.258  0.0000E+00  0.0000E+00  0.1440E+03  0.1440E+03
     20.516  0.0000E+00  0.0000E+00  0.1440E+03  0.1440E+03
     20.774  0.0000E+00  0.0000E+00  0.1440E+03  0.1440E+03
     21.033  0.0000E+00  0.0000E+00  0.1440E+03  0.1440E+03
     21.291  0.0000E+00  0.0000E+00  0.1440E+03  0.1440E+03
     21.549  0.0000E+00  0.0000E+00  0.1440E+03  0.1440E+03
     21.807  0.0000E+00  0.0000E+00  0.1440E+03  0.1440E+03
     22.065  0.0000E+00  0.0000E+00  0.1440E+03  0.1440E+03
     22.323  0.0000E+00  0.0000E+00  0.1440E+03  0.1440E+03
