   24   24    1    2
  0.1325381E+02  0.7732111E-09  0.4048303E-09  0.1054520E-08  0.5000000E-15
  1.000000000000000E-004
  CAR 
 unknown system                          
    168     43    144
 
  0.0000000E+00  0.0000000E+00  0.0000000E+00  0.1190476E-01
    1      -51.602515    -46.857626   1.000000   1.000000
    2      -51.602168    -46.857163   1.000000   1.000000
    3      -51.417387    -46.650341   1.000000   1.000000
    4      -51.417380    -46.650338   1.000000   1.000000
    5      -51.297040    -46.532854   1.000000   1.000000
    6      -51.297025    -46.532845   1.000000   1.000000
    7      -50.156933    -46.398760   1.000000   1.000000
    8      -50.156551    -46.398280   1.000000   1.000000
    9      -50.066003    -46.372403   1.000000   1.000000
   10      -50.065421    -46.371652   1.000000   1.000000
   11      -49.961715    -46.241234   1.000000   1.000000
   12      -49.961702    -46.241221   1.000000   1.000000
   13      -49.952529    -46.234937   1.000000   1.000000
   14      -49.952525    -46.234927   1.000000   1.000000
   15      -49.888729    -46.155342   1.000000   1.000000
   16      -49.888722    -46.155341   1.000000   1.000000
   17      -49.847004    -46.139415   1.000000   1.000000
   18      -49.847000    -46.139410   1.000000   1.000000
   19      -40.504073    -40.498203   1.000000   1.000000
   20      -40.500371    -40.494544   1.000000   1.000000
   21      -40.257889    -40.258371   1.000000   1.000000
   22      -40.253810    -40.254301   1.000000   1.000000
   23      -40.080083    -40.082720   1.000000   1.000000
   24      -40.077912    -40.080560   1.000000   1.000000
   25      -40.019850    -40.019829   1.000000   1.000000
   26      -40.019437    -40.019419   1.000000   1.000000
   27      -13.777700    -13.392235   1.000000   1.000000
   28      -13.772073    -13.386084   1.000000   1.000000
   29      -13.206294    -12.893653   1.000000   1.000000
   30      -13.203903    -12.890578   1.000000   1.000000
   31       -7.821465     -7.604776   1.000000   1.000000
   32       -7.360142     -7.206344   1.000000   1.000000
   33       -7.324258     -7.098576   1.000000   1.000000
   34       -7.257950     -7.092965   1.000000   1.000000
   35       -7.232378     -7.004104   1.000000   1.000000
   36       -7.084506     -6.856485   1.000000   1.000000
   37       -1.394732     -0.252331   1.000000   1.000000
   38       -1.234338     -0.002273   1.000000   1.000000
   39       -1.001016      0.201102   1.000000   1.000000
   40       -0.987169      0.344452   1.000000   1.000000
   41       -0.955914      0.442786   1.000000   1.000000
   42       -0.892381      0.494710   1.000000   1.000000
   43       -0.719982      0.670407   1.000000   1.000000
   44       -0.628768      0.730024   1.000000   1.000000
   45       -0.474825      0.847571   1.000000   1.000000
   46       -0.470783      0.987144   1.000000   1.000000
   47       -0.454588      1.018146   1.000000   1.000000
   48       -0.292263      1.041476   1.000000   1.000000
   49       -0.226148      1.074460   1.000000   1.000000
   50       -0.187540      1.218795   1.000000   1.000000
   51       -0.135265      1.255402   1.000000   1.000000
   52       -0.132558      1.815065   1.000000   1.000000
   53       -0.091760      2.406765   1.000000   1.000000
   54       -0.089530      2.673258   1.000000   1.000000
   55       -0.049558      2.684548   1.000000   1.000000
   56       -0.012700      2.721559   1.000000   1.000000
   57       -0.005496      2.723174   1.000000   1.000000
   58        0.002365      2.864581   1.000000   1.000000
   59        0.004779      2.934575   1.000000   1.000000
   60        0.087578      2.937401   1.000000   1.000000
   61        0.427399      2.982518   1.000000   1.000000
   62        0.434123      3.086030   1.000000   1.000000
   63        0.516944      3.305758   1.000000   1.000000
   64        0.548561      3.339977   1.000000   1.000000
   65        0.556516      3.414373   1.000000   1.000000
   66        0.787620      3.620796   1.000000   1.000000
   67        0.833066      3.631625   1.000000   1.000000
   68        0.837315      3.754960   1.000000   1.000000
   69        0.872079      3.764600   1.000000   1.000000
   70        0.969412      3.812992   1.000000   1.000000
   71        1.011484      3.893206   1.000000   1.000000
   72        1.120191      3.913005   1.000000   1.000000
   73        1.262777      6.220284   1.000000   0.000000
   74        1.321519      6.369862   1.000000   0.000000
   75        1.330126      6.668427   1.000000   0.000000
   76        1.386272      6.695884   1.000000   0.000000
   77        1.476820      6.903867   1.000000   0.000000
   78        1.619778      6.991345   1.000000   0.000000
   79        1.942458      7.065111   1.000000   0.000000
   80        2.053597      7.080276   1.000000   0.000000
   81        2.450015      7.102886   1.000000   0.000000
   82        2.547515      7.114560   1.000000   0.000000
   83        2.571383      7.217396   1.000000   0.000000
   84        2.891421      7.350430   1.000000   0.000000
   85        3.194321      7.367438   1.000000   0.000000
   86        3.297254      7.516959   1.000000   0.000000
   87        3.364793      7.583361   1.000000   0.000000
   88        3.552283      7.682928   1.000000   0.000000
   89        3.585257      7.752084   1.000000   0.000000
   90        3.640644      7.803059   1.000000   0.000000
   91        3.662964      7.976676   1.000000   0.000000
   92        3.795123      8.293601   1.000000   0.000000
   93        3.851513      8.338545   1.000000   0.000000
   94        3.925208      8.369910   1.000000   0.000000
   95        4.129814      8.527063   1.000000   0.000000
   96        4.472932      8.682439   1.000000   0.000000
   97        7.188623      8.835893   0.000000   0.000000
   98        7.708758      8.962386   0.000000   0.000000
   99        8.447282      8.983623   0.000000   0.000000
  100        8.589187      9.189247   0.000000   0.000000
  101        8.695561      9.542799   0.000000   0.000000
  102        9.330514      9.729582   0.000000   0.000000
  103        9.538785      9.845801   0.000000   0.000000
  104        9.630019     10.251481   0.000000   0.000000
  105        9.791258     10.287394   0.000000   0.000000
  106       10.321119     10.774420   0.000000   0.000000
  107       10.339015     11.050347   0.000000   0.000000
  108       10.664594     11.107006   0.000000   0.000000
  109       10.727919     11.227934   0.000000   0.000000
  110       10.942359     11.632785   0.000000   0.000000
  111       11.056390     11.671626   0.000000   0.000000
  112       11.251610     11.953291   0.000000   0.000000
  113       11.599405     12.125489   0.000000   0.000000
  114       11.744561     12.184784   0.000000   0.000000
  115       11.856370     12.414521   0.000000   0.000000
  116       12.003103     12.497774   0.000000   0.000000
  117       12.099161     12.956854   0.000000   0.000000
  118       12.698200     13.243977   0.000000   0.000000
  119       13.301274     13.735721   0.000000   0.000000
  120       13.425635     13.772930   0.000000   0.000000
  121       13.557666     13.928746   0.000000   0.000000
  122       13.808453     14.346627   0.000000   0.000000
  123       13.921804     14.402975   0.000000   0.000000
  124       13.996531     14.410874   0.000000   0.000000
  125       14.027988     14.477569   0.000000   0.000000
  126       14.258255     14.716318   0.000000   0.000000
  127       14.349597     14.936031   0.000000   0.000000
  128       14.674039     15.390606   0.000000   0.000000
  129       14.797122     15.538875   0.000000   0.000000
  130       14.926758     15.603322   0.000000   0.000000
  131       15.297649     15.922076   0.000000   0.000000
  132       15.562087     16.033227   0.000000   0.000000
  133       15.643491     16.201042   0.000000   0.000000
  134       15.784626     16.277406   0.000000   0.000000
  135       15.980410     16.536988   0.000000   0.000000
  136       16.173545     16.799804   0.000000   0.000000
  137       16.317060     16.814827   0.000000   0.000000
  138       16.411182     17.026263   0.000000   0.000000
  139       16.411302     17.197841   0.000000   0.000000
  140       16.490512     17.238949   0.000000   0.000000
  141       16.797912     17.300411   0.000000   0.000000
  142       16.884347     17.332249   0.000000   0.000000
  143       17.126321     17.411535   0.000000   0.000000
  144       17.334646     17.641410   0.000000   0.000000
 
  0.2500000E+00 -0.8402567E-18  0.4336809E-18  0.2380952E-01
    1      -51.602507    -46.857620   1.000000   1.000000
    2      -51.602167    -46.857161   1.000000   1.000000
    3      -51.417391    -46.650350   1.000000   1.000000
    4      -51.417390    -46.650346   1.000000   1.000000
    5      -51.297044    -46.532860   1.000000   1.000000
    6      -51.297036    -46.532856   1.000000   1.000000
    7      -50.156944    -46.398768   1.000000   1.000000
    8      -50.156563    -46.398290   1.000000   1.000000
    9      -50.066011    -46.372412   1.000000   1.000000
   10      -50.065419    -46.371654   1.000000   1.000000
   11      -49.961710    -46.241234   1.000000   1.000000
   12      -49.961688    -46.241215   1.000000   1.000000
   13      -49.952534    -46.234941   1.000000   1.000000
   14      -49.952523    -46.234927   1.000000   1.000000
   15      -49.888732    -46.155352   1.000000   1.000000
   16      -49.888728    -46.155351   1.000000   1.000000
   17      -49.846996    -46.139413   1.000000   1.000000
   18      -49.846990    -46.139406   1.000000   1.000000
   19      -40.504082    -40.498212   1.000000   1.000000
   20      -40.500381    -40.494554   1.000000   1.000000
   21      -40.257666    -40.258147   1.000000   1.000000
   22      -40.254055    -40.254547   1.000000   1.000000
   23      -40.080086    -40.082723   1.000000   1.000000
   24      -40.077923    -40.080571   1.000000   1.000000
   25      -40.019874    -40.019852   1.000000   1.000000
   26      -40.019437    -40.019419   1.000000   1.000000
   27      -13.776742    -13.391163   1.000000   1.000000
   28      -13.772541    -13.386660   1.000000   1.000000
   29      -13.206132    -12.893374   1.000000   1.000000
   30      -13.204448    -12.891211   1.000000   1.000000
   31       -7.774306     -7.560091   1.000000   1.000000
   32       -7.411352     -7.221870   1.000000   1.000000
   33       -7.319593     -7.162836   1.000000   1.000000
   34       -7.273879     -7.039921   1.000000   1.000000
   35       -7.212294     -7.011009   1.000000   1.000000
   36       -7.107014     -6.885648   1.000000   1.000000
   37       -1.389645     -0.132297   1.000000   1.000000
   38       -1.251012      0.088772   1.000000   1.000000
   39       -1.000908      0.268455   1.000000   1.000000
   40       -0.956676      0.385986   1.000000   1.000000
   41       -0.903629      0.439914   1.000000   1.000000
   42       -0.845097      0.503488   1.000000   1.000000
   43       -0.657738      0.611831   1.000000   1.000000
   44       -0.607571      0.649192   1.000000   1.000000
   45       -0.488730      0.964313   1.000000   1.000000
   46       -0.471276      0.994852   1.000000   1.000000
   47       -0.453308      0.998781   1.000000   1.000000
   48       -0.336959      1.014566   1.000000   1.000000
   49       -0.224193      1.125552   1.000000   1.000000
   50       -0.180509      1.298916   1.000000   1.000000
   51       -0.166590      1.388412   1.000000   1.000000
   52       -0.120069      1.658179   1.000000   1.000000
   53       -0.109037      2.170046   1.000000   1.000000
   54       -0.078825      2.386885   1.000000   1.000000
   55       -0.057833      2.666013   1.000000   1.000000
   56       -0.019894      2.688762   1.000000   1.000000
   57        0.012402      2.724284   1.000000   1.000000
   58        0.030647      2.848526   1.000000   1.000000
   59        0.042710      2.909728   1.000000   1.000000
   60        0.087168      2.948628   1.000000   1.000000
   61        0.213798      2.970191   1.000000   1.000000
   62        0.559015      3.055880   1.000000   1.000000
   63        0.583904      3.244606   1.000000   1.000000
   64        0.617763      3.278294   1.000000   1.000000
   65        0.641969      3.503749   1.000000   1.000000
   66        0.660688      3.549965   1.000000   1.000000
   67        0.742883      3.566553   1.000000   1.000000
   68        0.794405      3.618320   1.000000   1.000000
   69        0.845881      3.789234   1.000000   1.000000
   70        0.933503      3.872889   1.000000   1.000000
   71        1.157247      3.932345   1.000000   1.000000
   72        1.184909      3.949275   1.000000   1.000000
   73        1.277439      6.305207   1.000000   0.000000
   74        1.313807      6.592273   1.000000   0.000000
   75        1.348233      6.654248   1.000000   0.000000
   76        1.413457      6.752784   1.000000   0.000000
   77        1.466890      6.938445   1.000000   0.000000
   78        1.590526      6.976895   1.000000   0.000000
   79        1.977086      7.011969   1.000000   0.000000
   80        2.073095      7.100580   1.000000   0.000000
   81        2.366652      7.136014   1.000000   0.000000
   82        2.501261      7.236177   1.000000   0.000000
   83        2.615348      7.276617   1.000000   0.000000
   84        2.934378      7.289756   1.000000   0.000000
   85        3.170327      7.357428   1.000000   0.000000
   86        3.198090      7.453639   1.000000   0.000000
   87        3.299877      7.563216   1.000000   0.000000
   88        3.366020      7.722950   1.000000   0.000000
   89        3.375622      7.758001   1.000000   0.000000
   90        3.521681      7.770109   1.000000   0.000000
   91        3.546970      8.116505   1.000000   0.000000
   92        3.749827      8.297350   1.000000   0.000000
   93        4.046314      8.363707   1.000000   0.000000
   94        4.047047      8.454955   1.000000   0.000000
   95        4.164568      8.481274   1.000000   0.000000
   96        4.205558      8.607345   1.000000   0.000000
   97        7.761095      8.681912   0.000000   0.000000
   98        7.887664      8.936894   0.000000   0.000000
   99        8.504277      8.985603   0.000000   0.000000
  100        8.776509      9.448295   0.000000   0.000000
  101        8.988454      9.528166   0.000000   0.000000
  102        9.483535      9.796982   0.000000   0.000000
  103        9.550204     10.013849   0.000000   0.000000
  104        9.709131     10.403192   0.000000   0.000000
  105        9.808984     10.638569   0.000000   0.000000
  106        9.970028     10.771055   0.000000   0.000000
  107       10.397477     10.914451   0.000000   0.000000
  108       10.886246     11.271986   0.000000   0.000000
  109       10.897434     11.533087   0.000000   0.000000
  110       11.135926     11.665243   0.000000   0.000000
  111       11.166795     11.722165   0.000000   0.000000
  112       11.228647     11.890315   0.000000   0.000000
  113       11.311842     12.156825   0.000000   0.000000
  114       11.745592     12.206248   0.000000   0.000000
  115       11.862285     12.314507   0.000000   0.000000
  116       12.131585     12.880152   0.000000   0.000000
  117       12.716737     13.140067   0.000000   0.000000
  118       12.822925     13.324972   0.000000   0.000000
  119       13.030756     13.498585   0.000000   0.000000
  120       13.170215     13.575738   0.000000   0.000000
  121       13.342196     13.686604   0.000000   0.000000
  122       13.487029     13.860389   0.000000   0.000000
  123       13.588377     14.083194   0.000000   0.000000
  124       13.611331     14.117057   0.000000   0.000000
  125       13.624784     14.224554   0.000000   0.000000
  126       13.657477     14.449268   0.000000   0.000000
  127       13.909821     14.601948   0.000000   0.000000
  128       14.177195     14.845229   0.000000   0.000000
  129       14.458058     14.847294   0.000000   0.000000
  130       14.486307     14.975307   0.000000   0.000000
  131       14.995361     15.486589   0.000000   0.000000
  132       15.400831     15.890752   0.000000   0.000000
  133       15.466397     16.126421   0.000000   0.000000
  134       15.660311     16.264999   0.000000   0.000000
  135       15.779121     16.377810   0.000000   0.000000
  136       15.885210     16.436978   0.000000   0.000000
  137       16.402256     16.809631   0.000000   0.000000
  138       16.613882     17.042794   0.000000   0.000000
  139       16.703391     17.252155   0.000000   0.000000
  140       17.142087     17.556723   0.000000   0.000000
  141       17.230254     17.620138   0.000000   0.000000
  142       17.300266     17.650948   0.000000   0.000000
  143       17.571789     18.031802   0.000000   0.000000
  144       17.580262     18.184436   0.000000   0.000000
 
  0.5000000E+00 -0.1680513E-17  0.8673617E-18  0.1190476E-01
    1      -51.602507    -46.857622   1.000000   1.000000
    2      -51.602167    -46.857163   1.000000   1.000000
    3      -51.417388    -46.650346   1.000000   1.000000
    4      -51.417387    -46.650345   1.000000   1.000000
    5      -51.297039    -46.532859   1.000000   1.000000
    6      -51.297033    -46.532852   1.000000   1.000000
    7      -50.156943    -46.398767   1.000000   1.000000
    8      -50.156558    -46.398287   1.000000   1.000000
    9      -50.066016    -46.372417   1.000000   1.000000
   10      -50.065418    -46.371657   1.000000   1.000000
   11      -49.961712    -46.241241   1.000000   1.000000
   12      -49.961690    -46.241217   1.000000   1.000000
   13      -49.952529    -46.234938   1.000000   1.000000
   14      -49.952520    -46.234928   1.000000   1.000000
   15      -49.888735    -46.155360   1.000000   1.000000
   16      -49.888728    -46.155357   1.000000   1.000000
   17      -49.846999    -46.139420   1.000000   1.000000
   18      -49.846988    -46.139407   1.000000   1.000000
   19      -40.504088    -40.498218   1.000000   1.000000
   20      -40.500377    -40.494550   1.000000   1.000000
   21      -40.257391    -40.257870   1.000000   1.000000
   22      -40.254336    -40.254830   1.000000   1.000000
   23      -40.080069    -40.082706   1.000000   1.000000
   24      -40.077936    -40.080584   1.000000   1.000000
   25      -40.019875    -40.019853   1.000000   1.000000
   26      -40.019439    -40.019422   1.000000   1.000000
   27      -13.775350    -13.389484   1.000000   1.000000
   28      -13.773442    -13.387840   1.000000   1.000000
   29      -13.205546    -12.892534   1.000000   1.000000
   30      -13.205438    -12.892427   1.000000   1.000000
   31       -7.697961     -7.485959   1.000000   1.000000
   32       -7.514346     -7.323678   1.000000   1.000000
   33       -7.276660     -7.110367   1.000000   1.000000
   34       -7.276237     -7.060567   1.000000   1.000000
   35       -7.205151     -6.985828   1.000000   1.000000
   36       -7.145737     -6.933054   1.000000   1.000000
   37       -1.383585      0.018193   1.000000   1.000000
   38       -1.263975      0.222495   1.000000   1.000000
   39       -1.000783      0.280985   1.000000   1.000000
   40       -0.957418      0.424417   1.000000   1.000000
   41       -0.849329      0.471845   1.000000   1.000000
   42       -0.810212      0.472705   1.000000   1.000000
   43       -0.598982      0.574137   1.000000   1.000000
   44       -0.574196      0.657624   1.000000   1.000000
   45       -0.464912      0.922155   1.000000   1.000000
   46       -0.435193      0.942529   1.000000   1.000000
   47       -0.410462      0.963592   1.000000   1.000000
   48       -0.292416      1.090467   1.000000   1.000000
   49       -0.259969      1.313906   1.000000   1.000000
   50       -0.223450      1.326175   1.000000   1.000000
   51       -0.202903      1.451226   1.000000   1.000000
   52       -0.197497      1.643472   1.000000   1.000000
   53       -0.137971      2.051835   1.000000   1.000000
   54       -0.123695      2.151160   1.000000   1.000000
   55       -0.057209      2.311649   1.000000   1.000000
   56       -0.028782      2.489676   1.000000   1.000000
   57        0.019133      2.678333   1.000000   1.000000
   58        0.051627      2.908345   1.000000   1.000000
   59        0.101493      2.945737   1.000000   1.000000
   60        0.165445      2.977728   1.000000   1.000000
   61        0.316971      3.017897   1.000000   1.000000
   62        0.336191      3.126935   1.000000   1.000000
   63        0.493427      3.177991   1.000000   1.000000
   64        0.615224      3.221642   1.000000   1.000000
   65        0.636175      3.363004   1.000000   1.000000
   66        0.712315      3.421545   1.000000   1.000000
   67        0.767622      3.583528   1.000000   1.000000
   68        0.776237      3.605383   1.000000   1.000000
   69        0.907833      3.862031   1.000000   1.000000
   70        1.016778      3.877032   1.000000   1.000000
   71        1.103264      4.000393   1.000000   1.000000
   72        1.222364      4.028203   1.000000   1.000000
   73        1.289024      6.408031   1.000000   0.000000
   74        1.324831      6.668985   1.000000   0.000000
   75        1.421870      6.801791   1.000000   0.000000
   76        1.426337      6.809868   1.000000   0.000000
   77        1.498434      6.861789   1.000000   0.000000
   78        1.499992      6.970731   1.000000   0.000000
   79        2.068706      7.000327   1.000000   0.000000
   80        2.088674      7.041989   1.000000   0.000000
   81        2.249418      7.182251   1.000000   0.000000
   82        2.452874      7.194319   1.000000   0.000000
   83        2.732717      7.253062   1.000000   0.000000
   84        2.782959      7.341440   1.000000   0.000000
   85        2.995782      7.369905   1.000000   0.000000
   86        3.230099      7.541001   1.000000   0.000000
   87        3.251917      7.623180   1.000000   0.000000
   88        3.299724      7.662588   1.000000   0.000000
   89        3.367283      7.752786   1.000000   0.000000
   90        3.424075      7.763995   1.000000   0.000000
   91        3.463717      8.225559   1.000000   0.000000
   92        3.732131      8.286322   1.000000   0.000000
   93        3.770714      8.341117   1.000000   0.000000
   94        4.098451      8.402639   1.000000   0.000000
   95        4.186339      8.409281   1.000000   0.000000
   96        4.264030      8.453529   1.000000   0.000000
   97        8.317899      8.983967   0.000000   0.000000
   98        8.534478      9.178134   0.000000   0.000000
   99        8.697582      9.253076   0.000000   0.000000
  100        8.726837      9.347434   0.000000   0.000000
  101        9.012739      9.523074   0.000000   0.000000
  102        9.201570      9.564964   0.000000   0.000000
  103        9.211308      9.864676   0.000000   0.000000
  104        9.749553     10.451054   0.000000   0.000000
  105        9.786905     10.509005   0.000000   0.000000
  106        9.956599     10.950216   0.000000   0.000000
  107       11.088664     11.592742   0.000000   0.000000
  108       11.116666     11.849280   0.000000   0.000000
  109       11.149387     11.859991   0.000000   0.000000
  110       11.198180     11.982942   0.000000   0.000000
  111       11.622583     12.005876   0.000000   0.000000
  112       11.630152     12.157550   0.000000   0.000000
  113       11.692925     12.276124   0.000000   0.000000
  114       11.732228     12.323633   0.000000   0.000000
  115       12.136114     12.600939   0.000000   0.000000
  116       12.171872     12.674942   0.000000   0.000000
  117       12.288258     12.708413   0.000000   0.000000
  118       12.430403     12.974196   0.000000   0.000000
  119       12.571128     13.038314   0.000000   0.000000
  120       12.575041     13.127672   0.000000   0.000000
  121       12.731777     13.271209   0.000000   0.000000
  122       12.890975     13.393156   0.000000   0.000000
  123       13.050031     13.648187   0.000000   0.000000
  124       13.263594     13.809049   0.000000   0.000000
  125       13.416732     13.825944   0.000000   0.000000
  126       13.542382     14.088491   0.000000   0.000000
  127       13.550122     14.151146   0.000000   0.000000
  128       13.932976     14.567070   0.000000   0.000000
  129       14.423888     14.610307   0.000000   0.000000
  130       14.481960     14.918458   0.000000   0.000000
  131       14.803878     15.217234   0.000000   0.000000
  132       14.921393     15.393423   0.000000   0.000000
  133       15.386021     16.199166   0.000000   0.000000
  134       15.464595     16.273604   0.000000   0.000000
  135       15.692335     16.287345   0.000000   0.000000
  136       15.990169     16.584604   0.000000   0.000000
  137       16.344734     16.775969   0.000000   0.000000
  138       16.588987     17.025728   0.000000   0.000000
  139       16.828159     17.338811   0.000000   0.000000
  140       16.893717     17.388384   0.000000   0.000000
  141       17.504631     17.741136   0.000000   0.000000
  142       17.556688     17.805614   0.000000   0.000000
  143       18.013366     18.464429   0.000000   0.000000
  144       18.066286     18.593768   0.000000   0.000000
 
 -0.1084202E-18  0.1428571E+00  0.0000000E+00  0.2380952E-01
    1      -51.602582    -46.857710   1.000000   1.000000
    2      -51.602277    -46.857299   1.000000   1.000000
    3      -51.417488    -46.650491   1.000000   1.000000
    4      -51.417483    -46.650489   1.000000   1.000000
    5      -51.297238    -46.533201   1.000000   1.000000
    6      -51.297235    -46.533199   1.000000   1.000000
    7      -50.157105    -46.399077   1.000000   1.000000
    8      -50.156767    -46.398654   1.000000   1.000000
    9      -50.065959    -46.372343   1.000000   1.000000
   10      -50.065434    -46.371668   1.000000   1.000000
   11      -49.961653    -46.241156   1.000000   1.000000
   12      -49.961645    -46.241147   1.000000   1.000000
   13      -49.952488    -46.234862   1.000000   1.000000
   14      -49.952484    -46.234852   1.000000   1.000000
   15      -49.888709    -46.155319   1.000000   1.000000
   16      -49.888708    -46.155315   1.000000   1.000000
   17      -49.846987    -46.139397   1.000000   1.000000
   18      -49.846985    -46.139387   1.000000   1.000000
   19      -40.503852    -40.497983   1.000000   1.000000
   20      -40.500525    -40.494694   1.000000   1.000000
   21      -40.257853    -40.258331   1.000000   1.000000
   22      -40.253755    -40.254242   1.000000   1.000000
   23      -40.080038    -40.082672   1.000000   1.000000
   24      -40.077871    -40.080515   1.000000   1.000000
   25      -40.019810    -40.019785   1.000000   1.000000
   26      -40.019382    -40.019361   1.000000   1.000000
   27      -13.725772    -13.356104   1.000000   1.000000
   28      -13.720697    -13.350603   1.000000   1.000000
   29      -13.152326    -12.856746   1.000000   1.000000
   30      -13.150455    -12.854374   1.000000   1.000000
   31       -7.776512     -7.563844   1.000000   1.000000
   32       -7.358101     -7.188455   1.000000   1.000000
   33       -7.284468     -7.072834   1.000000   1.000000
   34       -7.232705     -7.063956   1.000000   1.000000
   35       -7.205193     -6.978756   1.000000   1.000000
   36       -7.053655     -6.823022   1.000000   1.000000
   37       -1.524099     -0.216270   1.000000   1.000000
   38       -1.439121     -0.102955   1.000000   1.000000
   39       -1.175534     -0.013204   1.000000   1.000000
   40       -1.134241      0.027094   1.000000   1.000000
   41       -0.989839      0.182727   1.000000   1.000000
   42       -0.948796      0.374441   1.000000   1.000000
   43       -0.819850      0.572677   1.000000   1.000000
   44       -0.760519      0.738888   1.000000   1.000000
   45       -0.742609      0.881343   1.000000   1.000000
   46       -0.609523      0.935992   1.000000   1.000000
   47       -0.564154      0.982424   1.000000   1.000000
   48       -0.534086      1.025199   1.000000   1.000000
   49       -0.454630      1.144987   1.000000   1.000000
   50       -0.404276      1.200449   1.000000   1.000000
   51       -0.358040      1.261025   1.000000   1.000000
   52       -0.341438      1.639245   1.000000   1.000000
   53       -0.324631      2.100666   1.000000   1.000000
   54       -0.289363      2.272107   1.000000   1.000000
   55       -0.193985      2.444587   1.000000   1.000000
   56       -0.128160      2.514006   1.000000   1.000000
   57       -0.101600      2.681687   1.000000   1.000000
   58       -0.019517      2.711812   1.000000   1.000000
   59        0.008126      2.889445   1.000000   1.000000
   60        0.053115      2.973675   1.000000   1.000000
   61        0.126064      3.025574   1.000000   1.000000
   62        0.156224      3.110959   1.000000   1.000000
   63        0.313962      3.183860   1.000000   1.000000
   64        0.454009      3.214390   1.000000   1.000000
   65        0.523976      3.395546   1.000000   1.000000
   66        0.726346      3.469216   1.000000   1.000000
   67        1.043961      3.546677   1.000000   1.000000
   68        1.075051      3.683419   1.000000   1.000000
   69        1.261296      3.777026   1.000000   1.000000
   70        1.278432      3.835943   1.000000   1.000000
   71        1.377809      3.885478   1.000000   1.000000
   72        1.433175      3.901370   1.000000   1.000000
   73        1.474604      6.386564   1.000000   0.000000
   74        1.512508      6.470675   1.000000   0.000000
   75        1.533795      6.727705   1.000000   0.000000
   76        1.586405      6.843270   1.000000   0.000000
   77        1.616937      6.935456   1.000000   0.000000