 144 144   0   0
  0.1325381E+02  0.1546422E-08  0.1214491E-08  0.1054520E-08  0.5000000E-15
  1.000000000000000E-004
  CAR 
 unknown system                          
     17.00919003    -54.87219667  301      5.08886007      1.00000000
    -54.872  0.0000E+00  0.0000E+00  0.0000E+00  0.0000E+00
    -54.633  0.0000E+00  0.0000E+00  0.0000E+00  0.0000E+00
    -54.393  0.0000E+00  0.0000E+00  0.0000E+00  0.0000E+00
    -54.153  0.0000E+00  0.0000E+00  0.0000E+00  0.0000E+00
    -53.914  0.0000E+00  0.0000E+00  0.0000E+00  0.0000E+00
    -53.674  0.0000E+00  0.0000E+00  0.0000E+00  0.0000E+00
    -53.435  0.0000E+00  0.0000E+00  0.0000E+00  0.0000E+00
    -53.195  0.0000E+00  0.0000E+00  0.0000E+00  0.0000E+00
    -52.955  0.0000E+00  0.0000E+00  0.0000E+00  0.0000E+00
    -52.716  0.0000E+00  0.0000E+00  0.0000E+00  0.0000E+00
    -52.476  0.0000E+00  0.0000E+00  0.0000E+00  0.0000E+00
    -52.237  0.0000E+00  0.0000E+00  0.0000E+00  0.0000E+00
    -51.997  0.0000E+00  0.0000E+00  0.0000E+00  0.0000E+00
    -51.757  0.3051E-03  0.0000E+00  0.7311E-04  0.0000E+00
    -51.518  0.4982E+02  0.0000E+00  0.1194E+02  0.0000E+00
    -51.278  0.8583E+02  0.0000E+00  0.3250E+02  0.0000E+00
    -51.039  0.1460E+02  0.0000E+00  0.3600E+02  0.0000E+00
    -50.799  0.0000E+00  0.0000E+00  0.3600E+02  0.0000E+00
    -50.559  0.0000E+00  0.0000E+00  0.3600E+02  0.0000E+00
    -50.320  0.1096E-03  0.0000E+00  0.3600E+02  0.0000E+00
    -50.080  0.6652E+02  0.0000E+00  0.5194E+02  0.0000E+00
    -49.840  0.2082E+03  0.0000E+00  0.1018E+03  0.0000E+00
    -49.601  0.2583E+02  0.0000E+00  0.1080E+03  0.0000E+00
    -49.361  0.0000E+00  0.0000E+00  0.1080E+03  0.0000E+00
    -49.122  0.0000E+00  0.0000E+00  0.1080E+03  0.0000E+00
    -48.882  0.0000E+00  0.0000E+00  0.1080E+03  0.0000E+00
    -48.642  0.0000E+00  0.0000E+00  0.1080E+03  0.0000E+00
    -48.403  0.0000E+00  0.0000E+00  0.1080E+03  0.0000E+00
    -48.163  0.0000E+00  0.0000E+00  0.1080E+03  0.0000E+00
    -47.924  0.0000E+00  0.0000E+00  0.1080E+03  0.0000E+00
    -47.684  0.0000E+00  0.0000E+00  0.1080E+03  0.0000E+00
    -47.444  0.0000E+00  0.0000E+00  0.1080E+03  0.0000E+00
    -47.205  0.0000E+00  0.0000E+00  0.1080E+03  0.0000E+00
    -46.965  0.0000E+00  0.5927E-01  0.1080E+03  0.1420E-01
    -46.726  0.0000E+00  0.5097E+02  0.1080E+03  0.1223E+02
    -46.486  0.0000E+00  0.9517E+02  0.1080E+03  0.3503E+02
    -46.246  0.0000E+00  0.1452E+03  0.1080E+03  0.6982E+02
    -46.007  0.0000E+00  0.1594E+03  0.1080E+03  0.1080E+03
    -45.767  0.0000E+00  0.5174E-02  0.1080E+03  0.1080E+03
    -45.528  0.0000E+00  0.0000E+00  0.1080E+03  0.1080E+03
    -45.288  0.0000E+00  0.0000E+00  0.1080E+03  0.1080E+03
    -45.048  0.0000E+00  0.0000E+00  0.1080E+03  0.1080E+03
    -44.809  0.0000E+00  0.0000E+00  0.1080E+03  0.1080E+03
    -44.569  0.0000E+00  0.0000E+00  0.1080E+03  0.1080E+03
    -44.330  0.0000E+00  0.0000E+00  0.1080E+03  0.1080E+03
    -44.090  0.0000E+00  0.0000E+00  0.1080E+03  0.1080E+03
    -43.850  0.0000E+00  0.0000E+00  0.1080E+03  0.1080E+03
    -43.611  0.0000E+00  0.0000E+00  0.1080E+03  0.1080E+03
    -43.371  0.0000E+00  0.0000E+00  0.1080E+03  0.1080E+03
    -43.132  0.0000E+00  0.0000E+00  0.1080E+03  0.1080E+03
    -42.892  0.0000E+00  0.0000E+00  0.1080E+03  0.1080E+03
    -42.652  0.0000E+00  0.0000E+00  0.1080E+03  0.1080E+03
    -42.413  0.0000E+00  0.0000E+00  0.1080E+03  0.1080E+03
    -42.173  0.0000E+00  0.0000E+00  0.1080E+03  0.1080E+03
    -41.934  0.0000E+00  0.0000E+00  0.1080E+03  0.1080E+03
    -41.694  0.0000E+00  0.0000E+00  0.1080E+03  0.1080E+03
    -41.454  0.0000E+00  0.0000E+00  0.1080E+03  0.1080E+03
    -41.215  0.0000E+00  0.0000E+00  0.1080E+03  0.1080E+03
    -40.975  0.0000E+00  0.0000E+00  0.1080E+03  0.1080E+03
    -40.736  0.1053E-08  0.3403E-09  0.1080E+03  0.1080E+03
    -40.496  0.2847E+02  0.2518E+02  0.1148E+03  0.1140E+03
    -40.256  0.4623E+02  0.4977E+02  0.1259E+03  0.1260E+03
    -40.017  0.1001E+03  0.1001E+03  0.1499E+03  0.1499E+03
    -39.777  0.2553E+02  0.2526E+02  0.1560E+03  0.1560E+03
    -39.538  0.0000E+00  0.0000E+00  0.1560E+03  0.1560E+03
    -39.298  0.0000E+00  0.0000E+00  0.1560E+03  0.1560E+03
    -39.058  0.0000E+00  0.0000E+00  0.1560E+03  0.1560E+03
    -38.819  0.0000E+00  0.0000E+00  0.1560E+03  0.1560E+03
    -38.579  0.0000E+00  0.0000E+00  0.1560E+03  0.1560E+03
    -38.339  0.0000E+00  0.0000E+00  0.1560E+03  0.1560E+03
    -38.100  0.0000E+00  0.0000E+00  0.1560E+03  0.1560E+03
    -37.860  0.0000E+00  0.0000E+00  0.1560E+03  0.1560E+03
    -37.621  0.0000E+00  0.0000E+00  0.1560E+03  0.1560E+03
    -37.381  0.0000E+00  0.0000E+00  0.1560E+03  0.1560E+03
    -37.141  0.0000E+00  0.0000E+00  0.1560E+03  0.1560E+03
    -36.902  0.0000E+00  0.0000E+00  0.1560E+03  0.1560E+03
    -36.662  0.0000E+00  0.0000E+00  0.1560E+03  0.1560E+03
    -36.423  0.0000E+00  0.0000E+00  0.1560E+03  0.1560E+03
    -36.183  0.0000E+00  0.0000E+00  0.1560E+03  0.1560E+03
    -35.943  0.0000E+00  0.0000E+00  0.1560E+03  0.1560E+03
    -35.704  0.0000E+00  0.0000E+00  0.1560E+03  0.1560E+03
    -35.464  0.0000E+00  0.0000E+00  0.1560E+03  0.1560E+03
    -35.225  0.0000E+00  0.0000E+00  0.1560E+03  0.1560E+03
    -34.985  0.0000E+00  0.0000E+00  0.1560E+03  0.1560E+03
    -34.745  0.0000E+00  0.0000E+00  0.1560E+03  0.1560E+03
    -34.506  0.0000E+00  0.0000E+00  0.1560E+03  0.1560E+03
    -34.266  0.0000E+00  0.0000E+00  0.1560E+03  0.1560E+03
    -34.027  0.0000E+00  0.0000E+00  0.1560E+03  0.1560E+03
    -33.787  0.0000E+00  0.0000E+00  0.1560E+03  0.1560E+03
    -33.547  0.0000E+00  0.0000E+00  0.1560E+03  0.1560E+03
    -33.308  0.0000E+00  0.0000E+00  0.1560E+03  0.1560E+03
    -33.068  0.0000E+00  0.0000E+00  0.1560E+03  0.1560E+03
    -32.829  0.0000E+00  0.0000E+00  0.1560E+03  0.1560E+03
    -32.589  0.0000E+00  0.0000E+00  0.1560E+03  0.1560E+03
    -32.349  0.0000E+00  0.0000E+00  0.1560E+03  0.1560E+03
    -32.110  0.0000E+00  0.0000E+00  0.1560E+03  0.1560E+03
    -31.870  0.0000E+00  0.0000E+00  0.1560E+03  0.1560E+03
    -31.631  0.0000E+00  0.0000E+00  0.1560E+03  0.1560E+03
    -31.391  0.0000E+00  0.0000E+00  0.1560E+03  0.1560E+03
    -31.151  0.0000E+00  0.0000E+00  0.1560E+03  0.1560E+03
    -30.912  0.0000E+00  0.0000E+00  0.1560E+03  0.1560E+03
    -30.672  0.0000E+00  0.0000E+00  0.1560E+03  0.1560E+03
    -30.433  0.0000E+00  0.0000E+00  0.1560E+03  0.1560E+03
    -30.193  0.0000E+00  0.0000E+00  0.1560E+03  0.1560E+03
    -29.953  0.0000E+00  0.0000E+00  0.1560E+03  0.1560E+03
    -29.714  0.0000E+00  0.0000E+00  0.1560E+03  0.1560E+03
    -29.474  0.0000E+00  0.0000E+00  0.1560E+03  0.1560E+03
    -29.235  0.0000E+00  0.0000E+00  0.1560E+03  0.1560E+03
    -28.995  0.0000E+00  0.0000E+00  0.1560E+03  0.1560E+03
    -28.755  0.0000E+00  0.0000E+00  0.1560E+03  0.1560E+03
    -28.516  0.0000E+00  0.0000E+00  0.1560E+03  0.1560E+03
    -28.276  0.0000E+00  0.0000E+00  0.1560E+03  0.1560E+03
    -28.036  0.0000E+00  0.0000E+00  0.1560E+03  0.1560E+03
    -27.797  0.0000E+00  0.0000E+00  0.1560E+03  0.1560E+03
    -27.557  0.0000E+00  0.0000E+00  0.1560E+03  0.1560E+03
    -27.318  0.0000E+00  0.0000E+00  0.1560E+03  0.1560E+03
    -27.078  0.0000E+00  0.0000E+00  0.1560E+03  0.1560E+03
    -26.838  0.0000E+00  0.0000E+00  0.1560E+03  0.1560E+03
    -26.599  0.0000E+00  0.0000E+00  0.1560E+03  0.1560E+03
    -26.359  0.0000E+00  0.0000E+00  0.1560E+03  0.1560E+03
    -26.120  0.0000E+00  0.0000E+00  0.1560E+03  0.1560E+03
    -25.880  0.0000E+00  0.0000E+00  0.1560E+03  0.1560E+03
    -25.640  0.0000E+00  0.0000E+00  0.1560E+03  0.1560E+03
    -25.401  0.0000E+00  0.0000E+00  0.1560E+03  0.1560E+03
    -25.161  0.0000E+00  0.0000E+00  0.1560E+03  0.1560E+03
    -24.922  0.0000E+00  0.0000E+00  0.1560E+03  0.1560E+03
    -24.682  0.0000E+00  0.0000E+00  0.1560E+03  0.1560E+03
    -24.442  0.0000E+00  0.0000E+00  0.1560E+03  0.1560E+03
    -24.203  0.0000E+00  0.0000E+00  0.1560E+03  0.1560E+03
    -23.963  0.0000E+00  0.0000E+00  0.1560E+03  0.1560E+03
    -23.724  0.0000E+00  0.0000E+00  0.1560E+03  0.1560E+03
    -23.484  0.0000E+00  0.0000E+00  0.1560E+03  0.1560E+03
    -23.244  0.0000E+00  0.0000E+00  0.1560E+03  0.1560E+03
    -23.005  0.0000E+00  0.0000E+00  0.1560E+03  0.1560E+03
    -22.765  0.0000E+00  0.0000E+00  0.1560E+03  0.1560E+03
    -22.526  0.0000E+00  0.0000E+00  0.1560E+03  0.1560E+03
    -22.286  0.0000E+00  0.0000E+00  0.1560E+03  0.1560E+03
    -22.046  0.0000E+00  0.0000E+00  0.1560E+03  0.1560E+03
    -21.807  0.0000E+00  0.0000E+00  0.1560E+03  0.1560E+03
    -21.567  0.0000E+00  0.0000E+00  0.1560E+03  0.1560E+03
    -21.328  0.0000E+00  0.0000E+00  0.1560E+03  0.1560E+03
    -21.088  0.0000E+00  0.0000E+00  0.1560E+03  0.1560E+03
    -20.848  0.0000E+00  0.0000E+00  0.1560E+03  0.1560E+03
    -20.609  0.0000E+00  0.0000E+00  0.1560E+03  0.1560E+03
    -20.369  0.0000E+00  0.0000E+00  0.1560E+03  0.1560E+03
    -20.130  0.0000E+00  0.0000E+00  0.1560E+03  0.1560E+03
    -19.890  0.0000E+00  0.0000E+00  0.1560E+03  0.1560E+03
    -19.650  0.0000E+00  0.0000E+00  0.1560E+03  0.1560E+03
    -19.411  0.0000E+00  0.0000E+00  0.1560E+03  0.1560E+03
    -19.171  0.0000E+00  0.0000E+00  0.1560E+03  0.1560E+03
    -18.932  0.0000E+00  0.0000E+00  0.1560E+03  0.1560E+03
    -18.692  0.0000E+00  0.0000E+00  0.1560E+03  0.1560E+03
    -18.452  0.0000E+00  0.0000E+00  0.1560E+03  0.1560E+03
    -18.213  0.0000E+00  0.0000E+00  0.1560E+03  0.1560E+03
    -17.973  0.0000E+00  0.0000E+00  0.1560E+03  0.1560E+03
    -17.733  0.0000E+00  0.0000E+00  0.1560E+03  0.1560E+03
    -17.494  0.0000E+00  0.0000E+00  0.1560E+03  0.1560E+03
    -17.254  0.0000E+00  0.0000E+00  0.1560E+03  0.1560E+03
    -17.015  0.0000E+00  0.0000E+00  0.1560E+03  0.1560E+03
    -16.775  0.0000E+00  0.0000E+00  0.1560E+03  0.1560E+03
    -16.535  0.0000E+00  0.0000E+00  0.1560E+03  0.1560E+03
    -16.296  0.0000E+00  0.0000E+00  0.1560E+03  0.1560E+03
    -16.056  0.0000E+00  0.0000E+00  0.1560E+03  0.1560E+03
    -15.817  0.0000E+00  0.0000E+00  0.1560E+03  0.1560E+03
    -15.577  0.0000E+00  0.0000E+00  0.1560E+03  0.1560E+03
    -15.337  0.0000E+00  0.0000E+00  0.1560E+03  0.1560E+03
    -15.098  0.0000E+00  0.0000E+00  0.1560E+03  0.1560E+03
    -14.858  0.0000E+00  0.0000E+00  0.1560E+03  0.1560E+03
    -14.619  0.0000E+00  0.0000E+00  0.1560E+03  0.1560E+03
    -14.379  0.0000E+00  0.0000E+00  0.1560E+03  0.1560E+03
    -14.139  0.0000E+00  0.0000E+00  0.1560E+03  0.1560E+03
    -13.900  0.1183E-02  0.0000E+00  0.1560E+03  0.1560E+03
    -13.660  0.2212E+02  0.5130E-13  0.1613E+03  0.1560E+03
    -13.421  0.2777E+02  0.1754E+01  0.1680E+03  0.1564E+03
    -13.181  0.8876E+01  0.4443E+02  0.1701E+03  0.1671E+03
    -12.941  0.3148E+02  0.4590E+01  0.1776E+03  0.1682E+03
    -12.702  0.9913E+01  0.4203E+02  0.1800E+03  0.1782E+03
    -12.462  0.0000E+00  0.7355E+01  0.1800E+03  0.1800E+03
    -12.223  0.0000E+00  0.0000E+00  0.1800E+03  0.1800E+03
    -11.983  0.0000E+00  0.0000E+00  0.1800E+03  0.1800E+03
    -11.743  0.0000E+00  0.0000E+00  0.1800E+03  0.1800E+03
    -11.504  0.0000E+00  0.0000E+00  0.1800E+03  0.1800E+03
    -11.264  0.0000E+00  0.0000E+00  0.1800E+03  0.1800E+03
    -11.025  0.0000E+00  0.0000E+00  0.1800E+03  0.1800E+03
    -10.785  0.0000E+00  0.0000E+00  0.1800E+03  0.1800E+03
    -10.545  0.0000E+00  0.0000E+00  0.1800E+03  0.1800E+03
    -10.306  0.0000E+00  0.0000E+00  0.1800E+03  0.1800E+03
    -10.066  0.0000E+00  0.0000E+00  0.1800E+03  0.1800E+03
     -9.827  0.0000E+00  0.0000E+00  0.1800E+03  0.1800E+03
     -9.587  0.0000E+00  0.0000E+00  0.1800E+03  0.1800E+03
     -9.347  0.0000E+00  0.0000E+00  0.1800E+03  0.1800E+03
     -9.108  0.0000E+00  0.0000E+00  0.1800E+03  0.1800E+03
     -8.868  0.0000E+00  0.0000E+00  0.1800E+03  0.1800E+03
     -8.629  0.0000E+00  0.0000E+00  0.1800E+03  0.1800E+03
     -8.389  0.0000E+00  0.0000E+00  0.1800E+03  0.1800E+03
     -8.149  0.0000E+00  0.0000E+00  0.1800E+03  0.1800E+03
     -7.910  0.2231E-02  0.0000E+00  0.1800E+03  0.1800E+03
     -7.670  0.9395E+01  0.1673E-01  0.1823E+03  0.1800E+03
     -7.430  0.2309E+02  0.1197E+02  0.1878E+03  0.1829E+03
     -7.191  0.5572E+02  0.2855E+02  0.2011E+03  0.1897E+03
     -6.951  0.5804E+02  0.5988E+02  0.2150E+03  0.2041E+03
     -6.712  0.4001E+01  0.4649E+02  0.2160E+03  0.2152E+03
     -6.472  0.0000E+00  0.3340E+01  0.2160E+03  0.2160E+03
     -6.232  0.0000E+00  0.0000E+00  0.2160E+03  0.2160E+03
     -5.993  0.0000E+00  0.0000E+00  0.2160E+03  0.2160E+03
     -5.753  0.0000E+00  0.0000E+00  0.2160E+03  0.2160E+03
     -5.514  0.0000E+00  0.0000E+00  0.2160E+03  0.2160E+03
     -5.274  0.0000E+00  0.0000E+00  0.2160E+03  0.2160E+03
     -5.034  0.0000E+00  0.0000E+00  0.2160E+03  0.2160E+03
     -4.795  0.0000E+00  0.0000E+00  0.2160E+03  0.2160E+03
     -4.555  0.0000E+00  0.0000E+00  0.2160E+03  0.2160E+03
     -4.316  0.0000E+00  0.0000E+00  0.2160E+03  0.2160E+03
     -4.076  0.0000E+00  0.0000E+00  0.2160E+03  0.2160E+03
     -3.836  0.0000E+00  0.0000E+00  0.2160E+03  0.2160E+03
     -3.597  0.0000E+00  0.0000E+00  0.2160E+03  0.2160E+03
     -3.357  0.0000E+00  0.0000E+00  0.2160E+03  0.2160E+03
     -3.118  0.0000E+00  0.0000E+00  0.2160E+03  0.2160E+03
     -2.878  0.1611E-13  0.0000E+00  0.2160E+03  0.2160E+03
     -2.638  0.8373E+00  0.0000E+00  0.2162E+03  0.2160E+03
     -2.399  0.1030E+02  0.0000E+00  0.2187E+03  0.2160E+03
     -2.159  0.2047E+02  0.0000E+00  0.2236E+03  0.2160E+03
     -1.920  0.1870E+01  0.0000E+00  0.2240E+03  0.2160E+03
     -1.680  0.3457E+02  0.0000E+00  0.2323E+03  0.2160E+03
     -1.440  0.1951E+02  0.4376E-15  0.2370E+03  0.2160E+03
     -1.201  0.4420E+02  0.8650E-01  0.2476E+03  0.2160E+03
     -0.961  0.4962E+02  0.4412E+01  0.2595E+03  0.2171E+03
     -0.722  0.7500E+02  0.1408E+02  0.2774E+03  0.2205E+03
     -0.482  0.1033E+03  0.1531E+02  0.3022E+03  0.2241E+03
     -0.242  0.8549E+02  0.1957E+02  0.3227E+03  0.2288E+03
     -0.003  0.1105E+03  0.4126E+02  0.3491E+03  0.2387E+03
      0.237  0.6978E+02  0.3395E+02  0.3658E+03  0.2468E+03
      0.476  0.3826E+02  0.4212E+02  0.3750E+03  0.2569E+03
      0.716  0.4570E+02  0.3373E+02  0.3860E+03  0.2650E+03
      0.956  0.4868E+02  0.5296E+02  0.3976E+03  0.2777E+03
      1.195  0.5552E+02  0.6043E+02  0.4109E+03  0.2922E+03
      1.435  0.6432E+02  0.4443E+02  0.4263E+03  0.3028E+03
      1.674  0.1008E+03  0.4006E+02  0.4505E+03  0.3124E+03
      1.914  0.5248E+02  0.3845E+02  0.4631E+03  0.3216E+03
      2.154  0.3880E+02  0.3739E+02  0.4724E+03  0.3306E+03
      2.393  0.4652E+02  0.3828E+02  0.4835E+03  0.3398E+03
      2.633  0.4782E+02  0.4941E+02  0.4950E+03  0.3516E+03
      2.873  0.4352E+02  0.6288E+02  0.5054E+03  0.3667E+03
      3.112  0.4013E+02  0.5875E+02  0.5150E+03  0.3807E+03
      3.352  0.4747E+02  0.4799E+02  0.5264E+03  0.3922E+03
      3.591  0.5251E+02  0.2995E+02  0.5390E+03  0.3994E+03
      3.831  0.4540E+02  0.6134E+02  0.5499E+03  0.4141E+03
      4.071  0.3198E+02  0.7326E+02  0.5575E+03  0.4317E+03
      4.310  0.4241E+02  0.1371E+01  0.5677E+03  0.4320E+03
      4.550  0.2361E+02  0.0000E+00  0.5733E+03  0.4320E+03
      4.789  0.1023E+02  0.0000E+00  0.5758E+03  0.4320E+03
      5.029  0.8970E+00  0.0000E+00  0.5760E+03  0.4320E+03
      5.269  0.0000E+00  0.0000E+00  0.5760E+03  0.4320E+03
      5.508  0.0000E+00  0.0000E+00  0.5760E+03  0.4320E+03
      5.748  0.0000E+00  0.0000E+00  0.5760E+03  0.4320E+03
      5.987  0.0000E+00  0.5205E-11  0.5760E+03  0.4320E+03
      6.227  0.0000E+00  0.1449E+00  0.5760E+03  0.4320E+03
      6.467  0.0000E+00  0.8152E+01  0.5760E+03  0.4340E+03
      6.706  0.0000E+00  0.3026E+02  0.5760E+03  0.4412E+03
      6.946  0.7568E-12  0.4343E+02  0.5760E+03  0.4516E+03
      7.185  0.1076E+00  0.7322E+02  0.5760E+03  0.4692E+03
      7.425  0.1308E+00  0.8081E+02  0.5761E+03  0.4886E+03
      7.665  0.8959E+00  0.6538E+02  0.5763E+03  0.5042E+03
      7.904  0.3503E+01  0.8788E+02  0.5771E+03  0.5253E+03
      8.144  0.4266E+01  0.7130E+02  0.5781E+03  0.5424E+03
      8.383  0.7038E+01  0.5442E+02  0.5798E+03  0.5554E+03
      8.623  0.1638E+02  0.3720E+02  0.5837E+03  0.5643E+03
      8.863  0.2527E+02  0.3916E+02  0.5898E+03  0.5737E+03
      9.102  0.1924E+02  0.1937E+02  0.5944E+03  0.5783E+03
      9.342  0.2538E+02  0.1391E+02  0.6005E+03  0.5817E+03
      9.581  0.3125E+02  0.2058E+02  0.6080E+03  0.5866E+03
      9.821  0.2661E+02  0.3000E+02  0.6144E+03  0.5938E+03
     10.061  0.2964E+02  0.2656E+02  0.6215E+03  0.6001E+03
     10.300  0.2277E+02  0.3474E+02  0.6269E+03  0.6085E+03
     10.540  0.2039E+02  0.3543E+02  0.6318E+03  0.6170E+03
     10.779  0.2856E+02  0.2795E+02  0.6386E+03  0.6237E+03
     11.019  0.3894E+02  0.2243E+02  0.6480E+03  0.6290E+03
     11.259  0.3941E+02  0.2160E+02  0.6574E+03  0.6342E+03
     11.498  0.3727E+02  0.3230E+02  0.6663E+03  0.6419E+03
     11.738  0.4484E+02  0.3874E+02  0.6771E+03  0.6512E+03
     11.977  0.3851E+02  0.4259E+02  0.6863E+03  0.6614E+03
     12.217  0.3856E+02  0.5198E+02  0.6956E+03  0.6739E+03
     12.457  0.3989E+02  0.4679E+02  0.7051E+03  0.6851E+03
     12.696  0.3651E+02  0.3597E+02  0.7139E+03  0.6937E+03
     12.936  0.3442E+02  0.4128E+02  0.7221E+03  0.7036E+03
     13.176  0.2281E+02  0.3972E+02  0.7276E+03  0.7131E+03
     13.415  0.1789E+01  0.3423E+02  0.7280E+03  0.7213E+03
     13.655  0.0000E+00  0.2397E+02  0.7280E+03  0.7271E+03
     13.894  0.0000E+00  0.3873E+01  0.7280E+03  0.7280E+03
     14.134  0.0000E+00  0.3740E-05  0.7280E+03  0.7280E+03
     14.374  0.0000E+00  0.0000E+00  0.7280E+03  0.7280E+03
     14.613  0.0000E+00  0.0000E+00  0.7280E+03  0.7280E+03
     14.853  0.0000E+00  0.0000E+00  0.7280E+03  0.7280E+03
     15.092  0.0000E+00  0.0000E+00  0.7280E+03  0.7280E+03
     15.332  0.0000E+00  0.0000E+00  0.7280E+03  0.7280E+03
     15.572  0.0000E+00  0.0000E+00  0.7280E+03  0.7280E+03
     15.811  0.0000E+00  0.0000E+00  0.7280E+03  0.7280E+03
     16.051  0.0000E+00  0.0000E+00  0.7280E+03  0.7280E+03
     16.290  0.0000E+00  0.0000E+00  0.7280E+03  0.7280E+03
     16.530  0.0000E+00  0.0000E+00  0.7280E+03  0.7280E+03
     16.770  0.0000E+00  0.0000E+00  0.7280E+03  0.7280E+03
     17.009  0.0000E+00  0.0000E+00  0.7280E+03  0.7280E+03
