  99  99   0   0
  0.1430410E+02  0.1177748E-08  0.1177748E-08  0.1058004E-08  0.5000000E-15
  1.000000000000000E-004
  CAR 
 unknown system                          
     18.03950923    -54.34124344  301      5.31256022      1.00000000
    -54.341  0.0000E+00  0.0000E+00  0.0000E+00  0.0000E+00
    -54.100  0.0000E+00  0.0000E+00  0.0000E+00  0.0000E+00
    -53.859  0.0000E+00  0.0000E+00  0.0000E+00  0.0000E+00
    -53.617  0.0000E+00  0.0000E+00  0.0000E+00  0.0000E+00
    -53.376  0.0000E+00  0.0000E+00  0.0000E+00  0.0000E+00
    -53.135  0.0000E+00  0.0000E+00  0.0000E+00  0.0000E+00
    -52.894  0.0000E+00  0.0000E+00  0.0000E+00  0.0000E+00
    -52.652  0.0000E+00  0.0000E+00  0.0000E+00  0.0000E+00
    -52.411  0.0000E+00  0.0000E+00  0.0000E+00  0.0000E+00
    -52.170  0.0000E+00  0.0000E+00  0.0000E+00  0.0000E+00
    -51.929  0.0000E+00  0.0000E+00  0.0000E+00  0.0000E+00
    -51.687  0.0000E+00  0.0000E+00  0.0000E+00  0.0000E+00
    -51.446  0.0000E+00  0.0000E+00  0.0000E+00  0.0000E+00
    -51.205  0.4700E-03  0.0000E+00  0.1134E-03  0.0000E+00
    -50.963  0.1472E+03  0.0000E+00  0.3550E+02  0.0000E+00
    -50.722  0.2056E+01  0.0000E+00  0.3600E+02  0.0000E+00
    -50.481  0.0000E+00  0.0000E+00  0.3600E+02  0.0000E+00
    -50.240  0.0000E+00  0.0000E+00  0.3600E+02  0.0000E+00
    -49.998  0.0000E+00  0.0000E+00  0.3600E+02  0.0000E+00
    -49.757  0.2041E+01  0.0000E+00  0.3649E+02  0.0000E+00
    -49.516  0.2731E+03  0.0000E+00  0.1024E+03  0.0000E+00
    -49.275  0.2332E+02  0.0000E+00  0.1080E+03  0.0000E+00
    -49.033  0.0000E+00  0.0000E+00  0.1080E+03  0.0000E+00
    -48.792  0.0000E+00  0.0000E+00  0.1080E+03  0.0000E+00
    -48.551  0.0000E+00  0.0000E+00  0.1080E+03  0.0000E+00
    -48.310  0.0000E+00  0.0000E+00  0.1080E+03  0.0000E+00
    -48.068  0.0000E+00  0.0000E+00  0.1080E+03  0.0000E+00
    -47.827  0.0000E+00  0.0000E+00  0.1080E+03  0.0000E+00
    -47.586  0.0000E+00  0.0000E+00  0.1080E+03  0.0000E+00
    -47.344  0.0000E+00  0.0000E+00  0.1080E+03  0.0000E+00
    -47.103  0.0000E+00  0.0000E+00  0.1080E+03  0.0000E+00
    -46.862  0.0000E+00  0.0000E+00  0.1080E+03  0.0000E+00
    -46.621  0.0000E+00  0.0000E+00  0.1080E+03  0.0000E+00
    -46.379  0.0000E+00  0.6364E+00  0.1080E+03  0.1535E+00
    -46.138  0.0000E+00  0.1486E+03  0.1080E+03  0.3600E+02
    -45.897  0.0000E+00  0.8021E+02  0.1080E+03  0.5535E+02
    -45.656  0.0000E+00  0.2182E+03  0.1080E+03  0.1080E+03
    -45.414  0.0000E+00  0.0000E+00  0.1080E+03  0.1080E+03
    -45.173  0.0000E+00  0.0000E+00  0.1080E+03  0.1080E+03
    -44.932  0.0000E+00  0.0000E+00  0.1080E+03  0.1080E+03
    -44.690  0.0000E+00  0.0000E+00  0.1080E+03  0.1080E+03
    -44.449  0.0000E+00  0.0000E+00  0.1080E+03  0.1080E+03
    -44.208  0.0000E+00  0.0000E+00  0.1080E+03  0.1080E+03
    -43.967  0.0000E+00  0.0000E+00  0.1080E+03  0.1080E+03
    -43.725  0.0000E+00  0.0000E+00  0.1080E+03  0.1080E+03
    -43.484  0.0000E+00  0.0000E+00  0.1080E+03  0.1080E+03
    -43.243  0.0000E+00  0.0000E+00  0.1080E+03  0.1080E+03
    -43.002  0.0000E+00  0.0000E+00  0.1080E+03  0.1080E+03
    -42.760  0.0000E+00  0.0000E+00  0.1080E+03  0.1080E+03
    -42.519  0.0000E+00  0.0000E+00  0.1080E+03  0.1080E+03
    -42.278  0.0000E+00  0.0000E+00  0.1080E+03  0.1080E+03
    -42.037  0.0000E+00  0.0000E+00  0.1080E+03  0.1080E+03
    -41.795  0.0000E+00  0.0000E+00  0.1080E+03  0.1080E+03
    -41.554  0.0000E+00  0.0000E+00  0.1080E+03  0.1080E+03
    -41.313  0.0000E+00  0.0000E+00  0.1080E+03  0.1080E+03
    -41.071  0.0000E+00  0.0000E+00  0.1080E+03  0.1080E+03
    -40.830  0.0000E+00  0.0000E+00  0.1080E+03  0.1080E+03
    -40.589  0.0000E+00  0.0000E+00  0.1080E+03  0.1080E+03
    -40.348  0.0000E+00  0.0000E+00  0.1080E+03  0.1080E+03
    -40.106  0.9370E-09  0.6231E-09  0.1080E+03  0.1080E+03
    -39.865  0.3830E+02  0.3648E+02  0.1172E+03  0.1168E+03
    -39.624  0.3630E+02  0.3813E+02  0.1260E+03  0.1260E+03
    -39.383  0.0000E+00  0.0000E+00  0.1260E+03  0.1260E+03
    -39.141  0.0000E+00  0.0000E+00  0.1260E+03  0.1260E+03
    -38.900  0.0000E+00  0.0000E+00  0.1260E+03  0.1260E+03
    -38.659  0.0000E+00  0.0000E+00  0.1260E+03  0.1260E+03
    -38.417  0.0000E+00  0.0000E+00  0.1260E+03  0.1260E+03
    -38.176  0.0000E+00  0.0000E+00  0.1260E+03  0.1260E+03
    -37.935  0.0000E+00  0.0000E+00  0.1260E+03  0.1260E+03
    -37.694  0.0000E+00  0.0000E+00  0.1260E+03  0.1260E+03
    -37.452  0.0000E+00  0.0000E+00  0.1260E+03  0.1260E+03
    -37.211  0.0000E+00  0.0000E+00  0.1260E+03  0.1260E+03
    -36.970  0.0000E+00  0.0000E+00  0.1260E+03  0.1260E+03
    -36.729  0.0000E+00  0.0000E+00  0.1260E+03  0.1260E+03
    -36.487  0.0000E+00  0.0000E+00  0.1260E+03  0.1260E+03
    -36.246  0.0000E+00  0.0000E+00  0.1260E+03  0.1260E+03
    -36.005  0.0000E+00  0.0000E+00  0.1260E+03  0.1260E+03
    -35.764  0.0000E+00  0.0000E+00  0.1260E+03  0.1260E+03
    -35.522  0.0000E+00  0.0000E+00  0.1260E+03  0.1260E+03
    -35.281  0.0000E+00  0.0000E+00  0.1260E+03  0.1260E+03
    -35.040  0.0000E+00  0.0000E+00  0.1260E+03  0.1260E+03
    -34.798  0.0000E+00  0.0000E+00  0.1260E+03  0.1260E+03
    -34.557  0.0000E+00  0.0000E+00  0.1260E+03  0.1260E+03
    -34.316  0.0000E+00  0.0000E+00  0.1260E+03  0.1260E+03
    -34.075  0.0000E+00  0.0000E+00  0.1260E+03  0.1260E+03
    -33.833  0.0000E+00  0.0000E+00  0.1260E+03  0.1260E+03
    -33.592  0.0000E+00  0.0000E+00  0.1260E+03  0.1260E+03
    -33.351  0.0000E+00  0.0000E+00  0.1260E+03  0.1260E+03
    -33.110  0.0000E+00  0.0000E+00  0.1260E+03  0.1260E+03
    -32.868  0.0000E+00  0.0000E+00  0.1260E+03  0.1260E+03
    -32.627  0.0000E+00  0.0000E+00  0.1260E+03  0.1260E+03
    -32.386  0.0000E+00  0.0000E+00  0.1260E+03  0.1260E+03
    -32.144  0.0000E+00  0.0000E+00  0.1260E+03  0.1260E+03
    -31.903  0.0000E+00  0.0000E+00  0.1260E+03  0.1260E+03
    -31.662  0.0000E+00  0.0000E+00  0.1260E+03  0.1260E+03
    -31.421  0.0000E+00  0.0000E+00  0.1260E+03  0.1260E+03
    -31.179  0.0000E+00  0.0000E+00  0.1260E+03  0.1260E+03
    -30.938  0.0000E+00  0.0000E+00  0.1260E+03  0.1260E+03
    -30.697  0.0000E+00  0.0000E+00  0.1260E+03  0.1260E+03
    -30.456  0.0000E+00  0.0000E+00  0.1260E+03  0.1260E+03
    -30.214  0.0000E+00  0.0000E+00  0.1260E+03  0.1260E+03
    -29.973  0.0000E+00  0.0000E+00  0.1260E+03  0.1260E+03
    -29.732  0.0000E+00  0.0000E+00  0.1260E+03  0.1260E+03
    -29.491  0.0000E+00  0.0000E+00  0.1260E+03  0.1260E+03
    -29.249  0.0000E+00  0.0000E+00  0.1260E+03  0.1260E+03
    -29.008  0.0000E+00  0.0000E+00  0.1260E+03  0.1260E+03
    -28.767  0.0000E+00  0.0000E+00  0.1260E+03  0.1260E+03
    -28.525  0.0000E+00  0.0000E+00  0.1260E+03  0.1260E+03
    -28.284  0.0000E+00  0.0000E+00  0.1260E+03  0.1260E+03
    -28.043  0.0000E+00  0.0000E+00  0.1260E+03  0.1260E+03
    -27.802  0.0000E+00  0.0000E+00  0.1260E+03  0.1260E+03
    -27.560  0.0000E+00  0.0000E+00  0.1260E+03  0.1260E+03
    -27.319  0.0000E+00  0.0000E+00  0.1260E+03  0.1260E+03
    -27.078  0.0000E+00  0.0000E+00  0.1260E+03  0.1260E+03
    -26.837  0.0000E+00  0.0000E+00  0.1260E+03  0.1260E+03
    -26.595  0.0000E+00  0.0000E+00  0.1260E+03  0.1260E+03
    -26.354  0.0000E+00  0.0000E+00  0.1260E+03  0.1260E+03
    -26.113  0.0000E+00  0.0000E+00  0.1260E+03  0.1260E+03
    -25.871  0.0000E+00  0.0000E+00  0.1260E+03  0.1260E+03
    -25.630  0.0000E+00  0.0000E+00  0.1260E+03  0.1260E+03
    -25.389  0.0000E+00  0.0000E+00  0.1260E+03  0.1260E+03
    -25.148  0.0000E+00  0.0000E+00  0.1260E+03  0.1260E+03
    -24.906  0.0000E+00  0.0000E+00  0.1260E+03  0.1260E+03
    -24.665  0.0000E+00  0.0000E+00  0.1260E+03  0.1260E+03
    -24.424  0.0000E+00  0.0000E+00  0.1260E+03  0.1260E+03
    -24.183  0.0000E+00  0.0000E+00  0.1260E+03  0.1260E+03
    -23.941  0.0000E+00  0.0000E+00  0.1260E+03  0.1260E+03
    -23.700  0.0000E+00  0.0000E+00  0.1260E+03  0.1260E+03
    -23.459  0.0000E+00  0.0000E+00  0.1260E+03  0.1260E+03
    -23.218  0.0000E+00  0.0000E+00  0.1260E+03  0.1260E+03
    -22.976  0.0000E+00  0.0000E+00  0.1260E+03  0.1260E+03
    -22.735  0.0000E+00  0.0000E+00  0.1260E+03  0.1260E+03
    -22.494  0.0000E+00  0.0000E+00  0.1260E+03  0.1260E+03
    -22.252  0.0000E+00  0.0000E+00  0.1260E+03  0.1260E+03
    -22.011  0.0000E+00  0.0000E+00  0.1260E+03  0.1260E+03
    -21.770  0.0000E+00  0.0000E+00  0.1260E+03  0.1260E+03
    -21.529  0.0000E+00  0.0000E+00  0.1260E+03  0.1260E+03
    -21.287  0.0000E+00  0.0000E+00  0.1260E+03  0.1260E+03
    -21.046  0.0000E+00  0.0000E+00  0.1260E+03  0.1260E+03
    -20.805  0.0000E+00  0.0000E+00  0.1260E+03  0.1260E+03
    -20.564  0.0000E+00  0.0000E+00  0.1260E+03  0.1260E+03
    -20.322  0.0000E+00  0.0000E+00  0.1260E+03  0.1260E+03
    -20.081  0.0000E+00  0.0000E+00  0.1260E+03  0.1260E+03
    -19.840  0.0000E+00  0.0000E+00  0.1260E+03  0.1260E+03
    -19.598  0.0000E+00  0.0000E+00  0.1260E+03  0.1260E+03
    -19.357  0.0000E+00  0.0000E+00  0.1260E+03  0.1260E+03
    -19.116  0.0000E+00  0.0000E+00  0.1260E+03  0.1260E+03
    -18.875  0.0000E+00  0.0000E+00  0.1260E+03  0.1260E+03
    -18.633  0.0000E+00  0.0000E+00  0.1260E+03  0.1260E+03
    -18.392  0.0000E+00  0.0000E+00  0.1260E+03  0.1260E+03
    -18.151  0.0000E+00  0.0000E+00  0.1260E+03  0.1260E+03
    -17.910  0.0000E+00  0.0000E+00  0.1260E+03  0.1260E+03
    -17.668  0.0000E+00  0.0000E+00  0.1260E+03  0.1260E+03
    -17.427  0.0000E+00  0.0000E+00  0.1260E+03  0.1260E+03
    -17.186  0.0000E+00  0.0000E+00  0.1260E+03  0.1260E+03
    -16.945  0.0000E+00  0.0000E+00  0.1260E+03  0.1260E+03
    -16.703  0.0000E+00  0.0000E+00  0.1260E+03  0.1260E+03
    -16.462  0.0000E+00  0.0000E+00  0.1260E+03  0.1260E+03
    -16.221  0.0000E+00  0.0000E+00  0.1260E+03  0.1260E+03
    -15.979  0.0000E+00  0.0000E+00  0.1260E+03  0.1260E+03
    -15.738  0.0000E+00  0.0000E+00  0.1260E+03  0.1260E+03
    -15.497  0.0000E+00  0.0000E+00  0.1260E+03  0.1260E+03
    -15.256  0.0000E+00  0.0000E+00  0.1260E+03  0.1260E+03
    -15.014  0.0000E+00  0.0000E+00  0.1260E+03  0.1260E+03
    -14.773  0.0000E+00  0.0000E+00  0.1260E+03  0.1260E+03
    -14.532  0.0000E+00  0.0000E+00  0.1260E+03  0.1260E+03
    -14.291  0.0000E+00  0.0000E+00  0.1260E+03  0.1260E+03
    -14.049  0.0000E+00  0.0000E+00  0.1260E+03  0.1260E+03
    -13.808  0.0000E+00  0.0000E+00  0.1260E+03  0.1260E+03
    -13.567  0.0000E+00  0.0000E+00  0.1260E+03  0.1260E+03
    -13.325  0.3790E-01  0.0000E+00  0.1260E+03  0.1260E+03
    -13.084  0.4100E+02  0.1265E-11  0.1359E+03  0.1260E+03
    -12.843  0.3357E+02  0.4164E+01  0.1440E+03  0.1270E+03
    -12.602  0.2416E-02  0.6696E+02  0.1440E+03  0.1432E+03
    -12.360  0.0000E+00  0.3485E+01  0.1440E+03  0.1440E+03
    -12.119  0.0000E+00  0.0000E+00  0.1440E+03  0.1440E+03
    -11.878  0.0000E+00  0.0000E+00  0.1440E+03  0.1440E+03
    -11.637  0.0000E+00  0.0000E+00  0.1440E+03  0.1440E+03
    -11.395  0.0000E+00  0.0000E+00  0.1440E+03  0.1440E+03
    -11.154  0.0000E+00  0.0000E+00  0.1440E+03  0.1440E+03
    -10.913  0.0000E+00  0.0000E+00  0.1440E+03  0.1440E+03
    -10.672  0.0000E+00  0.0000E+00  0.1440E+03  0.1440E+03
    -10.430  0.0000E+00  0.0000E+00  0.1440E+03  0.1440E+03
    -10.189  0.0000E+00  0.0000E+00  0.1440E+03  0.1440E+03
     -9.948  0.0000E+00  0.0000E+00  0.1440E+03  0.1440E+03
     -9.706  0.0000E+00  0.0000E+00  0.1440E+03  0.1440E+03
     -9.465  0.0000E+00  0.0000E+00  0.1440E+03  0.1440E+03
     -9.224  0.0000E+00  0.0000E+00  0.1440E+03  0.1440E+03
     -8.983  0.0000E+00  0.0000E+00  0.1440E+03  0.1440E+03
     -8.741  0.0000E+00  0.0000E+00  0.1440E+03  0.1440E+03
     -8.500  0.0000E+00  0.0000E+00  0.1440E+03  0.1440E+03
     -8.259  0.0000E+00  0.0000E+00  0.1440E+03  0.1440E+03
     -8.018  0.0000E+00  0.0000E+00  0.1440E+03  0.1440E+03
     -7.776  0.3952E-06  0.0000E+00  0.1440E+03  0.1440E+03
     -7.535  0.2347E+01  0.9067E-07  0.1446E+03  0.1440E+03
     -7.294  0.2510E+02  0.2289E+01  0.1506E+03  0.1446E+03
     -7.052  0.2827E+02  0.2702E+02  0.1574E+03  0.1511E+03
     -6.811  0.4506E+02  0.2638E+02  0.1683E+03  0.1574E+03
     -6.570  0.1113E+02  0.3516E+02  0.1710E+03  0.1659E+03
     -6.329  0.0000E+00  0.2106E+02  0.1710E+03  0.1710E+03
     -6.087  0.0000E+00  0.7867E-03  0.1710E+03  0.1710E+03
     -5.846  0.0000E+00  0.0000E+00  0.1710E+03  0.1710E+03
     -5.605  0.0000E+00  0.0000E+00  0.1710E+03  0.1710E+03
     -5.364  0.0000E+00  0.0000E+00  0.1710E+03  0.1710E+03
     -5.122  0.0000E+00  0.0000E+00  0.1710E+03  0.1710E+03
     -4.881  0.0000E+00  0.0000E+00  0.1710E+03  0.1710E+03
     -4.640  0.0000E+00  0.0000E+00  0.1710E+03  0.1710E+03
     -4.399  0.0000E+00  0.0000E+00  0.1710E+03  0.1710E+03
     -4.157  0.0000E+00  0.0000E+00  0.1710E+03  0.1710E+03
     -3.916  0.0000E+00  0.0000E+00  0.1710E+03  0.1710E+03
     -3.675  0.0000E+00  0.0000E+00  0.1710E+03  0.1710E+03
     -3.433  0.0000E+00  0.0000E+00  0.1710E+03  0.1710E+03
     -3.192  0.0000E+00  0.0000E+00  0.1710E+03  0.1710E+03
     -2.951  0.0000E+00  0.0000E+00  0.1710E+03  0.1710E+03
     -2.710  0.0000E+00  0.0000E+00  0.1710E+03  0.1710E+03
     -2.468  0.0000E+00  0.0000E+00  0.1710E+03  0.1710E+03
     -2.227  0.3613E-14  0.0000E+00  0.1710E+03  0.1710E+03
     -1.986  0.1001E+01  0.0000E+00  0.1712E+03  0.1710E+03
     -1.745  0.3058E+02  0.0000E+00  0.1786E+03  0.1710E+03
     -1.503  0.1737E+02  0.0000E+00  0.1828E+03  0.1710E+03
     -1.262  0.1633E+02  0.0000E+00  0.1867E+03  0.1710E+03
     -1.021  0.2759E+02  0.0000E+00  0.1934E+03  0.1710E+03
     -0.779  0.5927E+02  0.3409E-16  0.2077E+03  0.1710E+03
     -0.538  0.6173E+02  0.5350E-01  0.2226E+03  0.1710E+03
     -0.297  0.4864E+02  0.1700E+02  0.2343E+03  0.1751E+03
     -0.056  0.7949E+02  0.1655E+02  0.2535E+03  0.1791E+03
      0.186  0.9476E+02  0.1577E+02  0.2764E+03  0.1829E+03
      0.427  0.7728E+02  0.2424E+02  0.2950E+03  0.1888E+03
      0.668  0.7622E+02  0.3923E+02  0.3134E+03  0.1982E+03
      0.909  0.5012E+02  0.4554E+02  0.3255E+03  0.2092E+03
      1.151  0.3485E+02  0.3907E+02  0.3339E+03  0.2186E+03
      1.392  0.4345E+02  0.2945E+02  0.3444E+03  0.2257E+03
      1.633  0.4646E+02  0.2794E+02  0.3556E+03  0.2325E+03
      1.874  0.6587E+02  0.3372E+02  0.3715E+03  0.2406E+03
      2.116  0.7948E+02  0.3964E+02  0.3907E+03  0.2502E+03
      2.357  0.4291E+02  0.2492E+02  0.4010E+03  0.2562E+03
      2.598  0.3715E+02  0.3053E+02  0.4100E+03  0.2636E+03
      2.840  0.5046E+02  0.4473E+02  0.4222E+03  0.2744E+03
      3.081  0.1313E+02  0.4999E+02  0.4253E+03  0.2864E+03
      3.322  0.1562E+02  0.4320E+02  0.4291E+03  0.2968E+03
      3.563  0.3827E+02  0.3164E+02  0.4383E+03  0.3045E+03
      3.805  0.2709E+02  0.7293E+01  0.4449E+03  0.3062E+03
      4.046  0.4118E+02  0.3798E+02  0.4548E+03  0.3154E+03
      4.287  0.3779E+02  0.7614E+02  0.4639E+03  0.3338E+03
      4.528  0.3903E+02  0.3027E+02  0.4733E+03  0.3411E+03
      4.770  0.3196E+02  0.3862E+01  0.4810E+03  0.3420E+03
      5.011  0.1987E+02  0.0000E+00  0.4858E+03  0.3420E+03
      5.252  0.6545E+00  0.0000E+00  0.4860E+03  0.3420E+03
      5.494  0.0000E+00  0.0000E+00  0.4860E+03  0.3420E+03
      5.735  0.0000E+00  0.0000E+00  0.4860E+03  0.3420E+03
      5.976  0.0000E+00  0.0000E+00  0.4860E+03  0.3420E+03
      6.217  0.0000E+00  0.3619E-04  0.4860E+03  0.3420E+03
      6.459  0.0000E+00  0.2169E+01  0.4860E+03  0.3425E+03
      6.700  0.0000E+00  0.5300E+01  0.4860E+03  0.3438E+03
      6.941  0.0000E+00  0.1472E+02  0.4860E+03  0.3474E+03
      7.182  0.1980E-07  0.3025E+02  0.4860E+03  0.3547E+03
      7.424  0.1463E+00  0.5900E+02  0.4860E+03  0.3689E+03
      7.665  0.7940E-02  0.6757E+02  0.4860E+03  0.3852E+03
      7.906  0.6625E+00  0.6511E+02  0.4862E+03  0.4009E+03
      8.147  0.1358E+01  0.7529E+02  0.4865E+03  0.4191E+03
      8.389  0.2883E+01  0.8300E+02  0.4872E+03  0.4391E+03
      8.630  0.5391E+01  0.6549E+02  0.4885E+03  0.4549E+03
      8.871  0.1137E+02  0.6107E+02  0.4913E+03  0.4696E+03
      9.113  0.1464E+02  0.4209E+02  0.4948E+03  0.4798E+03
      9.354  0.2025E+02  0.2348E+02  0.4997E+03  0.4854E+03
      9.595  0.1585E+02  0.5519E+01  0.5035E+03  0.4868E+03
      9.836  0.1842E+02  0.7884E+01  0.5079E+03  0.4887E+03
     10.078  0.2449E+02  0.1161E+02  0.5139E+03  0.4915E+03
     10.319  0.1854E+02  0.2213E+02  0.5183E+03  0.4968E+03
     10.560  0.1957E+02  0.2137E+02  0.5231E+03  0.5020E+03
     10.801  0.1187E+02  0.2253E+02  0.5259E+03  0.5074E+03
     11.043  0.1898E+02  0.2892E+02  0.5305E+03  0.5144E+03
     11.284  0.2517E+02  0.2408E+02  0.5366E+03  0.5202E+03
     11.525  0.3213E+02  0.2113E+02  0.5443E+03  0.5253E+03
     11.767  0.2739E+02  0.1458E+02  0.5509E+03  0.5288E+03
     12.008  0.3393E+02  0.1211E+02  0.5591E+03  0.5317E+03
     12.249  0.3216E+02  0.3230E+02  0.5669E+03  0.5395E+03
     12.490  0.2280E+02  0.4595E+02  0.5724E+03  0.5506E+03
     12.732  0.2096E+02  0.3605E+02  0.5774E+03  0.5593E+03
     12.973  0.2394E+02  0.2480E+02  0.5832E+03  0.5653E+03
     13.214  0.2816E+02  0.2063E+02  0.5900E+03  0.5703E+03
     13.455  0.2781E+02  0.2933E+02  0.5967E+03  0.5773E+03
     13.697  0.2227E+02  0.3050E+02  0.6021E+03  0.5847E+03
     13.938  0.1482E+02  0.2699E+02  0.6057E+03  0.5912E+03
     14.179  0.1414E+01  0.2420E+02  0.6060E+03  0.5971E+03
     14.420  0.0000E+00  0.2243E+02  0.6060E+03  0.6025E+03
     14.662  0.0000E+00  0.1395E+02  0.6060E+03  0.6058E+03
     14.903  0.0000E+00  0.6842E+00  0.6060E+03  0.6060E+03
     15.144  0.0000E+00  0.2161E-05  0.6060E+03  0.6060E+03
     15.386  0.0000E+00  0.0000E+00  0.6060E+03  0.6060E+03
     15.627  0.0000E+00  0.0000E+00  0.6060E+03  0.6060E+03
     15.868  0.0000E+00  0.0000E+00  0.6060E+03  0.6060E+03
     16.109  0.0000E+00  0.0000E+00  0.6060E+03  0.6060E+03
     16.351  0.0000E+00  0.0000E+00  0.6060E+03  0.6060E+03
     16.592  0.0000E+00  0.0000E+00  0.6060E+03  0.6060E+03
     16.833  0.0000E+00  0.0000E+00  0.6060E+03  0.6060E+03
     17.074  0.0000E+00  0.0000E+00  0.6060E+03  0.6060E+03
     17.316  0.0000E+00  0.0000E+00  0.6060E+03  0.6060E+03
     17.557  0.0000E+00  0.0000E+00  0.6060E+03  0.6060E+03
     17.798  0.0000E+00  0.0000E+00  0.6060E+03  0.6060E+03
     18.040  0.0000E+00  0.0000E+00  0.6060E+03  0.6060E+03
