 120 120   0   0
  0.1228332E+02  0.1173587E-08  0.1121847E-08  0.1119562E-08  0.5000000E-15
  1.000000000000000E-004
  CAR 
 unknown system                          
     16.72981889    -54.73064800  301      4.40288835      1.00000000
    -54.731  0.0000E+00  0.0000E+00  0.0000E+00  0.0000E+00
    -54.492  0.0000E+00  0.0000E+00  0.0000E+00  0.0000E+00
    -54.254  0.0000E+00  0.0000E+00  0.0000E+00  0.0000E+00
    -54.016  0.0000E+00  0.0000E+00  0.0000E+00  0.0000E+00
    -53.778  0.0000E+00  0.0000E+00  0.0000E+00  0.0000E+00
    -53.540  0.0000E+00  0.0000E+00  0.0000E+00  0.0000E+00
    -53.301  0.0000E+00  0.0000E+00  0.0000E+00  0.0000E+00
    -53.063  0.0000E+00  0.0000E+00  0.0000E+00  0.0000E+00
    -52.825  0.0000E+00  0.0000E+00  0.0000E+00  0.0000E+00
    -52.587  0.0000E+00  0.0000E+00  0.0000E+00  0.0000E+00
    -52.349  0.0000E+00  0.0000E+00  0.0000E+00  0.0000E+00
    -52.110  0.0000E+00  0.0000E+00  0.0000E+00  0.0000E+00
    -51.872  0.0000E+00  0.0000E+00  0.0000E+00  0.0000E+00
    -51.634  0.2622E-03  0.0000E+00  0.6245E-04  0.0000E+00
    -51.396  0.9790E+02  0.0000E+00  0.2332E+02  0.0000E+00
    -51.158  0.2853E+01  0.0000E+00  0.2400E+02  0.0000E+00
    -50.919  0.0000E+00  0.0000E+00  0.2400E+02  0.0000E+00
    -50.681  0.0000E+00  0.0000E+00  0.2400E+02  0.0000E+00
    -50.443  0.2602E-09  0.0000E+00  0.2400E+02  0.0000E+00
    -50.205  0.4338E+02  0.0000E+00  0.3433E+02  0.0000E+00
    -49.967  0.1319E+03  0.0000E+00  0.6574E+02  0.0000E+00
    -49.728  0.2626E+02  0.0000E+00  0.7200E+02  0.0000E+00
    -49.490  0.0000E+00  0.0000E+00  0.7200E+02  0.0000E+00
    -49.252  0.0000E+00  0.0000E+00  0.7200E+02  0.0000E+00
    -49.014  0.0000E+00  0.0000E+00  0.7200E+02  0.0000E+00
    -48.776  0.0000E+00  0.0000E+00  0.7200E+02  0.0000E+00
    -48.537  0.0000E+00  0.0000E+00  0.7200E+02  0.0000E+00
    -48.299  0.0000E+00  0.0000E+00  0.7200E+02  0.0000E+00
    -48.061  0.0000E+00  0.0000E+00  0.7200E+02  0.0000E+00
    -47.823  0.0000E+00  0.0000E+00  0.7200E+02  0.0000E+00
    -47.585  0.0000E+00  0.0000E+00  0.7200E+02  0.0000E+00
    -47.346  0.0000E+00  0.0000E+00  0.7200E+02  0.0000E+00
    -47.108  0.0000E+00  0.0000E+00  0.7200E+02  0.0000E+00
    -46.870  0.0000E+00  0.6290E-01  0.7200E+02  0.1498E-01
    -46.632  0.0000E+00  0.1006E+03  0.7200E+02  0.2398E+02
    -46.394  0.0000E+00  0.9584E+02  0.7200E+02  0.4680E+02
    -46.155  0.0000E+00  0.1058E+03  0.7200E+02  0.7200E+02
    -45.917  0.0000E+00  0.0000E+00  0.7200E+02  0.7200E+02
    -45.679  0.0000E+00  0.0000E+00  0.7200E+02  0.7200E+02
    -45.441  0.0000E+00  0.0000E+00  0.7200E+02  0.7200E+02
    -45.203  0.0000E+00  0.0000E+00  0.7200E+02  0.7200E+02
    -44.964  0.0000E+00  0.0000E+00  0.7200E+02  0.7200E+02
    -44.726  0.0000E+00  0.0000E+00  0.7200E+02  0.7200E+02
    -44.488  0.0000E+00  0.0000E+00  0.7200E+02  0.7200E+02
    -44.250  0.0000E+00  0.0000E+00  0.7200E+02  0.7200E+02
    -44.012  0.0000E+00  0.0000E+00  0.7200E+02  0.7200E+02
    -43.773  0.0000E+00  0.0000E+00  0.7200E+02  0.7200E+02
    -43.535  0.0000E+00  0.0000E+00  0.7200E+02  0.7200E+02
    -43.297  0.0000E+00  0.0000E+00  0.7200E+02  0.7200E+02
    -43.059  0.0000E+00  0.0000E+00  0.7200E+02  0.7200E+02
    -42.821  0.0000E+00  0.0000E+00  0.7200E+02  0.7200E+02
    -42.582  0.0000E+00  0.0000E+00  0.7200E+02  0.7200E+02
    -42.344  0.0000E+00  0.0000E+00  0.7200E+02  0.7200E+02
    -42.106  0.0000E+00  0.0000E+00  0.7200E+02  0.7200E+02
    -41.868  0.0000E+00  0.0000E+00  0.7200E+02  0.7200E+02
    -41.630  0.0000E+00  0.0000E+00  0.7200E+02  0.7200E+02
    -41.391  0.0000E+00  0.0000E+00  0.7200E+02  0.7200E+02
    -41.153  0.0000E+00  0.0000E+00  0.7200E+02  0.7200E+02
    -40.915  0.0000E+00  0.0000E+00  0.7200E+02  0.7200E+02
    -40.677  0.2341E-03  0.7089E-04  0.7200E+02  0.7200E+02
    -40.439  0.9876E+02  0.9726E+02  0.9553E+02  0.9517E+02
    -40.200  0.1026E+03  0.1041E+03  0.1200E+03  0.1200E+03
    -39.962  0.1693E+00  0.1695E+00  0.1200E+03  0.1200E+03
    -39.724  0.0000E+00  0.0000E+00  0.1200E+03  0.1200E+03
    -39.486  0.0000E+00  0.0000E+00  0.1200E+03  0.1200E+03
    -39.248  0.0000E+00  0.0000E+00  0.1200E+03  0.1200E+03
    -39.009  0.0000E+00  0.0000E+00  0.1200E+03  0.1200E+03
    -38.771  0.0000E+00  0.0000E+00  0.1200E+03  0.1200E+03
    -38.533  0.0000E+00  0.0000E+00  0.1200E+03  0.1200E+03
    -38.295  0.0000E+00  0.0000E+00  0.1200E+03  0.1200E+03
    -38.057  0.0000E+00  0.0000E+00  0.1200E+03  0.1200E+03
    -37.818  0.0000E+00  0.0000E+00  0.1200E+03  0.1200E+03
    -37.580  0.0000E+00  0.0000E+00  0.1200E+03  0.1200E+03
    -37.342  0.0000E+00  0.0000E+00  0.1200E+03  0.1200E+03
    -37.104  0.0000E+00  0.0000E+00  0.1200E+03  0.1200E+03
    -36.866  0.0000E+00  0.0000E+00  0.1200E+03  0.1200E+03
    -36.627  0.0000E+00  0.0000E+00  0.1200E+03  0.1200E+03
    -36.389  0.0000E+00  0.0000E+00  0.1200E+03  0.1200E+03
    -36.151  0.0000E+00  0.0000E+00  0.1200E+03  0.1200E+03
    -35.913  0.0000E+00  0.0000E+00  0.1200E+03  0.1200E+03
    -35.675  0.0000E+00  0.0000E+00  0.1200E+03  0.1200E+03
    -35.436  0.0000E+00  0.0000E+00  0.1200E+03  0.1200E+03
    -35.198  0.0000E+00  0.0000E+00  0.1200E+03  0.1200E+03
    -34.960  0.0000E+00  0.0000E+00  0.1200E+03  0.1200E+03
    -34.722  0.0000E+00  0.0000E+00  0.1200E+03  0.1200E+03
    -34.484  0.0000E+00  0.0000E+00  0.1200E+03  0.1200E+03
    -34.245  0.0000E+00  0.0000E+00  0.1200E+03  0.1200E+03
    -34.007  0.0000E+00  0.0000E+00  0.1200E+03  0.1200E+03
    -33.769  0.0000E+00  0.0000E+00  0.1200E+03  0.1200E+03
    -33.531  0.0000E+00  0.0000E+00  0.1200E+03  0.1200E+03
    -33.293  0.0000E+00  0.0000E+00  0.1200E+03  0.1200E+03
    -33.054  0.0000E+00  0.0000E+00  0.1200E+03  0.1200E+03
    -32.816  0.0000E+00  0.0000E+00  0.1200E+03  0.1200E+03
    -32.578  0.0000E+00  0.0000E+00  0.1200E+03  0.1200E+03
    -32.340  0.0000E+00  0.0000E+00  0.1200E+03  0.1200E+03
    -32.102  0.0000E+00  0.0000E+00  0.1200E+03  0.1200E+03
    -31.863  0.0000E+00  0.0000E+00  0.1200E+03  0.1200E+03
    -31.625  0.0000E+00  0.0000E+00  0.1200E+03  0.1200E+03
    -31.387  0.0000E+00  0.0000E+00  0.1200E+03  0.1200E+03
    -31.149  0.0000E+00  0.0000E+00  0.1200E+03  0.1200E+03
    -30.910  0.0000E+00  0.0000E+00  0.1200E+03  0.1200E+03
    -30.672  0.0000E+00  0.0000E+00  0.1200E+03  0.1200E+03
    -30.434  0.0000E+00  0.0000E+00  0.1200E+03  0.1200E+03
    -30.196  0.0000E+00  0.0000E+00  0.1200E+03  0.1200E+03
    -29.958  0.0000E+00  0.0000E+00  0.1200E+03  0.1200E+03
    -29.719  0.0000E+00  0.0000E+00  0.1200E+03  0.1200E+03
    -29.481  0.0000E+00  0.0000E+00  0.1200E+03  0.1200E+03
    -29.243  0.0000E+00  0.0000E+00  0.1200E+03  0.1200E+03
    -29.005  0.0000E+00  0.0000E+00  0.1200E+03  0.1200E+03
    -28.767  0.0000E+00  0.0000E+00  0.1200E+03  0.1200E+03
    -28.528  0.0000E+00  0.0000E+00  0.1200E+03  0.1200E+03
    -28.290  0.0000E+00  0.0000E+00  0.1200E+03  0.1200E+03
    -28.052  0.0000E+00  0.0000E+00  0.1200E+03  0.1200E+03
    -27.814  0.0000E+00  0.0000E+00  0.1200E+03  0.1200E+03
    -27.576  0.0000E+00  0.0000E+00  0.1200E+03  0.1200E+03
    -27.337  0.0000E+00  0.0000E+00  0.1200E+03  0.1200E+03
    -27.099  0.0000E+00  0.0000E+00  0.1200E+03  0.1200E+03
    -26.861  0.0000E+00  0.0000E+00  0.1200E+03  0.1200E+03
    -26.623  0.0000E+00  0.0000E+00  0.1200E+03  0.1200E+03
    -26.385  0.0000E+00  0.0000E+00  0.1200E+03  0.1200E+03
    -26.146  0.0000E+00  0.0000E+00  0.1200E+03  0.1200E+03
    -25.908  0.0000E+00  0.0000E+00  0.1200E+03  0.1200E+03
    -25.670  0.0000E+00  0.0000E+00  0.1200E+03  0.1200E+03
    -25.432  0.0000E+00  0.0000E+00  0.1200E+03  0.1200E+03
    -25.194  0.0000E+00  0.0000E+00  0.1200E+03  0.1200E+03
    -24.955  0.0000E+00  0.0000E+00  0.1200E+03  0.1200E+03
    -24.717  0.0000E+00  0.0000E+00  0.1200E+03  0.1200E+03
    -24.479  0.0000E+00  0.0000E+00  0.1200E+03  0.1200E+03
    -24.241  0.0000E+00  0.0000E+00  0.1200E+03  0.1200E+03
    -24.003  0.0000E+00  0.0000E+00  0.1200E+03  0.1200E+03
    -23.764  0.0000E+00  0.0000E+00  0.1200E+03  0.1200E+03
    -23.526  0.0000E+00  0.0000E+00  0.1200E+03  0.1200E+03
    -23.288  0.0000E+00  0.0000E+00  0.1200E+03  0.1200E+03
    -23.050  0.0000E+00  0.0000E+00  0.1200E+03  0.1200E+03
    -22.812  0.0000E+00  0.0000E+00  0.1200E+03  0.1200E+03
    -22.573  0.0000E+00  0.0000E+00  0.1200E+03  0.1200E+03
    -22.335  0.0000E+00  0.0000E+00  0.1200E+03  0.1200E+03
    -22.097  0.0000E+00  0.0000E+00  0.1200E+03  0.1200E+03
    -21.859  0.0000E+00  0.0000E+00  0.1200E+03  0.1200E+03
    -21.621  0.0000E+00  0.0000E+00  0.1200E+03  0.1200E+03
    -21.382  0.0000E+00  0.0000E+00  0.1200E+03  0.1200E+03
    -21.144  0.0000E+00  0.0000E+00  0.1200E+03  0.1200E+03
    -20.906  0.0000E+00  0.0000E+00  0.1200E+03  0.1200E+03
    -20.668  0.0000E+00  0.0000E+00  0.1200E+03  0.1200E+03
    -20.430  0.0000E+00  0.0000E+00  0.1200E+03  0.1200E+03
    -20.191  0.0000E+00  0.0000E+00  0.1200E+03  0.1200E+03
    -19.953  0.0000E+00  0.0000E+00  0.1200E+03  0.1200E+03
    -19.715  0.0000E+00  0.0000E+00  0.1200E+03  0.1200E+03
    -19.477  0.0000E+00  0.0000E+00  0.1200E+03  0.1200E+03
    -19.239  0.0000E+00  0.0000E+00  0.1200E+03  0.1200E+03
    -19.000  0.0000E+00  0.0000E+00  0.1200E+03  0.1200E+03
    -18.762  0.0000E+00  0.0000E+00  0.1200E+03  0.1200E+03
    -18.524  0.0000E+00  0.0000E+00  0.1200E+03  0.1200E+03
    -18.286  0.0000E+00  0.0000E+00  0.1200E+03  0.1200E+03
    -18.048  0.0000E+00  0.0000E+00  0.1200E+03  0.1200E+03
    -17.809  0.0000E+00  0.0000E+00  0.1200E+03  0.1200E+03
    -17.571  0.0000E+00  0.0000E+00  0.1200E+03  0.1200E+03
    -17.333  0.0000E+00  0.0000E+00  0.1200E+03  0.1200E+03
    -17.095  0.0000E+00  0.0000E+00  0.1200E+03  0.1200E+03
    -16.857  0.0000E+00  0.0000E+00  0.1200E+03  0.1200E+03
    -16.618  0.0000E+00  0.0000E+00  0.1200E+03  0.1200E+03
    -16.380  0.0000E+00  0.0000E+00  0.1200E+03  0.1200E+03
    -16.142  0.0000E+00  0.0000E+00  0.1200E+03  0.1200E+03
    -15.904  0.0000E+00  0.0000E+00  0.1200E+03  0.1200E+03
    -15.666  0.0000E+00  0.0000E+00  0.1200E+03  0.1200E+03
    -15.427  0.0000E+00  0.0000E+00  0.1200E+03  0.1200E+03
    -15.189  0.0000E+00  0.0000E+00  0.1200E+03  0.1200E+03
    -14.951  0.0000E+00  0.0000E+00  0.1200E+03  0.1200E+03
    -14.713  0.0000E+00  0.0000E+00  0.1200E+03  0.1200E+03
    -14.475  0.0000E+00  0.0000E+00  0.1200E+03  0.1200E+03
    -14.236  0.0000E+00  0.0000E+00  0.1200E+03  0.1200E+03
    -13.998  0.0000E+00  0.0000E+00  0.1200E+03  0.1200E+03
    -13.760  0.1164E-08  0.0000E+00  0.1200E+03  0.1200E+03
    -13.522  0.8688E+01  0.1726E-15  0.1221E+03  0.1200E+03
    -13.284  0.5995E+02  0.3101E+00  0.1364E+03  0.1201E+03
    -13.045  0.3211E+02  0.6688E+02  0.1440E+03  0.1360E+03
    -12.807  0.2903E-03  0.3356E+02  0.1440E+03  0.1440E+03
    -12.569  0.0000E+00  0.3691E-04  0.1440E+03  0.1440E+03
    -12.331  0.0000E+00  0.0000E+00  0.1440E+03  0.1440E+03
    -12.093  0.0000E+00  0.0000E+00  0.1440E+03  0.1440E+03
    -11.854  0.0000E+00  0.0000E+00  0.1440E+03  0.1440E+03
    -11.616  0.0000E+00  0.0000E+00  0.1440E+03  0.1440E+03
    -11.378  0.0000E+00  0.0000E+00  0.1440E+03  0.1440E+03
    -11.140  0.0000E+00  0.0000E+00  0.1440E+03  0.1440E+03
    -10.902  0.0000E+00  0.0000E+00  0.1440E+03  0.1440E+03
    -10.663  0.0000E+00  0.0000E+00  0.1440E+03  0.1440E+03
    -10.425  0.0000E+00  0.0000E+00  0.1440E+03  0.1440E+03
    -10.187  0.0000E+00  0.0000E+00  0.1440E+03  0.1440E+03
     -9.949  0.0000E+00  0.0000E+00  0.1440E+03  0.1440E+03
     -9.711  0.0000E+00  0.0000E+00  0.1440E+03  0.1440E+03
     -9.472  0.0000E+00  0.0000E+00  0.1440E+03  0.1440E+03
     -9.234  0.0000E+00  0.0000E+00  0.1440E+03  0.1440E+03
     -8.996  0.0000E+00  0.0000E+00  0.1440E+03  0.1440E+03
     -8.758  0.0000E+00  0.0000E+00  0.1440E+03  0.1440E+03
     -8.520  0.0000E+00  0.0000E+00  0.1440E+03  0.1440E+03
     -8.281  0.0000E+00  0.0000E+00  0.1440E+03  0.1440E+03
     -8.043  0.0000E+00  0.0000E+00  0.1440E+03  0.1440E+03
     -7.805  0.1115E-01  0.2244E-15  0.1440E+03  0.1440E+03
     -7.567  0.1832E+02  0.1262E+00  0.1484E+03  0.1440E+03
     -7.329  0.4806E+02  0.2882E+02  0.1598E+03  0.1509E+03
     -7.090  0.3348E+02  0.4937E+02  0.1678E+03  0.1627E+03
     -6.852  0.8846E+00  0.2177E+02  0.1680E+03  0.1678E+03
     -6.614  0.0000E+00  0.6750E+00  0.1680E+03  0.1680E+03
     -6.376  0.0000E+00  0.0000E+00  0.1680E+03  0.1680E+03
     -6.138  0.0000E+00  0.0000E+00  0.1680E+03  0.1680E+03
     -5.899  0.0000E+00  0.0000E+00  0.1680E+03  0.1680E+03
     -5.661  0.0000E+00  0.0000E+00  0.1680E+03  0.1680E+03
     -5.423  0.0000E+00  0.0000E+00  0.1680E+03  0.1680E+03
     -5.185  0.0000E+00  0.0000E+00  0.1680E+03  0.1680E+03
     -4.947  0.0000E+00  0.0000E+00  0.1680E+03  0.1680E+03
     -4.708  0.0000E+00  0.0000E+00  0.1680E+03  0.1680E+03
     -4.470  0.0000E+00  0.0000E+00  0.1680E+03  0.1680E+03
     -4.232  0.0000E+00  0.0000E+00  0.1680E+03  0.1680E+03
     -3.994  0.0000E+00  0.0000E+00  0.1680E+03  0.1680E+03
     -3.756  0.0000E+00  0.0000E+00  0.1680E+03  0.1680E+03
     -3.517  0.0000E+00  0.0000E+00  0.1680E+03  0.1680E+03
     -3.279  0.0000E+00  0.0000E+00  0.1680E+03  0.1680E+03
     -3.041  0.0000E+00  0.0000E+00  0.1680E+03  0.1680E+03
     -2.803  0.0000E+00  0.0000E+00  0.1680E+03  0.1680E+03
     -2.565  0.0000E+00  0.0000E+00  0.1680E+03  0.1680E+03
     -2.326  0.0000E+00  0.0000E+00  0.1680E+03  0.1680E+03
     -2.088  0.2023E-05  0.0000E+00  0.1680E+03  0.1680E+03
     -1.850  0.7834E+01  0.0000E+00  0.1699E+03  0.1680E+03
     -1.612  0.5810E+02  0.0000E+00  0.1837E+03  0.1680E+03
     -1.373  0.4174E+02  0.0000E+00  0.1936E+03  0.1680E+03
     -1.135  0.3247E+02  0.0000E+00  0.2014E+03  0.1680E+03
     -0.897  0.5379E+02  0.2017E-08  0.2142E+03  0.1680E+03
     -0.659  0.5341E+02  0.1747E+01  0.2269E+03  0.1684E+03
     -0.421  0.6687E+02  0.1714E+02  0.2428E+03  0.1725E+03
     -0.182  0.5451E+02  0.3874E+02  0.2558E+03  0.1817E+03
      0.056  0.3439E+02  0.3524E+02  0.2640E+03  0.1901E+03
      0.294  0.5505E+02  0.2264E+02  0.2771E+03  0.1955E+03
      0.532  0.4779E+02  0.4864E+02  0.2885E+03  0.2071E+03
      0.770  0.3248E+02  0.4849E+02  0.2963E+03  0.2187E+03
      1.009  0.4984E+02  0.6840E+02  0.3081E+03  0.2349E+03
      1.247  0.4884E+02  0.2644E+02  0.3198E+03  0.2412E+03
      1.485  0.5440E+02  0.2284E+02  0.3327E+03  0.2467E+03
      1.723  0.6192E+02  0.3802E+02  0.3475E+03  0.2557E+03
      1.961  0.3423E+02  0.4600E+02  0.3556E+03  0.2667E+03
      2.200  0.2446E+02  0.2959E+02  0.3614E+03  0.2737E+03
      2.438  0.1354E+02  0.3580E+02  0.3647E+03  0.2823E+03
      2.676  0.3760E+02  0.2534E+02  0.3736E+03  0.2883E+03
      2.914  0.3863E+02  0.4570E+02  0.3828E+03  0.2992E+03
      3.152  0.3028E+02  0.4177E+02  0.3900E+03  0.3092E+03
      3.391  0.4374E+02  0.1467E+02  0.4005E+03  0.3126E+03
      3.629  0.5338E+02  0.3028E+02  0.4132E+03  0.3199E+03
      3.867  0.4743E+02  0.5715E+02  0.4245E+03  0.3335E+03
      4.105  0.2944E+02  0.1062E+02  0.4315E+03  0.3360E+03
      4.343  0.2147E+01  0.1026E-04  0.4320E+03  0.3360E+03
      4.582  0.0000E+00  0.0000E+00  0.4320E+03  0.3360E+03
      4.820  0.0000E+00  0.0000E+00  0.4320E+03  0.3360E+03
      5.058  0.0000E+00  0.0000E+00  0.4320E+03  0.3360E+03
      5.296  0.0000E+00  0.0000E+00  0.4320E+03  0.3360E+03
      5.534  0.0000E+00  0.0000E+00  0.4320E+03  0.3360E+03
      5.773  0.0000E+00  0.0000E+00  0.4320E+03  0.3360E+03
      6.011  0.0000E+00  0.3425E-02  0.4320E+03  0.3360E+03
      6.249  0.0000E+00  0.1875E+01  0.4320E+03  0.3364E+03
      6.487  0.0000E+00  0.1341E+02  0.4320E+03  0.3396E+03
      6.725  0.0000E+00  0.2691E+02  0.4320E+03  0.3461E+03
      6.964  0.0000E+00  0.2505E+02  0.4320E+03  0.3520E+03
      7.202  0.7012E-05  0.5719E+02  0.4320E+03  0.3656E+03
      7.440  0.1551E+00  0.7604E+02  0.4320E+03  0.3838E+03
      7.678  0.7206E+00  0.2949E+02  0.4322E+03  0.3908E+03
      7.916  0.1475E+01  0.4114E+02  0.4326E+03  0.4006E+03
      8.155  0.4812E+01  0.7763E+02  0.4337E+03  0.4191E+03
      8.393  0.7003E+01  0.5078E+02  0.4354E+03  0.4312E+03
      8.631  0.1574E+02  0.3906E+01  0.4391E+03  0.4321E+03
      8.869  0.2385E+02  0.1118E+01  0.4448E+03  0.4324E+03
      9.107  0.1969E+02  0.4469E+01  0.4495E+03  0.4334E+03
      9.346  0.1942E+02  0.1059E+02  0.4541E+03  0.4360E+03
      9.584  0.1991E+02  0.2082E+02  0.4589E+03  0.4409E+03
      9.822  0.2440E+02  0.2876E+02  0.4647E+03  0.4478E+03
     10.060  0.2209E+02  0.3011E+02  0.4699E+03  0.4549E+03
     10.298  0.1783E+02  0.3014E+02  0.4742E+03  0.4621E+03
     10.537  0.2464E+02  0.2581E+02  0.4800E+03  0.4683E+03
     10.775  0.1518E+02  0.2594E+02  0.4837E+03  0.4744E+03
     11.013  0.2711E+02  0.2447E+02  0.4901E+03  0.4803E+03
     11.251  0.4542E+02  0.1020E+02  0.5009E+03  0.4827E+03
     11.489  0.4871E+02  0.2572E+02  0.5125E+03  0.4888E+03
     11.728  0.3545E+02  0.3008E+02  0.5210E+03  0.4960E+03
     11.966  0.2025E+02  0.5676E+02  0.5258E+03  0.5095E+03
     12.204  0.2084E+02  0.4451E+02  0.5308E+03  0.5201E+03
     12.442  0.2981E+02  0.2689E+02  0.5379E+03  0.5265E+03
     12.680  0.3273E+02  0.2368E+02  0.5457E+03  0.5322E+03
     12.919  0.1881E+02  0.2767E+02  0.5502E+03  0.5387E+03
     13.157  0.7660E+01  0.3302E+02  0.5520E+03  0.5466E+03
     13.395  0.8990E-01  0.1852E+02  0.5520E+03  0.5510E+03
     13.633  0.0000E+00  0.4096E+01  0.5520E+03  0.5520E+03
     13.871  0.0000E+00  0.4562E-05  0.5520E+03  0.5520E+03
     14.110  0.0000E+00  0.0000E+00  0.5520E+03  0.5520E+03
     14.348  0.0000E+00  0.0000E+00  0.5520E+03  0.5520E+03
     14.586  0.0000E+00  0.0000E+00  0.5520E+03  0.5520E+03
     14.824  0.0000E+00  0.0000E+00  0.5520E+03  0.5520E+03
     15.062  0.0000E+00  0.0000E+00  0.5520E+03  0.5520E+03
     15.301  0.0000E+00  0.0000E+00  0.5520E+03  0.5520E+03
     15.539  0.0000E+00  0.0000E+00  0.5520E+03  0.5520E+03
     15.777  0.0000E+00  0.0000E+00  0.5520E+03  0.5520E+03
     16.015  0.0000E+00  0.0000E+00  0.5520E+03  0.5520E+03
     16.253  0.0000E+00  0.0000E+00  0.5520E+03  0.5520E+03
     16.492  0.0000E+00  0.0000E+00  0.5520E+03  0.5520E+03
     16.730  0.0000E+00  0.0000E+00  0.5520E+03  0.5520E+03
