  99  99   0   0
  0.1430410E+02  0.1177748E-08  0.1177748E-08  0.1058004E-08  0.5000000E-15
  1.000000000000000E-004
  CAR 
 unknown system                          
     17.93027072    -54.33562101  301      5.43429360      1.00000000
    -54.336  0.0000E+00  0.0000E+00  0.0000E+00  0.0000E+00
    -54.095  0.0000E+00  0.0000E+00  0.0000E+00  0.0000E+00
    -53.854  0.0000E+00  0.0000E+00  0.0000E+00  0.0000E+00
    -53.613  0.0000E+00  0.0000E+00  0.0000E+00  0.0000E+00
    -53.372  0.0000E+00  0.0000E+00  0.0000E+00  0.0000E+00
    -53.131  0.0000E+00  0.0000E+00  0.0000E+00  0.0000E+00
    -52.890  0.0000E+00  0.0000E+00  0.0000E+00  0.0000E+00
    -52.649  0.0000E+00  0.0000E+00  0.0000E+00  0.0000E+00
    -52.409  0.0000E+00  0.0000E+00  0.0000E+00  0.0000E+00
    -52.168  0.0000E+00  0.0000E+00  0.0000E+00  0.0000E+00
    -51.927  0.0000E+00  0.0000E+00  0.0000E+00  0.0000E+00
    -51.686  0.0000E+00  0.0000E+00  0.0000E+00  0.0000E+00
    -51.445  0.0000E+00  0.0000E+00  0.0000E+00  0.0000E+00
    -51.204  0.5099E-03  0.0000E+00  0.1228E-03  0.0000E+00
    -50.963  0.1474E+03  0.0000E+00  0.3551E+02  0.0000E+00
    -50.722  0.2023E+01  0.0000E+00  0.3600E+02  0.0000E+00
    -50.481  0.0000E+00  0.0000E+00  0.3600E+02  0.0000E+00
    -50.241  0.0000E+00  0.0000E+00  0.3600E+02  0.0000E+00
    -50.000  0.0000E+00  0.0000E+00  0.3600E+02  0.0000E+00
    -49.759  0.1837E+01  0.0000E+00  0.3644E+02  0.0000E+00
    -49.518  0.2715E+03  0.0000E+00  0.1018E+03  0.0000E+00
    -49.277  0.2559E+02  0.0000E+00  0.1080E+03  0.0000E+00
    -49.036  0.0000E+00  0.0000E+00  0.1080E+03  0.0000E+00
    -48.795  0.0000E+00  0.0000E+00  0.1080E+03  0.0000E+00
    -48.554  0.0000E+00  0.0000E+00  0.1080E+03  0.0000E+00
    -48.313  0.0000E+00  0.0000E+00  0.1080E+03  0.0000E+00
    -48.073  0.0000E+00  0.0000E+00  0.1080E+03  0.0000E+00
    -47.832  0.0000E+00  0.0000E+00  0.1080E+03  0.0000E+00
    -47.591  0.0000E+00  0.0000E+00  0.1080E+03  0.0000E+00
    -47.350  0.0000E+00  0.0000E+00  0.1080E+03  0.0000E+00
    -47.109  0.0000E+00  0.0000E+00  0.1080E+03  0.0000E+00
    -46.868  0.0000E+00  0.0000E+00  0.1080E+03  0.0000E+00
    -46.627  0.0000E+00  0.0000E+00  0.1080E+03  0.0000E+00
    -46.386  0.0000E+00  0.3593E+00  0.1080E+03  0.8656E-01
    -46.145  0.0000E+00  0.1491E+03  0.1080E+03  0.3599E+02
    -45.905  0.0000E+00  0.6929E+02  0.1080E+03  0.5268E+02
    -45.664  0.0000E+00  0.2296E+03  0.1080E+03  0.1080E+03
    -45.423  0.0000E+00  0.0000E+00  0.1080E+03  0.1080E+03
    -45.182  0.0000E+00  0.0000E+00  0.1080E+03  0.1080E+03
    -44.941  0.0000E+00  0.0000E+00  0.1080E+03  0.1080E+03
    -44.700  0.0000E+00  0.0000E+00  0.1080E+03  0.1080E+03
    -44.459  0.0000E+00  0.0000E+00  0.1080E+03  0.1080E+03
    -44.218  0.0000E+00  0.0000E+00  0.1080E+03  0.1080E+03
    -43.978  0.0000E+00  0.0000E+00  0.1080E+03  0.1080E+03
    -43.737  0.0000E+00  0.0000E+00  0.1080E+03  0.1080E+03
    -43.496  0.0000E+00  0.0000E+00  0.1080E+03  0.1080E+03
    -43.255  0.0000E+00  0.0000E+00  0.1080E+03  0.1080E+03
    -43.014  0.0000E+00  0.0000E+00  0.1080E+03  0.1080E+03
    -42.773  0.0000E+00  0.0000E+00  0.1080E+03  0.1080E+03
    -42.532  0.0000E+00  0.0000E+00  0.1080E+03  0.1080E+03
    -42.291  0.0000E+00  0.0000E+00  0.1080E+03  0.1080E+03
    -42.050  0.0000E+00  0.0000E+00  0.1080E+03  0.1080E+03
    -41.810  0.0000E+00  0.0000E+00  0.1080E+03  0.1080E+03
    -41.569  0.0000E+00  0.0000E+00  0.1080E+03  0.1080E+03
    -41.328  0.0000E+00  0.0000E+00  0.1080E+03  0.1080E+03
    -41.087  0.0000E+00  0.0000E+00  0.1080E+03  0.1080E+03
    -40.846  0.0000E+00  0.0000E+00  0.1080E+03  0.1080E+03
    -40.605  0.0000E+00  0.0000E+00  0.1080E+03  0.1080E+03
    -40.364  0.0000E+00  0.0000E+00  0.1080E+03  0.1080E+03
    -40.123  0.6472E-11  0.4133E-11  0.1080E+03  0.1080E+03
    -39.882  0.2159E+02  0.2010E+02  0.1132E+03  0.1128E+03
    -39.642  0.5313E+02  0.5463E+02  0.1260E+03  0.1260E+03
    -39.401  0.0000E+00  0.0000E+00  0.1260E+03  0.1260E+03
    -39.160  0.0000E+00  0.0000E+00  0.1260E+03  0.1260E+03
    -38.919  0.0000E+00  0.0000E+00  0.1260E+03  0.1260E+03
    -38.678  0.0000E+00  0.0000E+00  0.1260E+03  0.1260E+03
    -38.437  0.0000E+00  0.0000E+00  0.1260E+03  0.1260E+03
    -38.196  0.0000E+00  0.0000E+00  0.1260E+03  0.1260E+03
    -37.955  0.0000E+00  0.0000E+00  0.1260E+03  0.1260E+03
    -37.714  0.0000E+00  0.0000E+00  0.1260E+03  0.1260E+03
    -37.474  0.0000E+00  0.0000E+00  0.1260E+03  0.1260E+03
    -37.233  0.0000E+00  0.0000E+00  0.1260E+03  0.1260E+03
    -36.992  0.0000E+00  0.0000E+00  0.1260E+03  0.1260E+03
    -36.751  0.0000E+00  0.0000E+00  0.1260E+03  0.1260E+03
    -36.510  0.0000E+00  0.0000E+00  0.1260E+03  0.1260E+03
    -36.269  0.0000E+00  0.0000E+00  0.1260E+03  0.1260E+03
    -36.028  0.0000E+00  0.0000E+00  0.1260E+03  0.1260E+03
    -35.787  0.0000E+00  0.0000E+00  0.1260E+03  0.1260E+03
    -35.546  0.0000E+00  0.0000E+00  0.1260E+03  0.1260E+03
    -35.306  0.0000E+00  0.0000E+00  0.1260E+03  0.1260E+03
    -35.065  0.0000E+00  0.0000E+00  0.1260E+03  0.1260E+03
    -34.824  0.0000E+00  0.0000E+00  0.1260E+03  0.1260E+03
    -34.583  0.0000E+00  0.0000E+00  0.1260E+03  0.1260E+03
    -34.342  0.0000E+00  0.0000E+00  0.1260E+03  0.1260E+03
    -34.101  0.0000E+00  0.0000E+00  0.1260E+03  0.1260E+03
    -33.860  0.0000E+00  0.0000E+00  0.1260E+03  0.1260E+03
    -33.619  0.0000E+00  0.0000E+00  0.1260E+03  0.1260E+03
    -33.379  0.0000E+00  0.0000E+00  0.1260E+03  0.1260E+03
    -33.138  0.0000E+00  0.0000E+00  0.1260E+03  0.1260E+03
    -32.897  0.0000E+00  0.0000E+00  0.1260E+03  0.1260E+03
    -32.656  0.0000E+00  0.0000E+00  0.1260E+03  0.1260E+03
    -32.415  0.0000E+00  0.0000E+00  0.1260E+03  0.1260E+03
    -32.174  0.0000E+00  0.0000E+00  0.1260E+03  0.1260E+03
    -31.933  0.0000E+00  0.0000E+00  0.1260E+03  0.1260E+03
    -31.692  0.0000E+00  0.0000E+00  0.1260E+03  0.1260E+03
    -31.451  0.0000E+00  0.0000E+00  0.1260E+03  0.1260E+03
    -31.211  0.0000E+00  0.0000E+00  0.1260E+03  0.1260E+03
    -30.970  0.0000E+00  0.0000E+00  0.1260E+03  0.1260E+03
    -30.729  0.0000E+00  0.0000E+00  0.1260E+03  0.1260E+03
    -30.488  0.0000E+00  0.0000E+00  0.1260E+03  0.1260E+03
    -30.247  0.0000E+00  0.0000E+00  0.1260E+03  0.1260E+03
    -30.006  0.0000E+00  0.0000E+00  0.1260E+03  0.1260E+03
    -29.765  0.0000E+00  0.0000E+00  0.1260E+03  0.1260E+03
    -29.524  0.0000E+00  0.0000E+00  0.1260E+03  0.1260E+03
    -29.283  0.0000E+00  0.0000E+00  0.1260E+03  0.1260E+03
    -29.043  0.0000E+00  0.0000E+00  0.1260E+03  0.1260E+03
    -28.802  0.0000E+00  0.0000E+00  0.1260E+03  0.1260E+03
    -28.561  0.0000E+00  0.0000E+00  0.1260E+03  0.1260E+03
    -28.320  0.0000E+00  0.0000E+00  0.1260E+03  0.1260E+03
    -28.079  0.0000E+00  0.0000E+00  0.1260E+03  0.1260E+03
    -27.838  0.0000E+00  0.0000E+00  0.1260E+03  0.1260E+03
    -27.597  0.0000E+00  0.0000E+00  0.1260E+03  0.1260E+03
    -27.356  0.0000E+00  0.0000E+00  0.1260E+03  0.1260E+03
    -27.115  0.0000E+00  0.0000E+00  0.1260E+03  0.1260E+03
    -26.875  0.0000E+00  0.0000E+00  0.1260E+03  0.1260E+03
    -26.634  0.0000E+00  0.0000E+00  0.1260E+03  0.1260E+03
    -26.393  0.0000E+00  0.0000E+00  0.1260E+03  0.1260E+03
    -26.152  0.0000E+00  0.0000E+00  0.1260E+03  0.1260E+03
    -25.911  0.0000E+00  0.0000E+00  0.1260E+03  0.1260E+03
    -25.670  0.0000E+00  0.0000E+00  0.1260E+03  0.1260E+03
    -25.429  0.0000E+00  0.0000E+00  0.1260E+03  0.1260E+03
    -25.188  0.0000E+00  0.0000E+00  0.1260E+03  0.1260E+03
    -24.947  0.0000E+00  0.0000E+00  0.1260E+03  0.1260E+03
    -24.707  0.0000E+00  0.0000E+00  0.1260E+03  0.1260E+03
    -24.466  0.0000E+00  0.0000E+00  0.1260E+03  0.1260E+03
    -24.225  0.0000E+00  0.0000E+00  0.1260E+03  0.1260E+03
    -23.984  0.0000E+00  0.0000E+00  0.1260E+03  0.1260E+03
    -23.743  0.0000E+00  0.0000E+00  0.1260E+03  0.1260E+03
    -23.502  0.0000E+00  0.0000E+00  0.1260E+03  0.1260E+03
    -23.261  0.0000E+00  0.0000E+00  0.1260E+03  0.1260E+03
    -23.020  0.0000E+00  0.0000E+00  0.1260E+03  0.1260E+03
    -22.780  0.0000E+00  0.0000E+00  0.1260E+03  0.1260E+03
    -22.539  0.0000E+00  0.0000E+00  0.1260E+03  0.1260E+03
    -22.298  0.0000E+00  0.0000E+00  0.1260E+03  0.1260E+03
    -22.057  0.0000E+00  0.0000E+00  0.1260E+03  0.1260E+03
    -21.816  0.0000E+00  0.0000E+00  0.1260E+03  0.1260E+03
    -21.575  0.0000E+00  0.0000E+00  0.1260E+03  0.1260E+03
    -21.334  0.0000E+00  0.0000E+00  0.1260E+03  0.1260E+03
    -21.093  0.0000E+00  0.0000E+00  0.1260E+03  0.1260E+03
    -20.852  0.0000E+00  0.0000E+00  0.1260E+03  0.1260E+03
    -20.612  0.0000E+00  0.0000E+00  0.1260E+03  0.1260E+03
    -20.371  0.0000E+00  0.0000E+00  0.1260E+03  0.1260E+03
    -20.130  0.0000E+00  0.0000E+00  0.1260E+03  0.1260E+03
    -19.889  0.0000E+00  0.0000E+00  0.1260E+03  0.1260E+03
    -19.648  0.0000E+00  0.0000E+00  0.1260E+03  0.1260E+03
    -19.407  0.0000E+00  0.0000E+00  0.1260E+03  0.1260E+03
    -19.166  0.0000E+00  0.0000E+00  0.1260E+03  0.1260E+03
    -18.925  0.0000E+00  0.0000E+00  0.1260E+03  0.1260E+03
    -18.684  0.0000E+00  0.0000E+00  0.1260E+03  0.1260E+03
    -18.444  0.0000E+00  0.0000E+00  0.1260E+03  0.1260E+03
    -18.203  0.0000E+00  0.0000E+00  0.1260E+03  0.1260E+03
    -17.962  0.0000E+00  0.0000E+00  0.1260E+03  0.1260E+03
    -17.721  0.0000E+00  0.0000E+00  0.1260E+03  0.1260E+03
    -17.480  0.0000E+00  0.0000E+00  0.1260E+03  0.1260E+03
    -17.239  0.0000E+00  0.0000E+00  0.1260E+03  0.1260E+03
    -16.998  0.0000E+00  0.0000E+00  0.1260E+03  0.1260E+03
    -16.757  0.0000E+00  0.0000E+00  0.1260E+03  0.1260E+03
    -16.516  0.0000E+00  0.0000E+00  0.1260E+03  0.1260E+03
    -16.276  0.0000E+00  0.0000E+00  0.1260E+03  0.1260E+03
    -16.035  0.0000E+00  0.0000E+00  0.1260E+03  0.1260E+03
    -15.794  0.0000E+00  0.0000E+00  0.1260E+03  0.1260E+03
    -15.553  0.0000E+00  0.0000E+00  0.1260E+03  0.1260E+03
    -15.312  0.0000E+00  0.0000E+00  0.1260E+03  0.1260E+03
    -15.071  0.0000E+00  0.0000E+00  0.1260E+03  0.1260E+03
    -14.830  0.0000E+00  0.0000E+00  0.1260E+03  0.1260E+03
    -14.589  0.0000E+00  0.0000E+00  0.1260E+03  0.1260E+03
    -14.348  0.0000E+00  0.0000E+00  0.1260E+03  0.1260E+03
    -14.108  0.0000E+00  0.0000E+00  0.1260E+03  0.1260E+03
    -13.867  0.0000E+00  0.0000E+00  0.1260E+03  0.1260E+03
    -13.626  0.0000E+00  0.0000E+00  0.1260E+03  0.1260E+03
    -13.385  0.7739E-04  0.0000E+00  0.1260E+03  0.1260E+03
    -13.144  0.2870E+02  0.0000E+00  0.1329E+03  0.1260E+03
    -12.903  0.4566E+02  0.1327E+00  0.1439E+03  0.1260E+03
    -12.662  0.3695E+00  0.5625E+02  0.1440E+03  0.1396E+03
    -12.421  0.0000E+00  0.1834E+02  0.1440E+03  0.1440E+03
    -12.181  0.0000E+00  0.0000E+00  0.1440E+03  0.1440E+03
    -11.940  0.0000E+00  0.0000E+00  0.1440E+03  0.1440E+03
    -11.699  0.0000E+00  0.0000E+00  0.1440E+03  0.1440E+03
    -11.458  0.0000E+00  0.0000E+00  0.1440E+03  0.1440E+03
    -11.217  0.0000E+00  0.0000E+00  0.1440E+03  0.1440E+03
    -10.976  0.0000E+00  0.0000E+00  0.1440E+03  0.1440E+03
    -10.735  0.0000E+00  0.0000E+00  0.1440E+03  0.1440E+03
    -10.494  0.0000E+00  0.0000E+00  0.1440E+03  0.1440E+03
    -10.253  0.0000E+00  0.0000E+00  0.1440E+03  0.1440E+03
    -10.013  0.0000E+00  0.0000E+00  0.1440E+03  0.1440E+03
     -9.772  0.0000E+00  0.0000E+00  0.1440E+03  0.1440E+03
     -9.531  0.0000E+00  0.0000E+00  0.1440E+03  0.1440E+03
     -9.290  0.0000E+00  0.0000E+00  0.1440E+03  0.1440E+03
     -9.049  0.0000E+00  0.0000E+00  0.1440E+03  0.1440E+03
     -8.808  0.0000E+00  0.0000E+00  0.1440E+03  0.1440E+03
     -8.567  0.0000E+00  0.0000E+00  0.1440E+03  0.1440E+03
     -8.326  0.0000E+00  0.0000E+00  0.1440E+03  0.1440E+03
     -8.085  0.0000E+00  0.0000E+00  0.1440E+03  0.1440E+03
     -7.845  0.6334E-11  0.0000E+00  0.1440E+03  0.1440E+03
     -7.604  0.4127E+00  0.7204E-12  0.1441E+03  0.1440E+03
     -7.363  0.1593E+02  0.3323E+00  0.1479E+03  0.1441E+03
     -7.122  0.3271E+02  0.1770E+02  0.1558E+03  0.1483E+03
     -6.881  0.3213E+02  0.3155E+02  0.1636E+03  0.1559E+03
     -6.640  0.3091E+02  0.2388E+02  0.1710E+03  0.1617E+03
     -6.399  0.2983E-03  0.3843E+02  0.1710E+03  0.1710E+03
     -6.158  0.0000E+00  0.1989E+00  0.1710E+03  0.1710E+03
     -5.917  0.0000E+00  0.0000E+00  0.1710E+03  0.1710E+03
     -5.677  0.0000E+00  0.0000E+00  0.1710E+03  0.1710E+03
     -5.436  0.0000E+00  0.0000E+00  0.1710E+03  0.1710E+03
     -5.195  0.0000E+00  0.0000E+00  0.1710E+03  0.1710E+03
     -4.954  0.0000E+00  0.0000E+00  0.1710E+03  0.1710E+03
     -4.713  0.0000E+00  0.0000E+00  0.1710E+03  0.1710E+03
     -4.472  0.0000E+00  0.0000E+00  0.1710E+03  0.1710E+03
     -4.231  0.0000E+00  0.0000E+00  0.1710E+03  0.1710E+03
     -3.990  0.0000E+00  0.0000E+00  0.1710E+03  0.1710E+03
     -3.749  0.0000E+00  0.0000E+00  0.1710E+03  0.1710E+03
     -3.509  0.0000E+00  0.0000E+00  0.1710E+03  0.1710E+03
     -3.268  0.0000E+00  0.0000E+00  0.1710E+03  0.1710E+03
     -3.027  0.0000E+00  0.0000E+00  0.1710E+03  0.1710E+03
     -2.786  0.0000E+00  0.0000E+00  0.1710E+03  0.1710E+03
     -2.545  0.0000E+00  0.0000E+00  0.1710E+03  0.1710E+03
     -2.304  0.0000E+00  0.0000E+00  0.1710E+03  0.1710E+03
     -2.063  0.2381E-02  0.0000E+00  0.1710E+03  0.1710E+03
     -1.822  0.2212E+02  0.0000E+00  0.1763E+03  0.1710E+03
     -1.582  0.1894E+02  0.0000E+00  0.1809E+03  0.1710E+03
     -1.341  0.1471E+02  0.0000E+00  0.1844E+03  0.1710E+03
     -1.100  0.2290E+02  0.0000E+00  0.1900E+03  0.1710E+03
     -0.859  0.5517E+02  0.0000E+00  0.2032E+03  0.1710E+03
     -0.618  0.6277E+02  0.5174E-04  0.2184E+03  0.1710E+03
     -0.377  0.3904E+02  0.7702E+01  0.2278E+03  0.1729E+03
     -0.136  0.8098E+02  0.2208E+02  0.2473E+03  0.1782E+03
      0.105  0.8828E+02  0.1290E+02  0.2685E+03  0.1813E+03
      0.346  0.8425E+02  0.2318E+02  0.2888E+03  0.1869E+03
      0.586  0.7247E+02  0.2966E+02  0.3063E+03  0.1940E+03
      0.827  0.6413E+02  0.4846E+02  0.3217E+03  0.2057E+03
      1.068  0.4036E+02  0.4071E+02  0.3315E+03  0.2155E+03
      1.309  0.3412E+02  0.3418E+02  0.3397E+03  0.2237E+03
      1.550  0.5137E+02  0.2341E+02  0.3521E+03  0.2294E+03
      1.791  0.5010E+02  0.3312E+02  0.3641E+03  0.2373E+03
      2.032  0.7479E+02  0.4066E+02  0.3821E+03  0.2471E+03
      2.273  0.6862E+02  0.2990E+02  0.3987E+03  0.2543E+03
      2.514  0.3090E+02  0.2901E+02  0.4061E+03  0.2613E+03
      2.754  0.5011E+02  0.3663E+02  0.4182E+03  0.2701E+03
      2.995  0.2757E+02  0.4588E+02  0.4248E+03  0.2812E+03
      3.236  0.8645E+01  0.4940E+02  0.4269E+03  0.2931E+03
      3.477  0.3813E+02  0.4315E+02  0.4361E+03  0.3035E+03
      3.718  0.2613E+02  0.8144E+01  0.4424E+03  0.3055E+03
      3.959  0.3559E+02  0.1959E+02  0.4510E+03  0.3102E+03
      4.200  0.3992E+02  0.7051E+02  0.4606E+03  0.3272E+03
      4.441  0.3787E+02  0.4917E+02  0.4697E+03  0.3390E+03
      4.682  0.3653E+02  0.1243E+02  0.4785E+03  0.3420E+03
      4.922  0.2643E+02  0.5895E-04  0.4849E+03  0.3420E+03
      5.163  0.4717E+01  0.0000E+00  0.4860E+03  0.3420E+03
      5.404  0.4293E-05  0.0000E+00  0.4860E+03  0.3420E+03
      5.645  0.0000E+00  0.0000E+00  0.4860E+03  0.3420E+03
      5.886  0.0000E+00  0.0000E+00  0.4860E+03  0.3420E+03
      6.127  0.0000E+00  0.3310E-10  0.4860E+03  0.3420E+03
      6.368  0.0000E+00  0.9626E+00  0.4860E+03  0.3422E+03
      6.609  0.0000E+00  0.5114E+01  0.4860E+03  0.3435E+03
      6.850  0.0000E+00  0.8662E+01  0.4860E+03  0.3456E+03
      7.090  0.6828E-15  0.1959E+02  0.4860E+03  0.3503E+03
      7.331  0.2666E-01  0.5845E+02  0.4860E+03  0.3644E+03
      7.572  0.1271E+00  0.6001E+02  0.4860E+03  0.3788E+03
      7.813  0.5361E+00  0.6362E+02  0.4862E+03  0.3941E+03
      8.054  0.5067E+00  0.7402E+02  0.4863E+03  0.4120E+03
      8.295  0.2321E+01  0.7824E+02  0.4868E+03  0.4308E+03
      8.536  0.4405E+01  0.7119E+02  0.4879E+03  0.4480E+03
      8.777  0.9218E+01  0.6724E+02  0.4901E+03  0.4642E+03
      9.017  0.1511E+02  0.4875E+02  0.4938E+03  0.4759E+03
      9.258  0.1557E+02  0.3395E+02  0.4975E+03  0.4841E+03
      9.499  0.1955E+02  0.9500E+01  0.5022E+03  0.4864E+03
      9.740  0.1542E+02  0.5355E+01  0.5059E+03  0.4877E+03
      9.981  0.2360E+02  0.1116E+02  0.5116E+03  0.4903E+03
     10.222  0.1750E+02  0.1549E+02  0.5158E+03  0.4941E+03
     10.463  0.2142E+02  0.2492E+02  0.5210E+03  0.5001E+03
     10.704  0.1545E+02  0.2135E+02  0.5247E+03  0.5052E+03
     10.945  0.1486E+02  0.2133E+02  0.5283E+03  0.5104E+03
     11.185  0.2155E+02  0.3242E+02  0.5335E+03  0.5182E+03
     11.426  0.3164E+02  0.2033E+02  0.5411E+03  0.5231E+03
     11.667  0.2936E+02  0.1894E+02  0.5482E+03  0.5276E+03
     11.908  0.3227E+02  0.1200E+02  0.5560E+03  0.5305E+03
     12.149  0.3668E+02  0.2277E+02  0.5648E+03  0.5360E+03
     12.390  0.2237E+02  0.4410E+02  0.5702E+03  0.5466E+03
     12.631  0.2030E+02  0.3608E+02  0.5751E+03  0.5553E+03
     12.872  0.2600E+02  0.3405E+02  0.5813E+03  0.5635E+03
     13.113  0.2471E+02  0.2048E+02  0.5873E+03  0.5685E+03
     13.353  0.2838E+02  0.2318E+02  0.5941E+03  0.5740E+03
     13.594  0.2559E+02  0.3309E+02  0.6003E+03  0.5820E+03
     13.835  0.1905E+02  0.2673E+02  0.6049E+03  0.5884E+03
     14.076  0.4641E+01  0.2724E+02  0.6060E+03  0.5950E+03
     14.317  0.1790E-02  0.2187E+02  0.6060E+03  0.6003E+03
     14.558  0.0000E+00  0.2087E+02  0.6060E+03  0.6053E+03
     14.799  0.0000E+00  0.2881E+01  0.6060E+03  0.6060E+03
     15.040  0.0000E+00  0.2234E-05  0.6060E+03  0.6060E+03
     15.281  0.0000E+00  0.0000E+00  0.6060E+03  0.6060E+03
     15.521  0.0000E+00  0.0000E+00  0.6060E+03  0.6060E+03
     15.762  0.0000E+00  0.0000E+00  0.6060E+03  0.6060E+03
     16.003  0.0000E+00  0.0000E+00  0.6060E+03  0.6060E+03
     16.244  0.0000E+00  0.0000E+00  0.6060E+03  0.6060E+03
     16.485  0.0000E+00  0.0000E+00  0.6060E+03  0.6060E+03
     16.726  0.0000E+00  0.0000E+00  0.6060E+03  0.6060E+03
     16.967  0.0000E+00  0.0000E+00  0.6060E+03  0.6060E+03
     17.208  0.0000E+00  0.0000E+00  0.6060E+03  0.6060E+03
     17.448  0.0000E+00  0.0000E+00  0.6060E+03  0.6060E+03
     17.689  0.0000E+00  0.0000E+00  0.6060E+03  0.6060E+03
     17.930  0.0000E+00  0.0000E+00  0.6060E+03  0.6060E+03
