 160 160   0   0
  0.1215613E+02  0.1537564E-08  0.1124787E-08  0.1124760E-08  0.5000000E-15
  1.000000000000000E-004
  CAR 
 unknown system                          
     17.04869851    -54.78800848  301      4.89632224      1.00000000
    -54.788  0.0000E+00  0.0000E+00  0.0000E+00  0.0000E+00
    -54.549  0.0000E+00  0.0000E+00  0.0000E+00  0.0000E+00
    -54.309  0.0000E+00  0.0000E+00  0.0000E+00  0.0000E+00
    -54.070  0.0000E+00  0.0000E+00  0.0000E+00  0.0000E+00
    -53.830  0.0000E+00  0.0000E+00  0.0000E+00  0.0000E+00
    -53.591  0.0000E+00  0.0000E+00  0.0000E+00  0.0000E+00
    -53.351  0.0000E+00  0.0000E+00  0.0000E+00  0.0000E+00
    -53.112  0.0000E+00  0.0000E+00  0.0000E+00  0.0000E+00
    -52.872  0.0000E+00  0.0000E+00  0.0000E+00  0.0000E+00
    -52.633  0.0000E+00  0.0000E+00  0.0000E+00  0.0000E+00
    -52.393  0.0000E+00  0.0000E+00  0.0000E+00  0.0000E+00
    -52.154  0.0000E+00  0.0000E+00  0.0000E+00  0.0000E+00
    -51.915  0.0000E+00  0.0000E+00  0.0000E+00  0.0000E+00
    -51.675  0.4847E-03  0.0000E+00  0.1161E-03  0.0000E+00
    -51.436  0.8303E+02  0.0000E+00  0.1988E+02  0.0000E+00
    -51.196  0.5060E+02  0.0000E+00  0.3200E+02  0.0000E+00
    -50.957  0.0000E+00  0.0000E+00  0.3200E+02  0.0000E+00
    -50.717  0.0000E+00  0.0000E+00  0.3200E+02  0.0000E+00
    -50.478  0.7936E-13  0.0000E+00  0.3200E+02  0.0000E+00
    -50.238  0.8388E+01  0.0000E+00  0.3401E+02  0.0000E+00
    -49.999  0.1702E+03  0.0000E+00  0.7476E+02  0.0000E+00
    -49.759  0.8870E+02  0.0000E+00  0.9600E+02  0.0000E+00
    -49.520  0.0000E+00  0.0000E+00  0.9600E+02  0.0000E+00
    -49.281  0.0000E+00  0.0000E+00  0.9600E+02  0.0000E+00
    -49.041  0.0000E+00  0.0000E+00  0.9600E+02  0.0000E+00
    -48.802  0.0000E+00  0.0000E+00  0.9600E+02  0.0000E+00
    -48.562  0.0000E+00  0.0000E+00  0.9600E+02  0.0000E+00
    -48.323  0.0000E+00  0.0000E+00  0.9600E+02  0.0000E+00
    -48.083  0.0000E+00  0.0000E+00  0.9600E+02  0.0000E+00
    -47.844  0.0000E+00  0.0000E+00  0.9600E+02  0.0000E+00
    -47.604  0.0000E+00  0.0000E+00  0.9600E+02  0.0000E+00
    -47.365  0.0000E+00  0.0000E+00  0.9600E+02  0.0000E+00
    -47.125  0.0000E+00  0.0000E+00  0.9600E+02  0.0000E+00
    -46.886  0.0000E+00  0.2227E+00  0.9600E+02  0.5332E-01
    -46.647  0.0000E+00  0.1072E+03  0.9600E+02  0.2571E+02
    -46.407  0.0000E+00  0.1055E+03  0.9600E+02  0.5097E+02
    -46.168  0.0000E+00  0.1878E+03  0.9600E+02  0.9594E+02
    -45.928  0.0000E+00  0.2709E+00  0.9600E+02  0.9600E+02
    -45.689  0.0000E+00  0.0000E+00  0.9600E+02  0.9600E+02
    -45.449  0.0000E+00  0.0000E+00  0.9600E+02  0.9600E+02
    -45.210  0.0000E+00  0.0000E+00  0.9600E+02  0.9600E+02
    -44.970  0.0000E+00  0.0000E+00  0.9600E+02  0.9600E+02
    -44.731  0.0000E+00  0.0000E+00  0.9600E+02  0.9600E+02
    -44.491  0.0000E+00  0.0000E+00  0.9600E+02  0.9600E+02
    -44.252  0.0000E+00  0.0000E+00  0.9600E+02  0.9600E+02
    -44.013  0.0000E+00  0.0000E+00  0.9600E+02  0.9600E+02
    -43.773  0.0000E+00  0.0000E+00  0.9600E+02  0.9600E+02
    -43.534  0.0000E+00  0.0000E+00  0.9600E+02  0.9600E+02
    -43.294  0.0000E+00  0.0000E+00  0.9600E+02  0.9600E+02
    -43.055  0.0000E+00  0.0000E+00  0.9600E+02  0.9600E+02
    -42.815  0.0000E+00  0.0000E+00  0.9600E+02  0.9600E+02
    -42.576  0.0000E+00  0.0000E+00  0.9600E+02  0.9600E+02
    -42.336  0.0000E+00  0.0000E+00  0.9600E+02  0.9600E+02
    -42.097  0.0000E+00  0.0000E+00  0.9600E+02  0.9600E+02
    -41.857  0.0000E+00  0.0000E+00  0.9600E+02  0.9600E+02
    -41.618  0.0000E+00  0.0000E+00  0.9600E+02  0.9600E+02
    -41.378  0.0000E+00  0.0000E+00  0.9600E+02  0.9600E+02
    -41.139  0.0000E+00  0.0000E+00  0.9600E+02  0.9600E+02
    -40.900  0.0000E+00  0.0000E+00  0.9600E+02  0.9600E+02
    -40.660  0.3709E-14  0.1005E-14  0.9600E+02  0.9600E+02
    -40.421  0.4016E+01  0.3541E+01  0.9696E+02  0.9685E+02
    -40.181  0.1816E+03  0.1842E+03  0.1405E+03  0.1410E+03
    -39.942  0.8161E+02  0.7955E+02  0.1600E+03  0.1600E+03
    -39.702  0.0000E+00  0.0000E+00  0.1600E+03  0.1600E+03
    -39.463  0.0000E+00  0.0000E+00  0.1600E+03  0.1600E+03
    -39.223  0.0000E+00  0.0000E+00  0.1600E+03  0.1600E+03
    -38.984  0.0000E+00  0.0000E+00  0.1600E+03  0.1600E+03
    -38.744  0.0000E+00  0.0000E+00  0.1600E+03  0.1600E+03
    -38.505  0.0000E+00  0.0000E+00  0.1600E+03  0.1600E+03
    -38.266  0.0000E+00  0.0000E+00  0.1600E+03  0.1600E+03
    -38.026  0.0000E+00  0.0000E+00  0.1600E+03  0.1600E+03
    -37.787  0.0000E+00  0.0000E+00  0.1600E+03  0.1600E+03
    -37.547  0.0000E+00  0.0000E+00  0.1600E+03  0.1600E+03
    -37.308  0.0000E+00  0.0000E+00  0.1600E+03  0.1600E+03
    -37.068  0.0000E+00  0.0000E+00  0.1600E+03  0.1600E+03
    -36.829  0.0000E+00  0.0000E+00  0.1600E+03  0.1600E+03
    -36.589  0.0000E+00  0.0000E+00  0.1600E+03  0.1600E+03
    -36.350  0.0000E+00  0.0000E+00  0.1600E+03  0.1600E+03
    -36.110  0.0000E+00  0.0000E+00  0.1600E+03  0.1600E+03
    -35.871  0.0000E+00  0.0000E+00  0.1600E+03  0.1600E+03
    -35.632  0.0000E+00  0.0000E+00  0.1600E+03  0.1600E+03
    -35.392  0.0000E+00  0.0000E+00  0.1600E+03  0.1600E+03
    -35.153  0.0000E+00  0.0000E+00  0.1600E+03  0.1600E+03
    -34.913  0.0000E+00  0.0000E+00  0.1600E+03  0.1600E+03
    -34.674  0.0000E+00  0.0000E+00  0.1600E+03  0.1600E+03
    -34.434  0.0000E+00  0.0000E+00  0.1600E+03  0.1600E+03
    -34.195  0.0000E+00  0.0000E+00  0.1600E+03  0.1600E+03
    -33.955  0.0000E+00  0.0000E+00  0.1600E+03  0.1600E+03
    -33.716  0.0000E+00  0.0000E+00  0.1600E+03  0.1600E+03
    -33.476  0.0000E+00  0.0000E+00  0.1600E+03  0.1600E+03
    -33.237  0.0000E+00  0.0000E+00  0.1600E+03  0.1600E+03
    -32.998  0.0000E+00  0.0000E+00  0.1600E+03  0.1600E+03
    -32.758  0.0000E+00  0.0000E+00  0.1600E+03  0.1600E+03
    -32.519  0.0000E+00  0.0000E+00  0.1600E+03  0.1600E+03
    -32.279  0.0000E+00  0.0000E+00  0.1600E+03  0.1600E+03
    -32.040  0.0000E+00  0.0000E+00  0.1600E+03  0.1600E+03
    -31.800  0.0000E+00  0.0000E+00  0.1600E+03  0.1600E+03
    -31.561  0.0000E+00  0.0000E+00  0.1600E+03  0.1600E+03
    -31.321  0.0000E+00  0.0000E+00  0.1600E+03  0.1600E+03
    -31.082  0.0000E+00  0.0000E+00  0.1600E+03  0.1600E+03
    -30.842  0.0000E+00  0.0000E+00  0.1600E+03  0.1600E+03
    -30.603  0.0000E+00  0.0000E+00  0.1600E+03  0.1600E+03
    -30.364  0.0000E+00  0.0000E+00  0.1600E+03  0.1600E+03
    -30.124  0.0000E+00  0.0000E+00  0.1600E+03  0.1600E+03
    -29.885  0.0000E+00  0.0000E+00  0.1600E+03  0.1600E+03
    -29.645  0.0000E+00  0.0000E+00  0.1600E+03  0.1600E+03
    -29.406  0.0000E+00  0.0000E+00  0.1600E+03  0.1600E+03
    -29.166  0.0000E+00  0.0000E+00  0.1600E+03  0.1600E+03
    -28.927  0.0000E+00  0.0000E+00  0.1600E+03  0.1600E+03
    -28.687  0.0000E+00  0.0000E+00  0.1600E+03  0.1600E+03
    -28.448  0.0000E+00  0.0000E+00  0.1600E+03  0.1600E+03
    -28.208  0.0000E+00  0.0000E+00  0.1600E+03  0.1600E+03
    -27.969  0.0000E+00  0.0000E+00  0.1600E+03  0.1600E+03
    -27.730  0.0000E+00  0.0000E+00  0.1600E+03  0.1600E+03
    -27.490  0.0000E+00  0.0000E+00  0.1600E+03  0.1600E+03
    -27.251  0.0000E+00  0.0000E+00  0.1600E+03  0.1600E+03
    -27.011  0.0000E+00  0.0000E+00  0.1600E+03  0.1600E+03
    -26.772  0.0000E+00  0.0000E+00  0.1600E+03  0.1600E+03
    -26.532  0.0000E+00  0.0000E+00  0.1600E+03  0.1600E+03
    -26.293  0.0000E+00  0.0000E+00  0.1600E+03  0.1600E+03
    -26.053  0.0000E+00  0.0000E+00  0.1600E+03  0.1600E+03
    -25.814  0.0000E+00  0.0000E+00  0.1600E+03  0.1600E+03
    -25.574  0.0000E+00  0.0000E+00  0.1600E+03  0.1600E+03
    -25.335  0.0000E+00  0.0000E+00  0.1600E+03  0.1600E+03
    -25.096  0.0000E+00  0.0000E+00  0.1600E+03  0.1600E+03
    -24.856  0.0000E+00  0.0000E+00  0.1600E+03  0.1600E+03
    -24.617  0.0000E+00  0.0000E+00  0.1600E+03  0.1600E+03
    -24.377  0.0000E+00  0.0000E+00  0.1600E+03  0.1600E+03
    -24.138  0.0000E+00  0.0000E+00  0.1600E+03  0.1600E+03
    -23.898  0.0000E+00  0.0000E+00  0.1600E+03  0.1600E+03
    -23.659  0.0000E+00  0.0000E+00  0.1600E+03  0.1600E+03
    -23.419  0.0000E+00  0.0000E+00  0.1600E+03  0.1600E+03
    -23.180  0.0000E+00  0.0000E+00  0.1600E+03  0.1600E+03
    -22.940  0.0000E+00  0.0000E+00  0.1600E+03  0.1600E+03
    -22.701  0.0000E+00  0.0000E+00  0.1600E+03  0.1600E+03
    -22.461  0.0000E+00  0.0000E+00  0.1600E+03  0.1600E+03
    -22.222  0.0000E+00  0.0000E+00  0.1600E+03  0.1600E+03
    -21.983  0.0000E+00  0.0000E+00  0.1600E+03  0.1600E+03
    -21.743  0.0000E+00  0.0000E+00  0.1600E+03  0.1600E+03
    -21.504  0.0000E+00  0.0000E+00  0.1600E+03  0.1600E+03
    -21.264  0.0000E+00  0.0000E+00  0.1600E+03  0.1600E+03
    -21.025  0.0000E+00  0.0000E+00  0.1600E+03  0.1600E+03
    -20.785  0.0000E+00  0.0000E+00  0.1600E+03  0.1600E+03
    -20.546  0.0000E+00  0.0000E+00  0.1600E+03  0.1600E+03
    -20.306  0.0000E+00  0.0000E+00  0.1600E+03  0.1600E+03
    -20.067  0.0000E+00  0.0000E+00  0.1600E+03  0.1600E+03
    -19.827  0.0000E+00  0.0000E+00  0.1600E+03  0.1600E+03
    -19.588  0.0000E+00  0.0000E+00  0.1600E+03  0.1600E+03
    -19.349  0.0000E+00  0.0000E+00  0.1600E+03  0.1600E+03
    -19.109  0.0000E+00  0.0000E+00  0.1600E+03  0.1600E+03
    -18.870  0.0000E+00  0.0000E+00  0.1600E+03  0.1600E+03
    -18.630  0.0000E+00  0.0000E+00  0.1600E+03  0.1600E+03
    -18.391  0.0000E+00  0.0000E+00  0.1600E+03  0.1600E+03
    -18.151  0.0000E+00  0.0000E+00  0.1600E+03  0.1600E+03
    -17.912  0.0000E+00  0.0000E+00  0.1600E+03  0.1600E+03
    -17.672  0.0000E+00  0.0000E+00  0.1600E+03  0.1600E+03
    -17.433  0.0000E+00  0.0000E+00  0.1600E+03  0.1600E+03
    -17.193  0.0000E+00  0.0000E+00  0.1600E+03  0.1600E+03
    -16.954  0.0000E+00  0.0000E+00  0.1600E+03  0.1600E+03
    -16.715  0.0000E+00  0.0000E+00  0.1600E+03  0.1600E+03
    -16.475  0.0000E+00  0.0000E+00  0.1600E+03  0.1600E+03
    -16.236  0.0000E+00  0.0000E+00  0.1600E+03  0.1600E+03
    -15.996  0.0000E+00  0.0000E+00  0.1600E+03  0.1600E+03
    -15.757  0.0000E+00  0.0000E+00  0.1600E+03  0.1600E+03
    -15.517  0.0000E+00  0.0000E+00  0.1600E+03  0.1600E+03
    -15.278  0.0000E+00  0.0000E+00  0.1600E+03  0.1600E+03
    -15.038  0.0000E+00  0.0000E+00  0.1600E+03  0.1600E+03
    -14.799  0.0000E+00  0.0000E+00  0.1600E+03  0.1600E+03
    -14.559  0.0000E+00  0.0000E+00  0.1600E+03  0.1600E+03
    -14.320  0.0000E+00  0.0000E+00  0.1600E+03  0.1600E+03
    -14.081  0.0000E+00  0.0000E+00  0.1600E+03  0.1600E+03
    -13.841  0.0000E+00  0.0000E+00  0.1600E+03  0.1600E+03
    -13.602  0.1953E-01  0.0000E+00  0.1600E+03  0.1600E+03
    -13.362  0.5318E+02  0.2219E-05  0.1727E+03  0.1600E+03
    -13.123  0.7209E+02  0.2920E+02  0.1900E+03  0.1670E+03
    -12.883  0.8345E+01  0.9976E+02  0.1920E+03  0.1909E+03
    -12.644  0.0000E+00  0.4675E+01  0.1920E+03  0.1920E+03
    -12.404  0.0000E+00  0.0000E+00  0.1920E+03  0.1920E+03
    -12.165  0.0000E+00  0.0000E+00  0.1920E+03  0.1920E+03
    -11.925  0.0000E+00  0.0000E+00  0.1920E+03  0.1920E+03
    -11.686  0.0000E+00  0.0000E+00  0.1920E+03  0.1920E+03
    -11.447  0.0000E+00  0.0000E+00  0.1920E+03  0.1920E+03
    -11.207  0.0000E+00  0.0000E+00  0.1920E+03  0.1920E+03
    -10.968  0.0000E+00  0.0000E+00  0.1920E+03  0.1920E+03
    -10.728  0.0000E+00  0.0000E+00  0.1920E+03  0.1920E+03
    -10.489  0.0000E+00  0.0000E+00  0.1920E+03  0.1920E+03
    -10.249  0.0000E+00  0.0000E+00  0.1920E+03  0.1920E+03
    -10.010  0.0000E+00  0.0000E+00  0.1920E+03  0.1920E+03
     -9.770  0.0000E+00  0.0000E+00  0.1920E+03  0.1920E+03
     -9.531  0.0000E+00  0.0000E+00  0.1920E+03  0.1920E+03
     -9.291  0.0000E+00  0.0000E+00  0.1920E+03  0.1920E+03
     -9.052  0.0000E+00  0.0000E+00  0.1920E+03  0.1920E+03
     -8.813  0.0000E+00  0.0000E+00  0.1920E+03  0.1920E+03
     -8.573  0.0000E+00  0.0000E+00  0.1920E+03  0.1920E+03
     -8.334  0.0000E+00  0.0000E+00  0.1920E+03  0.1920E+03
     -8.094  0.0000E+00  0.0000E+00  0.1920E+03  0.1920E+03
     -7.855  0.4577E-10  0.0000E+00  0.1920E+03  0.1920E+03
     -7.615  0.1564E+01  0.4350E-07  0.1924E+03  0.1920E+03
     -7.376  0.4682E+02  0.7707E+01  0.2036E+03  0.1938E+03
     -7.136  0.6533E+02  0.6079E+02  0.2192E+03  0.2084E+03
     -6.897  0.1992E+02  0.5432E+02  0.2240E+03  0.2214E+03
     -6.657  0.9751E-02  0.1082E+02  0.2240E+03  0.2240E+03
     -6.418  0.0000E+00  0.3628E-02  0.2240E+03  0.2240E+03
     -6.179  0.0000E+00  0.0000E+00  0.2240E+03  0.2240E+03
     -5.939  0.0000E+00  0.0000E+00  0.2240E+03  0.2240E+03
     -5.700  0.0000E+00  0.0000E+00  0.2240E+03  0.2240E+03
     -5.460  0.0000E+00  0.0000E+00  0.2240E+03  0.2240E+03
     -5.221  0.0000E+00  0.0000E+00  0.2240E+03  0.2240E+03
     -4.981  0.0000E+00  0.0000E+00  0.2240E+03  0.2240E+03
     -4.742  0.0000E+00  0.0000E+00  0.2240E+03  0.2240E+03
     -4.502  0.0000E+00  0.0000E+00  0.2240E+03  0.2240E+03
     -4.263  0.0000E+00  0.0000E+00  0.2240E+03  0.2240E+03
     -4.023  0.0000E+00  0.0000E+00  0.2240E+03  0.2240E+03
     -3.784  0.0000E+00  0.0000E+00  0.2240E+03  0.2240E+03
     -3.544  0.0000E+00  0.0000E+00  0.2240E+03  0.2240E+03
     -3.305  0.0000E+00  0.0000E+00  0.2240E+03  0.2240E+03
     -3.066  0.0000E+00  0.0000E+00  0.2240E+03  0.2240E+03
     -2.826  0.4250E-15  0.0000E+00  0.2240E+03  0.2240E+03
     -2.587  0.4029E+00  0.0000E+00  0.2241E+03  0.2240E+03
     -2.347  0.3093E+02  0.0000E+00  0.2315E+03  0.2240E+03
     -2.108  0.1159E+02  0.0000E+00  0.2343E+03  0.2240E+03
     -1.868  0.1277E+02  0.0000E+00  0.2373E+03  0.2240E+03
     -1.629  0.1138E+02  0.0000E+00  0.2401E+03  0.2240E+03
     -1.389  0.1567E+02  0.0000E+00  0.2438E+03  0.2240E+03
     -1.150  0.6285E+02  0.2265E-05  0.2589E+03  0.2240E+03
     -0.910  0.7656E+02  0.3405E+01  0.2772E+03  0.2248E+03
     -0.671  0.6746E+02  0.3290E+02  0.2933E+03  0.2327E+03
     -0.432  0.7786E+02  0.1885E+02  0.3120E+03  0.2372E+03
     -0.192  0.1061E+03  0.1909E+02  0.3374E+03  0.2418E+03
      0.047  0.7856E+02  0.1224E+02  0.3562E+03  0.2447E+03
      0.287  0.5341E+02  0.3172E+02  0.3690E+03  0.2523E+03
      0.526  0.4758E+02  0.8139E+02  0.3804E+03  0.2718E+03
      0.766  0.4618E+02  0.6838E+02  0.3915E+03  0.2882E+03
      1.005  0.4671E+02  0.6982E+02  0.4026E+03  0.3049E+03
      1.245  0.7671E+02  0.6338E+02  0.4210E+03  0.3201E+03
      1.484  0.8770E+02  0.2170E+02  0.4420E+03  0.3253E+03
      1.724  0.5822E+02  0.5071E+02  0.4559E+03  0.3374E+03
      1.963  0.4001E+02  0.5159E+02  0.4655E+03  0.3498E+03
      2.202  0.4719E+02  0.3056E+02  0.4768E+03  0.3571E+03
      2.442  0.4164E+02  0.3905E+02  0.4868E+03  0.3664E+03
      2.681  0.5335E+02  0.6467E+02  0.4996E+03  0.3819E+03
      2.921  0.5386E+02  0.7219E+02  0.5125E+03  0.3992E+03
      3.160  0.5656E+02  0.5996E+02  0.5260E+03  0.4136E+03
      3.400  0.5304E+02  0.1611E+02  0.5387E+03  0.4174E+03
      3.639  0.5334E+02  0.3615E+02  0.5515E+03  0.4261E+03
      3.879  0.3990E+02  0.5943E+02  0.5610E+03  0.4403E+03
      4.118  0.3547E+02  0.3209E+02  0.5695E+03  0.4480E+03
      4.358  0.1926E+02  0.4375E-01  0.5741E+03  0.4480E+03
      4.597  0.7407E+01  0.0000E+00  0.5759E+03  0.4480E+03
      4.836  0.3210E+00  0.0000E+00  0.5760E+03  0.4480E+03
      5.076  0.0000E+00  0.0000E+00  0.5760E+03  0.4480E+03
      5.315  0.0000E+00  0.0000E+00  0.5760E+03  0.4480E+03
      5.555  0.0000E+00  0.0000E+00  0.5760E+03  0.4480E+03
      5.794  0.0000E+00  0.0000E+00  0.5760E+03  0.4480E+03
      6.034  0.0000E+00  0.0000E+00  0.5760E+03  0.4480E+03
      6.273  0.0000E+00  0.1545E-15  0.5760E+03  0.4480E+03
      6.513  0.0000E+00  0.6715E-01  0.5760E+03  0.4480E+03
      6.752  0.0000E+00  0.2431E+02  0.5760E+03  0.4538E+03
      6.992  0.6888E-06  0.7768E+02  0.5760E+03  0.4724E+03
      7.231  0.2291E+00  0.6322E+02  0.5761E+03  0.4876E+03
      7.470  0.1878E+00  0.6383E+02  0.5761E+03  0.5029E+03
      7.710  0.1386E+01  0.6308E+02  0.5764E+03  0.5180E+03
      7.949  0.3022E+01  0.9501E+02  0.5772E+03  0.5407E+03
      8.189  0.6548E+01  0.7275E+02  0.5787E+03  0.5581E+03
      8.428  0.9474E+01  0.4920E+02  0.5810E+03  0.5699E+03
      8.668  0.1874E+02  0.2502E+02  0.5855E+03  0.5759E+03
      8.907  0.2338E+02  0.7260E+01  0.5911E+03  0.5776E+03
      9.147  0.3138E+02  0.8600E+01  0.5986E+03  0.5797E+03
      9.386  0.2853E+02  0.1781E+02  0.6054E+03  0.5840E+03
      9.626  0.2978E+02  0.2683E+02  0.6126E+03  0.5904E+03
      9.865  0.2620E+02  0.3192E+02  0.6188E+03  0.5980E+03
     10.104  0.1755E+02  0.3782E+02  0.6230E+03  0.6071E+03
     10.344  0.2595E+02  0.3350E+02  0.6292E+03  0.6151E+03
     10.583  0.3631E+02  0.2857E+02  0.6379E+03  0.6220E+03
     10.823  0.4023E+02  0.3309E+02  0.6476E+03  0.6299E+03
     11.062  0.3300E+02  0.2822E+02  0.6555E+03  0.6366E+03
     11.302  0.4923E+02  0.2601E+02  0.6673E+03  0.6429E+03
     11.541  0.4115E+02  0.2919E+02  0.6771E+03  0.6499E+03
     11.781  0.4151E+02  0.5094E+02  0.6871E+03  0.6621E+03
     12.020  0.3405E+02  0.5025E+02  0.6952E+03  0.6741E+03
     12.260  0.3279E+02  0.5605E+02  0.7031E+03  0.6875E+03
     12.499  0.3251E+02  0.3156E+02  0.7108E+03  0.6951E+03
     12.738  0.3680E+02  0.3267E+02  0.7197E+03  0.7029E+03
     12.978  0.3453E+02  0.3216E+02  0.7279E+03  0.7106E+03
     13.217  0.1561E+02  0.3811E+02  0.7317E+03  0.7197E+03
     13.457  0.1047E+01  0.3371E+02  0.7319E+03  0.7278E+03
     13.696  0.3603E+00  0.1684E+02  0.7320E+03  0.7318E+03
     13.936  0.0000E+00  0.7680E+00  0.7320E+03  0.7320E+03
     14.175  0.0000E+00  0.3266E-05  0.7320E+03  0.7320E+03
     14.415  0.0000E+00  0.0000E+00  0.7320E+03  0.7320E+03
     14.654  0.0000E+00  0.0000E+00  0.7320E+03  0.7320E+03
     14.894  0.0000E+00  0.0000E+00  0.7320E+03  0.7320E+03
     15.133  0.0000E+00  0.0000E+00  0.7320E+03  0.7320E+03
     15.373  0.0000E+00  0.0000E+00  0.7320E+03  0.7320E+03
     15.612  0.0000E+00  0.0000E+00  0.7320E+03  0.7320E+03
     15.851  0.0000E+00  0.0000E+00  0.7320E+03  0.7320E+03
     16.091  0.0000E+00  0.0000E+00  0.7320E+03  0.7320E+03
     16.330  0.0000E+00  0.0000E+00  0.7320E+03  0.7320E+03
     16.570  0.0000E+00  0.0000E+00  0.7320E+03  0.7320E+03
     16.809  0.0000E+00  0.0000E+00  0.7320E+03  0.7320E+03
     17.049  0.0000E+00  0.0000E+00  0.7320E+03  0.7320E+03
