   28   28   60    2
  0.1322499E+02  0.7638529E-09  0.7638540E-09  0.6897437E-09  0.5000000E-15
   1.0000000000000000E-004
  CAR 
 unknown system                          
    208     14    160

  0.1262379E-14  0.1262379E-14  0.1262379E-14  0.2777778E-01
    1      -55.858953    -49.200026   1.000000   1.000000
    2      -55.857822    -49.197449   1.000000   1.000000
    3      -55.857822    -49.197446   1.000000   1.000000
    4      -55.857604    -49.197368   1.000000   1.000000
    5      -55.857324    -49.197365   1.000000   1.000000
    6      -55.857324    -49.197018   1.000000   1.000000
    7      -55.857149    -49.196963   1.000000   1.000000
    8      -55.856348    -49.194876   1.000000   1.000000
    9      -54.304487    -49.161019   1.000000   1.000000
   10      -54.304330    -49.160733   1.000000   1.000000
   11      -54.303697    -49.159936   1.000000   1.000000
   12      -54.303627    -49.159176   1.000000   1.000000
   13      -54.303586    -49.159080   1.000000   1.000000
   14      -54.303517    -49.158695   1.000000   1.000000
   15      -54.303250    -49.158259   1.000000   1.000000
   16      -54.302891    -49.157874   1.000000   1.000000
   17      -54.302362    -49.156998   1.000000   1.000000
   18      -54.302147    -49.156912   1.000000   1.000000
   19      -54.302076    -49.156626   1.000000   1.000000
   20      -54.301995    -49.156391   1.000000   1.000000
   21      -54.301932    -49.156226   1.000000   1.000000
   22      -54.301924    -49.156173   1.000000   1.000000
   23      -54.301416    -49.155801   1.000000   1.000000
   24      -54.301214    -49.155443   1.000000   1.000000
   25      -43.074910    -43.075669   1.000000   1.000000
   26      -43.047147    -43.048224   1.000000   1.000000
   27      -43.047145    -43.048222   1.000000   1.000000
   28      -43.045929    -43.047008   1.000000   1.000000
   29      -43.045922    -43.047002   1.000000   1.000000
   30      -43.045011    -43.046127   1.000000   1.000000
   31      -43.044968    -43.046077   1.000000   1.000000
   32      -43.021085    -43.022412   1.000000   1.000000
   33      -15.390471    -14.983987   1.000000   1.000000
   34      -15.330427    -14.923265   1.000000   1.000000
   35      -15.330425    -14.923263   1.000000   1.000000
   36      -15.290335    -14.884157   1.000000   1.000000
   37       -9.569202     -9.272869   1.000000   1.000000
   38       -8.804532     -8.511552   1.000000   1.000000
   39       -8.804529     -8.511550   1.000000   1.000000
   40       -8.720325     -8.376311   1.000000   1.000000
   41       -8.648731     -8.354990   1.000000   1.000000
   42       -8.648727     -8.354987   1.000000   1.000000
   43       -8.574891     -8.217162   1.000000   1.000000
   44       -8.430415     -8.062553   1.000000   1.000000
   45       -2.495553     -1.522092   1.000000   1.000000
   46       -2.472598     -1.522057   1.000000   1.000000
   47       -2.472591     -0.901431   1.000000   1.000000
   48       -2.153659     -0.522884   1.000000   1.000000
   49       -1.620617     -0.449991   1.000000   1.000000
   50       -1.620613     -0.289237   1.000000   1.000000
   51       -1.484109     -0.289213   1.000000   1.000000
   52       -1.484101     -0.174494   1.000000   1.000000
   53       -1.393069     -0.043439   1.000000   1.000000
   54       -1.286590     -0.043434   1.000000   1.000000
   55       -1.118235      0.167793   1.000000   1.000000
   56       -1.092718      0.177970   1.000000   1.000000
   57       -1.073908      0.259528   1.000000   1.000000
   58       -1.073894      0.325896   1.000000   1.000000
   59       -1.033557      0.598086   1.000000   1.000000
   60       -0.984920      0.598098   1.000000   1.000000
   61       -0.984916      0.941750   1.000000   1.000000
   62       -0.812727      0.941826   1.000000   1.000000
   63       -0.812718      1.151058   1.000000   1.000000
   64       -0.783088      1.554047   1.000000   1.000000
   65       -0.716458      1.574443   1.000000   1.000000
   66       -0.716448      2.094236   1.000000   1.000000
   67       -0.637801      2.094304   1.000000   1.000000
   68       -0.575261      2.419218   1.000000   1.000000
   69       -0.476104      2.532047   1.000000   1.000000
   70       -0.476100      2.534575   1.000000   1.000000
   71       -0.443199      2.534580   1.000000   1.000000
   72       -0.424656      2.538036   1.000000   1.000000
   73       -0.424623      2.553608   1.000000   1.000000
   74       -0.088282      2.553636   1.000000   1.000000
   75       -0.088261      2.699010   1.000000   1.000000
   76        0.118480      2.699016   1.000000   1.000000
   77        0.143638      2.906831   1.000000   1.000000
   78        0.278010      2.985551   1.000000   1.000000
   79        0.638581      3.382542   1.000000   1.000000
   80        0.638616      3.499392   1.000000   1.000000
   81        0.641940      3.920052   1.000000   1.000000
   82        0.670901      3.923418   1.000000   1.000000
   83        0.838168      4.098759   1.000000   1.000000
   84        0.862552      4.106981   1.000000   1.000000
   85        1.133272      4.165542   1.000000   1.000000
   86        1.174973      4.165655   1.000000   1.000000
   87        1.194863      4.191817   1.000000   1.000000
   88        1.194878      4.191965   1.000000   1.000000
   89        1.285177      6.688875   1.000000   0.000000
   90        1.293233      7.102106   1.000000   0.000000
   91        1.310705      7.366205   1.000000   0.000000
   92        1.310712      7.477025   1.000000   0.000000
   93        1.355279      7.681124   1.000000   0.000000
   94        1.513280      7.682516   1.000000   0.000000
   95        1.513312      7.818470   1.000000   0.000000
   96        1.529954      8.137313   1.000000   0.000000
   97        1.583309      8.147218   1.000000   0.000000
   98        1.588046      8.147380   1.000000   0.000000
   99        1.726449      8.160140   1.000000   0.000000
  100        1.726454      8.174936   1.000000   0.000000
  101        1.784728      8.175131   1.000000   0.000000
  102        1.892972      8.574021   1.000000   0.000000
  103        1.892981      8.581342   1.000000   0.000000
  104        2.021777      8.581529   1.000000   0.000000
  105        2.323228      8.660162   1.000000   0.000000
  106        2.330594      8.717563   1.000000   0.000000
  107        2.368864      8.717767   1.000000   0.000000
  108        2.370892      9.058519   1.000000   0.000000
  109        2.600033      9.065699   1.000000   0.000000
  110        3.251489      9.069648   1.000000   0.000000
  111        3.593409      9.103340   1.000000   0.000000
  112        3.594557      9.108493   1.000000   0.000000
  113        3.794476      9.108529   1.000000   0.000000
  114        3.794490      9.314363   1.000000   0.000000
  115        4.455452      9.676188   1.000000   0.000000
  116        4.455453      9.676258   1.000000   0.000000
  117        4.588083      9.696298   1.000000   0.000000
  118        4.588098      9.858397   1.000000   0.000000
  119        4.658578      9.951204   1.000000   0.000000
  120        4.658585      9.951223   1.000000   0.000000
  121        8.234368     10.497099   0.000000   0.000000
  122        8.771977     10.497104   0.000000   0.000000
  123        9.570648     10.572884   0.000000   0.000000
  124        9.570655     10.572889   0.000000   0.000000
  125        9.851829     10.798441   0.000000   0.000000
  126       10.351949     10.798454   0.000000   0.000000
  127       10.351955     11.601820   0.000000   0.000000
  128       10.580228     12.225828   0.000000   0.000000
  129       11.439164     12.225843   0.000000   0.000000
  130       11.439166     12.233391   0.000000   0.000000
  131       11.641003     12.249387   0.000000   0.000000
  132       11.731188     12.249395   0.000000   0.000000
  133       11.731206     12.432373   0.000000   0.000000
  134       11.941553     12.616846   0.000000   0.000000
  135       12.131566     12.833179   0.000000   0.000000
  136       12.251803     12.833189   0.000000   0.000000
  137       12.276499     13.315460   0.000000   0.000000
  138       12.276508     13.315495   0.000000   0.000000
  139       12.619294     13.676843   0.000000   0.000000
  140       12.619320     13.757330   0.000000   0.000000
  141       12.936760     13.948356   0.000000   0.000000
  142       13.376420     14.030850   0.000000   0.000000
  143       13.376420     14.373923   0.000000   0.000000
  144       13.456232     14.373925   0.000000   0.000000
  145       13.990149     14.457801   0.000000   0.000000
  146       14.364833     14.728494   0.000000   0.000000
  147       14.364834     14.746085   0.000000   0.000000
  148       14.430648     14.746094   0.000000   0.000000
  149       14.430668     14.887814   0.000000   0.000000
  150       14.508016     14.887819   0.000000   0.000000
  151       15.076495     15.297483   0.000000   0.000000
  152       15.356843     16.006332   0.000000   0.000000
  153       15.408732     16.282733   0.000000   0.000000
  154       15.754862     16.376320   0.000000   0.000000
  155       15.776558     16.421414   0.000000   0.000000
  156       16.106496     16.576662   0.000000   0.000000
  157       16.119333     16.581225   0.000000   0.000000
  158       16.119334     16.868991   0.000000   0.000000
  159       16.241436     16.869197   0.000000   0.000000
  160       16.843724     17.243537   0.000000   0.000000

  0.3333333E+00  0.1262315E-14  0.1290843E-14  0.1111111E+00
    1      -55.858766    -49.199665   1.000000   1.000000
    2      -55.858275    -49.198695   1.000000   1.000000
    3      -55.857755    -49.197312   1.000000   1.000000
    4      -55.857643    -49.197281   1.000000   1.000000
    5      -55.857277    -49.197100   1.000000   1.000000
    6      -55.857180    -49.197075   1.000000   1.000000
    7      -55.856901    -49.196143   1.000000   1.000000
    8      -55.856482    -49.195213   1.000000   1.000000
    9      -54.304290    -49.160394   1.000000   1.000000
   10      -54.304131    -49.160205   1.000000   1.000000
   11      -54.303926    -49.159746   1.000000   1.000000
   12      -54.303771    -49.159597   1.000000   1.000000
   13      -54.303557    -49.159004   1.000000   1.000000
   14      -54.303316    -49.158756   1.000000   1.000000
   15      -54.302946    -49.158605   1.000000   1.000000
   16      -54.302848    -49.157808   1.000000   1.000000
   17      -54.302520    -49.157303   1.000000   1.000000
   18      -54.302450    -49.156979   1.000000   1.000000
   19      -54.302040    -49.156712   1.000000   1.000000
   20      -54.301966    -49.156526   1.000000   1.000000
   21      -54.301950    -49.156470   1.000000   1.000000
   22      -54.301646    -49.156396   1.000000   1.000000
   23      -54.301637    -49.155382   1.000000   1.000000
   24      -54.301372    -49.155363   1.000000   1.000000
   25      -43.070938    -43.071744   1.000000   1.000000
   26      -43.060385    -43.061313   1.000000   1.000000
   27      -43.046551    -43.047636   1.000000   1.000000
   28      -43.045703    -43.046792   1.000000   1.000000
   29      -43.045497    -43.046600   1.000000   1.000000
   30      -43.045203    -43.046308   1.000000   1.000000
   31      -43.033364    -43.034574   1.000000   1.000000
   32      -43.024261    -43.025558   1.000000   1.000000
   33      -15.375520    -14.968868   1.000000   1.000000
   34      -15.345468    -14.938475   1.000000   1.000000
   35      -15.320205    -14.913260   1.000000   1.000000
   36      -15.300107    -14.893652   1.000000   1.000000
   37       -9.442114     -9.149313   1.000000   1.000000
   38       -9.107834     -8.820264   1.000000   1.000000
   39       -8.749345     -8.442129   1.000000   1.000000
   40       -8.650548     -8.312779   1.000000   1.000000
   41       -8.634613     -8.295209   1.000000   1.000000
   42       -8.596427     -8.286309   1.000000   1.000000
   43       -8.566830     -8.250099   1.000000   1.000000
   44       -8.487357     -8.140373   1.000000   1.000000
   45       -2.462010     -1.302886   1.000000   1.000000
   46       -2.437002     -1.298367   1.000000   1.000000
   47       -2.362990     -0.985913   1.000000   1.000000
   48       -2.202889     -0.780943   1.000000   1.000000
   49       -1.648167     -0.562419   1.000000   1.000000
   50       -1.566949     -0.418521   1.000000   1.000000
   51       -1.514586     -0.390979   1.000000   1.000000
   52       -1.404615     -0.372888   1.000000   1.000000
   53       -1.364859     -0.087017   1.000000   1.000000
   54       -1.281897      0.058001   1.000000   1.000000
   55       -1.133414      0.321462   1.000000   1.000000
   56       -1.119035      0.488008   1.000000   1.000000
   57       -1.110559      0.509878   1.000000   1.000000
   58       -1.091879      0.734744   1.000000   1.000000
   59       -1.006387      0.784157   1.000000   1.000000
   60       -0.927958      0.839987   1.000000   1.000000
   61       -0.911674      0.895217   1.000000   1.000000
   62       -0.844318      1.003326   1.000000   1.000000
   63       -0.829387      1.214536   1.000000   1.000000
   64       -0.691415      1.555309   1.000000   1.000000
   65       -0.608351      1.648091   1.000000   1.000000
   66       -0.565988      1.807048   1.000000   1.000000
   67       -0.562829      1.968727   1.000000   1.000000
   68       -0.536905      1.975244   1.000000   1.000000
   69       -0.450293      2.025579   1.000000   1.000000
   70       -0.439867      2.395546   1.000000   1.000000
   71       -0.428998      2.457101   1.000000   1.000000
   72       -0.395953      2.535927   1.000000   1.000000
   73       -0.335321      2.537927   1.000000   1.000000
   74       -0.207936      2.570280   1.000000   1.000000
   75       -0.083438      2.707210   1.000000   1.000000
   76       -0.036903      2.732087   1.000000   1.000000
   77       -0.008528      2.767005   1.000000   1.000000
   78        0.059635      2.983059   1.000000   1.000000
   79        0.355368      3.179603   1.000000   1.000000
   80        0.381442      3.565458   1.000000   1.000000
   81        0.585119      3.580818   1.000000   1.000000
   82        0.605345      3.840234   1.000000   1.000000
   83        0.676985      3.968341   1.000000   1.000000
   84        0.804830      4.071171   1.000000   1.000000
   85        1.142830      4.149927   1.000000   1.000000
   86        1.204963      4.152414   1.000000   1.000000
   87        1.235154      4.172618   1.000000   1.000000
   88        1.261633      4.188440   1.000000   1.000000
   89        1.272828      7.048203   1.000000   0.000000
   90        1.291612      7.650706   1.000000   0.000000
   91        1.293436      7.732717   1.000000   0.000000
   92        1.367506      7.761159   1.000000   0.000000
   93        1.390680      7.774512   1.000000   0.000000
   94        1.427307      7.782225   1.000000   0.000000
   95        1.462433      7.913745   1.000000   0.000000
   96        1.516546      7.921797   1.000000   0.000000
   97        1.542903      7.983606   1.000000   0.000000
   98        1.584131      8.013911   1.000000   0.000000
   99        1.634918      8.035776   1.000000   0.000000
  100        1.709571      8.554818   1.000000   0.000000
  101        1.813728      8.588983   1.000000   0.000000
  102        1.830700      8.647857   1.000000   0.000000
  103        1.963807      8.691172   1.000000   0.000000
  104        2.132703      8.695671   1.000000   0.000000
  105        2.596898      8.746037   1.000000   0.000000
  106        2.801235      8.759873   1.000000   0.000000
  107        2.810874      8.829854   1.000000   0.000000
  108        2.879705      8.841853   1.000000   0.000000
  109        3.214291      8.959365   1.000000   0.000000
  110        3.388052      9.006647   1.000000   0.000000
  111        3.445564      9.022412   1.000000   0.000000
  112        3.632743      9.047312   1.000000   0.000000
  113        3.668795      9.243140   1.000000   0.000000
  114        3.740102      9.336370   1.000000   0.000000
  115        3.764505      9.413599   1.000000   0.000000
  116        3.866286      9.444227   1.000000   0.000000
  117        3.891115      9.686843   1.000000   0.000000
  118        4.218236      9.771015   1.000000   0.000000
  119        4.379194      9.825847   1.000000   0.000000
  120        4.397370      9.831465   1.000000   0.000000
  121        8.914720     10.065095   0.000000   0.000000
  122        9.617646     10.453896   0.000000   0.000000
  123        9.828165     10.564190   0.000000   0.000000
  124       10.005082     11.050187   0.000000   0.000000
  125       10.375310     11.323679   0.000000   0.000000
  126       10.386273     11.376083   0.000000   0.000000
  127       10.550165     11.518373   0.000000   0.000000
  128       10.691964     11.792340   0.000000   0.000000
  129       10.976146     11.841553   0.000000   0.000000
  130       11.360042     12.205187   0.000000   0.000000
  131       11.506460     12.469759   0.000000   0.000000
  132       11.714923     12.575569   0.000000   0.000000
  133       12.062141     12.711328   0.000000   0.000000
  134       12.120191     12.757732   0.000000   0.000000
  135       12.333881     13.109104   0.000000   0.000000
  136       12.474718     13.397593   0.000000   0.000000
  137       12.681241     13.425048   0.000000   0.000000
  138       12.766829     13.519629   0.000000   0.000000
  139       12.880605     13.663346   0.000000   0.000000
  140       12.968694     13.693193   0.000000   0.000000
  141       12.976089     13.762466   0.000000   0.000000
  142       13.273550     14.189794   0.000000   0.000000
  143       13.406087     14.268544   0.000000   0.000000
  144       13.662749     14.315557   0.000000   0.000000
  145       13.692557     14.480629   0.000000   0.000000
  146       13.956757     14.515639   0.000000   0.000000
  147       14.085815     14.623842   0.000000   0.000000
  148       14.194366     14.722008   0.000000   0.000000
  149       14.490027     14.977051   0.000000   0.000000
  150       14.616385     15.113445   0.000000   0.000000
  151       14.757066     15.294861   0.000000   0.000000
  152       14.807037     15.345967   0.000000   0.000000
  153       14.881695     15.701651   0.000000   0.000000
  154       15.262048     15.846872   0.000000   0.000000
  155       15.282673     15.871226   0.000000   0.000000
  156       15.393625     16.022849   0.000000   0.000000
  157       15.625083     16.170940   0.000000   0.000000
  158       15.854709     16.619482   0.000000   0.000000
  159       15.924057     16.621937   0.000000   0.000000
  160       16.187827     16.877578   0.000000   0.000000

  0.3333333E+00  0.3333333E+00  0.1215042E-14  0.5555556E-01
    1      -55.858530    -49.199317   1.000000   1.000000
    2      -55.858229    -49.198441   1.000000   1.000000
    3      -55.858229    -49.198440   1.000000   1.000000
    4      -55.857711    -49.197818   1.000000   1.000000
    5      -55.857221    -49.196546   1.000000   1.000000
    6      -55.856866    -49.196222   1.000000   1.000000
    7      -55.856866    -49.196220   1.000000   1.000000
    8      -55.856654    -49.195492   1.000000   1.000000
    9      -54.304115    -49.160662   1.000000   1.000000
   10      -54.303992    -49.160053   1.000000   1.000000
   11      -54.303889    -49.159997   1.000000   1.000000
   12      -54.303833    -49.159633   1.000000   1.000000
   13      -54.303223    -49.158906   1.000000   1.000000
   14      -54.303170    -49.158214   1.000000   1.000000
   15      -54.303076    -49.158213   1.000000   1.000000
   16      -54.303018    -49.157722   1.000000   1.000000
   17      -54.302618    -49.157210   1.000000   1.000000
   18      -54.302446    -49.157004   1.000000   1.000000
   19      -54.302389    -49.156863   1.000000   1.000000
   20      -54.302129    -49.156649   1.000000   1.000000
   21      -54.301784    -49.156374   1.000000   1.000000
   22      -54.301720    -49.156208   1.000000   1.000000
   23      -54.301666    -49.155861   1.000000   1.000000
   24      -54.301398    -49.155725   1.000000   1.000000
   25      -43.067454    -43.068302   1.000000   1.000000
   26      -43.058206    -43.059161   1.000000   1.000000
   27      -43.058199    -43.059154   1.000000   1.000000
   28      -43.052504    -43.053532   1.000000   1.000000
   29      -43.038976    -43.040139   1.000000   1.000000
   30      -43.034798    -43.035999   1.000000   1.000000
   31      -43.034791    -43.035991   1.000000   1.000000
   32      -43.027025    -43.028296   1.000000   1.000000
   33      -15.360922    -14.954185   1.000000   1.000000
   34      -15.334941    -14.928074   1.000000   1.000000
   35      -15.334940    -14.928072   1.000000   1.000000
   36      -15.310472    -14.903846   1.000000   1.000000
   37       -9.321677     -9.028355   1.000000   1.000000
   38       -9.026620     -8.731689   1.000000   1.000000
   39       -9.026618     -8.731688   1.000000   1.000000
   40       -8.755734     -8.431895   1.000000   1.000000
   41       -8.607272     -8.270707   1.000000   1.000000
   42       -8.528417     -8.188564   1.000000   1.000000
   43       -8.501088     -8.174783   1.000000   1.000000
   44       -8.501086     -8.174781   1.000000   1.000000
   45       -2.399055     -1.195768   1.000000   1.000000
   46       -2.398319     -1.195741   1.000000   1.000000
   47       -2.398315     -0.941067   1.000000   1.000000
   48       -2.233990     -0.823410   1.000000   1.000000
   49       -1.650636     -0.504176   1.000000   1.000000
   50       -1.650627     -0.504160   1.000000   1.000000
   51       -1.441529     -0.344541   1.000000   1.000000
   52       -1.400389     -0.158685   1.000000   1.000000
   53       -1.210548     -0.057783   1.000000   1.000000
   54       -1.199798      0.164930   1.000000   1.000000
   55       -1.199786      0.264408   1.000000   1.000000
   56       -1.193980      0.264422   1.000000   1.000000
   57       -1.087772      0.690753   1.000000   1.000000
   58       -1.052398      0.876295   1.000000   1.000000
   59       -1.052395      0.876349   1.000000   1.000000
   60       -1.027774      0.972618   1.000000   1.000000
   61       -1.027768      0.972623   1.000000   1.000000
   62       -0.822956      1.132208   1.000000   1.000000
   63       -0.700291      1.297141   1.000000   1.000000
   64       -0.621857      1.486259   1.000000   1.000000
   65       -0.613989      1.562419   1.000000   1.000000
   66       -0.613979      1.772685   1.000000   1.000000
   67       -0.592398      1.929247   1.000000   1.000000
   68       -0.530575      1.929288   1.000000   1.000000
   69       -0.473825      1.975403   1.000000   1.000000
   70       -0.340637      1.975413   1.000000   1.000000
   71       -0.340636      2.041214   1.000000   1.000000
   72       -0.271362      2.232824   1.000000   1.000000
   73       -0.157389      2.268551   1.000000   1.000000
   74       -0.101209      2.335503   1.000000   1.000000
   75       -0.101207      2.769540   1.000000   1.000000
   76       -0.031199      2.769555   1.000000   1.000000
   77       -0.031186      2.866523   1.000000   1.000000
   78        0.018918      2.924540   1.000000   1.000000
   79        0.257792      2.924553   1.000000   1.000000
   80        0.476204      3.095696   1.000000   1.000000
   81        0.728302      3.809772   1.000000   1.000000
   82        0.728314      4.067436   1.000000   1.000000
   83        0.812516      4.067533   1.000000   1.000000
   84        0.827502      4.124894   1.000000   1.000000
   85        1.074913      4.251187   1.000000   1.000000
   86        1.158569      4.272685   1.000000   1.000000
   87        1.209992      4.272751   1.000000   1.000000
   88        1.222893      4.304911   1.000000   1.000000
   89        1.222908      7.403627   1.000000   0.000000
   90        1.285835      7.403643   1.000000   0.000000
   91        1.314303      7.555973   1.000000   0.000000
   92        1.372655      7.605544   1.000000   0.000000
   93        1.372685      7.617174   1.000000   0.000000
   94        1.416291      7.760333   1.000000   0.000000
   95        1.416297      7.899575   1.000000   0.000000
   96        1.431616      8.116589   1.000000   0.000000
   97        1.439352      8.116669   1.000000   0.000000
   98        1.496951      8.133186   1.000000   0.000000
   99        1.538537      8.296556   1.000000   0.000000
  100        1.538539      8.296573   1.000000   0.000000
  101        1.836468      8.331488   1.000000   0.000000
  102        2.213425      8.534522   1.000000   0.000000
  103        2.236463      8.534546   1.000000   0.000000
  104        2.236472      8.550868   1.000000   0.000000
  105        2.301918      8.777184   1.000000   0.000000
  106        2.366560      8.800382   1.000000   0.000000
  107        2.728867      8.886763   1.000000   0.000000
  108        2.728875      8.886833   1.000000   0.000000
  109        2.748901      8.892957   1.000000   0.000000
  110        3.224254      9.011959   1.000000   0.000000
  111        3.224271      9.028798   1.000000   0.000000
  112        3.363713      9.028833   1.000000   0.000000
  113        3.430816      9.146881   1.000000   0.000000
  114        3.600388      9.226908   1.000000   0.000000
  115        3.860635      9.595095   1.000000   0.000000
  116        3.860640      9.595142   1.000000   0.000000
  117        3.877514      9.729165   1.000000   0.000000
  118        4.377023      9.796880   1.000000   0.000000
  119        4.706896     10.118949   1.000000   0.000000
  120        4.706902     10.118991   1.000000   0.000000
  121        9.833258     10.994348   0.000000   0.000000
  122       10.274211     11.092934   0.000000   0.000000
  123       10.307086     11.348707   0.000000   0.000000
  124       10.443046     11.348711   0.000000   0.000000
  125       10.523385     11.481045   0.000000   0.000000
  126       10.523389     11.485633   0.000000   0.000000
  127       10.902017     11.521410   0.000000   0.000000
  128       10.902024     11.521418   0.000000   0.000000
  129       11.238358     11.972586   0.000000   0.000000
  130       11.238367     11.972597   0.000000   0.000000
  131       11.628597     12.738410   0.000000   0.000000
  132       11.628601     12.817509   0.000000   0.000000
  133       12.059446     12.822175   0.000000   0.000000
  134       12.089794     12.822229   0.000000   0.000000
  135       12.412192     12.861706   0.000000   0.000000
  136       12.463095     13.222954   0.000000   0.000000
  137       12.543172     13.222989   0.000000   0.000000
  138       12.543174     13.515837   0.000000   0.000000
  139       12.941586     13.710951   0.000000   0.000000
  140       13.078039     13.867467   0.000000   0.000000
  141       13.078044     13.885868   0.000000   0.000000
  142       13.094657     14.077444   0.000000   0.000000
  143       13.147912     14.077461   0.000000   0.000000
  144       13.180128     14.109040   0.000000   0.000000
  145       13.522645     14.207115   0.000000   0.000000
  146       13.828179     14.303326   0.000000   0.000000
  147       13.849754     14.480097   0.000000   0.000000
  148       13.897969     14.480104   0.000000   0.000000
  149       13.897973     14.628174   0.000000   0.000000
  150       14.153790     14.628225   0.000000   0.000000
  151       14.153799     14.763280   0.000000   0.000000
  152       14.556691     15.347220   0.000000   0.000000
  153       14.903515     15.495826   0.000000   0.000000
  154       14.931611     15.505593   0.000000   0.000000
  155       14.931617     15.505641   0.000000   0.000000
  156       15.142552     15.878845   0.000000   0.000000
  157       15.341385     15.897683   0.000000   0.000000
  158       15.657655     16.100199   0.000000   0.000000
  159       15.678271     16.131678   0.000000   0.000000
  160       15.902402     16.540255   0.000000   0.000000

 -0.3333333E+00  0.3333333E+00  0.1238631E-14  0.5555556E-01
    1      -55.858644    -49.199329   1.000000   1.000000
    2      -55.858071    -49.198455   1.000000   1.000000
    3      -55.858038    -49.198406   1.000000   1.000000
    4      -55.857956    -49.197788   1.000000   1.000000
    5      -55.857038    -49.196535   1.000000   1.000000
    6      -55.857005    -49.196262   1.000000   1.000000
    7      -55.856961    -49.196212   1.000000   1.000000
    8      -55.856547    -49.195467   1.000000   1.000000
    9      -54.304173    -49.160437   1.000000   1.000000
   10      -54.303910    -49.160108   1.000000   1.000000
   11      -54.303852    -49.159915   1.000000   1.000000
   12      -54.303739    -49.159803   1.000000   1.000000
   13      -54.303559    -49.159252   1.000000   1.000000
   14      -54.303111    -49.158050   1.000000   1.000000
   15      -54.303023    -49.158020   1.000000   1.000000
   16      -54.302709    -49.157635   1.000000   1.000000
   17      -54.302591    -49.157236   1.000000   1.000000
   18      -54.302569    -49.157146   1.000000   1.000000
   19      -54.302480    -49.156974   1.000000   1.000000
   20      -54.302215    -49.156541   1.000000   1.000000
   21      -54.301727    -49.156408   1.000000   1.000000
   22      -54.301598    -49.156152   1.000000   1.000000
   23      -54.301583    -49.155814   1.000000   1.000000
   24      -54.301514    -49.155706   1.000000   1.000000
   25      -43.067458    -43.068306   1.000000   1.000000
   26      -43.058399    -43.059360   1.000000   1.000000
   27      -43.057991    -43.058944   1.000000   1.000000
   28      -43.052485    -43.053508   1.000000   1.000000
   29      -43.038952    -43.040120   1.000000   1.000000