 160 160   0   0
  0.1215613E+02  0.1537564E-08  0.1124787E-08  0.1124760E-08  0.5000000E-15
  1.000000000000000E-004
  CAR 
 unknown system                          
     17.04834758    -54.78881890  301      4.89589358      1.00000000
    -54.789  0.0000E+00  0.0000E+00  0.0000E+00  0.0000E+00
    -54.549  0.0000E+00  0.0000E+00  0.0000E+00  0.0000E+00
    -54.310  0.0000E+00  0.0000E+00  0.0000E+00  0.0000E+00
    -54.070  0.0000E+00  0.0000E+00  0.0000E+00  0.0000E+00
    -53.831  0.0000E+00  0.0000E+00  0.0000E+00  0.0000E+00
    -53.592  0.0000E+00  0.0000E+00  0.0000E+00  0.0000E+00
    -53.352  0.0000E+00  0.0000E+00  0.0000E+00  0.0000E+00
    -53.113  0.0000E+00  0.0000E+00  0.0000E+00  0.0000E+00
    -52.873  0.0000E+00  0.0000E+00  0.0000E+00  0.0000E+00
    -52.634  0.0000E+00  0.0000E+00  0.0000E+00  0.0000E+00
    -52.394  0.0000E+00  0.0000E+00  0.0000E+00  0.0000E+00
    -52.155  0.0000E+00  0.0000E+00  0.0000E+00  0.0000E+00
    -51.915  0.0000E+00  0.0000E+00  0.0000E+00  0.0000E+00
    -51.676  0.4393E-03  0.0000E+00  0.1052E-03  0.0000E+00
    -51.436  0.8253E+02  0.0000E+00  0.1976E+02  0.0000E+00
    -51.197  0.5110E+02  0.0000E+00  0.3200E+02  0.0000E+00
    -50.958  0.0000E+00  0.0000E+00  0.3200E+02  0.0000E+00
    -50.718  0.0000E+00  0.0000E+00  0.3200E+02  0.0000E+00
    -50.479  0.6715E-13  0.0000E+00  0.3200E+02  0.0000E+00
    -50.239  0.8090E+01  0.0000E+00  0.3394E+02  0.0000E+00
    -50.000  0.1692E+03  0.0000E+00  0.7446E+02  0.0000E+00
    -49.760  0.8994E+02  0.0000E+00  0.9600E+02  0.0000E+00
    -49.521  0.0000E+00  0.0000E+00  0.9600E+02  0.0000E+00
    -49.281  0.0000E+00  0.0000E+00  0.9600E+02  0.0000E+00
    -49.042  0.0000E+00  0.0000E+00  0.9600E+02  0.0000E+00
    -48.802  0.0000E+00  0.0000E+00  0.9600E+02  0.0000E+00
    -48.563  0.0000E+00  0.0000E+00  0.9600E+02  0.0000E+00
    -48.323  0.0000E+00  0.0000E+00  0.9600E+02  0.0000E+00
    -48.084  0.0000E+00  0.0000E+00  0.9600E+02  0.0000E+00
    -47.845  0.0000E+00  0.0000E+00  0.9600E+02  0.0000E+00
    -47.605  0.0000E+00  0.0000E+00  0.9600E+02  0.0000E+00
    -47.366  0.0000E+00  0.0000E+00  0.9600E+02  0.0000E+00
    -47.126  0.0000E+00  0.0000E+00  0.9600E+02  0.0000E+00
    -46.887  0.0000E+00  0.2090E+00  0.9600E+02  0.5006E-01
    -46.647  0.0000E+00  0.1066E+03  0.9600E+02  0.2558E+02
    -46.408  0.0000E+00  0.1051E+03  0.9600E+02  0.5076E+02
    -46.168  0.0000E+00  0.1887E+03  0.9600E+02  0.9593E+02
    -45.929  0.0000E+00  0.2887E+00  0.9600E+02  0.9600E+02
    -45.689  0.0000E+00  0.0000E+00  0.9600E+02  0.9600E+02
    -45.450  0.0000E+00  0.0000E+00  0.9600E+02  0.9600E+02
    -45.211  0.0000E+00  0.0000E+00  0.9600E+02  0.9600E+02
    -44.971  0.0000E+00  0.0000E+00  0.9600E+02  0.9600E+02
    -44.732  0.0000E+00  0.0000E+00  0.9600E+02  0.9600E+02
    -44.492  0.0000E+00  0.0000E+00  0.9600E+02  0.9600E+02
    -44.253  0.0000E+00  0.0000E+00  0.9600E+02  0.9600E+02
    -44.013  0.0000E+00  0.0000E+00  0.9600E+02  0.9600E+02
    -43.774  0.0000E+00  0.0000E+00  0.9600E+02  0.9600E+02
    -43.534  0.0000E+00  0.0000E+00  0.9600E+02  0.9600E+02
    -43.295  0.0000E+00  0.0000E+00  0.9600E+02  0.9600E+02
    -43.055  0.0000E+00  0.0000E+00  0.9600E+02  0.9600E+02
    -42.816  0.0000E+00  0.0000E+00  0.9600E+02  0.9600E+02
    -42.577  0.0000E+00  0.0000E+00  0.9600E+02  0.9600E+02
    -42.337  0.0000E+00  0.0000E+00  0.9600E+02  0.9600E+02
    -42.098  0.0000E+00  0.0000E+00  0.9600E+02  0.9600E+02
    -41.858  0.0000E+00  0.0000E+00  0.9600E+02  0.9600E+02
    -41.619  0.0000E+00  0.0000E+00  0.9600E+02  0.9600E+02
    -41.379  0.0000E+00  0.0000E+00  0.9600E+02  0.9600E+02
    -41.140  0.0000E+00  0.0000E+00  0.9600E+02  0.9600E+02
    -40.900  0.0000E+00  0.0000E+00  0.9600E+02  0.9600E+02
    -40.661  0.3168E-14  0.2576E-16  0.9600E+02  0.9600E+02
    -40.421  0.3839E+01  0.3380E+01  0.9692E+02  0.9681E+02
    -40.182  0.1806E+03  0.1831E+03  0.1402E+03  0.1407E+03
    -39.942  0.8282E+02  0.8075E+02  0.1600E+03  0.1600E+03
    -39.703  0.0000E+00  0.0000E+00  0.1600E+03  0.1600E+03
    -39.464  0.0000E+00  0.0000E+00  0.1600E+03  0.1600E+03
    -39.224  0.0000E+00  0.0000E+00  0.1600E+03  0.1600E+03
    -38.985  0.0000E+00  0.0000E+00  0.1600E+03  0.1600E+03
    -38.745  0.0000E+00  0.0000E+00  0.1600E+03  0.1600E+03
    -38.506  0.0000E+00  0.0000E+00  0.1600E+03  0.1600E+03
    -38.266  0.0000E+00  0.0000E+00  0.1600E+03  0.1600E+03
    -38.027  0.0000E+00  0.0000E+00  0.1600E+03  0.1600E+03
    -37.787  0.0000E+00  0.0000E+00  0.1600E+03  0.1600E+03
    -37.548  0.0000E+00  0.0000E+00  0.1600E+03  0.1600E+03
    -37.308  0.0000E+00  0.0000E+00  0.1600E+03  0.1600E+03
    -37.069  0.0000E+00  0.0000E+00  0.1600E+03  0.1600E+03
    -36.830  0.0000E+00  0.0000E+00  0.1600E+03  0.1600E+03
    -36.590  0.0000E+00  0.0000E+00  0.1600E+03  0.1600E+03
    -36.351  0.0000E+00  0.0000E+00  0.1600E+03  0.1600E+03
    -36.111  0.0000E+00  0.0000E+00  0.1600E+03  0.1600E+03
    -35.872  0.0000E+00  0.0000E+00  0.1600E+03  0.1600E+03
    -35.632  0.0000E+00  0.0000E+00  0.1600E+03  0.1600E+03
    -35.393  0.0000E+00  0.0000E+00  0.1600E+03  0.1600E+03
    -35.153  0.0000E+00  0.0000E+00  0.1600E+03  0.1600E+03
    -34.914  0.0000E+00  0.0000E+00  0.1600E+03  0.1600E+03
    -34.674  0.0000E+00  0.0000E+00  0.1600E+03  0.1600E+03
    -34.435  0.0000E+00  0.0000E+00  0.1600E+03  0.1600E+03
    -34.195  0.0000E+00  0.0000E+00  0.1600E+03  0.1600E+03
    -33.956  0.0000E+00  0.0000E+00  0.1600E+03  0.1600E+03
    -33.717  0.0000E+00  0.0000E+00  0.1600E+03  0.1600E+03
    -33.477  0.0000E+00  0.0000E+00  0.1600E+03  0.1600E+03
    -33.238  0.0000E+00  0.0000E+00  0.1600E+03  0.1600E+03
    -32.998  0.0000E+00  0.0000E+00  0.1600E+03  0.1600E+03
    -32.759  0.0000E+00  0.0000E+00  0.1600E+03  0.1600E+03
    -32.519  0.0000E+00  0.0000E+00  0.1600E+03  0.1600E+03
    -32.280  0.0000E+00  0.0000E+00  0.1600E+03  0.1600E+03
    -32.040  0.0000E+00  0.0000E+00  0.1600E+03  0.1600E+03
    -31.801  0.0000E+00  0.0000E+00  0.1600E+03  0.1600E+03
    -31.561  0.0000E+00  0.0000E+00  0.1600E+03  0.1600E+03
    -31.322  0.0000E+00  0.0000E+00  0.1600E+03  0.1600E+03
    -31.083  0.0000E+00  0.0000E+00  0.1600E+03  0.1600E+03
    -30.843  0.0000E+00  0.0000E+00  0.1600E+03  0.1600E+03
    -30.604  0.0000E+00  0.0000E+00  0.1600E+03  0.1600E+03
    -30.364  0.0000E+00  0.0000E+00  0.1600E+03  0.1600E+03
    -30.125  0.0000E+00  0.0000E+00  0.1600E+03  0.1600E+03
    -29.885  0.0000E+00  0.0000E+00  0.1600E+03  0.1600E+03
    -29.646  0.0000E+00  0.0000E+00  0.1600E+03  0.1600E+03
    -29.406  0.0000E+00  0.0000E+00  0.1600E+03  0.1600E+03
    -29.167  0.0000E+00  0.0000E+00  0.1600E+03  0.1600E+03
    -28.927  0.0000E+00  0.0000E+00  0.1600E+03  0.1600E+03
    -28.688  0.0000E+00  0.0000E+00  0.1600E+03  0.1600E+03
    -28.449  0.0000E+00  0.0000E+00  0.1600E+03  0.1600E+03
    -28.209  0.0000E+00  0.0000E+00  0.1600E+03  0.1600E+03
    -27.970  0.0000E+00  0.0000E+00  0.1600E+03  0.1600E+03
    -27.730  0.0000E+00  0.0000E+00  0.1600E+03  0.1600E+03
    -27.491  0.0000E+00  0.0000E+00  0.1600E+03  0.1600E+03
    -27.251  0.0000E+00  0.0000E+00  0.1600E+03  0.1600E+03
    -27.012  0.0000E+00  0.0000E+00  0.1600E+03  0.1600E+03
    -26.772  0.0000E+00  0.0000E+00  0.1600E+03  0.1600E+03
    -26.533  0.0000E+00  0.0000E+00  0.1600E+03  0.1600E+03
    -26.293  0.0000E+00  0.0000E+00  0.1600E+03  0.1600E+03
    -26.054  0.0000E+00  0.0000E+00  0.1600E+03  0.1600E+03
    -25.814  0.0000E+00  0.0000E+00  0.1600E+03  0.1600E+03
    -25.575  0.0000E+00  0.0000E+00  0.1600E+03  0.1600E+03
    -25.336  0.0000E+00  0.0000E+00  0.1600E+03  0.1600E+03
    -25.096  0.0000E+00  0.0000E+00  0.1600E+03  0.1600E+03
    -24.857  0.0000E+00  0.0000E+00  0.1600E+03  0.1600E+03
    -24.617  0.0000E+00  0.0000E+00  0.1600E+03  0.1600E+03
    -24.378  0.0000E+00  0.0000E+00  0.1600E+03  0.1600E+03
    -24.138  0.0000E+00  0.0000E+00  0.1600E+03  0.1600E+03
    -23.899  0.0000E+00  0.0000E+00  0.1600E+03  0.1600E+03
    -23.659  0.0000E+00  0.0000E+00  0.1600E+03  0.1600E+03
    -23.420  0.0000E+00  0.0000E+00  0.1600E+03  0.1600E+03
    -23.180  0.0000E+00  0.0000E+00  0.1600E+03  0.1600E+03
    -22.941  0.0000E+00  0.0000E+00  0.1600E+03  0.1600E+03
    -22.702  0.0000E+00  0.0000E+00  0.1600E+03  0.1600E+03
    -22.462  0.0000E+00  0.0000E+00  0.1600E+03  0.1600E+03
    -22.223  0.0000E+00  0.0000E+00  0.1600E+03  0.1600E+03
    -21.983  0.0000E+00  0.0000E+00  0.1600E+03  0.1600E+03
    -21.744  0.0000E+00  0.0000E+00  0.1600E+03  0.1600E+03
    -21.504  0.0000E+00  0.0000E+00  0.1600E+03  0.1600E+03
    -21.265  0.0000E+00  0.0000E+00  0.1600E+03  0.1600E+03
    -21.025  0.0000E+00  0.0000E+00  0.1600E+03  0.1600E+03
    -20.786  0.0000E+00  0.0000E+00  0.1600E+03  0.1600E+03
    -20.546  0.0000E+00  0.0000E+00  0.1600E+03  0.1600E+03
    -20.307  0.0000E+00  0.0000E+00  0.1600E+03  0.1600E+03
    -20.068  0.0000E+00  0.0000E+00  0.1600E+03  0.1600E+03
    -19.828  0.0000E+00  0.0000E+00  0.1600E+03  0.1600E+03
    -19.589  0.0000E+00  0.0000E+00  0.1600E+03  0.1600E+03
    -19.349  0.0000E+00  0.0000E+00  0.1600E+03  0.1600E+03
    -19.110  0.0000E+00  0.0000E+00  0.1600E+03  0.1600E+03
    -18.870  0.0000E+00  0.0000E+00  0.1600E+03  0.1600E+03
    -18.631  0.0000E+00  0.0000E+00  0.1600E+03  0.1600E+03
    -18.391  0.0000E+00  0.0000E+00  0.1600E+03  0.1600E+03
    -18.152  0.0000E+00  0.0000E+00  0.1600E+03  0.1600E+03
    -17.912  0.0000E+00  0.0000E+00  0.1600E+03  0.1600E+03
    -17.673  0.0000E+00  0.0000E+00  0.1600E+03  0.1600E+03
    -17.433  0.0000E+00  0.0000E+00  0.1600E+03  0.1600E+03
    -17.194  0.0000E+00  0.0000E+00  0.1600E+03  0.1600E+03
    -16.955  0.0000E+00  0.0000E+00  0.1600E+03  0.1600E+03
    -16.715  0.0000E+00  0.0000E+00  0.1600E+03  0.1600E+03
    -16.476  0.0000E+00  0.0000E+00  0.1600E+03  0.1600E+03
    -16.236  0.0000E+00  0.0000E+00  0.1600E+03  0.1600E+03
    -15.997  0.0000E+00  0.0000E+00  0.1600E+03  0.1600E+03
    -15.757  0.0000E+00  0.0000E+00  0.1600E+03  0.1600E+03
    -15.518  0.0000E+00  0.0000E+00  0.1600E+03  0.1600E+03
    -15.278  0.0000E+00  0.0000E+00  0.1600E+03  0.1600E+03
    -15.039  0.0000E+00  0.0000E+00  0.1600E+03  0.1600E+03
    -14.799  0.0000E+00  0.0000E+00  0.1600E+03  0.1600E+03
    -14.560  0.0000E+00  0.0000E+00  0.1600E+03  0.1600E+03
    -14.321  0.0000E+00  0.0000E+00  0.1600E+03  0.1600E+03
    -14.081  0.0000E+00  0.0000E+00  0.1600E+03  0.1600E+03
    -13.842  0.0000E+00  0.0000E+00  0.1600E+03  0.1600E+03
    -13.602  0.1870E-01  0.0000E+00  0.1600E+03  0.1600E+03
    -13.363  0.5301E+02  0.2069E-05  0.1727E+03  0.1600E+03
    -13.123  0.7216E+02  0.2894E+02  0.1900E+03  0.1669E+03
    -12.884  0.8450E+01  0.9993E+02  0.1920E+03  0.1909E+03
    -12.644  0.0000E+00  0.4756E+01  0.1920E+03  0.1920E+03
    -12.405  0.0000E+00  0.0000E+00  0.1920E+03  0.1920E+03
    -12.165  0.0000E+00  0.0000E+00  0.1920E+03  0.1920E+03
    -11.926  0.0000E+00  0.0000E+00  0.1920E+03  0.1920E+03
    -11.687  0.0000E+00  0.0000E+00  0.1920E+03  0.1920E+03
    -11.447  0.0000E+00  0.0000E+00  0.1920E+03  0.1920E+03
    -11.208  0.0000E+00  0.0000E+00  0.1920E+03  0.1920E+03
    -10.968  0.0000E+00  0.0000E+00  0.1920E+03  0.1920E+03
    -10.729  0.0000E+00  0.0000E+00  0.1920E+03  0.1920E+03
    -10.489  0.0000E+00  0.0000E+00  0.1920E+03  0.1920E+03
    -10.250  0.0000E+00  0.0000E+00  0.1920E+03  0.1920E+03
    -10.010  0.0000E+00  0.0000E+00  0.1920E+03  0.1920E+03
     -9.771  0.0000E+00  0.0000E+00  0.1920E+03  0.1920E+03
     -9.531  0.0000E+00  0.0000E+00  0.1920E+03  0.1920E+03
     -9.292  0.0000E+00  0.0000E+00  0.1920E+03  0.1920E+03
     -9.052  0.0000E+00  0.0000E+00  0.1920E+03  0.1920E+03
     -8.813  0.0000E+00  0.0000E+00  0.1920E+03  0.1920E+03
     -8.574  0.0000E+00  0.0000E+00  0.1920E+03  0.1920E+03
     -8.334  0.0000E+00  0.0000E+00  0.1920E+03  0.1920E+03
     -8.095  0.0000E+00  0.0000E+00  0.1920E+03  0.1920E+03
     -7.855  0.4173E-10  0.0000E+00  0.1920E+03  0.1920E+03
     -7.616  0.1537E+01  0.4021E-07  0.1924E+03  0.1920E+03
     -7.376  0.4673E+02  0.7621E+01  0.2036E+03  0.1938E+03
     -7.137  0.6533E+02  0.6074E+02  0.2192E+03  0.2084E+03
     -6.897  0.2003E+02  0.5439E+02  0.2240E+03  0.2214E+03
     -6.658  0.1014E-01  0.1088E+02  0.2240E+03  0.2240E+03
     -6.418  0.0000E+00  0.3777E-02  0.2240E+03  0.2240E+03
     -6.179  0.0000E+00  0.0000E+00  0.2240E+03  0.2240E+03
     -5.940  0.0000E+00  0.0000E+00  0.2240E+03  0.2240E+03
     -5.700  0.0000E+00  0.0000E+00  0.2240E+03  0.2240E+03
     -5.461  0.0000E+00  0.0000E+00  0.2240E+03  0.2240E+03
     -5.221  0.0000E+00  0.0000E+00  0.2240E+03  0.2240E+03
     -4.982  0.0000E+00  0.0000E+00  0.2240E+03  0.2240E+03
     -4.742  0.0000E+00  0.0000E+00  0.2240E+03  0.2240E+03
     -4.503  0.0000E+00  0.0000E+00  0.2240E+03  0.2240E+03
     -4.263  0.0000E+00  0.0000E+00  0.2240E+03  0.2240E+03
     -4.024  0.0000E+00  0.0000E+00  0.2240E+03  0.2240E+03
     -3.784  0.0000E+00  0.0000E+00  0.2240E+03  0.2240E+03
     -3.545  0.0000E+00  0.0000E+00  0.2240E+03  0.2240E+03
     -3.306  0.0000E+00  0.0000E+00  0.2240E+03  0.2240E+03
     -3.066  0.0000E+00  0.0000E+00  0.2240E+03  0.2240E+03
     -2.827  0.4121E-15  0.0000E+00  0.2240E+03  0.2240E+03
     -2.587  0.3927E+00  0.0000E+00  0.2241E+03  0.2240E+03
     -2.348  0.3089E+02  0.0000E+00  0.2315E+03  0.2240E+03
     -2.108  0.1156E+02  0.0000E+00  0.2343E+03  0.2240E+03
     -1.869  0.1283E+02  0.0000E+00  0.2373E+03  0.2240E+03
     -1.629  0.1136E+02  0.0000E+00  0.2401E+03  0.2240E+03
     -1.390  0.1563E+02  0.0000E+00  0.2438E+03  0.2240E+03
     -1.150  0.6280E+02  0.2137E-05  0.2588E+03  0.2240E+03
     -0.911  0.7652E+02  0.3373E+01  0.2772E+03  0.2248E+03
     -0.671  0.6750E+02  0.3287E+02  0.2933E+03  0.2327E+03
     -0.432  0.7782E+02  0.1888E+02  0.3120E+03  0.2372E+03
     -0.193  0.1061E+03  0.1910E+02  0.3374E+03  0.2418E+03
      0.047  0.7865E+02  0.1222E+02  0.3562E+03  0.2447E+03
      0.286  0.5345E+02  0.3170E+02  0.3690E+03  0.2523E+03
      0.526  0.4756E+02  0.8133E+02  0.3804E+03  0.2718E+03
      0.765  0.4623E+02  0.6837E+02  0.3914E+03  0.2881E+03
      1.005  0.4666E+02  0.6982E+02  0.4026E+03  0.3049E+03
      1.244  0.7668E+02  0.6347E+02  0.4210E+03  0.3201E+03
      1.484  0.8765E+02  0.2170E+02  0.4420E+03  0.3253E+03
      1.723  0.5830E+02  0.5070E+02  0.4559E+03  0.3374E+03
      1.963  0.4004E+02  0.5158E+02  0.4655E+03  0.3497E+03
      2.202  0.4715E+02  0.3059E+02  0.4768E+03  0.3571E+03
      2.441  0.4167E+02  0.3902E+02  0.4868E+03  0.3664E+03
      2.681  0.5332E+02  0.6461E+02  0.4996E+03  0.3819E+03
      2.920  0.5383E+02  0.7221E+02  0.5124E+03  0.3992E+03
      3.160  0.5658E+02  0.6004E+02  0.5260E+03  0.4135E+03
      3.399  0.5307E+02  0.1612E+02  0.5387E+03  0.4174E+03
      3.639  0.5332E+02  0.3610E+02  0.5515E+03  0.4261E+03
      3.878  0.3993E+02  0.5940E+02  0.5610E+03  0.4403E+03
      4.118  0.3549E+02  0.3220E+02  0.5695E+03  0.4480E+03
      4.357  0.1927E+02  0.4498E-01  0.5741E+03  0.4480E+03
      4.597  0.7437E+01  0.0000E+00  0.5759E+03  0.4480E+03
      4.836  0.3242E+00  0.0000E+00  0.5760E+03  0.4480E+03
      5.075  0.0000E+00  0.0000E+00  0.5760E+03  0.4480E+03
      5.315  0.0000E+00  0.0000E+00  0.5760E+03  0.4480E+03
      5.554  0.0000E+00  0.0000E+00  0.5760E+03  0.4480E+03
      5.794  0.0000E+00  0.0000E+00  0.5760E+03  0.4480E+03
      6.033  0.0000E+00  0.0000E+00  0.5760E+03  0.4480E+03
      6.273  0.0000E+00  0.1545E-15  0.5760E+03  0.4480E+03
      6.512  0.0000E+00  0.6556E-01  0.5760E+03  0.4480E+03
      6.752  0.0000E+00  0.2420E+02  0.5760E+03  0.4538E+03
      6.991  0.6517E-06  0.7765E+02  0.5760E+03  0.4724E+03
      7.231  0.2290E+00  0.6326E+02  0.5761E+03  0.4876E+03
      7.470  0.1849E+00  0.6379E+02  0.5761E+03  0.5028E+03
      7.710  0.1387E+01  0.6309E+02  0.5764E+03  0.5179E+03
      7.949  0.3010E+01  0.9495E+02  0.5772E+03  0.5407E+03
      8.188  0.6538E+01  0.7283E+02  0.5787E+03  0.5581E+03
      8.428  0.9485E+01  0.4923E+02  0.5810E+03  0.5699E+03
      8.667  0.1871E+02  0.2507E+02  0.5855E+03  0.5759E+03
      8.907  0.2338E+02  0.7267E+01  0.5911E+03  0.5776E+03
      9.146  0.3138E+02  0.8595E+01  0.5986E+03  0.5797E+03
      9.386  0.2850E+02  0.1779E+02  0.6054E+03  0.5840E+03
      9.625  0.2980E+02  0.2680E+02  0.6125E+03  0.5904E+03
      9.865  0.2621E+02  0.3191E+02  0.6188E+03  0.5980E+03
     10.104  0.1756E+02  0.3783E+02  0.6230E+03  0.6071E+03
     10.344  0.2593E+02  0.3351E+02  0.6292E+03  0.6151E+03
     10.583  0.3627E+02  0.2857E+02  0.6379E+03  0.6219E+03
     10.822  0.4024E+02  0.3307E+02  0.6476E+03  0.6299E+03
     11.062  0.3299E+02  0.2823E+02  0.6555E+03  0.6366E+03
     11.301  0.4925E+02  0.2601E+02  0.6672E+03  0.6429E+03
     11.541  0.4115E+02  0.2918E+02  0.6771E+03  0.6498E+03
     11.780  0.4151E+02  0.5091E+02  0.6870E+03  0.6620E+03
     12.020  0.3404E+02  0.5025E+02  0.6952E+03  0.6741E+03
     12.259  0.3280E+02  0.5609E+02  0.7030E+03  0.6875E+03
     12.499  0.3251E+02  0.3155E+02  0.7108E+03  0.6950E+03
     12.738  0.3681E+02  0.3267E+02  0.7196E+03  0.7029E+03
     12.978  0.3457E+02  0.3215E+02  0.7279E+03  0.7106E+03
     13.217  0.1565E+02  0.3812E+02  0.7317E+03  0.7197E+03
     13.456  0.1014E+01  0.3394E+02  0.7319E+03  0.7278E+03
     13.696  0.3577E+00  0.1667E+02  0.7320E+03  0.7318E+03
     13.935  0.0000E+00  0.7596E+00  0.7320E+03  0.7320E+03
     14.175  0.0000E+00  0.3192E-05  0.7320E+03  0.7320E+03
     14.414  0.0000E+00  0.0000E+00  0.7320E+03  0.7320E+03
     14.654  0.0000E+00  0.0000E+00  0.7320E+03  0.7320E+03
     14.893  0.0000E+00  0.0000E+00  0.7320E+03  0.7320E+03
     15.133  0.0000E+00  0.0000E+00  0.7320E+03  0.7320E+03
     15.372  0.0000E+00  0.0000E+00  0.7320E+03  0.7320E+03
     15.612  0.0000E+00  0.0000E+00  0.7320E+03  0.7320E+03
     15.851  0.0000E+00  0.0000E+00  0.7320E+03  0.7320E+03
     16.091  0.0000E+00  0.0000E+00  0.7320E+03  0.7320E+03
     16.330  0.0000E+00  0.0000E+00  0.7320E+03  0.7320E+03
     16.569  0.0000E+00  0.0000E+00  0.7320E+03  0.7320E+03
     16.809  0.0000E+00  0.0000E+00  0.7320E+03  0.7320E+03
     17.048  0.0000E+00  0.0000E+00  0.7320E+03  0.7320E+03
