  88  88   0   0
  0.1431748E+02  0.1111223E-08  0.1111745E-08  0.1056954E-08  0.5000000E-15
  1.000000000000000E-004
  CAR 
 unknown system                          
     17.91202090    -54.35204246  301      5.20558976      1.00000000
    -54.352  0.0000E+00  0.0000E+00  0.0000E+00  0.0000E+00
    -54.111  0.0000E+00  0.0000E+00  0.0000E+00  0.0000E+00
    -53.870  0.0000E+00  0.0000E+00  0.0000E+00  0.0000E+00
    -53.629  0.0000E+00  0.0000E+00  0.0000E+00  0.0000E+00
    -53.389  0.0000E+00  0.0000E+00  0.0000E+00  0.0000E+00
    -53.148  0.0000E+00  0.0000E+00  0.0000E+00  0.0000E+00
    -52.907  0.0000E+00  0.0000E+00  0.0000E+00  0.0000E+00
    -52.666  0.0000E+00  0.0000E+00  0.0000E+00  0.0000E+00
    -52.425  0.0000E+00  0.0000E+00  0.0000E+00  0.0000E+00
    -52.184  0.0000E+00  0.0000E+00  0.0000E+00  0.0000E+00
    -51.943  0.0000E+00  0.0000E+00  0.0000E+00  0.0000E+00
    -51.702  0.0000E+00  0.0000E+00  0.0000E+00  0.0000E+00
    -51.461  0.0000E+00  0.0000E+00  0.0000E+00  0.0000E+00
    -51.221  0.1170E-03  0.0000E+00  0.2819E-04  0.0000E+00
    -50.980  0.1289E+03  0.0000E+00  0.3104E+02  0.0000E+00
    -50.739  0.3994E+01  0.0000E+00  0.3200E+02  0.0000E+00
    -50.498  0.0000E+00  0.0000E+00  0.3200E+02  0.0000E+00
    -50.257  0.0000E+00  0.0000E+00  0.3200E+02  0.0000E+00
    -50.016  0.0000E+00  0.0000E+00  0.3200E+02  0.0000E+00
    -49.775  0.9064E+00  0.0000E+00  0.3222E+02  0.0000E+00
    -49.534  0.2253E+03  0.0000E+00  0.8649E+02  0.0000E+00
    -49.294  0.3946E+02  0.0000E+00  0.9600E+02  0.0000E+00
    -49.053  0.0000E+00  0.0000E+00  0.9600E+02  0.0000E+00
    -48.812  0.0000E+00  0.0000E+00  0.9600E+02  0.0000E+00
    -48.571  0.0000E+00  0.0000E+00  0.9600E+02  0.0000E+00
    -48.330  0.0000E+00  0.0000E+00  0.9600E+02  0.0000E+00
    -48.089  0.0000E+00  0.0000E+00  0.9600E+02  0.0000E+00
    -47.848  0.0000E+00  0.0000E+00  0.9600E+02  0.0000E+00
    -47.607  0.0000E+00  0.0000E+00  0.9600E+02  0.0000E+00
    -47.367  0.0000E+00  0.0000E+00  0.9600E+02  0.0000E+00
    -47.126  0.0000E+00  0.0000E+00  0.9600E+02  0.0000E+00
    -46.885  0.0000E+00  0.0000E+00  0.9600E+02  0.0000E+00
    -46.644  0.0000E+00  0.0000E+00  0.9600E+02  0.0000E+00
    -46.403  0.0000E+00  0.1943E+00  0.9600E+02  0.4680E-01
    -46.162  0.0000E+00  0.1325E+03  0.9600E+02  0.3197E+02
    -45.921  0.0000E+00  0.4901E+02  0.9600E+02  0.4378E+02
    -45.680  0.0000E+00  0.2168E+03  0.9600E+02  0.9600E+02
    -45.439  0.0000E+00  0.2031E-03  0.9600E+02  0.9600E+02
    -45.199  0.0000E+00  0.0000E+00  0.9600E+02  0.9600E+02
    -44.958  0.0000E+00  0.0000E+00  0.9600E+02  0.9600E+02
    -44.717  0.0000E+00  0.0000E+00  0.9600E+02  0.9600E+02
    -44.476  0.0000E+00  0.0000E+00  0.9600E+02  0.9600E+02
    -44.235  0.0000E+00  0.0000E+00  0.9600E+02  0.9600E+02
    -43.994  0.0000E+00  0.0000E+00  0.9600E+02  0.9600E+02
    -43.753  0.0000E+00  0.0000E+00  0.9600E+02  0.9600E+02
    -43.512  0.0000E+00  0.0000E+00  0.9600E+02  0.9600E+02
    -43.272  0.0000E+00  0.0000E+00  0.9600E+02  0.9600E+02
    -43.031  0.0000E+00  0.0000E+00  0.9600E+02  0.9600E+02
    -42.790  0.0000E+00  0.0000E+00  0.9600E+02  0.9600E+02
    -42.549  0.0000E+00  0.0000E+00  0.9600E+02  0.9600E+02
    -42.308  0.0000E+00  0.0000E+00  0.9600E+02  0.9600E+02
    -42.067  0.0000E+00  0.0000E+00  0.9600E+02  0.9600E+02
    -41.826  0.0000E+00  0.0000E+00  0.9600E+02  0.9600E+02
    -41.585  0.0000E+00  0.0000E+00  0.9600E+02  0.9600E+02
    -41.345  0.0000E+00  0.0000E+00  0.9600E+02  0.9600E+02
    -41.104  0.0000E+00  0.0000E+00  0.9600E+02  0.9600E+02
    -40.863  0.0000E+00  0.0000E+00  0.9600E+02  0.9600E+02
    -40.622  0.0000E+00  0.0000E+00  0.9600E+02  0.9600E+02
    -40.381  0.0000E+00  0.0000E+00  0.9600E+02  0.9600E+02
    -40.140  0.1928E-12  0.1209E-12  0.9600E+02  0.9600E+02
    -39.899  0.1051E+02  0.9602E+01  0.9853E+02  0.9831E+02
    -39.658  0.5591E+02  0.5682E+02  0.1120E+03  0.1120E+03
    -39.417  0.0000E+00  0.0000E+00  0.1120E+03  0.1120E+03
    -39.177  0.0000E+00  0.0000E+00  0.1120E+03  0.1120E+03
    -38.936  0.0000E+00  0.0000E+00  0.1120E+03  0.1120E+03
    -38.695  0.0000E+00  0.0000E+00  0.1120E+03  0.1120E+03
    -38.454  0.0000E+00  0.0000E+00  0.1120E+03  0.1120E+03
    -38.213  0.0000E+00  0.0000E+00  0.1120E+03  0.1120E+03
    -37.972  0.0000E+00  0.0000E+00  0.1120E+03  0.1120E+03
    -37.731  0.0000E+00  0.0000E+00  0.1120E+03  0.1120E+03
    -37.490  0.0000E+00  0.0000E+00  0.1120E+03  0.1120E+03
    -37.250  0.0000E+00  0.0000E+00  0.1120E+03  0.1120E+03
    -37.009  0.0000E+00  0.0000E+00  0.1120E+03  0.1120E+03
    -36.768  0.0000E+00  0.0000E+00  0.1120E+03  0.1120E+03
    -36.527  0.0000E+00  0.0000E+00  0.1120E+03  0.1120E+03
    -36.286  0.0000E+00  0.0000E+00  0.1120E+03  0.1120E+03
    -36.045  0.0000E+00  0.0000E+00  0.1120E+03  0.1120E+03
    -35.804  0.0000E+00  0.0000E+00  0.1120E+03  0.1120E+03
    -35.563  0.0000E+00  0.0000E+00  0.1120E+03  0.1120E+03
    -35.323  0.0000E+00  0.0000E+00  0.1120E+03  0.1120E+03
    -35.082  0.0000E+00  0.0000E+00  0.1120E+03  0.1120E+03
    -34.841  0.0000E+00  0.0000E+00  0.1120E+03  0.1120E+03
    -34.600  0.0000E+00  0.0000E+00  0.1120E+03  0.1120E+03
    -34.359  0.0000E+00  0.0000E+00  0.1120E+03  0.1120E+03
    -34.118  0.0000E+00  0.0000E+00  0.1120E+03  0.1120E+03
    -33.877  0.0000E+00  0.0000E+00  0.1120E+03  0.1120E+03
    -33.636  0.0000E+00  0.0000E+00  0.1120E+03  0.1120E+03
    -33.395  0.0000E+00  0.0000E+00  0.1120E+03  0.1120E+03
    -33.155  0.0000E+00  0.0000E+00  0.1120E+03  0.1120E+03
    -32.914  0.0000E+00  0.0000E+00  0.1120E+03  0.1120E+03
    -32.673  0.0000E+00  0.0000E+00  0.1120E+03  0.1120E+03
    -32.432  0.0000E+00  0.0000E+00  0.1120E+03  0.1120E+03
    -32.191  0.0000E+00  0.0000E+00  0.1120E+03  0.1120E+03
    -31.950  0.0000E+00  0.0000E+00  0.1120E+03  0.1120E+03
    -31.709  0.0000E+00  0.0000E+00  0.1120E+03  0.1120E+03
    -31.468  0.0000E+00  0.0000E+00  0.1120E+03  0.1120E+03
    -31.228  0.0000E+00  0.0000E+00  0.1120E+03  0.1120E+03
    -30.987  0.0000E+00  0.0000E+00  0.1120E+03  0.1120E+03
    -30.746  0.0000E+00  0.0000E+00  0.1120E+03  0.1120E+03
    -30.505  0.0000E+00  0.0000E+00  0.1120E+03  0.1120E+03
    -30.264  0.0000E+00  0.0000E+00  0.1120E+03  0.1120E+03
    -30.023  0.0000E+00  0.0000E+00  0.1120E+03  0.1120E+03
    -29.782  0.0000E+00  0.0000E+00  0.1120E+03  0.1120E+03
    -29.541  0.0000E+00  0.0000E+00  0.1120E+03  0.1120E+03
    -29.301  0.0000E+00  0.0000E+00  0.1120E+03  0.1120E+03
    -29.060  0.0000E+00  0.0000E+00  0.1120E+03  0.1120E+03
    -28.819  0.0000E+00  0.0000E+00  0.1120E+03  0.1120E+03
    -28.578  0.0000E+00  0.0000E+00  0.1120E+03  0.1120E+03
    -28.337  0.0000E+00  0.0000E+00  0.1120E+03  0.1120E+03
    -28.096  0.0000E+00  0.0000E+00  0.1120E+03  0.1120E+03
    -27.855  0.0000E+00  0.0000E+00  0.1120E+03  0.1120E+03
    -27.614  0.0000E+00  0.0000E+00  0.1120E+03  0.1120E+03
    -27.373  0.0000E+00  0.0000E+00  0.1120E+03  0.1120E+03
    -27.133  0.0000E+00  0.0000E+00  0.1120E+03  0.1120E+03
    -26.892  0.0000E+00  0.0000E+00  0.1120E+03  0.1120E+03
    -26.651  0.0000E+00  0.0000E+00  0.1120E+03  0.1120E+03
    -26.410  0.0000E+00  0.0000E+00  0.1120E+03  0.1120E+03
    -26.169  0.0000E+00  0.0000E+00  0.1120E+03  0.1120E+03
    -25.928  0.0000E+00  0.0000E+00  0.1120E+03  0.1120E+03
    -25.687  0.0000E+00  0.0000E+00  0.1120E+03  0.1120E+03
    -25.446  0.0000E+00  0.0000E+00  0.1120E+03  0.1120E+03
    -25.206  0.0000E+00  0.0000E+00  0.1120E+03  0.1120E+03
    -24.965  0.0000E+00  0.0000E+00  0.1120E+03  0.1120E+03
    -24.724  0.0000E+00  0.0000E+00  0.1120E+03  0.1120E+03
    -24.483  0.0000E+00  0.0000E+00  0.1120E+03  0.1120E+03
    -24.242  0.0000E+00  0.0000E+00  0.1120E+03  0.1120E+03
    -24.001  0.0000E+00  0.0000E+00  0.1120E+03  0.1120E+03
    -23.760  0.0000E+00  0.0000E+00  0.1120E+03  0.1120E+03
    -23.519  0.0000E+00  0.0000E+00  0.1120E+03  0.1120E+03
    -23.278  0.0000E+00  0.0000E+00  0.1120E+03  0.1120E+03
    -23.038  0.0000E+00  0.0000E+00  0.1120E+03  0.1120E+03
    -22.797  0.0000E+00  0.0000E+00  0.1120E+03  0.1120E+03
    -22.556  0.0000E+00  0.0000E+00  0.1120E+03  0.1120E+03
    -22.315  0.0000E+00  0.0000E+00  0.1120E+03  0.1120E+03
    -22.074  0.0000E+00  0.0000E+00  0.1120E+03  0.1120E+03
    -21.833  0.0000E+00  0.0000E+00  0.1120E+03  0.1120E+03
    -21.592  0.0000E+00  0.0000E+00  0.1120E+03  0.1120E+03
    -21.351  0.0000E+00  0.0000E+00  0.1120E+03  0.1120E+03
    -21.111  0.0000E+00  0.0000E+00  0.1120E+03  0.1120E+03
    -20.870  0.0000E+00  0.0000E+00  0.1120E+03  0.1120E+03
    -20.629  0.0000E+00  0.0000E+00  0.1120E+03  0.1120E+03
    -20.388  0.0000E+00  0.0000E+00  0.1120E+03  0.1120E+03
    -20.147  0.0000E+00  0.0000E+00  0.1120E+03  0.1120E+03
    -19.906  0.0000E+00  0.0000E+00  0.1120E+03  0.1120E+03
    -19.665  0.0000E+00  0.0000E+00  0.1120E+03  0.1120E+03
    -19.424  0.0000E+00  0.0000E+00  0.1120E+03  0.1120E+03
    -19.184  0.0000E+00  0.0000E+00  0.1120E+03  0.1120E+03
    -18.943  0.0000E+00  0.0000E+00  0.1120E+03  0.1120E+03
    -18.702  0.0000E+00  0.0000E+00  0.1120E+03  0.1120E+03
    -18.461  0.0000E+00  0.0000E+00  0.1120E+03  0.1120E+03
    -18.220  0.0000E+00  0.0000E+00  0.1120E+03  0.1120E+03
    -17.979  0.0000E+00  0.0000E+00  0.1120E+03  0.1120E+03
    -17.738  0.0000E+00  0.0000E+00  0.1120E+03  0.1120E+03
    -17.497  0.0000E+00  0.0000E+00  0.1120E+03  0.1120E+03
    -17.256  0.0000E+00  0.0000E+00  0.1120E+03  0.1120E+03
    -17.016  0.0000E+00  0.0000E+00  0.1120E+03  0.1120E+03
    -16.775  0.0000E+00  0.0000E+00  0.1120E+03  0.1120E+03
    -16.534  0.0000E+00  0.0000E+00  0.1120E+03  0.1120E+03
    -16.293  0.0000E+00  0.0000E+00  0.1120E+03  0.1120E+03
    -16.052  0.0000E+00  0.0000E+00  0.1120E+03  0.1120E+03
    -15.811  0.0000E+00  0.0000E+00  0.1120E+03  0.1120E+03
    -15.570  0.0000E+00  0.0000E+00  0.1120E+03  0.1120E+03
    -15.329  0.0000E+00  0.0000E+00  0.1120E+03  0.1120E+03
    -15.089  0.0000E+00  0.0000E+00  0.1120E+03  0.1120E+03
    -14.848  0.0000E+00  0.0000E+00  0.1120E+03  0.1120E+03
    -14.607  0.0000E+00  0.0000E+00  0.1120E+03  0.1120E+03
    -14.366  0.0000E+00  0.0000E+00  0.1120E+03  0.1120E+03
    -14.125  0.0000E+00  0.0000E+00  0.1120E+03  0.1120E+03
    -13.884  0.0000E+00  0.0000E+00  0.1120E+03  0.1120E+03
    -13.643  0.0000E+00  0.0000E+00  0.1120E+03  0.1120E+03
    -13.402  0.4648E-06  0.0000E+00  0.1120E+03  0.1120E+03
    -13.162  0.1853E+02  0.0000E+00  0.1165E+03  0.1120E+03
    -12.921  0.4634E+02  0.6473E-02  0.1276E+03  0.1120E+03
    -12.680  0.1555E+01  0.4181E+02  0.1280E+03  0.1221E+03
    -12.439  0.0000E+00  0.2461E+02  0.1280E+03  0.1280E+03
    -12.198  0.0000E+00  0.1791E-05  0.1280E+03  0.1280E+03
    -11.957  0.0000E+00  0.0000E+00  0.1280E+03  0.1280E+03
    -11.716  0.0000E+00  0.0000E+00  0.1280E+03  0.1280E+03
    -11.475  0.0000E+00  0.0000E+00  0.1280E+03  0.1280E+03
    -11.234  0.0000E+00  0.0000E+00  0.1280E+03  0.1280E+03
    -10.994  0.0000E+00  0.0000E+00  0.1280E+03  0.1280E+03
    -10.753  0.0000E+00  0.0000E+00  0.1280E+03  0.1280E+03
    -10.512  0.0000E+00  0.0000E+00  0.1280E+03  0.1280E+03
    -10.271  0.0000E+00  0.0000E+00  0.1280E+03  0.1280E+03
    -10.030  0.0000E+00  0.0000E+00  0.1280E+03  0.1280E+03
     -9.789  0.0000E+00  0.0000E+00  0.1280E+03  0.1280E+03
     -9.548  0.0000E+00  0.0000E+00  0.1280E+03  0.1280E+03
     -9.307  0.0000E+00  0.0000E+00  0.1280E+03  0.1280E+03
     -9.067  0.0000E+00  0.0000E+00  0.1280E+03  0.1280E+03
     -8.826  0.0000E+00  0.0000E+00  0.1280E+03  0.1280E+03
     -8.585  0.0000E+00  0.0000E+00  0.1280E+03  0.1280E+03
     -8.344  0.0000E+00  0.0000E+00  0.1280E+03  0.1280E+03
     -8.103  0.0000E+00  0.0000E+00  0.1280E+03  0.1280E+03
     -7.862  0.7947E-10  0.0000E+00  0.1280E+03  0.1280E+03
     -7.621  0.5835E+00  0.1474E-10  0.1281E+03  0.1280E+03
     -7.380  0.1251E+02  0.5176E+00  0.1312E+03  0.1281E+03
     -7.140  0.3030E+02  0.1374E+02  0.1385E+03  0.1314E+03
     -6.899  0.3429E+02  0.2953E+02  0.1467E+03  0.1385E+03
     -6.658  0.2195E+02  0.2633E+02  0.1520E+03  0.1449E+03
     -6.417  0.2008E-04  0.2946E+02  0.1520E+03  0.1520E+03
     -6.176  0.0000E+00  0.5276E-01  0.1520E+03  0.1520E+03
     -5.935  0.0000E+00  0.0000E+00  0.1520E+03  0.1520E+03
     -5.694  0.0000E+00  0.0000E+00  0.1520E+03  0.1520E+03
     -5.453  0.0000E+00  0.0000E+00  0.1520E+03  0.1520E+03
     -5.212  0.0000E+00  0.0000E+00  0.1520E+03  0.1520E+03
     -4.972  0.0000E+00  0.0000E+00  0.1520E+03  0.1520E+03
     -4.731  0.0000E+00  0.0000E+00  0.1520E+03  0.1520E+03
     -4.490  0.0000E+00  0.0000E+00  0.1520E+03  0.1520E+03
     -4.249  0.0000E+00  0.0000E+00  0.1520E+03  0.1520E+03
     -4.008  0.0000E+00  0.0000E+00  0.1520E+03  0.1520E+03
     -3.767  0.0000E+00  0.0000E+00  0.1520E+03  0.1520E+03
     -3.526  0.0000E+00  0.0000E+00  0.1520E+03  0.1520E+03
     -3.285  0.0000E+00  0.0000E+00  0.1520E+03  0.1520E+03
     -3.045  0.0000E+00  0.0000E+00  0.1520E+03  0.1520E+03
     -2.804  0.0000E+00  0.0000E+00  0.1520E+03  0.1520E+03
     -2.563  0.0000E+00  0.0000E+00  0.1520E+03  0.1520E+03
     -2.322  0.0000E+00  0.0000E+00  0.1520E+03  0.1520E+03
     -2.081  0.2838E-04  0.0000E+00  0.1520E+03  0.1520E+03
     -1.840  0.1607E+02  0.0000E+00  0.1559E+03  0.1520E+03
     -1.599  0.1947E+02  0.0000E+00  0.1606E+03  0.1520E+03
     -1.358  0.1479E+02  0.0000E+00  0.1641E+03  0.1520E+03
     -1.118  0.1717E+02  0.0000E+00  0.1683E+03  0.1520E+03
     -0.877  0.4592E+02  0.0000E+00  0.1793E+03  0.1520E+03
     -0.636  0.5912E+02  0.1075E-05  0.1936E+03  0.1520E+03
     -0.395  0.3874E+02  0.4247E+01  0.2029E+03  0.1530E+03
     -0.154  0.6806E+02  0.2033E+02  0.2193E+03  0.1579E+03
      0.087  0.7369E+02  0.1224E+02  0.2370E+03  0.1609E+03
      0.328  0.7755E+02  0.1861E+02  0.2557E+03  0.1654E+03
      0.569  0.7007E+02  0.2957E+02  0.2726E+03  0.1725E+03
      0.810  0.5527E+02  0.3921E+02  0.2859E+03  0.1819E+03
      1.050  0.3630E+02  0.3730E+02  0.2947E+03  0.1909E+03
      1.291  0.3064E+02  0.3115E+02  0.3020E+03  0.1984E+03
      1.532  0.4502E+02  0.2078E+02  0.3129E+03  0.2034E+03
      1.773  0.4247E+02  0.2892E+02  0.3231E+03  0.2104E+03
      2.014  0.6910E+02  0.3700E+02  0.3398E+03  0.2193E+03
      2.255  0.5741E+02  0.2748E+02  0.3536E+03  0.2259E+03
      2.496  0.2688E+02  0.2704E+02  0.3601E+03  0.2324E+03
      2.737  0.4271E+02  0.3097E+02  0.3703E+03  0.2399E+03
      2.977  0.2990E+02  0.4443E+02  0.3775E+03  0.2506E+03
      3.218  0.8683E+01  0.4559E+02  0.3796E+03  0.2616E+03
      3.459  0.2814E+02  0.3185E+02  0.3864E+03  0.2692E+03
      3.700  0.2708E+02  0.1231E+02  0.3929E+03  0.2722E+03
      3.941  0.3097E+02  0.1792E+02  0.4004E+03  0.2765E+03
      4.182  0.3590E+02  0.5235E+02  0.4090E+03  0.2891E+03
      4.423  0.3644E+02  0.4514E+02  0.4178E+03  0.3000E+03
      4.664  0.3017E+02  0.1658E+02  0.4251E+03  0.3040E+03
      4.904  0.2572E+02  0.4200E-02  0.4313E+03  0.3040E+03
      5.145  0.2958E+01  0.0000E+00  0.4320E+03  0.3040E+03
      5.386  0.0000E+00  0.0000E+00  0.4320E+03  0.3040E+03
      5.627  0.0000E+00  0.0000E+00  0.4320E+03  0.3040E+03
      5.868  0.0000E+00  0.0000E+00  0.4320E+03  0.3040E+03
      6.109  0.0000E+00  0.6707E-09  0.4320E+03  0.3040E+03
      6.350  0.0000E+00  0.4208E+00  0.4320E+03  0.3041E+03
      6.591  0.0000E+00  0.4207E+01  0.4320E+03  0.3051E+03
      6.832  0.0000E+00  0.7965E+01  0.4320E+03  0.3070E+03
      7.072  0.1442E-14  0.1961E+02  0.4320E+03  0.3118E+03
      7.313  0.3058E-01  0.4434E+02  0.4320E+03  0.3224E+03
      7.554  0.1232E+00  0.5360E+02  0.4320E+03  0.3353E+03
      7.795  0.2672E+00  0.6310E+02  0.4321E+03  0.3505E+03
      8.036  0.7186E+00  0.6616E+02  0.4323E+03  0.3665E+03
      8.277  0.2196E+01  0.7037E+02  0.4328E+03  0.3834E+03
      8.518  0.2661E+01  0.5870E+02  0.4334E+03  0.3976E+03
      8.759  0.8943E+01  0.5883E+02  0.4356E+03  0.4117E+03
      8.999  0.1257E+02  0.4752E+02  0.4386E+03  0.4232E+03
      9.240  0.1312E+02  0.2953E+02  0.4418E+03  0.4303E+03
      9.481  0.1810E+02  0.8720E+01  0.4461E+03  0.4324E+03
      9.722  0.1615E+02  0.3122E+01  0.4500E+03  0.4332E+03
      9.963  0.1569E+02  0.8413E+01  0.4538E+03  0.4352E+03
     10.204  0.2249E+02  0.1879E+02  0.4592E+03  0.4397E+03
     10.445  0.1485E+02  0.1794E+02  0.4628E+03  0.4440E+03
     10.686  0.1529E+02  0.1720E+02  0.4665E+03  0.4482E+03
     10.926  0.1328E+02  0.2759E+02  0.4697E+03  0.4548E+03
     11.167  0.2067E+02  0.1898E+02  0.4747E+03  0.4594E+03
     11.408  0.2490E+02  0.2403E+02  0.4807E+03  0.4652E+03
     11.649  0.2710E+02  0.1461E+02  0.4872E+03  0.4687E+03
     11.890  0.2486E+02  0.1386E+02  0.4932E+03  0.4720E+03
     12.131  0.3329E+02  0.1620E+02  0.5012E+03  0.4759E+03
     12.372  0.1987E+02  0.3698E+02  0.5060E+03  0.4848E+03
     12.613  0.2308E+02  0.3256E+02  0.5115E+03  0.4927E+03
     12.854  0.2151E+02  0.2961E+02  0.5167E+03  0.4998E+03
     13.094  0.2011E+02  0.2021E+02  0.5216E+03  0.5047E+03
     13.335  0.2424E+02  0.2240E+02  0.5274E+03  0.5101E+03
     13.576  0.2399E+02  0.2723E+02  0.5332E+03  0.5166E+03
     13.817  0.1334E+02  0.2375E+02  0.5364E+03  0.5224E+03
     14.058  0.6619E+01  0.2622E+02  0.5380E+03  0.5287E+03
     14.299  0.2251E-02  0.1906E+02  0.5380E+03  0.5333E+03
     14.540  0.0000E+00  0.1655E+02  0.5380E+03  0.5373E+03
     14.781  0.0000E+00  0.3060E+01  0.5380E+03  0.5380E+03
     15.021  0.0000E+00  0.2235E-05  0.5380E+03  0.5380E+03
     15.262  0.0000E+00  0.0000E+00  0.5380E+03  0.5380E+03
     15.503  0.0000E+00  0.0000E+00  0.5380E+03  0.5380E+03
     15.744  0.0000E+00  0.0000E+00  0.5380E+03  0.5380E+03
     15.985  0.0000E+00  0.0000E+00  0.5380E+03  0.5380E+03
     16.226  0.0000E+00  0.0000E+00  0.5380E+03  0.5380E+03
     16.467  0.0000E+00  0.0000E+00  0.5380E+03  0.5380E+03
     16.708  0.0000E+00  0.0000E+00  0.5380E+03  0.5380E+03
     16.949  0.0000E+00  0.0000E+00  0.5380E+03  0.5380E+03
     17.189  0.0000E+00  0.0000E+00  0.5380E+03  0.5380E+03
     17.430  0.0000E+00  0.0000E+00  0.5380E+03  0.5380E+03
     17.671  0.0000E+00  0.0000E+00  0.5380E+03  0.5380E+03
     17.912  0.0000E+00  0.0000E+00  0.5380E+03  0.5380E+03
