 vasp.5.4.4.18Apr17-6-g9f103f2a35 (build Oct 25 2017 14:42:18) complex          
  
 executed on             LinuxIFC date 2021.06.02  16:00:58
 running on   24 total cores
 distrk:  each k-point on   12 cores,    2 groups
 distr:  one band on NCORES_PER_BAND=   6 cores,    2 groups


--------------------------------------------------------------------------------------------------------


 INCAR:
 POTCAR:    PAW_PBE Li_sv 10Sep2004               
 POTCAR:    PAW_PBE O 08Apr2002                   
 POTCAR:    PAW_PBE S 06Sep2000                   
 POTCAR:    PAW_PBE Fe_pv 02Aug2007               

 ----------------------------------------------------------------------------- 
|                                                                             |
|           W    W    AA    RRRRR   N    N  II  N    N   GGGG   !!!           |
|           W    W   A  A   R    R  NN   N  II  NN   N  G    G  !!!           |
|           W    W  A    A  R    R  N N  N  II  N N  N  G       !!!           |
|           W WW W  AAAAAA  RRRRR   N  N N  II  N  N N  G  GGG   !            |
|           WW  WW  A    A  R   R   N   NN  II  N   NN  G    G                |
|           W    W  A    A  R    R  N    N  II  N    N   GGGG   !!!           |
|                                                                             |
|      You have enabled k-point parallelism (KPAR>1).                         |
|      This developmental code was originally  written by Paul Kent at ORNL,  |
|      and carefully double checked in Vienna.                                |
|      GW as well as linear response parallelism added by Martijn Marsman     |
|      and Georg Kresse.                                                      |
|      Carefully verify results versus KPAR=1.                                |
|      Report problems to Paul Kent and Vienna.                               |
|                                                                             |
 ----------------------------------------------------------------------------- 

 POTCAR:    PAW_PBE Li_sv 10Sep2004               
  local pseudopotential read in
  atomic valenz-charges read in
  non local Contribution for L=           0  read in
    real space projection operators read in
  non local Contribution for L=           0  read in
    real space projection operators read in
  non local Contribution for L=           1  read in
    real space projection operators read in
    PAW grid and wavefunctions read in
 
   number of l-projection  operators is LMAX  =           3
   number of lm-projection operators is LMMAX =           5
 
 POTCAR:    PAW_PBE O 08Apr2002                   
  local pseudopotential read in
  partial core-charges read in
  partial kinetic energy density read in
  kinetic energy density of atom read in
  atomic valenz-charges read in
  non local Contribution for L=           0  read in
    real space projection operators read in
  non local Contribution for L=           0  read in
    real space projection operators read in
  non local Contribution for L=           1  read in
    real space projection operators read in
  non local Contribution for L=           1  read in
    real space projection operators read in
    PAW grid and wavefunctions read in
 
   number of l-projection  operators is LMAX  =           4
   number of lm-projection operators is LMMAX =           8
 
 POTCAR:    PAW_PBE S 06Sep2000                   
  local pseudopotential read in
  partial core-charges read in
  partial kinetic energy density read in
  atomic valenz-charges read in
  non local Contribution for L=           0  read in
    real space projection operators read in
  non local Contribution for L=           0  read in
    real space projection operators read in
  non local Contribution for L=           1  read in
    real space projection operators read in
  non local Contribution for L=           1  read in
    real space projection operators read in
    PAW grid and wavefunctions read in
 
   number of l-projection  operators is LMAX  =           4
   number of lm-projection operators is LMMAX =           8
 
 POTCAR:    PAW_PBE Fe_pv 02Aug2007               
  local pseudopotential read in
  partial core-charges read in
  partial kinetic energy density read in
  atomic valenz-charges read in
  non local Contribution for L=           1  read in
    real space projection operators read in
  non local Contribution for L=           1  read in
    real space projection operators read in
  non local Contribution for L=           2  read in
    real space projection operators read in
  non local Contribution for L=           2  read in
    real space projection operators read in
  non local Contribution for L=           0  read in
    real space projection operators read in
  non local Contribution for L=           0  read in
    real space projection operators read in
    PAW grid and wavefunctions read in
 
   number of l-projection  operators is LMAX  =           6
   number of lm-projection operators is LMMAX =          18
 

 ----------------------------------------------------------------------------- 
|                                                                             |
|  ADVICE TO THIS USER RUNNING 'VASP/VAMP'   (HEAR YOUR MASTER'S VOICE ...):  |
|                                                                             |
|      You have a (more or less) 'large supercell' and for larger cells       |
|      it might be more efficient to use real space projection opertators     |
|      So try LREAL= Auto  in the INCAR   file.                               |
|      Mind:          For very  accurate calculation you might also keep the  |
|      reciprocal projection scheme          (i.e. LREAL=.FALSE.)             |
|                                                                             |
 ----------------------------------------------------------------------------- 

  PAW_PBE Li_sv 10Sep2004               :
 energy of atom  1       EATOM= -202.7858
 kinetic energy error for atom=    0.0072 (will be added to EATOM!!)
  PAW_PBE O 08Apr2002                   :
 energy of atom  2       EATOM= -432.3788
 kinetic energy error for atom=    0.0129 (will be added to EATOM!!)
  PAW_PBE S 06Sep2000                   :
 energy of atom  3       EATOM= -276.8230
 kinetic energy error for atom=    0.0008 (will be added to EATOM!!)
  PAW_PBE Fe_pv 02Aug2007               :
 energy of atom  4       EATOM=-2457.4239
 kinetic energy error for atom=    0.0041 (will be added to EATOM!!)
 
 
 POSCAR: # Compound: Li16O16S24Fe32. Old comment:
  positions in direct lattice
  No initial velocities read in
 exchange correlation table for  LEXCH =        8
   RHO(1)=    0.500       N(1)  =     2000
   RHO(2)=  100.500       N(2)  =     4000
 


--------------------------------------------------------------------------------------------------------


 ion  position               nearest neighbor table
   1  0.289  0.469  0.156-  27 2.00  29 2.00  55 2.53  49 2.53
   2  0.789  0.469  0.156-  28 2.00  30 2.00  56 2.53  50 2.53
   3  0.289  0.969  0.156-  25 2.00  31 2.00  53 2.53  51 2.53
   4  0.789  0.969  0.156-  26 2.00  32 2.00  54 2.53  52 2.53
   5  0.046  0.219  0.186-  30 1.98  25 1.98
   6  0.546  0.219  0.186-  29 1.98  26 1.98
   7  0.046  0.719  0.186-  32 1.98  27 1.98
   8  0.546  0.719  0.186-  31 1.98  28 1.98
   9  0.454  0.469  0.814-  20 1.98  21 1.98
  10  0.954  0.469  0.814-  19 1.98  22 1.98
  11  0.454  0.969  0.814-  18 1.98  23 1.98
  12  0.954  0.969  0.814-  17 1.98  24 1.98
  13  0.211  0.219  0.844-  21 1.99  17 2.00  49 2.53  53 2.53
  14  0.711  0.219  0.844-  22 2.00  18 2.00  50 2.53  54 2.53
  15  0.211  0.719  0.844-  23 2.00  19 2.00  51 2.53  55 2.53
  16  0.711  0.719  0.844-  24 2.00  20 2.00  52 2.53  56 2.53
  17  0.077  0.095  0.803-  12 1.98  13 2.00  57 2.01  83 2.01  86 2.01
  18  0.577  0.095  0.803-  11 1.98  14 2.00  58 2.01  84 2.01  85 2.01
  19  0.077  0.595  0.803-  10 1.98  15 2.00  59 2.01  81 2.01  88 2.01
  20  0.577  0.595  0.803-   9 1.98  16 2.00  60 2.01  82 2.01  87 2.01
  21  0.325  0.343  0.803-   9 1.98  13 1.99  81 2.01  85 2.01  61 2.02
  22  0.825  0.343  0.803-  10 1.98  14 2.00  62 2.01  82 2.01  86 2.01
  23  0.325  0.843  0.803-  11 1.98  15 2.00  63 2.01  83 2.01  87 2.01
  24  0.825  0.843  0.803-  12 1.98  16 2.00  64 2.01  84 2.01  88 2.01
  25  0.175  0.093  0.197-   5 1.98   3 2.00  65 2.01  77 2.01  75 2.01
  26  0.675  0.093  0.197-   6 1.98   4 2.00  66 2.01  78 2.01  76 2.01
  27  0.175  0.593  0.197-   7 1.98   1 2.00  67 2.01  79 2.01  73 2.01
  28  0.675  0.593  0.197-   8 1.98   2 2.00  68 2.01  80 2.01  74 2.01
  29  0.423  0.345  0.197-   6 1.98   1 2.00  69 2.01  77 2.01  74 2.01
  30  0.923  0.345  0.197-   5 1.98   2 2.00  70 2.01  78 2.01  73 2.01
  31  0.423  0.845  0.197-   8 1.98   3 2.00  71 2.01  79 2.01  76 2.01
  32  0.923  0.845  0.197-   7 1.98   4 2.00  72 2.01  80 2.01  75 2.01
  33  0.219  0.345  0.371-  61 2.41  67 2.65  69 2.65
  34  0.719  0.345  0.371-  62 2.41  68 2.65  70 2.65
  35  0.219  0.845  0.371-  63 2.41  65 2.65  71 2.65
  36  0.719  0.845  0.371-  64 2.41  66 2.65  72 2.65
  37  0.467  0.093  0.371-  58 2.41  71 2.65  65 2.65
  38  0.967  0.093  0.371-  57 2.41  72 2.65  66 2.65
  39  0.467  0.593  0.371-  60 2.41  69 2.65  67 2.65
  40  0.967  0.593  0.371-  59 2.41  70 2.65  68 2.65
  41  0.033  0.343  0.629-  70 2.41  57 2.65  61 2.65
  42  0.533  0.343  0.629-  69 2.41  58 2.65  62 2.65
  43  0.033  0.843  0.629-  72 2.41  59 2.65  63 2.65
  44  0.533  0.843  0.629-  71 2.41  60 2.65  64 2.65
  45  0.281  0.095  0.629-  65 2.41  61 2.65  57 2.65
  46  0.781  0.095  0.629-  66 2.41  62 2.65  58 2.65
  47  0.281  0.595  0.629-  67 2.41  63 2.65  59 2.65
  48  0.781  0.595  0.629-  68 2.41  64 2.65  60 2.65
  49  0.124  0.344  0.000-  73 2.51  86 2.51  81 2.52  77 2.52  13 2.53   1 2.53
  50  0.624  0.344  0.000-  74 2.51  85 2.51  82 2.52  78 2.52  14 2.53   2 2.53
  51  0.124  0.844  0.000-  75 2.51  88 2.51  83 2.52  79 2.52  15 2.53   3 2.53
  52  0.624  0.844  0.000-  76 2.51  87 2.51  84 2.52  80 2.52  16 2.53   4 2.53
  53  0.376  0.094  1.000-  85 2.51  76 2.51  77 2.52  83 2.52   3 2.53  13 2.53
  54  0.876  0.094  1.000-  86 2.51  75 2.51  78 2.52  84 2.52   4 2.53  14 2.53
  55  0.376  0.594  1.000-  87 2.51  74 2.51  79 2.52  81 2.52   1 2.53  15 2.53
  56  0.876  0.594  1.000-  88 2.51  73 2.51  80 2.52  82 2.52   2 2.53  16 2.53
  57  0.038  0.106  0.606-  17 2.01  38 2.41  41 2.65  45 2.65
  58  0.538  0.106  0.606-  18 2.01  37 2.41  42 2.65  46 2.65
  59  0.038  0.606  0.606-  19 2.01  40 2.41  43 2.65  47 2.65
  60  0.538  0.606  0.606-  20 2.01  39 2.41  44 2.65  48 2.65
  61  0.265  0.332  0.606-  21 2.02  33 2.41  45 2.65  41 2.65
  62  0.765  0.332  0.606-  22 2.01  34 2.41  46 2.65  42 2.65
  63  0.265  0.832  0.606-  23 2.01  35 2.41  47 2.65  43 2.65
  64  0.765  0.832  0.606-  24 2.01  36 2.41  48 2.65  44 2.65
  65  0.235  0.082  0.394-  25 2.01  45 2.41  35 2.65  37 2.65
  66  0.735  0.082  0.394-  26 2.01  46 2.41  36 2.65  38 2.65
  67  0.235  0.582  0.394-  27 2.01  47 2.41  33 2.65  39 2.65
  68  0.735  0.582  0.394-  28 2.01  48 2.41  34 2.65  40 2.65
  69  0.462  0.356  0.394-  29 2.01  42 2.41  39 2.65  33 2.65
  70  0.962  0.356  0.394-  30 2.01  41 2.41  40 2.65  34 2.65
  71  0.462  0.856  0.394-  31 2.01  44 2.41  37 2.65  35 2.65
  72  0.962  0.856  0.394-  32 2.01  43 2.41  38 2.65  36 2.65
  73  0.038  0.469  0.154-  30 2.01  27 2.01  49 2.51  56 2.51
  74  0.538  0.469  0.154-  29 2.01  28 2.01  50 2.51  55 2.51
  75  0.038  0.969  0.154-  32 2.01  25 2.01  51 2.51  54 2.51
  76  0.538  0.969  0.154-  31 2.01  26 2.01  52 2.51  53 2.51
  77  0.289  0.219  0.154-  25 2.01  29 2.01  53 2.52  49 2.52
  78  0.789  0.219  0.154-  26 2.01  30 2.01  54 2.52  50 2.52
  79  0.289  0.719  0.154-  27 2.01  31 2.01  55 2.52  51 2.52
  80  0.789  0.719  0.154-  28 2.01  32 2.01  56 2.52  52 2.52
  81  0.211  0.469  0.846-  21 2.01  19 2.01  49 2.52  55 2.52
  82  0.711  0.469  0.846-  22 2.01  20 2.01  50 2.52  56 2.52
  83  0.211  0.969  0.846-  23 2.01  17 2.01  51 2.52  53 2.52
  84  0.711  0.969  0.846-  24 2.01  18 2.01  52 2.52  54 2.52
  85  0.462  0.219  0.846-  21 2.01  18 2.01  53 2.51  50 2.51
  86  0.962  0.219  0.846-  17 2.01  22 2.01  54 2.51  49 2.51
  87  0.462  0.719  0.846-  20 2.01  23 2.01  55 2.51  52 2.51
  88  0.962  0.719  0.846-  19 2.01  24 2.01  56 2.51  51 2.51
 

IMPORTANT INFORMATION: All symmetrisations will be switched off!
NOSYMM: (Re-)initialisation of all symmetry stuff for point group C_1.

 
 
 KPOINTS: # No comment                            

Automatic generation of k-mesh.
Space group operators:
 irot       det(A)        alpha          n_x          n_y          n_z        tau_x        tau_y        tau_z
    1     1.000000     0.000000     1.000000     0.000000     0.000000     0.000000     0.000000     0.000000
 
 Subroutine IBZKPT returns following result:
 ===========================================
 
 Found     14 irreducible k-points:
 
 Following reciprocal coordinates:
            Coordinates               Weight
  0.000000  0.000000  0.000000      1.000000
  0.333333  0.000000  0.000000      2.000000
  0.000000  0.333333  0.000000      2.000000
  0.333333  0.333333  0.000000      2.000000
 -0.333333  0.333333 -0.000000      2.000000
  0.000000  0.000000  0.333333      2.000000
  0.333333  0.000000  0.333333      2.000000
 -0.333333  0.000000  0.333333      2.000000
  0.000000  0.333333  0.333333      2.000000
  0.333333  0.333333  0.333333      2.000000
 -0.333333  0.333333  0.333333      2.000000
  0.000000 -0.333333  0.333333      2.000000
  0.333333 -0.333333  0.333333      2.000000
 -0.333333 -0.333333  0.333333      2.000000
 
 Following cartesian coordinates:
            Coordinates               Weight
  0.000000  0.000000  0.000000      1.000000
  0.029997  0.000000  0.008162      2.000000
  0.000000  0.029983  0.000000      2.000000
  0.029997  0.029983  0.008162      2.000000
 -0.029997  0.029983 -0.008162      2.000000
  0.000001  0.000000  0.032684      2.000000
  0.029998  0.000000  0.040846      2.000000
 -0.029996  0.000000  0.024522      2.000000
  0.000001  0.029983  0.032684      2.000000
  0.029998  0.029983  0.040846      2.000000
 -0.029996  0.029983  0.024522      2.000000
  0.000001 -0.029983  0.032684      2.000000
  0.029998 -0.029983  0.040846      2.000000
 -0.029996 -0.029983  0.024522      2.000000
 


--------------------------------------------------------------------------------------------------------




 Dimension of arrays:
   k-points           NKPTS =     14   k-points in BZ     NKDIM =     14   number of bands    NBANDS=    538
   number of dos      NEDOS =    301   number of ions     NIONS =     88
   non local maximal  LDIM  =      6   non local SUM 2l+1 LMDIM =     18
   total plane-waves  NPLWV = 829440
   max r-space proj   IRMAX =      1   max aug-charges    IRDMAX= 166102
   dimension x,y,z NGX =    96 NGY =   96 NGZ =   90
   dimension x,y,z NGXF=   192 NGYF=  192 NGZF=  180
   support grid    NGXF=   384 NGYF=  384 NGZF=  360
   ions per type =              16  16  24  32
   NGX,Y,Z   is equivalent  to a cutoff of  14.36, 14.36, 14.16 a.u.
   NGXF,Y,Z  is equivalent  to a cutoff of  28.72, 28.71, 28.31 a.u.

 SYSTEM =  unknown system                          
 POSCAR =  # Compound: Li16O16S24Fe32. Old comment:

 Startparameter for this run:
   NWRITE =      1    write-flag & timer
   PREC   = accura    normal or accurate (medium, high low for compatibility)
   ISTART =      0    job   : 0-new  1-cont  2-samecut
   ICHARG =      1    charge: 1-file 2-atom 10-const
   ISPIN  =      2    spin polarized calculation?
   LNONCOLLINEAR =      F non collinear calculations
   LSORBIT =      F    spin-orbit coupling
   INIWAV =      1    electr: 0-lowe 1-rand  2-diag
   LASPH  =      T    aspherical Exc in radial PAW
   METAGGA=      F    non-selfconsistent MetaGGA calc.

 Electronic Relaxation 1
   ENCUT  =  650.0 eV  47.77 Ry    6.91 a.u.  23.10 23.11 21.97*2*pi/ulx,y,z
   ENINI  =  650.0     initial cutoff
   ENAUG  =  628.9 eV  augmentation charge cutoff
   NELM   =    200;   NELMIN=  8; NELMDL=  0     # of ELM steps 
   EDIFF  = 0.1E-05   stopping-criterion for ELM
   LREAL  =      F    real-space projection
   NLSPLINE    = F    spline interpolate recip. space projectors
   LCOMPAT=      F    compatible to vasp.4.4
   GGA_COMPAT  = T    GGA compatible to vasp.4.4-vasp.4.6
   LMAXPAW     = -100 max onsite density
   LMAXMIX     =    4 max onsite mixed and CHGCAR
   VOSKOWN=      0    Vosko Wilk Nusair interpolation
   ROPT   =    0.00000   0.00000   0.00000   0.00000
 Ionic relaxation
   EDIFFG = 0.1E-04   stopping-criterion for IOM
   NSW    =      0    number of steps for IOM
   NBLOCK =      1;   KBLOCK =      1    inner block; outer block 
   IBRION =     -1    ionic relax: 0-MD 1-quasi-New 2-CG
   NFREE  =      0    steps in history (QN), initial steepest desc. (CG)
   ISIF   =      2    stress and relaxation
   IWAVPR =     10    prediction:  0-non 1-charg 2-wave 3-comb
   ISYM   =      0    0-nonsym 1-usesym 2-fastsym
   LCORR  =      T    Harris-Foulkes like correction to forces

   POTIM  = 0.5000    time-step for ionic-motion
   TEIN   =    0.0    initial temperature
   TEBEG  =    0.0;   TEEND  =   0.0 temperature during run
   SMASS  =  -3.00    Nose mass-parameter (am)
   estimated Nose-frequenzy (Omega)   =  0.10E-29 period in steps =****** mass=  -0.282E-26a.u.
   SCALEE = 1.0000    scale energy and forces
   NPACO  =    256;   APACO  = 16.0  distance and # of slots for P.C.
   PSTRESS=    0.0 pullay stress

  Mass of Ions in am
   POMASS =   7.01 16.00 32.07 55.85
  Ionic Valenz
   ZVAL   =   3.00  6.00  6.00 14.00
  Atomic Wigner-Seitz radii
   RWIGS  =  -1.00 -1.00 -1.00 -1.00
  virtual crystal weights 
   VCA    =   1.00  1.00  1.00  1.00
   NELECT =     736.0000    total number of electrons
   NUPDOWN=      -1.0000    fix difference up-down

 DOS related values:
   EMIN   =  10.00;   EMAX   =-10.00  energy-range for DOS
   EFERMI =   0.00
   ISMEAR =     0;   SIGMA  =   0.05  broadening in eV -4-tet -1-fermi 0-gaus

 Electronic relaxation 2 (details)
   IALGO  =     38    algorithm
   LDIAG  =      T    sub-space diagonalisation (order eigenvalues)
   LSUBROT=      F    optimize rotation matrix (better conditioning)
   TURBO    =      0    0=normal 1=particle mesh
   IRESTART =      0    0=no restart 2=restart with 2 vectors
   NREBOOT  =      0    no. of reboots
   NMIN     =      0    reboot dimension
   EREF     =   0.00    reference energy to select bands
   IMIX   =      4    mixing-type and parameters
     AMIX     =   0.40;   BMIX     =  1.00
     AMIX_MAG =   1.60;   BMIX_MAG =  1.00
     AMIN     =   0.10
     WC   =   100.;   INIMIX=   1;  MIXPRE=   1;  MAXMIX= -45

 Intra band minimization:
   WEIMIN = 0.0000     energy-eigenvalue tresh-hold
   EBREAK =  0.46E-09  absolut break condition
   DEPER  =   0.30     relativ break condition  

   TIME   =   0.40     timestep for ELM

  volume/ion in A,a.u.               =      14.32        96.62
  Fermi-wavevector in a.u.,A,eV,Ry     =   1.368520  2.586127 25.481613  1.872846
  Thomas-Fermi vector in A             =   2.494476
 
 Write flags
   LWAVE        =      F    write WAVECAR
   LDOWNSAMPLE  =      F    k-point downsampling of WAVECAR
   LCHARG       =      T    write CHGCAR
   LVTOT        =      F    write LOCPOT, total local potential
   LVHAR        =      F    write LOCPOT, Hartree potential only
   LELF         =      F    write electronic localiz. function (ELF)
   LORBIT       =      0    0 simple, 1 ext, 2 COOP (PROOUT), +10 PAW based schemes


 Dipole corrections
   LMONO  =      F    monopole corrections only (constant potential shift)
   LDIPOL =      F    correct potential (dipole corrections)
   IDIPOL =      0    1-x, 2-y, 3-z, 4-all directions 
   EPSILON=  1.0000000 bulk dielectric constant

 LDA+U is selected, type is set to LDAUTYPE =  2
   angular momentum for each species LDAUL =    -1   -1   -1    2
   U (eV)           for each species LDAUU =   0.0  0.0  0.0  4.0
   J (eV)           for each species LDAUJ =   0.0  0.0  0.0  0.0
 Exchange correlation treatment:
   GGA     =    PE    GGA type
   LEXCH   =     8    internal setting for exchange type
   VOSKOWN=      0    Vosko Wilk Nusair interpolation
   LHFCALC =     F    Hartree Fock is set to
   LHFONE  =     F    Hartree Fock one center treatment
   AEXX    =    0.0000 exact exchange contribution

 Linear response parameters
   LEPSILON=     F    determine dielectric tensor
   LRPA    =     F    only Hartree local field effects (RPA)
   LNABLA  =     F    use nabla operator in PAW spheres
   LVEL    =     F    velocity operator in full k-point grid
   LINTERFAST=   F  fast interpolation
   KINTER  =     0    interpolate to denser k-point grid
   CSHIFT  =0.1000    complex shift for real part using Kramers Kronig
   OMEGAMAX=  -1.0    maximum frequency
   DEG_THRESHOLD= 0.2000000E-02 threshold for treating states as degnerate
   RTIME   =   -0.100 relaxation time in fs
  (WPLASMAI=    0.000 imaginary part of plasma frequency in eV, 0.658/RTIME)
   DFIELD  = 0.0000000 0.0000000 0.0000000 field for delta impulse in time
 
 Orbital magnetization related:
   ORBITALMAG=     F  switch on orbital magnetization
   LCHIMAG   =     F  perturbation theory with respect to B field
   DQ        =  0.001000  dq finite difference perturbation B field
   LLRAUG    =     F  two centre corrections for induced B field



--------------------------------------------------------------------------------------------------------


 Static calculation
 charge density and potential will be updated during run
 spin polarized calculation
 Variant of blocked Davidson
 Davidson routine will perform the subspace rotation
 perform sub-space diagonalisation
    after iterative eigenvector-optimisation
 modified Broyden-mixing scheme, WC =      100.0
 initial mixing is a Kerker type mixing with AMIX =  0.4000 and BMIX =      1.0000
 Hartree-type preconditioning will be used
 using additional bands          170
 reciprocal scheme for non local part
 use partial core corrections
 calculate Harris-corrections to forces 
   (improved forces if not selfconsistent)
 use gradient corrections 
 use of overlap-Matrix (Vanderbilt PP)
 Gauss-broadening in eV      SIGMA  =   0.05


--------------------------------------------------------------------------------------------------------


  energy-cutoff  :      650.00
  volume of cell :     1259.94
      direct lattice vectors                 reciprocal lattice vectors
    11.112233740  0.000000000 -0.000290340     0.089991547  0.000000000  0.024487024
     0.000000000 11.117451940  0.000000000     0.000000000  0.089948669  0.000000000
    -2.775108980  0.000000000 10.198722210     0.000002562  0.000000000  0.098052196

  length of vectors
    11.112233744 11.117451940 10.569539468     0.093263567  0.089948669  0.098052196


 
 k-points in units of 2pi/SCALE and weight: # No comment                            
   0.00000000  0.00000000  0.00000000       0.037
   0.02999718  0.00000000  0.00816234       0.074
   0.00000000  0.02998289  0.00000000       0.074
   0.02999718  0.02998289  0.00816234       0.074
  -0.02999718  0.02998289 -0.00816234       0.074
   0.00000085  0.00000000  0.03268407       0.074
   0.02999804  0.00000000  0.04084641       0.074
  -0.02999633  0.00000000  0.02452172       0.074
   0.00000085  0.02998289  0.03268407       0.074
   0.02999804  0.02998289  0.04084641       0.074
  -0.02999633  0.02998289  0.02452172       0.074
   0.00000085 -0.02998289  0.03268407       0.074
   0.02999804 -0.02998289  0.04084641       0.074
  -0.02999633 -0.02998289  0.02452172       0.074
 
 k-points in reciprocal lattice and weights: # No comment                            
   0.00000000  0.00000000  0.00000000       0.037
   0.33333333  0.00000000  0.00000000       0.074
   0.00000000  0.33333333  0.00000000       0.074
   0.33333333  0.33333333  0.00000000       0.074
  -0.33333333  0.33333333 -0.00000000       0.074
   0.00000000  0.00000000  0.33333333       0.074
   0.33333333  0.00000000  0.33333333       0.074
  -0.33333333  0.00000000  0.33333333       0.074
   0.00000000  0.33333333  0.33333333       0.074
   0.33333333  0.33333333  0.33333333       0.074
  -0.33333333  0.33333333  0.33333333       0.074
   0.00000000 -0.33333333  0.33333333       0.074
   0.33333333 -0.33333333  0.33333333       0.074
  -0.33333333 -0.33333333  0.33333333       0.074
 
 position of ions in fractional coordinates (direct lattice) 
   0.28894969  0.46933910  0.15583616
   0.78894969  0.46933910  0.15583616
   0.28894969  0.96933910  0.15583616
   0.78894969  0.96933910  0.15583616
   0.04646972  0.21934976  0.18586770
   0.54646972  0.21934976  0.18586770
   0.04646972  0.71934976  0.18586770
   0.54646972  0.71934976  0.18586770
   0.45353028  0.46934976  0.81413230
   0.95353028  0.46934976  0.81413230
   0.45353028  0.96934976  0.81413230
   0.95353028  0.96934976  0.81413230
   0.21105031  0.21933910  0.84416384
   0.71105031  0.21933910  0.84416384
   0.21105031  0.71933910  0.84416384
   0.71105031  0.71933910  0.84416384
   0.07654971  0.09530995  0.80250593
   0.57654971  0.09530995  0.80250593
   0.07654971  0.59530995  0.80250593
   0.57654971  0.59530995  0.80250593
   0.32470466  0.34338175  0.80344994
   0.82470466  0.34338175  0.80250383
   0.32470466  0.84338175  0.80250383
   0.82470466  0.84338175  0.80250383
   0.17529534  0.09338175  0.19749617
   0.67529534  0.09338175  0.19749617
   0.17529534  0.59338175  0.19749617
   0.67529534  0.59338175  0.19749617
   0.42345029  0.34530995  0.19749407
   0.92345029  0.34530995  0.19749407
   0.42345029  0.84530995  0.19749407
   0.92345029  0.84530995  0.19749407
   0.21868463  0.34523395  0.37102476
   0.71868463  0.34523395  0.37102476
   0.21868463  0.84523395  0.37102476
   0.71868463  0.84523395  0.37102476
   0.46681660  0.09344897  0.37102399
   0.96681660  0.09344897  0.37102399
   0.46681660  0.59344897  0.37102399
   0.96681660  0.59344897  0.37102399
   0.03318340  0.34344897  0.62897601
   0.53318340  0.34344897  0.62897601
   0.03318340  0.84344897  0.62897601
   0.53318340  0.84344897  0.62897601
   0.28131537  0.09523395  0.62897524
   0.78131537  0.09523395  0.62897524
   0.28131537  0.59523395  0.62897524
   0.78131537  0.59523395  0.62897524
   0.12439279  0.34434306  0.00000412
   0.62439279  0.34434306  0.00000412
   0.12439279  0.84434306  0.00000412
   0.62439279  0.84434306  0.00000412
   0.37560721  0.09434306  0.99999588
   0.87560721  0.09434306  0.99999588
   0.37560721  0.59434306  0.99999588
   0.87560721  0.59434306  0.99999588
   0.03824426  0.10634799  0.60632306
   0.53824426  0.10634799  0.60632306
   0.03824426  0.60634799  0.60632306
   0.53824426  0.60634799  0.60632306
   0.26492712  0.33232651  0.60632763
   0.76492712  0.33232651  0.60632763
   0.26492712  0.83232651  0.60632763
   0.76492712  0.83232651  0.60632763
   0.23507288  0.08232651  0.39367237
   0.73507288  0.08232651  0.39367237
   0.23507288  0.58232651  0.39367237
   0.73507288  0.58232651  0.39367237
   0.46175574  0.35634799  0.39367694
   0.96175574  0.35634799  0.39367694
   0.46175574  0.85634799  0.39367694
   0.96175574  0.85634799  0.39367694
   0.03848398  0.46936404  0.15397331
   0.53848398  0.46936404  0.15397331
   0.03848398  0.96936404  0.15397331
   0.53848398  0.96936404  0.15397331
   0.28861657  0.21935690  0.15447525
   0.78861657  0.21935690  0.15447525
   0.28861657  0.71935690  0.15447525
   0.78861657  0.71935690  0.15447525
   0.21138343  0.46935690  0.84552475
   0.71138343  0.46935690  0.84552475
   0.21138343  0.96935690  0.84552475
   0.71138343  0.96935690  0.84552475
   0.46151602  0.21936404  0.84602669
   0.96151602  0.21936404  0.84602669
   0.46151602  0.71936404  0.84602669
   0.96151602  0.71936404  0.84602669
 
 position of ions in cartesian coordinates  (Angst):
   2.77841422  5.21785483  1.58924581
   8.33453109  5.21785483  1.58910064
   2.77841422 10.77658080  1.58924581
   8.33453109 10.77658080  1.58910064
   0.00057921  2.43861041  1.89559955
   5.55669608  2.43861041  1.89545438
   0.00057921  7.99733638  1.89559955
   5.55669608  7.99733638  1.89545438
   2.78042868  5.21797340  8.30297749
   8.33654555  5.21797340  8.30283232
   2.78042868 10.77669937  8.30297749
   8.33654555 10.77669937  8.30283232
   0.00259367  2.43849185  8.60933123
   5.55871054  2.43849185  8.60918606
   0.00259367  7.99721782  8.60933123
   5.55871054  7.99721782  8.60918606
  -1.37640314  1.05960384  8.18451283
   4.17971373  1.05960384  8.18436766
  -1.37640314  6.61832981  8.18451283
   4.17971373  6.61832981  8.18436766
   1.37853298  3.81753010  8.19406852
   6.93727542  3.81753010  8.18427419
   1.38115855  9.37625607  8.18441936
   6.93727542  9.37625607  8.18427419
   1.39984934  1.03816712  2.01415768
   6.95596621  1.03816712  2.01401251
   1.39984934  6.59689309  2.01415768
   6.95596621  6.59689309  2.01401251
   4.15741103  3.83896683  2.01406421
   9.71352790  3.83896683  2.01391904
   4.15741103  9.39769280  2.01406421
   9.71352790  9.39769280  2.01391904
   1.40044058  3.83812185  3.78391497
   6.95655745  3.83812185  3.78376980
   1.40044058  9.39684782  3.78391497
   6.95655745  9.39684782  3.78376980
   4.15774317  1.03891443  3.78383507
   9.71386004  1.03891443  3.78368990
   4.15774317  6.59764040  3.78383507
   9.71386004  6.59764040  3.78368990
  -1.37673528  3.81827742  6.41474197
   4.17938159  3.81827742  6.41459680
  -1.37673528  9.37700339  6.41474197
   4.17938159  9.37700339  6.41459680
   1.38056731  1.05875886  6.41466207
   6.93668418  1.05875886  6.41451690
   1.38056731  6.61748483  6.41466207
   6.93668418  6.61748483  6.41451690
   1.38227032  3.82821742  0.00000590
   6.93838719  3.82821742 -0.00013927
   1.38227032  9.38694339  0.00000590
   6.93838719  9.38694339 -0.00013927
   1.39873757  1.04885444 10.19857114
   6.95485444  1.04885444 10.19842597
   1.39873757  6.60758041 10.19857114
   6.95485444  6.60758041 10.19842597
  -1.25763347  1.18231867  6.18370935
   4.29848340  1.18231867  6.18356418
  -1.25763347  6.74104464  6.18370935
   4.29848340  6.74104464  6.18356418
   1.26130689  3.69462400  6.18369015
   6.81742376  3.69462400  6.18354498
   1.26130689  9.25334997  6.18369015
   6.81742376  9.25334997  6.18354498
   1.51970100  0.91526102  4.01488689
   7.07581787  0.91526102  4.01474172
   1.51970100  6.47398699  4.01488689
   7.07581787  6.47398699  4.01474172
   4.03864136  3.96168165  4.01486769
   9.59475823  3.96168165  4.01472252
   4.03864136  9.52040762  4.01486769
   9.59475823  9.52040762  4.01472252
   0.00035027  5.21813216  1.57031984
   5.55646714  5.21813216  1.57017467
   0.00035027 10.77685813  1.57031984
   5.55646714 10.77685813  1.57017467
   2.77848919  2.43868979  1.57536637
   8.33460606  2.43868979  1.57522120
   2.77848919  7.99741576  1.57536637
   8.33460606  7.99741576  1.57522120
   0.00251870  5.21805278  8.62321067
   5.55863557  5.21805278  8.62306550
   0.00251870 10.77677875  8.62321067
   5.55863557 10.77677875  8.62306550
   2.78065762  2.43876917  8.62825720
   8.33677449  2.43876917  8.62811203
   2.78065762  7.99749514  8.62825720
   8.33677449  7.99749514  8.62811203
 


--------------------------------------------------------------------------------------------------------


 k-point  1 :   0.0000 0.0000 0.0000  plane waves:   47369
 k-point  2 :   0.3333 0.0000 0.0000  plane waves:   47373
 k-point  3 :   0.0000 0.3333 0.0000  plane waves:   47370
 k-point  4 :   0.3333 0.3333 0.0000  plane waves:   47404
 k-point  5 :  -0.3333 0.3333-0.0000  plane waves:   47404
 k-point  6 :   0.0000 0.0000 0.3333  plane waves:   47419
 k-point  7 :   0.3333 0.0000 0.3333  plane waves:   47399
 k-point  8 :  -0.3333 0.0000 0.3333  plane waves:   47417
 k-point  9 :   0.0000 0.3333 0.3333  plane waves:   47409
 k-point 10 :   0.3333 0.3333 0.3333  plane waves:   47422
 k-point 11 :  -0.3333 0.3333 0.3333  plane waves:   47440
 k-point 12 :   0.0000-0.3333 0.3333  plane waves:   47409
 k-point 13 :   0.3333-0.3333 0.3333  plane waves:   47422
 k-point 14 :  -0.3333-0.3333 0.3333  plane waves:   47440

 maximum and minimum number of plane-waves per node :      7942     7858

 maximum number of plane-waves:     47440
 maximum index in each direction: 
   IXMAX=   23   IYMAX=   23   IZMAX=   21
   IXMIN=  -23   IYMIN=  -23   IZMIN=  -22


 parallel 3D FFT for wavefunctions:
    minimum data exchange during FFTs selected (reduces bandwidth)
 parallel 3D FFT for charge:
    minimum data exchange during FFTs selected (reduces bandwidth)


 total amount of memory used by VASP MPI-rank0  1233264. kBytes
=======================================================================

   base      :      30000. kBytes
   nonl-proj :      75226. kBytes
   fftplans  :      85054. kBytes
   grid      :      64684. kBytes
   one-center:        466. kBytes
   wavefun   :     977834. kBytes
 
     INWAV:  cpu time    0.0000: real time    0.0000
 Broyden mixing: mesh for mixing (old mesh)
   NGX = 47   NGY = 47   NGZ = 43
  (NGX  =192   NGY  =192   NGZ  =180)
  gives a total of  94987 points

 initial charge density was supplied:
 number of electron     736.0000016 magnetization     127.9999885
 keeping initial charge density in first step


--------------------------------------------------------------------------------------------------------


 Maximum index for augmentation-charges        13229 (set IRDMAX)


--------------------------------------------------------------------------------------------------------


 First call to EWALD:  gamma=   0.164
 Maximum number of real-space cells 3x 3x 3
 Maximum number of reciprocal cells 3x 3x 3

    FEWALD:  cpu time    0.0063: real time    0.0064


--------------------------------------- Iteration      1(   1)  ---------------------------------------


    POTLOK:  cpu time    1.0364: real time    1.0643
    SETDIJ:  cpu time    2.2906: real time    2.3266
     EDDAV:  cpu time  314.9205: real time  318.3223
       DOS:  cpu time    0.0087: real time    0.0094
    --------------------------------------------
      LOOP:  cpu time  318.2561: real time  321.7226

 eigenvalue-minimisations  : 30944
 total energy-change (2. order) : 0.1040960E+05  (-0.4118843E+05)
 number of electron     736.0000016 magnetization     127.9999885
 augmentation part      736.0000016 magnetization     127.9999885

 Free energy of the ion-electron system (eV)
  ---------------------------------------------------
  alpha Z        PSCENC =      2314.49656628
  Ewald energy   TEWEN  =    -57724.25352187
  -Hartree energ DENC   =    -30347.73969537
  -exchange      EXHF   =         0.00000000
  -V(xc)+E(xc)   XCENC  =      3229.29437268
  PAW double counting   =     92679.89207989   -95535.38516353
  entropy T*S    EENTRO =        -0.01855756
  eigenvalues    EBANDS =       349.83633938
  atomic energy  EATOM  =     95443.47970955
  Solvation  Ediel_sol  =         0.00000000
  ---------------------------------------------------
  free energy    TOTEN  =     10409.60212944 eV

  energy without entropy =    10409.62068700  energy(sigma->0) =    10409.61140822


--------------------------------------------------------------------------------------------------------




--------------------------------------- Iteration      1(   2)  ---------------------------------------


     EDDAV:  cpu time  309.2506: real time  312.1044
       DOS:  cpu time    0.0083: real time    0.0083
    --------------------------------------------
      LOOP:  cpu time  309.2589: real time  312.1127

 eigenvalue-minimisations  : 30128
 total energy-change (2. order) :-0.9232123E+04  (-0.8658333E+04)
 number of electron     736.0000016 magnetization     127.9999885
 augmentation part      736.0000016 magnetization     127.9999885

 Free energy of the ion-electron system (eV)
  ---------------------------------------------------
  alpha Z        PSCENC =      2314.49656628
  Ewald energy   TEWEN  =    -57724.25352187
  -Hartree energ DENC   =    -30347.73969537
  -exchange      EXHF   =         0.00000000
  -V(xc)+E(xc)   XCENC  =      3229.29437268
  PAW double counting   =     92679.89207989   -95535.38516353
  entropy T*S    EENTRO =        -0.06586504
  eigenvalues    EBANDS =     -8882.23908791
  atomic energy  EATOM  =     95443.47970955
  Solvation  Ediel_sol  =         0.00000000
  ---------------------------------------------------
  free energy    TOTEN  =      1177.47939468 eV

  energy without entropy =     1177.54525972  energy(sigma->0) =     1177.51232720


--------------------------------------------------------------------------------------------------------




--------------------------------------- Iteration      1(   3)  ---------------------------------------


     EDDAV:  cpu time  326.3911: real time  329.1450
       DOS:  cpu time    0.0024: real time    0.0024
    --------------------------------------------
      LOOP:  cpu time  326.3935: real time  329.1474

 eigenvalue-minimisations  : 32400
 total energy-change (2. order) :-0.1485771E+04  (-0.1278916E+04)
 number of electron     736.0000016 magnetization     127.9999885
 augmentation part      736.0000016 magnetization     127.9999885

 Free energy of the ion-electron system (eV)
  ---------------------------------------------------
  alpha Z        PSCENC =      2314.49656628
  Ewald energy   TEWEN  =    -57724.25352187
  -Hartree energ DENC   =    -30347.73969537
  -exchange      EXHF   =         0.00000000
  -V(xc)+E(xc)   XCENC  =      3229.29437268
  PAW double counting   =     92679.89207989   -95535.38516353
  entropy T*S    EENTRO =        -0.00000000
  eigenvalues    EBANDS =    -10368.07644624
  atomic energy  EATOM  =     95443.47970955
  Solvation  Ediel_sol  =         0.00000000
  ---------------------------------------------------
  free energy    TOTEN  =      -308.29209861 eV

  energy without entropy =     -308.29209861  energy(sigma->0) =     -308.29209861


--------------------------------------------------------------------------------------------------------




--------------------------------------- Iteration      1(   4)  ---------------------------------------


     EDDAV:  cpu time  347.4002: real time  350.6463
       DOS:  cpu time    0.0025: real time    0.0025
    --------------------------------------------
      LOOP:  cpu time  347.4028: real time  350.6489

 eigenvalue-minimisations  : 35000
 total energy-change (2. order) :-0.1680192E+03  (-0.1652780E+03)
 number of electron     736.0000016 magnetization     127.9999885
 augmentation part      736.0000016 magnetization     127.9999885

 Free energy of the ion-electron system (eV)
  ---------------------------------------------------
  alpha Z        PSCENC =      2314.49656628
  Ewald energy   TEWEN  =    -57724.25352187
  -Hartree energ DENC   =    -30347.73969537
  -exchange      EXHF   =         0.00000000
  -V(xc)+E(xc)   XCENC  =      3229.29437268
  PAW double counting   =     92679.89207989   -95535.38516353
  entropy T*S    EENTRO =        -0.00000000
  eigenvalues    EBANDS =    -10536.09567227
  atomic energy  EATOM  =     95443.47970955
  Solvation  Ediel_sol  =         0.00000000
  ---------------------------------------------------
  free energy    TOTEN  =      -476.31132464 eV

  energy without entropy =     -476.31132464  energy(sigma->0) =     -476.31132464


--------------------------------------------------------------------------------------------------------




--------------------------------------- Iteration      1(   5)  ---------------------------------------


     EDDAV:  cpu time  464.2336: real time  468.4542
       DOS:  cpu time    0.0026: real time    0.0026
    CHARGE:  cpu time    9.4280: real time    9.4502
    MIXING:  cpu time    0.0347: real time    0.0347
    --------------------------------------------
      LOOP:  cpu time  473.6989: real time  477.9417

 eigenvalue-minimisations  : 49848
 total energy-change (2. order) :-0.1242431E+02  (-0.1230117E+02)
 number of electron     736.0000016 magnetization     127.9999932
 augmentation part      278.4621841 magnetization      84.1339446

 Broyden mixing:
  rms(total) = 0.20700E+00    rms(broyden)= 0.20684E+00
  rms(prec ) = 0.21051E+00
  weight for this iteration     100.00

 Free energy of the ion-electron system (eV)
  ---------------------------------------------------
  alpha Z        PSCENC =      2314.49656628
  Ewald energy   TEWEN  =    -57724.25352187
  -Hartree energ DENC   =    -30347.73969537
  -exchange      EXHF   =         0.00000000
  -V(xc)+E(xc)   XCENC  =      3229.29437268
  PAW double counting   =     92679.89207989   -95535.38516353
  entropy T*S    EENTRO =        -0.00000000
  eigenvalues    EBANDS =    -10548.51997926
  atomic energy  EATOM  =     95443.47970955
  Solvation  Ediel_sol  =         0.00000000
  ---------------------------------------------------
  free energy    TOTEN  =      -488.73563163 eV

  energy without entropy =     -488.73563163  energy(sigma->0) =     -488.73563163


--------------------------------------------------------------------------------------------------------




--------------------------------------- Iteration      1(   6)  ---------------------------------------


    POTLOK:  cpu time    1.0509: real time    1.0629
    SETDIJ:  cpu time    2.2635: real time    2.2855
     EDDAV:  cpu time  401.7309: real time  405.3536
       DOS:  cpu time    0.0028: real time    0.0028
    CHARGE:  cpu time    9.2339: real time    9.3585
    MIXING:  cpu time    0.0387: real time    2.4096
    --------------------------------------------
      LOOP:  cpu time  414.3208: real time  420.4730

 eigenvalue-minimisations  : 42024
 total energy-change (2. order) :-0.4646622E+00  (-0.4789277E+00)
 number of electron     736.0000016 magnetization     127.9999951
 augmentation part      277.9607076 magnetization      84.1629536

 Broyden mixing:
  rms(total) = 0.10230E+00    rms(broyden)= 0.10214E+00
  rms(prec ) = 0.10302E+00
  weight for this iteration     100.00

 eigenvalues of (default mixing * dielectric matrix)
  average eigenvalue GAMMA=   0.6575
  0.6575

 Free energy of the ion-electron system (eV)
  ---------------------------------------------------
  alpha Z        PSCENC =      2314.49656628
  Ewald energy   TEWEN  =    -57724.25352187
  -Hartree energ DENC   =    -30345.84657051
  -exchange      EXHF   =         0.00000000
  -V(xc)+E(xc)   XCENC  =      3228.99392181
  PAW double counting   =     92522.40074092   -95376.22924511
  entropy T*S    EENTRO =        -0.00000000
  eigenvalues    EBANDS =    -10552.24189494
  atomic energy  EATOM  =     95443.47970955
  Solvation  Ediel_sol  =         0.00000000
  ---------------------------------------------------
  free energy    TOTEN  =      -489.20029387 eV

  energy without entropy =     -489.20029387  energy(sigma->0) =     -489.20029387


--------------------------------------------------------------------------------------------------------




--------------------------------------- Iteration      1(   7)  ---------------------------------------


    POTLOK:  cpu time    1.0759: real time    1.0791
    SETDIJ:  cpu time    2.2796: real time    2.2819
     EDDAV:  cpu time  436.6333: real time  442.6203
       DOS:  cpu time    0.0028: real time    0.0028
    CHARGE:  cpu time    9.3907: real time    9.4001
    MIXING:  cpu time    0.0356: real time    0.0356
    --------------------------------------------
      LOOP:  cpu time  449.4179: real time  455.4198

 eigenvalue-minimisations  : 46264
 total energy-change (2. order) :-0.1671520E-01  (-0.1760197E-01)
 number of electron     736.0000016 magnetization     127.9999959
 augmentation part      277.8788161 magnetization      84.1550671

 Broyden mixing:
  rms(total) = 0.59405E-01    rms(broyden)= 0.59364E-01
  rms(prec ) = 0.60844E-01
  weight for this iteration     100.00

 eigenvalues of (default mixing * dielectric matrix)
  average eigenvalue GAMMA=   0.5668
  0.5668  0.5668

 Free energy of the ion-electron system (eV)
  ---------------------------------------------------
  alpha Z        PSCENC =      2314.49656628
  Ewald energy   TEWEN  =    -57724.25352187
  -Hartree energ DENC   =    -30346.78082714
  -exchange      EXHF   =         0.00000000
  -V(xc)+E(xc)   XCENC  =      3229.07921783
  PAW double counting   =     92579.70353397   -95434.11191751
  entropy T*S    EENTRO =        -0.00000000
  eigenvalues    EBANDS =    -10550.82977018
  atomic energy  EATOM  =     95443.47970955
  Solvation  Ediel_sol  =         0.00000000
  ---------------------------------------------------
  free energy    TOTEN  =      -489.21700907 eV

  energy without entropy =     -489.21700907  energy(sigma->0) =     -489.21700907


--------------------------------------------------------------------------------------------------------




--------------------------------------- Iteration      1(   8)  ---------------------------------------


    POTLOK:  cpu time    1.0512: real time    1.0537
    SETDIJ:  cpu time    2.2920: real time    2.2950
     EDDAV:  cpu time  410.1508: real time  414.1500
       DOS:  cpu time    0.0029: real time    0.0029
    CHARGE:  cpu time    9.2611: real time    9.2995
    MIXING:  cpu time    0.0379: real time    1.9148
    --------------------------------------------
      LOOP:  cpu time  422.7959: real time  428.7159

 eigenvalue-minimisations  : 42872
 total energy-change (2. order) : 0.4941201E-03  (-0.3429967E-03)
 number of electron     736.0000016 magnetization     127.9999964
 augmentation part      277.8708814 magnetization      84.1570249

 Broyden mixing:
  rms(total) = 0.52912E-01    rms(broyden)= 0.52909E-01
  rms(prec ) = 0.54180E-01
  weight for this iteration     100.00

 eigenvalues of (default mixing * dielectric matrix)
  average eigenvalue GAMMA=   0.5759
  0.6339  0.6339  0.4599

 Free energy of the ion-electron system (eV)
  ---------------------------------------------------
  alpha Z        PSCENC =      2314.49656628
  Ewald energy   TEWEN  =    -57724.25352187
  -Hartree energ DENC   =    -30346.73470181
  -exchange      EXHF   =         0.00000000
  -V(xc)+E(xc)   XCENC  =      3229.10742954
  PAW double counting   =     92592.98312223   -95447.52202051
  entropy T*S    EENTRO =        -0.00000000
  eigenvalues    EBANDS =    -10550.77309836
  atomic energy  EATOM  =     95443.47970955
  Solvation  Ediel_sol  =         0.00000000
  ---------------------------------------------------
  free energy    TOTEN  =      -489.21651495 eV

  energy without entropy =     -489.21651495  energy(sigma->0) =     -489.21651495


--------------------------------------------------------------------------------------------------------




--------------------------------------- Iteration      1(   9)  ---------------------------------------


    POTLOK:  cpu time    1.0463: real time    1.0520
    SETDIJ:  cpu time    2.2631: real time    2.3016
     EDDAV:  cpu time  455.2341: real time  459.4607
       DOS:  cpu time    0.0028: real time    0.0028
    CHARGE:  cpu time    9.2588: real time    9.3284
    MIXING:  cpu time    0.0427: real time    0.0427
    --------------------------------------------
      LOOP:  cpu time  467.8479: real time  472.1882

 eigenvalue-minimisations  : 48728
 total energy-change (2. order) : 0.5125954E-03  (-0.2174784E-04)
 number of electron     736.0000016 magnetization     127.9999988
 augmentation part      277.8733316 magnetization      84.1571647

 Broyden mixing:
  rms(total) = 0.45465E-01    rms(broyden)= 0.45464E-01
  rms(prec ) = 0.46511E-01
  weight for this iteration     100.00

 eigenvalues of (default mixing * dielectric matrix)
  average eigenvalue GAMMA=   0.8948
  1.2120  1.2120  0.5776  0.5776

 Free energy of the ion-electron system (eV)
  ---------------------------------------------------
  alpha Z        PSCENC =      2314.49656628
  Ewald energy   TEWEN  =    -57724.25352187
  -Hartree energ DENC   =    -30346.81936395
  -exchange      EXHF   =         0.00000000
  -V(xc)+E(xc)   XCENC  =      3229.13534345
  PAW double counting   =     92602.71557652   -95457.38485473
  entropy T*S    EENTRO =        -0.00000000
  eigenvalues    EBANDS =    -10550.58545760
  atomic energy  EATOM  =     95443.47970955
  Solvation  Ediel_sol  =         0.00000000
  ---------------------------------------------------
  free energy    TOTEN  =      -489.21600235 eV

  energy without entropy =     -489.21600235  energy(sigma->0) =     -489.21600235


--------------------------------------------------------------------------------------------------------




--------------------------------------- Iteration      1(  10)  ---------------------------------------


    POTLOK:  cpu time    1.0489: real time    1.0551
    SETDIJ:  cpu time    2.2938: real time    2.3007
     EDDAV:  cpu time  444.9535: real time  449.2066
       DOS:  cpu time    0.0041: real time    0.0201
    CHARGE:  cpu time    9.4156: real time    9.4421
    MIXING:  cpu time    0.0406: real time    0.0528
    --------------------------------------------
      LOOP:  cpu time  457.7566: real time  462.0777

 eigenvalue-minimisations  : 47360
 total energy-change (2. order) : 0.1049002E-02  (-0.1117748E-03)
 number of electron     736.0000016 magnetization     127.9999999
 augmentation part      277.8868562 magnetization      84.1586489

 Broyden mixing:
  rms(total) = 0.17547E-01    rms(broyden)= 0.17546E-01
  rms(prec ) = 0.17713E-01
  weight for this iteration     100.00

 eigenvalues of (default mixing * dielectric matrix)
  average eigenvalue GAMMA=   0.9361
  1.4940  1.4940  0.6155  0.6155  0.4617

 Free energy of the ion-electron system (eV)
  ---------------------------------------------------
  alpha Z        PSCENC =      2314.49656628
  Ewald energy   TEWEN  =    -57724.25352187
  -Hartree energ DENC   =    -30347.39022975
  -exchange      EXHF   =         0.00000000
  -V(xc)+E(xc)   XCENC  =      3229.25302930
  PAW double counting   =     92644.67433055   -95499.90228240
  entropy T*S    EENTRO =        -0.00000000
  eigenvalues    EBANDS =    -10549.57255501
  atomic energy  EATOM  =     95443.47970955
  Solvation  Ediel_sol  =         0.00000000
  ---------------------------------------------------
  free energy    TOTEN  =      -489.21495335 eV

  energy without entropy =     -489.21495335  energy(sigma->0) =     -489.21495335


--------------------------------------------------------------------------------------------------------




--------------------------------------- Iteration      1(  11)  ---------------------------------------


    POTLOK:  cpu time    1.0475: real time    1.0575
    SETDIJ:  cpu time    2.3129: real time    2.3257
     EDDAV:  cpu time  350.2146: real time  353.5184
       DOS:  cpu time    0.0026: real time    0.0026
    CHARGE:  cpu time    9.3504: real time    9.3617
    MIXING:  cpu time    0.0386: real time    0.0386
    --------------------------------------------
      LOOP:  cpu time  362.9665: real time  366.3042

 eigenvalue-minimisations  : 35536
 total energy-change (2. order) : 0.3667294E-04  (-0.4678457E-04)
 number of electron     736.0000016 magnetization     128.0000000
 augmentation part      277.8915698 magnetization      84.1584909

 Broyden mixing:
  rms(total) = 0.69195E-02    rms(broyden)= 0.69174E-02
  rms(prec ) = 0.69573E-02
  weight for this iteration     100.00

 eigenvalues of (default mixing * dielectric matrix)
  average eigenvalue GAMMA=   0.9075
  1.5102  1.5102  0.6752  0.6752  0.5371  0.5371

 Free energy of the ion-electron system (eV)
  ---------------------------------------------------
  alpha Z        PSCENC =      2314.49656628
  Ewald energy   TEWEN  =    -57724.25352187
  -Hartree energ DENC   =    -30347.60799633
  -exchange      EXHF   =         0.00000000
  -V(xc)+E(xc)   XCENC  =      3229.29682024
  PAW double counting   =     92664.64302569   -95520.09442858
  entropy T*S    EENTRO =        -0.00000000
  eigenvalues    EBANDS =    -10549.17509165
  atomic energy  EATOM  =     95443.47970955
  Solvation  Ediel_sol  =         0.00000000
  ---------------------------------------------------
  free energy    TOTEN  =      -489.21491668 eV

  energy without entropy =     -489.21491668  energy(sigma->0) =     -489.21491668


--------------------------------------------------------------------------------------------------------




--------------------------------------- Iteration      1(  12)  ---------------------------------------


    POTLOK:  cpu time    1.0496: real time    1.0511
    SETDIJ:  cpu time    2.3096: real time    2.3115
     EDDAV:  cpu time  394.5290: real time  398.5536
       DOS:  cpu time    0.0025: real time    0.0025
    CHARGE:  cpu time    9.2636: real time    9.3223
    MIXING:  cpu time    0.0506: real time    0.0506
    --------------------------------------------
      LOOP:  cpu time  407.2048: real time  411.2917

 eigenvalue-minimisations  : 41096
 total energy-change (2. order) :-0.1206395E-04  (-0.1105184E-04)
 number of electron     736.0000016 magnetization     128.0000001
 augmentation part      277.8941806 magnetization      84.1585161

 Broyden mixing:
  rms(total) = 0.55894E-02    rms(broyden)= 0.55878E-02
  rms(prec ) = 0.56551E-02
  weight for this iteration     100.00

 eigenvalues of (default mixing * dielectric matrix)
  average eigenvalue GAMMA=   0.9886
  1.4796  1.4796  1.1237  1.1237  0.6042  0.6042  0.5051

 Free energy of the ion-electron system (eV)
  ---------------------------------------------------
  alpha Z        PSCENC =      2314.49656628
  Ewald energy   TEWEN  =    -57724.25352187
  -Hartree energ DENC   =    -30347.61903085
  -exchange      EXHF   =         0.00000000
  -V(xc)+E(xc)   XCENC  =      3229.29775508
  PAW double counting   =     92668.13337590   -95523.59411881
  entropy T*S    EENTRO =        -0.00000000
  eigenvalues    EBANDS =    -10549.15566402
  atomic energy  EATOM  =     95443.47970955
  Solvation  Ediel_sol  =         0.00000000
  ---------------------------------------------------
  free energy    TOTEN  =      -489.21492874 eV

  energy without entropy =     -489.21492874  energy(sigma->0) =     -489.21492874


--------------------------------------------------------------------------------------------------------




--------------------------------------- Iteration      1(  13)  ---------------------------------------


    POTLOK:  cpu time    1.0473: real time    1.0643
    SETDIJ:  cpu time    2.3238: real time    2.3346
     EDDAV:  cpu time  270.9326: real time  273.3763
       DOS:  cpu time    0.0026: real time    0.0027
    CHARGE:  cpu time    9.3063: real time    9.3444
    MIXING:  cpu time    0.0326: real time    0.0328
    --------------------------------------------
      LOOP:  cpu time  283.6452: real time  286.1551

 eigenvalue-minimisations  : 25176
 total energy-change (2. order) :-0.1666296E-05  (-0.2519117E-06)
 number of electron     736.0000016 magnetization     128.0000004
 augmentation part      277.8942727 magnetization      84.1584333

 Broyden mixing:
  rms(total) = 0.38580E-02    rms(broyden)= 0.38563E-02
  rms(prec ) = 0.38836E-02
  weight for this iteration     100.00

 eigenvalues of (default mixing * dielectric matrix)
  average eigenvalue GAMMA=   1.2140
  2.5591  2.5591  1.0555  1.0555  0.7097  0.7097  0.5315  0.5315

 Free energy of the ion-electron system (eV)
  ---------------------------------------------------
  alpha Z        PSCENC =      2314.49656628
  Ewald energy   TEWEN  =    -57724.25352187
  -Hartree energ DENC   =    -30347.59667936
  -exchange      EXHF   =         0.00000000
  -V(xc)+E(xc)   XCENC  =      3229.29259093
  PAW double counting   =     92670.77723725   -95526.22422107
  entropy T*S    EENTRO =        -0.00000000
  eigenvalues    EBANDS =    -10549.18661212
  atomic energy  EATOM  =     95443.47970955
  Solvation  Ediel_sol  =         0.00000000
  ---------------------------------------------------
  free energy    TOTEN  =      -489.21493041 eV

  energy without entropy =     -489.21493041  energy(sigma->0) =     -489.21493041


--------------------------------------------------------------------------------------------------------




--------------------------------------- Iteration      1(  14)  ---------------------------------------


    POTLOK:  cpu time    1.0414: real time    1.0478
    SETDIJ:  cpu time    2.3120: real time    2.3188
     EDDAV:  cpu time  318.1950: real time  320.9384
       DOS:  cpu time    0.0027: real time    0.0027
    CHARGE:  cpu time    9.2903: real time    9.3389
    MIXING:  cpu time    0.0382: real time    0.0415
    --------------------------------------------
      LOOP:  cpu time  330.8796: real time  333.6882

 eigenvalue-minimisations  : 31288
 total energy-change (2. order) :-0.8469477E-05  (-0.8794538E-06)
 number of electron     736.0000016 magnetization     128.0000005
 augmentation part      277.8928513 magnetization      84.1583089

 Broyden mixing:
  rms(total) = 0.11894E-02    rms(broyden)= 0.11842E-02
  rms(prec ) = 0.12279E-02
  weight for this iteration     100.00

 eigenvalues of (default mixing * dielectric matrix)
  average eigenvalue GAMMA=   1.1260
  2.7091  1.5737  1.5737  0.9807  0.8068  0.8068  0.5407  0.5711  0.5711

 Free energy of the ion-electron system (eV)
  ---------------------------------------------------
  alpha Z        PSCENC =      2314.49656628
  Ewald energy   TEWEN  =    -57724.25352187
  -Hartree energ DENC   =    -30347.62430943
  -exchange      EXHF   =         0.00000000
  -V(xc)+E(xc)   XCENC  =      3229.28872819
  PAW double counting   =     92676.70431593   -95532.15795046
  entropy T*S    EENTRO =        -0.00000000
  eigenvalues    EBANDS =    -10549.14847707
  atomic energy  EATOM  =     95443.47970955
  Solvation  Ediel_sol  =         0.00000000
  ---------------------------------------------------
  free energy    TOTEN  =      -489.21493887 eV

  energy without entropy =     -489.21493887  energy(sigma->0) =     -489.21493887


--------------------------------------------------------------------------------------------------------




--------------------------------------- Iteration      1(  15)  ---------------------------------------


    POTLOK:  cpu time    1.0357: real time    1.0494
    SETDIJ:  cpu time    2.3114: real time    2.3367
     EDDAV:  cpu time  285.3851: real time  288.0640
       DOS:  cpu time    0.0024: real time    0.0028
    CHARGE:  cpu time    9.3443: real time    9.3738
    MIXING:  cpu time    0.0370: real time    0.0370
    --------------------------------------------
      LOOP:  cpu time  298.1159: real time  300.8636

 eigenvalue-minimisations  : 27048
 total energy-change (2. order) : 0.2969886E-05  (-0.3491275E-06)
 number of electron     736.0000016 magnetization     128.0000004
 augmentation part      277.8924561 magnetization      84.1583687

 Broyden mixing:
  rms(total) = 0.55557E-03    rms(broyden)= 0.54442E-03
  rms(prec ) = 0.55613E-03
  weight for this iteration     100.00

 eigenvalues of (default mixing * dielectric matrix)
  average eigenvalue GAMMA=   1.0893
  2.6146  1.5887  1.5887  1.1753  0.8303  0.8303  0.6034  0.6034  0.5292  0.5292

 Free energy of the ion-electron system (eV)
  ---------------------------------------------------
  alpha Z        PSCENC =      2314.49656628
  Ewald energy   TEWEN  =    -57724.25352187
  -Hartree energ DENC   =    -30347.64423205
  -exchange      EXHF   =         0.00000000
  -V(xc)+E(xc)   XCENC  =      3229.29328826
  PAW double counting   =     92677.60809527   -95533.08491151
  entropy T*S    EENTRO =        -0.00000000
  eigenvalues    EBANDS =    -10549.10992984
  atomic energy  EATOM  =     95443.47970955
  Solvation  Ediel_sol  =         0.00000000
  ---------------------------------------------------
  free energy    TOTEN  =      -489.21493591 eV

  energy without entropy =     -489.21493591  energy(sigma->0) =     -489.21493591


--------------------------------------------------------------------------------------------------------




--------------------------------------- Iteration      1(  16)  ---------------------------------------


    POTLOK:  cpu time    1.0506: real time    1.0517
    SETDIJ:  cpu time    2.2821: real time    2.2911
     EDDAV:  cpu time  224.2182: real time  226.7543
       DOS:  cpu time    0.0024: real time    0.0024
    --------------------------------------------
      LOOP:  cpu time  227.5533: real time  230.0996

 eigenvalue-minimisations  : 19000
 total energy-change (2. order) :-0.2969173E-06  (-0.9859721E-07)
 number of electron     736.0000016 magnetization     128.0000004
 augmentation part      277.8924561 magnetization      84.1583687

 Free energy of the ion-electron system (eV)
  ---------------------------------------------------
  alpha Z        PSCENC =      2314.49656628
  Ewald energy   TEWEN  =    -57724.25352187
  -Hartree energ DENC   =    -30347.63945008
  -exchange      EXHF   =         0.00000000
  -V(xc)+E(xc)   XCENC  =      3229.29314496
  PAW double counting   =     92677.76015156   -95533.23863136
  entropy T*S    EENTRO =        -0.00000000
  eigenvalues    EBANDS =    -10549.11290525
  atomic energy  EATOM  =     95443.47970955
  Solvation  Ediel_sol  =         0.00000000
  ---------------------------------------------------
  free energy    TOTEN  =      -489.21493620 eV

  energy without entropy =     -489.21493620  energy(sigma->0) =     -489.21493620


--------------------------------------------------------------------------------------------------------




 average (electrostatic) potential at core
  the test charge radii are     0.7079  0.7215  0.9698  0.9500
  (the norm of the test charge is              1.0000)
       1 -58.9473       2 -58.9480       3 -58.9479       4 -58.9485       5 -58.9471
       6 -58.9470       7 -58.9477       8 -58.9467       9 -58.9479      10 -58.9472
      11 -58.9477      12 -58.9476      13 -58.9402      14 -58.9486      15 -58.9480
      16 -58.9485      17 -69.8160      18 -69.8166      19 -69.8151      20 -69.8166
      21 -69.8094      22 -69.8169      23 -69.8168      24 -69.8165      25 -69.8163
      26 -69.8161      27 -69.8162      28 -69.8160      29 -69.8155      30 -69.8160
      31 -69.8156      32 -69.8164      33 -85.5820      34 -85.5806      35 -85.5807
      36 -85.5800      37 -85.5803      38 -85.5803      39 -85.5802      40 -85.5803
      41 -85.5817      42 -85.5838      43 -85.5804      44 -85.5805      45 -85.5831
      46 -85.5805      47 -85.5824      48 -85.5803      49 -85.6348      50 -85.6371
      51 -85.6385      52 -85.6385      53 -85.6361      54 -85.6385      55 -85.6355
      56 -85.6385      57 -78.5750      58 -78.5752      59 -78.5746      60 -78.5749
      61 -78.5878      62 -78.5759      63 -78.5758      64 -78.5745      65 -78.5752
      66 -78.5744      67 -78.5750      68 -78.5743      69 -78.5752      70 -78.5747
      71 -78.5744      72 -78.5745      73 -78.5811      74 -78.5810      75 -78.5820
      76 -78.5811      77 -78.5904      78 -78.5911      79 -78.5907      80 -78.5914
      81 -78.5831      82 -78.5916      83 -78.5914      84 -78.5916      85 -78.5800
      86 -78.5815      87 -78.5817      88 -78.5817
 
 
 
 E-fermi :   5.2056     XC(G=0): -10.4850     alpha+bet :-11.8156


 spin component 1

 k-point     1 :       0.0000    0.0000    0.0000
  band No.  band energies     occupation 
      1     -51.0673      1.00000
      2     -51.0556      1.00000
      3     -51.0552      1.00000
      4     -51.0549      1.00000
      5     -51.0548      1.00000
      6     -51.0547      1.00000
      7     -51.0542      1.00000
      8     -51.0540      1.00000
      9     -51.0535      1.00000
     10     -51.0533      1.00000
     11     -51.0532      1.00000
     12     -51.0529      1.00000
     13     -51.0529      1.00000
     14     -51.0522      1.00000
     15     -51.0518      1.00000
     16     -51.0511      1.00000
     17     -51.0443      1.00000
     18     -51.0442      1.00000
     19     -51.0440      1.00000
     20     -51.0440      1.00000
     21     -51.0438      1.00000
     22     -51.0434      1.00000
     23     -51.0433      1.00000
     24     -51.0395      1.00000
     25     -51.0393      1.00000
     26     -51.0392      1.00000
     27     -51.0391      1.00000
     28     -51.0387      1.00000
     29     -51.0387      1.00000
     30     -51.0386      1.00000
     31     -51.0373      1.00000
     32     -51.0355      1.00000
     33     -49.7017      1.00000
     34     -49.7017      1.00000
     35     -49.7015      1.00000
     36     -49.7014      1.00000
     37     -49.7011      1.00000
     38     -49.7008      1.00000
     39     -49.7006      1.00000
     40     -49.6941      1.00000
     41     -49.6939      1.00000
     42     -49.6938      1.00000
     43     -49.6936      1.00000
     44     -49.6932      1.00000
     45     -49.6932      1.00000
     46     -49.6931      1.00000
     47     -49.6929      1.00000
     48     -49.6919      1.00000
     49     -49.6099      1.00000
     50     -49.5993      1.00000
     51     -49.5988      1.00000
     52     -49.5984      1.00000
     53     -49.5982      1.00000
     54     -49.5981      1.00000
     55     -49.5978      1.00000
     56     -49.5977      1.00000
     57     -49.5973      1.00000
     58     -49.5972      1.00000
     59     -49.5969      1.00000
     60     -49.5969      1.00000
     61     -49.5966      1.00000
     62     -49.5966      1.00000
     63     -49.5965      1.00000
     64     -49.5965      1.00000
     65     -49.5783      1.00000
     66     -49.5681      1.00000
     67     -49.5675      1.00000
     68     -49.5670      1.00000
     69     -49.5669      1.00000
     70     -49.5668      1.00000
     71     -49.5665      1.00000
     72     -49.5663      1.00000
     73     -49.5657      1.00000
     74     -49.5655      1.00000
     75     -49.5653      1.00000
     76     -49.5651      1.00000
     77     -49.5648      1.00000
     78     -49.5648      1.00000
     79     -49.5646      1.00000
     80     -49.5646      1.00000
     81     -49.5542      1.00000
     82     -49.5542      1.00000
     83     -49.5540      1.00000
     84     -49.5539      1.00000
     85     -49.5536      1.00000
     86     -49.5532      1.00000
     87     -49.5529      1.00000
     88     -49.5469      1.00000
     89     -49.5395      1.00000
     90     -49.5391      1.00000
     91     -49.5391      1.00000
     92     -49.5389      1.00000
     93     -49.5385      1.00000
     94     -49.5384      1.00000
     95     -49.5383      1.00000
     96     -49.5381      1.00000
     97     -39.8652      1.00000
     98     -39.8650      1.00000
     99     -39.8648      1.00000
    100     -39.8646      1.00000
    101     -39.8645      1.00000
    102     -39.8645      1.00000
    103     -39.8644      1.00000
    104     -39.8643      1.00000
    105     -39.8642      1.00000
    106     -39.8641      1.00000
    107     -39.8639      1.00000
    108     -39.8638      1.00000
    109     -39.8638      1.00000
    110     -39.8634      1.00000
    111     -39.8632      1.00000
    112     -39.8564      1.00000
    113     -13.2245      1.00000
    114     -13.2238      1.00000
    115     -13.2097      1.00000
    116     -13.1828      1.00000
    117     -13.1006      1.00000
    118     -13.0987      1.00000
    119     -13.0975      1.00000
    120     -13.0924      1.00000
    121     -13.0852      1.00000
    122     -13.0798      1.00000
    123     -13.0789      1.00000
    124     -13.0761      1.00000
    125     -12.9872      1.00000
    126     -12.9764      1.00000
    127     -12.9416      1.00000
    128     -12.9399      1.00000
    129      -7.6461      1.00000
    130      -7.4057      1.00000
    131      -7.3259      1.00000
    132      -7.3257      1.00000
    133      -7.3088      1.00000
    134      -7.3083      1.00000
    135      -7.3077      1.00000
    136      -7.3068      1.00000
    137      -7.1699      1.00000
    138      -7.1576      1.00000
    139      -7.1239      1.00000
    140      -7.1237      1.00000
    141      -7.0354      1.00000
    142      -7.0231      1.00000
    143      -7.0034      1.00000
    144      -7.0029      1.00000
    145      -6.9417      1.00000
    146      -6.9413      1.00000
    147      -6.8885      1.00000
    148      -6.8882      1.00000
    149      -6.8664      1.00000
    150      -6.8628      1.00000
    151      -6.8357      1.00000
    152      -6.8046      1.00000
    153      -1.9363      1.00000
    154      -1.9351      1.00000
    155      -1.9107      1.00000
    156      -1.8937      1.00000
    157      -1.6660      1.00000
    158      -1.6655      1.00000
    159      -1.6582      1.00000
    160      -1.6562      1.00000
    161      -1.5993      1.00000
    162      -1.5970      1.00000
    163      -1.5859      1.00000
    164      -1.5850      1.00000
    165      -1.2975      1.00000
    166      -1.1750      1.00000
    167      -1.1739      1.00000
    168      -1.1134      1.00000
    169      -1.1118      1.00000
    170      -1.1066      1.00000
    171      -1.0487      1.00000
    172      -0.9805      1.00000
    173      -0.9636      1.00000
    174      -0.9587      1.00000
    175      -0.9576      1.00000
    176      -0.9572      1.00000
    177      -0.9470      1.00000
    178      -0.9450      1.00000
    179      -0.9222      1.00000
    180      -0.8710      1.00000
    181      -0.8689      1.00000
    182      -0.8035      1.00000
    183      -0.8022      1.00000
    184      -0.8020      1.00000
    185      -0.7750      1.00000
    186      -0.7739      1.00000
    187      -0.7737      1.00000
    188      -0.7607      1.00000
    189      -0.7162      1.00000
    190      -0.7162      1.00000
    191      -0.7062      1.00000
    192      -0.7045      1.00000
    193      -0.6996      1.00000
    194      -0.6994      1.00000
    195      -0.6099      1.00000
    196      -0.6095      1.00000
    197      -0.5618      1.00000
    198      -0.5616      1.00000
    199      -0.5497      1.00000
    200      -0.5482      1.00000
    201      -0.4086      1.00000
    202      -0.4077      1.00000
    203      -0.3575      1.00000
    204      -0.3479      1.00000
    205      -0.3297      1.00000
    206      -0.3291      1.00000
    207      -0.2991      1.00000
    208      -0.2989      1.00000
    209      -0.2808      1.00000
    210      -0.2695      1.00000
    211      -0.2629      1.00000
    212      -0.2561      1.00000
    213      -0.2551      1.00000
    214      -0.2094      1.00000
    215      -0.2087      1.00000
    216      -0.1891      1.00000
    217      -0.1863      1.00000
    218      -0.1861      1.00000
    219      -0.1759      1.00000
    220      -0.1584      1.00000
    221      -0.1256      1.00000
    222      -0.1254      1.00000
    223      -0.1095      1.00000
    224      -0.0713      1.00000
    225      -0.0699      1.00000
    226      -0.0610      1.00000
    227      -0.0443      1.00000
    228      -0.0185      1.00000
    229      -0.0178      1.00000
    230      -0.0111      1.00000
    231       0.0013      1.00000
    232       0.0018      1.00000
    233       0.0464      1.00000
    234       0.0488      1.00000
    235       0.0494      1.00000
    236       0.0910      1.00000
    237       0.0938      1.00000
    238       0.1176      1.00000
    239       0.1183      1.00000
    240       0.1587      1.00000
    241       0.1623      1.00000
    242       0.1772      1.00000
    243       0.1793      1.00000
    244       0.1818      1.00000
    245       0.1822      1.00000
    246       0.1847      1.00000
    247       0.1885      1.00000
    248       0.1943      1.00000
    249       0.1950      1.00000
    250       0.2007      1.00000
    251       0.2014      1.00000
    252       0.2392      1.00000
    253       0.2505      1.00000
    254       0.2565      1.00000
    255       0.2567      1.00000
    256       0.2759      1.00000
    257       0.3367      1.00000
    258       0.3468      1.00000
    259       0.3589      1.00000
    260       0.3593      1.00000
    261       0.3604      1.00000
    262       0.3609      1.00000
    263       0.3886      1.00000
    264       0.4019      1.00000
    265       0.4517      1.00000
    266       0.4518      1.00000
    267       0.5788      1.00000
    268       0.5791      1.00000
    269       0.5850      1.00000
    270       0.6012      1.00000
    271       0.6012      1.00000
    272       0.6064      1.00000
    273       0.6068      1.00000
    274       0.6402      1.00000
    275       0.6514      1.00000
    276       0.6518      1.00000
    277       0.6618      1.00000
    278       0.6623      1.00000
    279       0.6644      1.00000
    280       0.6716      1.00000
    281       0.6737      1.00000
    282       0.6743      1.00000
    283       0.6963      1.00000
    284       0.7228      1.00000
    285       0.7819      1.00000
    286       0.8188      1.00000
    287       0.8296      1.00000
    288       0.8311      1.00000
    289       0.8317      1.00000
    290       0.8610      1.00000
    291       0.8611      1.00000
    292       0.9081      1.00000
    293       0.9405      1.00000
    294       0.9485      1.00000
    295       0.9490      1.00000
    296       0.9831      1.00000
    297       1.0255      1.00000
    298       1.0696      1.00000
    299       1.2688      1.00000
    300       1.2978      1.00000
    301       1.2980      1.00000
    302       1.3111      1.00000
    303       1.3325      1.00000
    304       1.3331      1.00000
    305       1.3374      1.00000
    306       1.3840      1.00000
    307       1.4047      1.00000
    308       1.4279      1.00000
    309       1.4662      1.00000
    310       1.4679      1.00000
    311       1.4682      1.00000
    312       1.4811      1.00000
    313       1.5110      1.00000
    314       1.5112      1.00000
    315       1.5411      1.00000
    316       1.5614      1.00000
    317       1.5772      1.00000
    318       1.6449      1.00000
    319       1.6552      1.00000
    320       1.7549      1.00000
    321       1.7558      1.00000
    322       1.7619      1.00000
    323       1.7778      1.00000
    324       1.8031      1.00000
    325       1.8039      1.00000
    326       1.8117      1.00000
    327       1.8231      1.00000
    328       1.8367      1.00000
    329       1.8369      1.00000
    330       1.8451      1.00000
    331       1.8464      1.00000
    332       1.8792      1.00000
    333       1.8899      1.00000
    334       1.9463      1.00000
    335       1.9931      1.00000
    336       1.9936      1.00000
    337       2.0060      1.00000
    338       2.0061      1.00000
    339       2.0088      1.00000
    340       2.0174      1.00000
    341       2.0194      1.00000
    342       2.0199      1.00000
    343       2.0394      1.00000
    344       2.0450      1.00000
    345       2.0463      1.00000
    346       2.0569      1.00000
    347       2.0680      1.00000
    348       2.0684      1.00000
    349       2.0911      1.00000
    350       2.1128      1.00000
    351       2.1886      1.00000
    352       2.1912      1.00000
    353       2.2473      1.00000
    354       2.2478      1.00000
    355       2.2713      1.00000
    356       2.2731      1.00000
    357       2.2844      1.00000
    358       2.4278      1.00000
    359       2.4663      1.00000
    360       2.4670      1.00000
    361       2.4784      1.00000
    362       2.5042      1.00000
    363       2.5282      1.00000
    364       2.5549      1.00000
    365       2.5925      1.00000
    366       2.6272      1.00000
    367       2.6274      1.00000
    368       2.6557      1.00000
    369       2.7388      1.00000
    370       2.7388      1.00000
    371       2.7612      1.00000
    372       2.7613      1.00000
    373       2.8332      1.00000
    374       2.8723      1.00000
    375       2.9255      1.00000
    376       2.9342      1.00000
    377       2.9343      1.00000
    378       2.9685      1.00000
    379       3.0262      1.00000
    380       3.0273      1.00000
    381       3.0610      1.00000
    382       3.0966      1.00000
    383       3.3084      1.00000
    384       3.3108      1.00000
    385       3.3476      1.00000
    386       3.3745      1.00000
    387       3.4218      1.00000
    388       3.4220      1.00000
    389       3.4391      1.00000
    390       3.4581      1.00000
    391       3.4586      1.00000
    392       3.5309      1.00000
    393       3.7477      1.00000
    394       3.8085      1.00000
    395       3.8094      1.00000
    396       3.8153      1.00000
    397       3.8157      1.00000
    398       3.8832      1.00000
    399       3.8835      1.00000
    400       3.9326      1.00000
    401       3.9356      1.00000
    402       3.9412      1.00000
    403       3.9416      1.00000
    404       4.0396      1.00000
    405       4.0404      1.00000
    406       4.0717      1.00000
    407       4.1389      1.00000
    408       4.1484      1.00000
    409       4.1506      1.00000
    410       4.3154      1.00000
    411       4.3187      1.00000
    412       4.3389      1.00000
    413       4.3590      1.00000
    414       4.3597      1.00000
    415       4.4287      1.00000
    416       4.4452      1.00000
    417       4.4469      1.00000
    418       4.4523      1.00000
    419       4.4552      1.00000
    420       4.4558      1.00000
    421       4.6355      1.00000
    422       4.6356      1.00000
    423       4.7308      1.00000
    424       4.7320      1.00000
    425       4.7626      1.00000
    426       4.7636      1.00000
    427       4.7682      1.00000
    428       4.7688      1.00000
    429       4.8101      1.00000
    430       4.8523      1.00000
    431       4.8531      1.00000
    432       4.8559      1.00000
    433       7.3432      0.00000
    434       8.1272      0.00000
    435       8.4427      0.00000
    436       8.6420      0.00000
    437       8.6425      0.00000
    438       8.8558      0.00000
    439       9.0838      0.00000
    440       9.0848      0.00000
    441       9.2610      0.00000
    442       9.2729      0.00000
    443       9.2871      0.00000
    444       9.2887      0.00000
    445       9.7256      0.00000
    446       9.7718      0.00000
    447       9.7724      0.00000
    448       9.7899      0.00000
    449       9.8540      0.00000
    450       9.8545      0.00000
    451       9.8613      0.00000
    452       9.8808      0.00000
    453       9.8904      0.00000
    454      10.0589      0.00000
    455      10.0826      0.00000
    456      10.1345      0.00000
    457      10.1359      0.00000
    458      10.3067      0.00000
    459      10.3072      0.00000
    460      10.4154      0.00000
    461      10.5262      0.00000
    462      10.5703      0.00000
    463      10.5721      0.00000
    464      10.5725      0.00000
    465      10.5778      0.00000
    466      10.5780      0.00000
    467      10.6760      0.00000
    468      10.9757      0.00000
    469      11.0185      0.00000
    470      11.0189      0.00000
    471      11.0397      0.00000
    472      11.0410      0.00000
    473      11.0775      0.00000
    474      11.1279      0.00000
    475      11.1784      0.00000
[...]
   0.201E-01 -.458E-02 -.259E+02   -.183E-01 0.557E-02 0.256E+02   -.999E-03 -.916E-03 0.250E+00   0.102E-04 0.389E-04 -.119E-04
   -.541E-02 -.232E-02 -.259E+02   0.572E-02 0.303E-02 0.256E+02   -.212E-03 -.606E-03 0.250E+00   0.289E-04 0.811E-06 -.157E-04
   0.383E-02 0.487E-02 -.259E+02   -.338E-02 -.415E-02 0.257E+02   -.308E-03 -.676E-03 0.250E+00   -.106E-04 -.853E-06 -.164E-04
   0.198E+00 0.292E+00 -.418E+02   -.183E+00 -.272E+00 0.418E+02   -.170E-01 -.202E-01 0.797E-02   0.222E-04 0.493E-04 0.131E-04
   0.162E-01 0.986E-02 -.420E+02   -.160E-01 -.871E-02 0.420E+02   -.178E-03 -.117E-02 0.987E-02   -.181E-04 -.274E-04 -.237E-04
   0.428E-02 -.663E-03 -.420E+02   -.418E-02 0.235E-03 0.420E+02   -.171E-03 -.177E-03 0.992E-02   -.378E-04 -.332E-04 -.154E-04
   0.858E-02 0.144E-01 -.420E+02   -.819E-02 -.132E-01 0.420E+02   -.436E-03 -.121E-02 0.104E-01   0.770E-05 0.291E-05 -.166E-04
   0.159E+02 0.149E+02 -.126E+03   -.163E+02 -.153E+02 0.131E+03   0.385E+00 0.377E+00 -.463E+01   -.186E-04 0.535E-04 0.239E-04
   0.159E+02 0.149E+02 -.126E+03   -.163E+02 -.153E+02 0.131E+03   0.387E+00 0.381E+00 -.463E+01   -.400E-04 0.133E-03 -.129E-03
   0.159E+02 0.149E+02 -.126E+03   -.163E+02 -.153E+02 0.131E+03   0.383E+00 0.385E+00 -.463E+01   0.551E-04 0.856E-05 -.444E-04
   0.159E+02 0.149E+02 -.126E+03   -.163E+02 -.153E+02 0.131E+03   0.387E+00 0.379E+00 -.463E+01   -.335E-05 0.743E-04 0.357E-04
   -.163E+02 -.140E+02 -.124E+03   0.167E+02 0.143E+02 0.129E+03   -.378E+00 -.342E+00 -.471E+01   -.364E-03 -.817E-04 0.632E-03
   -.159E+02 -.149E+02 -.126E+03   0.163E+02 0.153E+02 0.131E+03   -.391E+00 -.379E+00 -.463E+01   0.118E-04 -.282E-04 0.596E-04
   -.159E+02 -.149E+02 -.126E+03   0.163E+02 0.153E+02 0.131E+03   -.389E+00 -.379E+00 -.463E+01   0.294E-04 -.131E-04 0.569E-04
   -.159E+02 -.149E+02 -.126E+03   0.163E+02 0.153E+02 0.131E+03   -.390E+00 -.379E+00 -.463E+01   0.227E-04 -.353E-04 0.315E-04
   0.160E+02 -.149E+02 0.126E+03   -.163E+02 0.152E+02 -.131E+03   0.388E+00 -.380E+00 0.463E+01   -.438E-04 -.224E-04 -.392E-04
   0.159E+02 -.149E+02 0.126E+03   -.163E+02 0.152E+02 -.131E+03   0.391E+00 -.380E+00 0.463E+01   -.405E-04 -.245E-04 0.472E-05
   0.160E+02 -.149E+02 0.126E+03   -.163E+02 0.153E+02 -.131E+03   0.388E+00 -.379E+00 0.463E+01   -.658E-04 -.469E-05 -.357E-04
   0.159E+02 -.149E+02 0.126E+03   -.163E+02 0.153E+02 -.131E+03   0.391E+00 -.379E+00 0.463E+01   -.559E-04 -.951E-05 -.233E-04
   -.159E+02 0.149E+02 0.126E+03   0.163E+02 -.153E+02 -.130E+03   -.387E+00 0.380E+00 0.464E+01   0.813E-04 0.170E-04 -.990E-04
   -.159E+02 0.149E+02 0.126E+03   0.163E+02 -.153E+02 -.131E+03   -.388E+00 0.380E+00 0.463E+01   0.273E-04 0.380E-04 -.394E-04
   -.159E+02 0.149E+02 0.126E+03   0.163E+02 -.153E+02 -.131E+03   -.387E+00 0.381E+00 0.463E+01   0.698E-04 0.131E-04 -.119E-04
   -.159E+02 0.149E+02 0.126E+03   0.163E+02 -.153E+02 -.131E+03   -.386E+00 0.380E+00 0.463E+01   0.509E-04 0.176E-04 -.444E-04
   0.280E+02 0.282E+02 0.332E+02   -.284E+02 -.285E+02 -.337E+02   0.350E+00 0.353E+00 0.524E+00   0.397E-04 0.320E-04 -.129E-03
   0.280E+02 0.282E+02 0.333E+02   -.283E+02 -.285E+02 -.338E+02   0.349E+00 0.353E+00 0.522E+00   -.359E-04 0.569E-05 -.487E-04
   0.280E+02 0.282E+02 0.333E+02   -.284E+02 -.285E+02 -.338E+02   0.350E+00 0.353E+00 0.522E+00   -.273E-04 0.223E-05 -.603E-04
   0.280E+02 0.282E+02 0.333E+02   -.284E+02 -.285E+02 -.338E+02   0.351E+00 0.353E+00 0.520E+00   -.428E-04 0.374E-05 -.268E-04
   -.279E+02 -.282E+02 0.333E+02   0.282E+02 0.286E+02 -.338E+02   -.350E+00 -.353E+00 0.521E+00   0.344E-04 -.387E-04 -.414E-04
   -.279E+02 -.282E+02 0.333E+02   0.283E+02 0.286E+02 -.338E+02   -.348E+00 -.354E+00 0.520E+00   0.638E-05 -.475E-04 -.335E-04
   -.279E+02 -.282E+02 0.333E+02   0.282E+02 0.286E+02 -.338E+02   -.350E+00 -.355E+00 0.521E+00   0.462E-04 0.524E-05 -.536E-04
   -.279E+02 -.282E+02 0.333E+02   0.283E+02 0.286E+02 -.338E+02   -.349E+00 -.354E+00 0.520E+00   0.172E-04 0.430E-05 -.396E-04
   0.278E+02 -.282E+02 -.333E+02   -.281E+02 0.286E+02 0.338E+02   0.358E+00 -.355E+00 -.520E+00   -.920E-04 0.638E-05 0.104E-03
   0.282E+02 -.282E+02 -.334E+02   -.285E+02 0.286E+02 0.339E+02   0.329E+00 -.353E+00 -.512E+00   0.867E-04 -.438E-04 0.571E-05
   0.279E+02 -.282E+02 -.333E+02   -.283E+02 0.286E+02 0.338E+02   0.350E+00 -.353E+00 -.519E+00   -.521E-04 -.269E-04 0.421E-04
   0.279E+02 -.282E+02 -.333E+02   -.283E+02 0.286E+02 0.338E+02   0.348E+00 -.354E+00 -.519E+00   -.180E-05 0.102E-06 0.256E-04
   -.280E+02 0.280E+02 -.333E+02   0.284E+02 -.284E+02 0.339E+02   -.350E+00 0.368E+00 -.515E+00   0.458E-04 -.869E-04 0.719E-04
   -.280E+02 0.282E+02 -.333E+02   0.283E+02 -.285E+02 0.339E+02   -.351E+00 0.354E+00 -.519E+00   0.333E-04 -.214E-04 0.357E-04
   -.280E+02 0.284E+02 -.333E+02   0.284E+02 -.287E+02 0.339E+02   -.348E+00 0.340E+00 -.517E+00   -.109E-04 0.105E-03 0.399E-04
   -.280E+02 0.282E+02 -.333E+02   0.283E+02 -.285E+02 0.339E+02   -.351E+00 0.352E+00 -.519E+00   0.501E-04 0.384E-04 0.431E-04
   0.101E+02 0.485E-01 -.885E-01   -.102E+02 -.466E-01 0.845E-01   0.989E-01 -.221E-02 0.954E-02   0.879E-04 -.117E-04 -.240E-04
   0.976E+01 0.458E-01 0.163E-01   -.988E+01 -.471E-01 -.173E-01   0.123E+00 0.105E-02 0.251E-02   -.365E-04 0.442E-04 0.239E-04
   0.991E+01 0.470E-01 -.705E-02   -.100E+02 -.477E-01 0.705E-02   0.114E+00 0.786E-03 0.128E-03   -.824E-05 -.202E-05 -.223E-06
   0.989E+01 0.471E-01 0.174E-02   -.100E+02 -.476E-01 -.147E-02   0.116E+00 0.503E-03 -.395E-03   0.828E-05 -.551E-05 0.261E-05
   -.993E+01 0.224E+00 -.154E-01   0.100E+02 -.218E+00 0.135E-01   -.115E+00 -.113E-01 0.478E-02   -.760E-04 0.715E-04 0.124E-05
   -.989E+01 0.558E-01 0.126E-01   0.100E+02 -.557E-01 -.127E-01   -.115E+00 -.576E-03 -.123E-03   0.108E-04 -.353E-05 -.135E-04
   -.993E+01 -.127E+00 -.148E-01   0.100E+02 0.120E+00 0.121E-01   -.112E+00 0.126E-01 0.616E-02   -.206E-04 -.319E-04 0.474E-05
   -.989E+01 0.384E-01 0.127E-01   0.100E+02 -.393E-01 -.127E-01   -.115E+00 0.121E-02 -.193E-03   0.132E-06 0.217E-04 0.378E-05
   0.189E+02 0.189E+02 0.185E+03   -.178E+02 -.178E+02 -.183E+03   -.106E+01 -.108E+01 -.241E+01   -.132E-03 -.694E-04 0.597E-04
   0.192E+02 0.188E+02 0.185E+03   -.181E+02 -.177E+02 -.183E+03   -.107E+01 -.108E+01 -.241E+01   -.134E-04 -.521E-04 0.947E-04
   0.189E+02 0.190E+02 0.185E+03   -.179E+02 -.179E+02 -.183E+03   -.106E+01 -.109E+01 -.241E+01   -.884E-04 0.340E-04 0.144E-03
   0.191E+02 0.191E+02 0.185E+03   -.181E+02 -.180E+02 -.183E+03   -.106E+01 -.109E+01 -.241E+01   0.347E-04 0.876E-04 -.355E-04
   -.196E+02 -.191E+02 0.182E+03   0.185E+02 0.180E+02 -.180E+03   0.110E+01 0.111E+01 -.223E+01   -.899E-04 -.529E-05 -.293E-03
   -.188E+02 -.189E+02 0.185E+03   0.178E+02 0.178E+02 -.183E+03   0.106E+01 0.109E+01 -.241E+01   0.458E-04 0.846E-05 -.429E-04
   -.189E+02 -.189E+02 0.185E+03   0.179E+02 0.178E+02 -.183E+03   0.107E+01 0.108E+01 -.241E+01   0.713E-06 0.349E-04 -.292E-04
   -.189E+02 -.189E+02 0.185E+03   0.178E+02 0.178E+02 -.183E+03   0.106E+01 0.108E+01 -.241E+01   -.148E-04 0.532E-04 -.271E-05
   0.189E+02 -.190E+02 -.185E+03   -.178E+02 0.179E+02 0.183E+03   -.107E+01 0.109E+01 0.242E+01   0.560E-04 -.112E-04 -.127E-03
   0.189E+02 -.189E+02 -.185E+03   -.178E+02 0.178E+02 0.183E+03   -.106E+01 0.109E+01 0.241E+01   -.166E-04 0.185E-05 0.103E-03
   0.189E+02 -.188E+02 -.185E+03   -.178E+02 0.177E+02 0.183E+03   -.107E+01 0.108E+01 0.241E+01   0.251E-04 0.558E-04 -.129E-03
   0.189E+02 -.189E+02 -.185E+03   -.178E+02 0.178E+02 0.183E+03   -.106E+01 0.108E+01 0.241E+01   -.818E-05 0.822E-04 -.160E-05
   -.189E+02 0.189E+02 -.185E+03   0.178E+02 -.179E+02 0.183E+03   0.106E+01 -.109E+01 0.242E+01   0.399E-04 0.169E-04 -.565E-04
   -.191E+02 0.189E+02 -.185E+03   0.181E+02 -.179E+02 0.183E+03   0.106E+01 -.108E+01 0.241E+01   -.638E-04 0.727E-04 -.562E-04
   -.190E+02 0.189E+02 -.185E+03   0.179E+02 -.179E+02 0.183E+03   0.106E+01 -.108E+01 0.241E+01   0.927E-04 0.183E-04 -.277E-04
   -.190E+02 0.189E+02 -.185E+03   0.180E+02 -.179E+02 0.183E+03   0.106E+01 -.108E+01 0.241E+01   -.178E-05 -.608E-05 0.208E-04
   0.906E-01 -.994E-01 0.209E+03   -.870E-01 0.896E-01 -.211E+03   -.330E-02 0.867E-02 0.207E+01   0.102E-04 0.673E-04 -.174E-04
   -.137E+00 -.193E+00 0.209E+03   0.133E+00 0.192E+00 -.211E+03   0.364E-02 0.124E-02 0.207E+01   -.122E-04 -.493E-04 -.529E-04
   0.401E-01 -.572E-01 0.209E+03   -.407E-01 0.552E-01 -.211E+03   0.533E-03 0.206E-02 0.207E+01   0.308E-04 -.266E-05 -.652E-04
   -.163E-01 -.184E-01 0.209E+03   0.936E-02 0.193E-01 -.211E+03   0.602E-02 -.386E-03 0.207E+01   -.914E-04 -.173E-03 0.314E-04
   0.162E+00 0.958E-01 0.199E+03   -.160E+00 -.952E-01 -.201E+03   -.776E-03 -.249E-03 0.207E+01   0.893E-04 0.159E-04 -.174E-03
   -.294E-01 -.342E-01 0.199E+03   0.272E-01 0.358E-01 -.201E+03   0.194E-02 -.118E-02 0.207E+01   0.144E-03 0.418E-04 -.119E-03
   0.560E-01 -.112E+00 0.199E+03   -.481E-01 0.106E+00 -.201E+03   -.660E-02 0.539E-02 0.207E+01   0.353E-04 0.603E-04 -.933E-04
   0.467E-02 -.645E-01 0.199E+03   -.561E-02 0.617E-01 -.201E+03   0.736E-03 0.254E-02 0.206E+01   0.424E-04 0.359E-04 -.135E-03
   0.835E+00 -.132E+01 -.198E+03   -.784E+00 0.125E+01 0.200E+03   -.600E-01 0.722E-01 -.208E+01   -.865E-04 -.456E-04 0.189E-03
   0.243E-01 -.379E-01 -.199E+03   -.248E-01 0.364E-01 0.201E+03   0.459E-03 0.161E-02 -.207E+01   0.656E-05 0.586E-04 0.169E-03
   -.285E-01 0.877E-02 -.199E+03   0.286E-01 -.792E-02 0.201E+03   -.154E-03 -.456E-03 -.207E+01   -.104E-03 0.466E-04 0.156E-03
   -.100E-01 -.596E-01 -.199E+03   0.104E-01 0.571E-01 0.201E+03   -.353E-03 0.235E-02 -.206E+01   -.996E-04 0.765E-04 0.883E-04
   -.504E+00 0.276E-01 -.207E+03   0.479E+00 -.159E-01 0.210E+03   0.203E-01 -.827E-02 -.210E+01   -.110E-03 0.105E-04 0.203E-03
   0.989E-01 -.290E-01 -.209E+03   -.931E-01 0.289E-01 0.211E+03   -.483E-02 0.374E-03 -.207E+01   0.360E-04 -.870E-04 0.474E-04
   -.519E-01 -.782E-01 -.209E+03   0.504E-01 0.730E-01 0.211E+03   0.127E-02 0.479E-02 -.207E+01   0.504E-04 0.511E-04 0.646E-04
   0.889E-02 -.918E-01 -.209E+03   -.506E-02 0.863E-01 0.211E+03   -.317E-02 0.485E-02 -.206E+01   0.701E-04 -.828E-04 -.687E-05
 -----------------------------------------------------------------------------------------------
   0.504E-01 -.127E+00 -.128E+00   -.141E-12 0.294E-13 0.568E-13   -.502E-01 0.126E+00 0.128E+00   -.272E-03 0.576E-03 0.329E-03
 
 
 POSITION                                       TOTAL-FORCE (eV/Angst)
 -----------------------------------------------------------------------------------
      2.77841      5.21785      1.58925         0.000386     -0.000087     -0.001704
      8.33453      5.21785      1.58910        -0.000019     -0.000206     -0.000571
      2.77841     10.77658      1.58925         0.000641      0.000202     -0.000741
      8.33453     10.77658      1.58910        -0.000034      0.000057     -0.000257
      0.00058      2.43861      1.89560         0.000083      0.000446     -0.001244
      5.55670      2.43861      1.89545        -0.000306      0.000040     -0.000867
      0.00058      7.99734      1.89560        -0.000069     -0.000097     -0.000314
      5.55670      7.99734      1.89545        -0.000557     -0.000225     -0.000802
      2.78043      5.21797      8.30298        -0.003480     -0.001934      0.004322
      8.33655      5.21797      8.30283         0.000812      0.000129      0.000981
      2.78043     10.77670      8.30298         0.000121      0.000121      0.000986
      8.33655     10.77670      8.30283         0.000133      0.000060      0.000323
      0.00259      2.43849      8.60933        -0.002271     -0.000602      0.005667
      5.55871      2.43849      8.60919        -0.000066     -0.000032      0.000920
      0.00259      7.99722      8.60933        -0.000109     -0.000625      0.000917
      5.55871      7.99722      8.60919        -0.000042      0.000028      0.000348
     -1.37640      1.05960      8.18451        -0.000214     -0.000835     -0.001716
      4.17971      1.05960      8.18437         0.000087      0.000424     -0.001765
     -1.37640      6.61833      8.18451        -0.001356      0.001890     -0.002186
      4.17971      6.61833      8.18437         0.000267     -0.000397     -0.001268
      1.37853      3.81753      8.19407         0.025718     -0.012980     -0.096535
      6.93728      3.81753      8.18427        -0.000807      0.000066     -0.002261
      1.38116      9.37626      8.18442        -0.000193      0.000177     -0.002289
      6.93728      9.37626      8.18427        -0.000284      0.000150     -0.000714
      1.39985      1.03817      2.01416        -0.000220     -0.000336      0.001648
      6.95597      1.03817      2.01401         0.000486      0.000057      0.000945
      1.39985      6.59689      2.01416        -0.000127      0.000031      0.001673
      6.95597      6.59689      2.01401         0.000672      0.000207      0.000995
      4.15741      3.83897      2.01406        -0.000398     -0.000095      0.002840
      9.71353      3.83897      2.01392        -0.000506     -0.000072      0.001945
      4.15741      9.39769      2.01406        -0.000307      0.000149      0.001685
      9.71353      9.39769      2.01392        -0.000030      0.000051      0.000508
      1.40044      3.83812      3.78391         0.000040     -0.000303      0.003839
      6.95656      3.83812      3.78377        -0.000568     -0.000155      0.001753
      1.40044      9.39685      3.78391        -0.000165      0.000005      0.001563
      6.95656      9.39685      3.78377         0.000058     -0.000097      0.000560
      4.15774      1.03891      3.78384        -0.000261      0.000506      0.001333
      9.71386      1.03891      3.78369         0.000407      0.000190      0.000735
      4.15774      6.59764      3.78384        -0.000192     -0.000288      0.001323
      9.71386      6.59764      3.78369         0.000325      0.000024      0.000696
     -1.37674      3.81828      6.41474         0.005132     -0.000343     -0.000868
      4.17938      3.81828      6.41460        -0.009593      0.000300      0.003335
     -1.37674      9.37700      6.41474         0.000520      0.000302     -0.000533
      4.17938      9.37700      6.41460        -0.000528      0.000192     -0.000320
      1.38057      1.05876      6.41466         0.000334      0.007610      0.001963
      6.93668      1.05876      6.41452        -0.000162      0.000467     -0.000301
      1.38057      6.61748      6.41466         0.000827     -0.007028      0.000803
      6.93668      6.61748      6.41452        -0.000228     -0.000601     -0.000333
      1.38227      3.82822      0.00001        -0.007161     -0.000343      0.005495
      6.93839      3.82822     -0.00014         0.003620     -0.000134      0.001625
      1.38227      9.38694      0.00001        -0.000408      0.000132      0.000133
      6.93839      9.38694     -0.00014         0.000422      0.000012     -0.000125
      1.39874      1.04885     10.19857         0.000353     -0.005162      0.002842
      6.95485      1.04885     10.19843        -0.000140     -0.000403     -0.000183
      1.39874      6.60758     10.19857         0.000597      0.005456      0.003482
      6.95485      6.60758     10.19843        -0.000228      0.000315     -0.000155
     -1.25763      1.18232      6.18371        -0.001219     -0.000398      0.000511
      4.29848      1.18232      6.18356         0.000423     -0.001112      0.000032
     -1.25763      6.74104      6.18371        -0.000870      0.000178      0.001126
      4.29848      6.74104      6.18356         0.000192      0.000834      0.000041
      1.26131      3.69462      6.18369         0.001441      0.003369      0.055772
      6.81742      3.69462      6.18354         0.001621     -0.000159      0.000485
      1.26131      9.25335      6.18369         0.000063      0.000044      0.000547
      6.81742      9.25335      6.18354         0.000237     -0.000071      0.000149
      1.51970      0.91526      4.01489        -0.000096     -0.000307     -0.002105
      7.07582      0.91526      4.01474        -0.000245     -0.000176     -0.000626
      1.51970      6.47399      4.01489        -0.000106      0.000674     -0.001673
      7.07582      6.47399      4.01474        -0.000271      0.000166     -0.000562
      4.03864      3.96168      4.01487         0.000840      0.000188     -0.002938
      9.59476      3.96168      4.01472        -0.000145      0.000015     -0.001239
      4.03864      9.52041      4.01487         0.000527     -0.000075     -0.000808
      9.59476      9.52041      4.01472         0.000085     -0.000020     -0.000309
      0.00035      5.21813      1.57032         0.000350     -0.001002     -0.002195
      5.55647      5.21813      1.57017        -0.000848      0.000078     -0.002008
      0.00035     10.77686      1.57032        -0.000047      0.000106     -0.000526
      5.55647     10.77686      1.57017        -0.001050      0.000289     -0.001261
      2.77849      2.43869      1.57537         0.000576      0.000406     -0.003004
      8.33461      2.43869      1.57522        -0.000149      0.000506     -0.001145
      2.77849      7.99742      1.57537         0.001394     -0.000556     -0.001638
      8.33461      7.99742      1.57522        -0.000159     -0.000201     -0.000480
      0.00252      5.21805      8.62321        -0.009369      0.007623      0.009779
      5.55864      5.21805      8.62307        -0.000006      0.000216      0.001654
      0.00252     10.77678      8.62321        -0.000235      0.000452      0.001788
      5.55864     10.77678      8.62307        -0.000041     -0.000105      0.000645
      2.78066      2.43877      8.62826        -0.005410      0.003492      0.005956
      8.33677      2.43877      8.62811         0.000988      0.000244      0.001836
      2.78066      7.99750      8.62826        -0.000201     -0.000411      0.001772
      8.33677      7.99750      8.62811         0.000718     -0.000709      0.000294
 -----------------------------------------------------------------------------------
    total drift:                                0.000017     -0.001176     -0.000093


--------------------------------------------------------------------------------------------------------



  FREE ENERGIE OF THE ION-ELECTRON SYSTEM (eV)
  ---------------------------------------------------
  free  energy   TOTEN  =      -489.21493620 eV

  energy  without entropy=     -489.21493620  energy(sigma->0) =     -489.21493620
 


--------------------------------------------------------------------------------------------------------


    POTLOK:  cpu time    3.3794: real time    3.4387


--------------------------------------------------------------------------------------------------------


     LOOP+:  cpu time 6433.9966: real time 6502.6467
    4ORBIT:  cpu time    0.0000: real time    0.0000

 total amount of memory used by VASP MPI-rank0  1233264. kBytes
=======================================================================

   base      :      30000. kBytes
   nonl-proj :      75226. kBytes
   fftplans  :      85054. kBytes
   grid      :      64684. kBytes
   one-center:        466. kBytes
   wavefun   :     977834. kBytes
 
  
  
 General timing and accounting informations for this job:
 ========================================================
  
                  Total CPU time used (sec):     6531.647
                            User time (sec):     6462.961
                          System time (sec):       68.686
                         Elapsed time (sec):     6616.120
  
                   Maximum memory used (kb):     1437172.
                   Average memory used (kb):           0.
  
                          Minor page faults:       481593
                          Major page faults:           11
                 Voluntary context switches:        63778
