<?xml version="1.0" encoding="ISO-8859-1"?>
<modeling>
 <generator>
  <i name="program" type="string">vasp </i>
  <i name="version" type="string">5.4.4.18Apr17-6-g9f103f2a35  </i>
  <i name="subversion" type="string">(build Oct 25 2017 14:42:18) complex            parallel </i>
  <i name="platform" type="string">LinuxIFC </i>
  <i name="date" type="string">2021 06 02 </i>
  <i name="time" type="string">16:00:58 </i>
 </generator>
 <incar>
  <i type="string" name="PREC">accurate</i>
  <i type="string" name="ALGO"> normal</i>
  <i type="logical" name="ADDGRID"> T  </i>
  <i type="int" name="ISPIN">     2</i>
  <i type="int" name="ICHARG">     1</i>
  <i type="int" name="NELM">   200</i>
  <i type="int" name="NELMIN">     8</i>
  <i name="EDIFF">      0.00000100</i>
  <i type="int" name="ISYM">     0</i>
  <i name="ENCUT">    650.00000000</i>
  <v name="MAGMOM">      0.60000000      0.60000000      0.60000000      0.60000000      0.60000000      0.60000000      0.60000000      0.60000000      0.60000000      0.60000000      0.60000000      0.60000000      0.60000000      0.60000000      0.60000000      0.60000000      0.60000000      0.60000000      0.60000000      0.60000000
      0.60000000      0.60000000      0.60000000      0.60000000      0.60000000      0.60000000      0.60000000      0.60000000      0.60000000      0.60000000      0.60000000      0.60000000      0.60000000      0.60000000      0.60000000      0.60000000      0.60000000      0.60000000      0.60000000      0.60000000
      0.60000000      0.60000000      0.60000000      0.60000000      0.60000000      0.60000000      0.60000000      0.60000000      0.60000000      0.60000000      0.60000000      0.60000000      0.60000000      0.60000000      0.60000000      0.60000000      5.00000000      5.00000000      5.00000000      5.00000000
      5.00000000      5.00000000      5.00000000      5.00000000      5.00000000      5.00000000      5.00000000      5.00000000      5.00000000      5.00000000      5.00000000      5.00000000      5.00000000      5.00000000      5.00000000      5.00000000      5.00000000      5.00000000      5.00000000      5.00000000
      5.00000000      5.00000000      5.00000000      5.00000000      5.00000000      5.00000000      5.00000000      5.00000000</v>
  <i type="logical" name="LREAL"> F  </i>
  <i type="int" name="ISMEAR">     0</i>
  <i name="SIGMA">      0.05000000</i>
  <i type="int" name="NWRITE">     1</i>
  <i type="int" name="LMAXMIX">     4</i>
  <i type="logical" name="LWAVE"> F  </i>
  <i type="logical" name="LASPH"> T  </i>
  <v type="int" name="KPOINT_BSE">    -1     0     0     0</v>
  <i type="int" name="NELM">   200</i>
  <i type="string" name="GGA"> pe</i>
  <i type="logical" name="LDAU"> T  </i>
  <v type="int" name="LDAUTYPE">     2</v>
  <v type="int" name="LDAUL">    -1    -1    -1     2</v>
  <v name="LDAUU">      0.00000000      0.00000000      0.00000000      4.00000000</v>
  <v name="LDAUJ">      0.00000000      0.00000000      0.00000000      0.00000000</v>
  <i type="logical" name="LASPH"> T  </i>
 </incar>
 <structure name="primitive_cell" >
  <crystal>
   <varray name="basis" >
    <v>      11.11223374       0.00000000      -0.00029034 </v>
    <v>       0.00000000      11.11745194       0.00000000 </v>
    <v>      -2.77510898       0.00000000      10.19872221 </v>
   </varray>
   <i name="volume">   1259.93837498 </i>
   <varray name="rec_basis" >
    <v>       0.08999155       0.00000000       0.02448702 </v>
    <v>       0.00000000       0.08994867       0.00000000 </v>
    <v>       0.00000256       0.00000000       0.09805220 </v>
   </varray>
  </crystal>
  <varray name="positions" >
   <v>       0.28894970       0.46933910       0.15583616 </v>
   <v>       0.17529533      -0.40661825       0.19749617 </v>
   <v>       0.42345029       0.34530995       0.19749407 </v>
   <v>       0.37560721      -0.40565694      -0.00000412 </v>
   <v>       0.12439279       0.34434306       0.00000412 </v>
   <v>      -0.46151602       0.46936404       0.15397331 </v>
   <v>       0.03848398       0.46936404       0.15397331 </v>
   <v>       0.28861657       0.21935690       0.15447525 </v>
   <v>       0.28861657      -0.28064310       0.15447525 </v>
   <v>       0.21868463       0.34523395       0.37102476 </v>
   <v>       0.46681660      -0.40655103       0.37102399 </v>
   <v>       0.23507288      -0.41767349       0.39367237 </v>
   <v>       0.46175575       0.35634799       0.39367694 </v>
   <v>       0.21138343       0.46935690      -0.15447525 </v>
   <v>       0.04646972       0.21934976       0.18586770 </v>
   <v>       0.04646972      -0.28065024       0.18586770 </v>
   <v>      -0.45353028       0.21934976       0.18586770 </v>
   <v>      -0.45353028      -0.28065024       0.18586770 </v>
   <v>       0.32470467       0.34338175      -0.19655005 </v>
   <v>       0.07654971      -0.40469005      -0.19749407 </v>
   <v>       0.21105030       0.21933910      -0.15583616 </v>
   <v>       0.21105030      -0.28066090      -0.15583616 </v>
   <v>      -0.07654971       0.34530995       0.19749407 </v>
   <v>      -0.32470467      -0.40661825       0.19749617 </v>
   <v>       0.17529533       0.09338175       0.19749617 </v>
   <v>       0.42345029      -0.15469005       0.19749407 </v>
   <v>       0.45353028       0.46934976      -0.18586770 </v>
   <v>      -0.04646972       0.46934976      -0.18586770 </v>
   <v>      -0.37560721       0.34434306       0.00000412 </v>
   <v>      -0.12439279      -0.40565694      -0.00000412 </v>
   <v>       0.37560721       0.09434306      -0.00000412 </v>
   <v>       0.12439279      -0.15565694       0.00000412 </v>
   <v>      -0.03318340      -0.40655103       0.37102399 </v>
   <v>      -0.28131537       0.34523395       0.37102476 </v>
   <v>       0.21868463      -0.15476605       0.37102476 </v>
   <v>       0.46681660       0.09344897       0.37102399 </v>
   <v>       0.46151602       0.21936404      -0.15397331 </v>
   <v>       0.46151602      -0.28063596      -0.15397331 </v>
   <v>      -0.03848398       0.21936404      -0.15397331 </v>
   <v>      -0.03848398      -0.28063596      -0.15397331 </v>
   <v>       0.26492712       0.33232651      -0.39367237 </v>
   <v>      -0.46175575      -0.39365201      -0.39367694 </v>
   <v>      -0.03824425       0.35634799       0.39367694 </v>
   <v>      -0.26492712      -0.41767349       0.39367237 </v>
   <v>       0.23507288       0.08232651       0.39367237 </v>
   <v>       0.46175575      -0.14365201       0.39367694 </v>
   <v>       0.28131537      -0.40476605      -0.37102476 </v>
   <v>      -0.46681660       0.34344897      -0.37102399 </v>
   <v>      -0.21105030       0.46933910       0.15583616 </v>
   <v>       0.28894970      -0.03066090       0.15583616 </v>
   <v>       0.32470467      -0.15661825      -0.19749617 </v>
   <v>       0.07654971       0.09530995      -0.19749407 </v>
   <v>      -0.42345029      -0.40469005      -0.19749407 </v>
   <v>      -0.17529533       0.34338175      -0.19749617 </v>
   <v>       0.03318340       0.34344897      -0.37102399 </v>
   <v>      -0.07654971      -0.15469005       0.19749407 </v>
   <v>      -0.32470467       0.09338175       0.19749617 </v>
   <v>       0.03824425      -0.39365201      -0.39367694 </v>
   <v>      -0.37560721      -0.15565694       0.00000412 </v>
   <v>      -0.12439279       0.09434306      -0.00000412 </v>
   <v>      -0.21138343       0.21935690       0.15447525 </v>
   <v>      -0.21138343      -0.28064310       0.15447525 </v>
   <v>      -0.46151602      -0.03063596       0.15397331 </v>
   <v>       0.03848398      -0.03063596       0.15397331 </v>
   <v>       0.26492712      -0.16767349      -0.39367237 </v>
   <v>      -0.46175575       0.10634799      -0.39367694 </v>
   <v>      -0.03318340       0.09344897       0.37102399 </v>
   <v>      -0.28131537      -0.15476605       0.37102476 </v>
   <v>      -0.23507288       0.33232651      -0.39367237 </v>
   <v>      -0.28861657       0.46935690      -0.15447525 </v>
   <v>       0.21138343      -0.03064310      -0.15447525 </v>
   <v>      -0.21868463      -0.40476605      -0.37102476 </v>
   <v>       0.28131537       0.09523395      -0.37102476 </v>
   <v>      -0.46681660      -0.15655103      -0.37102399 </v>
   <v>      -0.03824425      -0.14365201       0.39367694 </v>
   <v>      -0.26492712       0.08232651       0.39367237 </v>
   <v>      -0.42345029       0.09530995      -0.19749407 </v>
   <v>      -0.17529533      -0.15661825      -0.19749617 </v>
   <v>       0.03318340      -0.15655103      -0.37102399 </v>
   <v>      -0.28894970       0.21933910      -0.15583616 </v>
   <v>      -0.28894970      -0.28066090      -0.15583616 </v>
   <v>       0.03824425       0.10634799      -0.39367694 </v>
   <v>       0.45353028      -0.03065024      -0.18586770 </v>
   <v>      -0.04646972      -0.03065024      -0.18586770 </v>
   <v>      -0.23507288      -0.16767349      -0.39367237 </v>
   <v>      -0.21868463       0.09523395      -0.37102476 </v>
   <v>      -0.21105030      -0.03066090       0.15583616 </v>
   <v>      -0.28861657      -0.03064310      -0.15447525 </v>
  </varray>
 </structure>
 <varray name="primitive_index" >
  <v type="int" >        1 </v>
  <v type="int" >       27 </v>
  <v type="int" >       29 </v>
  <v type="int" >       55 </v>
  <v type="int" >       49 </v>
  <v type="int" >       74 </v>
  <v type="int" >       73 </v>
  <v type="int" >       77 </v>
  <v type="int" >       79 </v>
  <v type="int" >       33 </v>
  <v type="int" >       39 </v>
  <v type="int" >       67 </v>
  <v type="int" >       69 </v>
  <v type="int" >       81 </v>
  <v type="int" >        5 </v>
  <v type="int" >        7 </v>
  <v type="int" >        6 </v>
  <v type="int" >        8 </v>
  <v type="int" >       21 </v>
  <v type="int" >       19 </v>
  <v type="int" >       13 </v>
  <v type="int" >       15 </v>
  <v type="int" >       30 </v>
  <v type="int" >       28 </v>
  <v type="int" >       25 </v>
  <v type="int" >       31 </v>
  <v type="int" >        9 </v>
  <v type="int" >       10 </v>
  <v type="int" >       50 </v>
  <v type="int" >       56 </v>
  <v type="int" >       53 </v>
  <v type="int" >       51 </v>
  <v type="int" >       40 </v>
  <v type="int" >       34 </v>
  <v type="int" >       35 </v>
  <v type="int" >       37 </v>
  <v type="int" >       85 </v>
  <v type="int" >       87 </v>
  <v type="int" >       86 </v>
  <v type="int" >       88 </v>
  <v type="int" >       61 </v>
  <v type="int" >       60 </v>
  <v type="int" >       70 </v>
  <v type="int" >       68 </v>
  <v type="int" >       65 </v>
  <v type="int" >       71 </v>
  <v type="int" >       47 </v>
  <v type="int" >       42 </v>
  <v type="int" >        2 </v>
  <v type="int" >        3 </v>
  <v type="int" >       23 </v>
  <v type="int" >       17 </v>
  <v type="int" >       20 </v>
  <v type="int" >       22 </v>
  <v type="int" >       41 </v>
  <v type="int" >       32 </v>
  <v type="int" >       26 </v>
  <v type="int" >       59 </v>
  <v type="int" >       52 </v>
  <v type="int" >       54 </v>
  <v type="int" >       78 </v>
  <v type="int" >       80 </v>
  <v type="int" >       76 </v>
  <v type="int" >       75 </v>
  <v type="int" >       63 </v>
  <v type="int" >       58 </v>
  <v type="int" >       38 </v>
  <v type="int" >       36 </v>
  <v type="int" >       62 </v>
  <v type="int" >       82 </v>
  <v type="int" >       83 </v>
  <v type="int" >       48 </v>
  <v type="int" >       45 </v>
  <v type="int" >       44 </v>
  <v type="int" >       72 </v>
  <v type="int" >       66 </v>
  <v type="int" >       18 </v>
  <v type="int" >       24 </v>
  <v type="int" >       43 </v>
  <v type="int" >       14 </v>
  <v type="int" >       16 </v>
  <v type="int" >       57 </v>
  <v type="int" >       11 </v>
  <v type="int" >       12 </v>
  <v type="int" >       64 </v>
  <v type="int" >       46 </v>
  <v type="int" >        4 </v>
  <v type="int" >       84 </v>
 </varray>
 <kpoints>
  <generation param="Gamma">
   <v type="int" name="divisions">       3        3        3 </v>
   <v name="usershift">      0.00000000       0.00000000       0.00000000 </v>
   <v name="genvec1">      0.33333333       0.00000000       0.00000000 </v>
   <v name="genvec2">      0.00000000       0.33333333       0.00000000 </v>
   <v name="genvec3">      0.00000000       0.00000000       0.33333333 </v>
   <v name="shift">      0.00000000       0.00000000       0.00000000 </v>
  </generation>
  <varray name="kpointlist" >
   <v>       0.00000000       0.00000000       0.00000000 </v>
   <v>       0.33333333       0.00000000       0.00000000 </v>
   <v>       0.00000000       0.33333333       0.00000000 </v>
   <v>       0.33333333       0.33333333       0.00000000 </v>
   <v>      -0.33333333       0.33333333      -0.00000000 </v>
   <v>       0.00000000       0.00000000       0.33333333 </v>
   <v>       0.33333333       0.00000000       0.33333333 </v>
   <v>      -0.33333333       0.00000000       0.33333333 </v>
   <v>       0.00000000       0.33333333       0.33333333 </v>
   <v>       0.33333333       0.33333333       0.33333333 </v>
   <v>      -0.33333333       0.33333333       0.33333333 </v>
   <v>       0.00000000      -0.33333333       0.33333333 </v>
   <v>       0.33333333      -0.33333333       0.33333333 </v>
   <v>      -0.33333333      -0.33333333       0.33333333 </v>
  </varray>
  <varray name="weights" >
   <v>       0.03703704 </v>
   <v>       0.07407407 </v>
   <v>       0.07407407 </v>
   <v>       0.07407407 </v>
   <v>       0.07407407 </v>
   <v>       0.07407407 </v>
   <v>       0.07407407 </v>
   <v>       0.07407407 </v>
   <v>       0.07407407 </v>
   <v>       0.07407407 </v>
   <v>       0.07407407 </v>
   <v>       0.07407407 </v>
   <v>       0.07407407 </v>
   <v>       0.07407407 </v>
  </varray>
 </kpoints>
 <parameters>
  <separator name="general" >
   <i type="string" name="SYSTEM">unknown system</i>
   <i type="logical" name="LCOMPAT"> F  </i>
  </separator>
  <separator name="electronic" >
   <i type="string" name="PREC">accura</i>
   <i name="ENMAX">    650.00000000</i>
   <i name="ENAUG">    628.94500000</i>
   <i name="EDIFF">      0.00000100</i>
   <i type="int" name="IALGO">    38</i>
   <i type="int" name="IWAVPR">    10</i>
   <i type="int" name="NBANDS">   538</i>
   <i name="NELECT">    736.00000000</i>
   <i type="int" name="TURBO">     0</i>
   <i type="int" name="IRESTART">     0</i>
   <i type="int" name="NREBOOT">     0</i>
   <i type="int" name="NMIN">     0</i>
   <i name="EREF">      0.00000000</i>
   <separator name="electronic smearing" >
    <i type="int" name="ISMEAR">     0</i>
    <i name="SIGMA">      0.05000000</i>
    <i name="KSPACING">      0.50000000</i>
    <i type="logical" name="KGAMMA"> T  </i>
   </separator>
   <separator name="electronic projectors" >
    <i type="logical" name="LREAL"> F  </i>
    <v name="ROPT">      0.00000000      0.00000000      0.00000000      0.00000000</v>
    <i type="int" name="LMAXPAW">  -100</i>
    <i type="int" name="LMAXMIX">     4</i>
    <i type="logical" name="NLSPLINE"> F  </i>
   </separator>
   <separator name="electronic startup" >
    <i type="int" name="ISTART">     0</i>
    <i type="int" name="ICHARG">     1</i>
    <i type="int" name="INIWAV">     1</i>
   </separator>
   <separator name="electronic spin" >
    <i type="int" name="ISPIN">     2</i>
    <i type="logical" name="LNONCOLLINEAR"> F  </i>
    <v name="MAGMOM">      0.60000000      0.60000000      0.60000000      0.60000000      0.60000000      0.60000000      0.60000000      0.60000000      0.60000000      0.60000000      0.60000000      0.60000000      0.60000000      0.60000000      0.60000000      0.60000000      0.60000000      0.60000000      0.60000000      0.60000000
      0.60000000      0.60000000      0.60000000      0.60000000      0.60000000      0.60000000      0.60000000      0.60000000      0.60000000      0.60000000      0.60000000      0.60000000      0.60000000      0.60000000      0.60000000      0.60000000      0.60000000      0.60000000      0.60000000      0.60000000
      0.60000000      0.60000000      0.60000000      0.60000000      0.60000000      0.60000000      0.60000000      0.60000000      0.60000000      0.60000000      0.60000000      0.60000000      0.60000000      0.60000000      0.60000000      0.60000000      5.00000000      5.00000000      5.00000000      5.00000000
      5.00000000      5.00000000      5.00000000      5.00000000      5.00000000      5.00000000      5.00000000      5.00000000      5.00000000      5.00000000      5.00000000      5.00000000      5.00000000      5.00000000      5.00000000      5.00000000      5.00000000      5.00000000      5.00000000      5.00000000
      5.00000000      5.00000000      5.00000000      5.00000000      5.00000000      5.00000000      5.00000000      5.00000000</v>
    <i name="NUPDOWN">     -1.00000000</i>
    <i type="logical" name="LSORBIT"> F  </i>
    <v name="SAXIS">      0.00000000      0.00000000      1.00000000</v>
    <i type="logical" name="LSPIRAL"> F  </i>
    <v name="QSPIRAL">      0.00000000      0.00000000      0.00000000</v>
    <i type="logical" name="LZEROZ"> F  </i>
   </separator>
   <separator name="electronic exchange-correlation" >
    <i type="logical" name="LASPH"> T  </i>
    <i type="logical" name="LMETAGGA"> F  </i>
   </separator>
   <separator name="electronic convergence" >
    <i type="int" name="NELM">   200</i>
    <i type="int" name="NELMDL">     0</i>
    <i type="int" name="NELMIN">     8</i>
    <i name="ENINI">    650.00000000</i>
    <separator name="electronic convergence detail" >
     <i type="logical" name="LDIAG"> T  </i>
     <i type="logical" name="LSUBROT"> F  </i>
     <i name="WEIMIN">      0.00000000</i>
     <i name="EBREAK">      0.00000000</i>
     <i name="DEPER">      0.30000000</i>
     <i type="int" name="NRMM">     4</i>
     <i name="TIME">      0.40000000</i>
    </separator>
   </separator>
   <separator name="electronic mixer" >
    <i name="AMIX">      0.40000000</i>
    <i name="BMIX">      1.00000000</i>
    <i name="AMIN">      0.10000000</i>
    <i name="AMIX_MAG">      1.60000000</i>
    <i name="BMIX_MAG">      1.00000000</i>
    <separator name="electronic mixer details" >
     <i type="int" name="IMIX">     4</i>
     <i type="logical" name="MIXFIRST"> F  </i>
     <i type="int" name="MAXMIX">   -45</i>
     <i name="WC">    100.00000000</i>
     <i type="int" name="INIMIX">     1</i>
     <i type="int" name="MIXPRE">     1</i>
     <i type="int" name="MREMOVE">     5</i>
    </separator>
   </separator>
   <separator name="electronic dipolcorrection" >
    <i type="logical" name="LDIPOL"> F  </i>
    <i type="logical" name="LMONO"> F  </i>
    <i type="int" name="IDIPOL">     0</i>
    <i name="EPSILON">      1.00000000</i>
    <v name="DIPOL">   -100.00000000   -100.00000000   -100.00000000</v>
    <i name="EFIELD">      0.00000000</i>
   </separator>
  </separator>
  <separator name="grids" >
   <i type="int" name="NGX">    96</i>
   <i type="int" name="NGY">    96</i>
   <i type="int" name="NGZ">    90</i>
   <i type="int" name="NGXF">   192</i>
   <i type="int" name="NGYF">   192</i>
   <i type="int" name="NGZF">   180</i>
   <i type="logical" name="ADDGRID"> T  </i>
  </separator>
  <separator name="ionic" >
   <i type="int" name="NSW">     0</i>
   <i type="int" name="IBRION">    -1</i>
   <i type="int" name="MDALGO">     0</i>
   <i type="int" name="ISIF">     2</i>
   <i name="PSTRESS">      0.00000000</i>
   <i name="EDIFFG">      0.00001000</i>
   <i type="int" name="NFREE">     0</i>
   <i name="POTIM">      0.50000000</i>
   <i name="SMASS">     -3.00000000</i>
   <i name="SCALEE">      1.00000000</i>
  </separator>
  <separator name="ionic md" >
   <i name="TEBEG">      0.00010000</i>
   <i name="TEEND">      0.00010000</i>
   <i type="int" name="NBLOCK">     1</i>
   <i type="int" name="KBLOCK">     1</i>
   <i type="int" name="NPACO">   256</i>
   <i name="APACO">     16.00000000</i>
  </separator>
  <separator name="symmetry" >
   <i type="int" name="ISYM">     0</i>
   <i name="SYMPREC">      0.00001000</i>
  </separator>
  <separator name="dos" >
   <i type="int" name="LORBIT">     0</i>
   <v name="RWIGS">     -1.00000000     -1.00000000     -1.00000000     -1.00000000</v>
   <i type="int" name="NEDOS">   301</i>
   <i name="EMIN">     10.00000000</i>
   <i name="EMAX">    -10.00000000</i>
   <i name="EFERMI">      0.00000000</i>
  </separator>
  <separator name="writing" >
   <i type="int" name="NWRITE">     1</i>
   <i type="logical" name="LWAVE"> F  </i>
   <i type="logical" name="LDOWNSAMPLE"> F  </i>
   <i type="logical" name="LCHARG"> T  </i>
   <i type="logical" name="LPARD"> F  </i>
   <i type="logical" name="LVTOT"> F  </i>
   <i type="logical" name="LVHAR"> F  </i>
   <i type="logical" name="LELF"> F  </i>
   <i type="logical" name="LOPTICS"> F  </i>
   <v name="STM">      0.00000000      0.00000000      0.00000000      0.00000000      0.00000000      0.00000000      0.00000000</v>
  </separator>
  <separator name="performance" >
   <i type="int" name="NPAR">     2</i>
   <i type="int" name="NSIM">     4</i>
   <i type="int" name="NBLK">    -1</i>
   <i type="logical" name="LPLANE"> T  </i>
   <i type="logical" name="LSCALAPACK"> T  </i>
   <i type="logical" name="LSCAAWARE"> F  </i>
   <i type="logical" name="LSCALU"> F  </i>
   <i type="logical" name="LASYNC"> F  </i>
   <i type="logical" name="LORBITALREAL"> F  </i>
  </separator>
  <separator name="miscellaneous" >
   <i type="int" name="IDIOT">     3</i>
   <i type="int" name="ISPECIAL">     0</i>
   <i type="logical" name="LMUSIC"> F  </i>
   <v name="POMASS">      7.01000000     16.00000000     32.06600000     55.84700000</v>
   <v name="DARWINR">      0.00000000      0.00000000      0.00000000      0.00000000</v>
   <v name="DARWINV">      1.00000000      1.00000000      1.00000000      1.00000000</v>
   <i type="logical" name="LCORR"> T  </i>
  </separator>
  <i type="logical" name="GGA_COMPAT"> T  </i>
  <i type="logical" name="LBERRY"> F  </i>
  <i type="int" name="ICORELEVEL">     0</i>
  <i type="logical" name="LDAU"> T  </i>
  <v type="int" name="LDAUTYPE">     2</v>
  <v type="int" name="LDAUL">    -1</v>
  <v name="LDAUU">      0.00000000</v>
  <v name="LDAUJ">      0.00000000</v>
  <i type="int" name="LDAUPRINT">     0</i>
  <i type="int" name="I_CONSTRAINED_M">     0</i>
  <separator name="electronic exchange-correlation" >
   <i type="string" name="GGA">PE</i>
   <i type="int" name="VOSKOWN">     0</i>
   <i type="logical" name="LHFCALC"> F  </i>
   <i type="string" name="PRECFOCK"></i>
   <i type="logical" name="LSYMGRAD"> F  </i>
   <i type="logical" name="LHFONE"> F  </i>
   <i type="logical" name="LRHFCALC"> F  </i>
   <i type="logical" name="LTHOMAS"> F  </i>
   <i type="logical" name="LMODELHF"> F  </i>
   <i name="ENCUT4O">     -1.00000000</i>
   <i type="int" name="EXXOEP">     0</i>
   <i type="int" name="FOURORBIT">     0</i>
   <i name="AEXX">      0.00000000</i>
   <i name="HFALPHA">      0.00000000</i>
   <i name="MCALPHA">      0.00000000</i>
   <i name="ALDAX">      1.00000000</i>
   <i name="AGGAX">      1.00000000</i>
   <i name="ALDAC">      1.00000000</i>
   <i name="AGGAC">      1.00000000</i>
   <i type="int" name="NKREDX">     1</i>
   <i type="int" name="NKREDY">     1</i>
   <i type="int" name="NKREDZ">     1</i>
   <i type="logical" name="SHIFTRED"> F  </i>
   <i type="logical" name="ODDONLY"> F  </i>
   <i type="logical" name="EVENONLY"> F  </i>
   <i type="int" name="LMAXFOCK">     0</i>
   <i type="int" name="NMAXFOCKAE">     0</i>
   <i type="logical" name="LFOCKAEDFT"> F  </i>
   <i name="HFSCREEN">      0.00000000</i>
   <i name="HFSCREENC">      0.00000000</i>
   <i type="int" name="NBANDSGWLOW">     0</i>
  </separator>
  <separator name="vdW DFT" >
   <i type="logical" name="LUSE_VDW"> F  </i>
   <i name="Zab_VDW">     -0.84910000</i>
   <i name="PARAM1">      0.12340000</i>
   <i name="PARAM2">      1.00000000</i>
   <i name="PARAM3">      0.00000000</i>
  </separator>
  <separator name="model GW" >
   <i type="int" name="MODEL_GW">     0</i>
   <i name="MODEL_EPS0">      8.59048892</i>
   <i name="MODEL_ALPHA">      1.00000000</i>
  </separator>
  <separator name="linear response parameters" >
   <i type="logical" name="LEPSILON"> F  </i>
   <i type="logical" name="LRPA"> F  </i>
   <i type="logical" name="LNABLA"> F  </i>
   <i type="logical" name="LVEL"> F  </i>
   <i type="int" name="KINTER">     0</i>
   <i name="CSHIFT">      0.10000000</i>
   <i name="OMEGAMAX">     -1.00000000</i>
   <i name="DEG_THRESHOLD">      0.00200000</i>
   <i name="RTIME">     -0.10000000</i>
   <i name="WPLASMAI">      0.00000000</i>
   <v name="DFIELD">      0.00000000      0.00000000      0.00000000</v>
   <v name="WPLASMA">      0.00000000      0.00000000      0.00000000      0.00000000      0.00000000      0.00000000      0.00000000      0.00000000      0.00000000</v>
  </separator>
  <separator name="orbital magnetization" >
   <i type="logical" name="NUCIND"> F  </i>
   <v name="MAGPOS">      0.00000000      0.00000000      0.00000000</v>
   <i type="logical" name="LNICSALL"> T  </i>
   <i type="logical" name="ORBITALMAG"> F  </i>
   <i type="logical" name="LMAGBLOCH"> F  </i>
   <i type="logical" name="LCHIMAG"> F  </i>
   <i type="logical" name="LGAUGE"> T  </i>
   <i type="int" name="MAGATOM">     0</i>
   <v name="MAGDIPOL">      0.00000000      0.00000000      0.00000000</v>
   <v name="AVECCONST">      0.00000000      0.00000000      0.00000000</v>
  </separator>
  <separator name="response functions" >
   <i type="logical" name="LADDER"> F  </i>
   <i type="logical" name="LRPAFORCE"> F  </i>
   <i type="logical" name="LFXC"> F  </i>
   <i type="logical" name="LHARTREE"> T  </i>
   <i type="int" name="IBSE">     0</i>
   <v type="int" name="KPOINT">    -1     0     0     0</v>
   <i type="logical" name="LTCTE"> F  </i>
   <i type="logical" name="LTETE"> F  </i>
   <i type="logical" name="LTRIPLET"> F  </i>
   <i type="logical" name="LFXCEPS"> F  </i>
   <i type="logical" name="LFXHEG"> F  </i>
   <i type="int" name="NATURALO">     2</i>
   <i type="logical" name="L2ORDER"> F  </i>
   <i type="logical" name="LMP2LT"> F  </i>
   <i type="logical" name="LUSEW"> F  </i>
   <i name="ENCUTGW">     -2.00000000</i>
   <i name="ENCUTGWSOFT">     -2.00000000</i>
   <i name="ENCUTLF">     -1.00000000</i>
   <i type="int" name="LMAXMP2">    -1</i>
   <i name="SCISSOR">      0.00000000</i>
   <i type="int" name="NOMEGA">     0</i>
   <i type="int" name="NOMEGAR">     0</i>
   <i type="int" name="NBANDSGW">    -1</i>
   <i type="int" name="NBANDSO">    -1</i>
   <i type="int" name="NBANDSV">    -1</i>
   <i type="int" name="NELM">   200</i>
   <i type="int" name="NELMHF">     1</i>
   <i type="int" name="DIM">     3</i>
   <i type="int" name="ANTIRES">     0</i>
   <i name="OMEGAMAX">    -30.00000000</i>
   <i name="OMEGAMIN">    -30.00000000</i>
   <i name="OMEGATL">   -200.00000000</i>
   <i type="int" name="OMEGAGRID">   140</i>
   <i name="CSHIFT">     -0.10000000</i>
   <i type="logical" name="SELFENERGY"> F  </i>
   <i type="logical" name="LSPECTRAL"> F  </i>
   <i type="logical" name="LSPECTRALGW"> F  </i>
   <i type="logical" name="LSINGLES"> F  </i>
   <i type="logical" name="LFERMIGW"> F  </i>
   <i type="logical" name="ODDONLYGW"> F  </i>
   <i type="logical" name="EVENONLYGW"> F  </i>
   <i type="int" name="NKREDLFX">     1</i>
   <i type="int" name="NKREDLFY">     1</i>
   <i type="int" name="NKREDLFZ">     1</i>
   <i type="int" name="MAXMEM">  2800</i>
   <i type="int" name="TELESCOPE">     0</i>
   <i type="int" name="TAUPAR">     1</i>
   <i type="int" name="OMEGAPAR">    -1</i>
   <i name="LAMBDA">      1.00000000</i>
  </separator>
  <separator name="External order field" >
   <i name="OFIELD_KAPPA">      0.00000000</i>
   <v name="OFIELD_K">      0.00000000      0.00000000      0.00000000</v>
   <i name="OFIELD_Q6_NEAR">      0.00000000</i>
   <i name="OFIELD_Q6_FAR">      0.00000000</i>
   <i name="OFIELD_A">      0.00000000</i>
  </separator>
 </parameters>
 <atominfo>
  <atoms>      88 </atoms>
  <types>       4 </types>
  <array name="atoms" >
   <dimension dim="1">ion</dimension>
   <field type="string">element</field>
   <field type="int">atomtype</field>
   <set>
    <rc><c>Li</c><c>   1</c></rc>
    <rc><c>Li</c><c>   1</c></rc>
    <rc><c>Li</c><c>   1</c></rc>
    <rc><c>Li</c><c>   1</c></rc>
    <rc><c>Li</c><c>   1</c></rc>
    <rc><c>Li</c><c>   1</c></rc>
    <rc><c>Li</c><c>   1</c></rc>
    <rc><c>Li</c><c>   1</c></rc>
    <rc><c>Li</c><c>   1</c></rc>
    <rc><c>Li</c><c>   1</c></rc>
    <rc><c>Li</c><c>   1</c></rc>
    <rc><c>Li</c><c>   1</c></rc>
    <rc><c>Li</c><c>   1</c></rc>
    <rc><c>Li</c><c>   1</c></rc>
    <rc><c>Li</c><c>   1</c></rc>
    <rc><c>Li</c><c>   1</c></rc>
    <rc><c>O </c><c>   2</c></rc>
    <rc><c>O </c><c>   2</c></rc>
    <rc><c>O </c><c>   2</c></rc>
    <rc><c>O </c><c>   2</c></rc>
    <rc><c>O </c><c>   2</c></rc>
    <rc><c>O </c><c>   2</c></rc>
    <rc><c>O </c><c>   2</c></rc>
    <rc><c>O </c><c>   2</c></rc>
    <rc><c>O </c><c>   2</c></rc>
    <rc><c>O </c><c>   2</c></rc>
    <rc><c>O </c><c>   2</c></rc>
    <rc><c>O </c><c>   2</c></rc>
    <rc><c>O </c><c>   2</c></rc>
    <rc><c>O </c><c>   2</c></rc>
    <rc><c>O </c><c>   2</c></rc>
    <rc><c>O </c><c>   2</c></rc>
    <rc><c>S </c><c>   3</c></rc>
    <rc><c>S </c><c>   3</c></rc>
    <rc><c>S </c><c>   3</c></rc>
    <rc><c>S </c><c>   3</c></rc>
    <rc><c>S </c><c>   3</c></rc>
    <rc><c>S </c><c>   3</c></rc>
    <rc><c>S </c><c>   3</c></rc>
    <rc><c>S </c><c>   3</c></rc>
    <rc><c>S </c><c>   3</c></rc>
    <rc><c>S </c><c>   3</c></rc>
    <rc><c>S </c><c>   3</c></rc>
    <rc><c>S </c><c>   3</c></rc>
    <rc><c>S </c><c>   3</c></rc>
    <rc><c>S </c><c>   3</c></rc>
    <rc><c>S </c><c>   3</c></rc>
    <rc><c>S </c><c>   3</c></rc>
    <rc><c>S </c><c>   3</c></rc>
    <rc><c>S </c><c>   3</c></rc>
    <rc><c>S </c><c>   3</c></rc>
    <rc><c>S </c><c>   3</c></rc>
    <rc><c>S </c><c>   3</c></rc>
    <rc><c>S </c><c>   3</c></rc>
    <rc><c>S </c><c>   3</c></rc>
    <rc><c>S </c><c>   3</c></rc>
    <rc><c>Fe</c><c>   4</c></rc>
    <rc><c>Fe</c><c>   4</c></rc>
    <rc><c>Fe</c><c>   4</c></rc>
    <rc><c>Fe</c><c>   4</c></rc>
    <rc><c>Fe</c><c>   4</c></rc>
    <rc><c>Fe</c><c>   4</c></rc>
    <rc><c>Fe</c><c>   4</c></rc>
    <rc><c>Fe</c><c>   4</c></rc>
    <rc><c>Fe</c><c>   4</c></rc>
    <rc><c>Fe</c><c>   4</c></rc>
    <rc><c>Fe</c><c>   4</c></rc>
    <rc><c>Fe</c><c>   4</c></rc>
    <rc><c>Fe</c><c>   4</c></rc>
    <rc><c>Fe</c><c>   4</c></rc>
    <rc><c>Fe</c><c>   4</c></rc>
    <rc><c>Fe</c><c>   4</c></rc>
    <rc><c>Fe</c><c>   4</c></rc>
    <rc><c>Fe</c><c>   4</c></rc>
    <rc><c>Fe</c><c>   4</c></rc>
    <rc><c>Fe</c><c>   4</c></rc>
    <rc><c>Fe</c><c>   4</c></rc>
    <rc><c>Fe</c><c>   4</c></rc>
    <rc><c>Fe</c><c>   4</c></rc>
    <rc><c>Fe</c><c>   4</c></rc>
    <rc><c>Fe</c><c>   4</c></rc>
    <rc><c>Fe</c><c>   4</c></rc>
    <rc><c>Fe</c><c>   4</c></rc>
    <rc><c>Fe</c><c>   4</c></rc>
    <rc><c>Fe</c><c>   4</c></rc>
    <rc><c>Fe</c><c>   4</c></rc>
    <rc><c>Fe</c><c>   4</c></rc>
    <rc><c>Fe</c><c>   4</c></rc>
   </set>
  </array>
  <array name="atomtypes" >
   <dimension dim="1">type</dimension>
   <field type="int">atomspertype</field>
   <field type="string">element</field>
   <field>mass</field>
   <field>valence</field>
   <field type="string">pseudopotential</field>
   <set>
    <rc><c>  16</c><c>Li</c><c>      7.01000000</c><c>      3.00000000</c><c>  PAW_PBE Li_sv 10Sep2004               </c></rc>
    <rc><c>  16</c><c>O </c><c>     16.00000000</c><c>      6.00000000</c><c>  PAW_PBE O 08Apr2002                   </c></rc>
    <rc><c>  24</c><c>S </c><c>     32.06600000</c><c>      6.00000000</c><c>  PAW_PBE S 06Sep2000                   </c></rc>
    <rc><c>  32</c><c>Fe</c><c>     55.84700000</c><c>     14.00000000</c><c>  PAW_PBE Fe_pv 02Aug2007               </c></rc>
   </set>
  </array>
 </atominfo>
 <structure name="initialpos" >
  <crystal>
   <varray name="basis" >
    <v>      11.11223374       0.00000000      -0.00029034 </v>
    <v>       0.00000000      11.11745194       0.00000000 </v>
    <v>      -2.77510898       0.00000000      10.19872221 </v>
   </varray>
   <i name="volume">   1259.93837498 </i>
   <varray name="rec_basis" >
    <v>       0.08999155       0.00000000       0.02448702 </v>
    <v>       0.00000000       0.08994867       0.00000000 </v>
    <v>       0.00000256       0.00000000       0.09805220 </v>
   </varray>
  </crystal>
  <varray name="positions" >
   <v>       0.28894969       0.46933910       0.15583616 </v>
   <v>       0.78894969       0.46933910       0.15583616 </v>
   <v>       0.28894969       0.96933910       0.15583616 </v>
   <v>       0.78894969       0.96933910       0.15583616 </v>
   <v>       0.04646972       0.21934976       0.18586770 </v>
   <v>       0.54646972       0.21934976       0.18586770 </v>
   <v>       0.04646972       0.71934976       0.18586770 </v>
   <v>       0.54646972       0.71934976       0.18586770 </v>
   <v>       0.45353028       0.46934976       0.81413230 </v>
   <v>       0.95353028       0.46934976       0.81413230 </v>
   <v>       0.45353028       0.96934976       0.81413230 </v>
   <v>       0.95353028       0.96934976       0.81413230 </v>
   <v>       0.21105031       0.21933910       0.84416384 </v>
   <v>       0.71105031       0.21933910       0.84416384 </v>
   <v>       0.21105031       0.71933910       0.84416384 </v>
   <v>       0.71105031       0.71933910       0.84416384 </v>
   <v>       0.07654971       0.09530995       0.80250593 </v>
   <v>       0.57654971       0.09530995       0.80250593 </v>
   <v>       0.07654971       0.59530995       0.80250593 </v>
   <v>       0.57654971       0.59530995       0.80250593 </v>
   <v>       0.32470466       0.34338175       0.80344994 </v>
   <v>       0.82470466       0.34338175       0.80250383 </v>
   <v>       0.32470466       0.84338175       0.80250383 </v>
   <v>       0.82470466       0.84338175       0.80250383 </v>
   <v>       0.17529534       0.09338175       0.19749617 </v>
   <v>       0.67529534       0.09338175       0.19749617 </v>
   <v>       0.17529534       0.59338175       0.19749617 </v>
   <v>       0.67529534       0.59338175       0.19749617 </v>
   <v>       0.42345029       0.34530995       0.19749407 </v>
   <v>       0.92345029       0.34530995       0.19749407 </v>
   <v>       0.42345029       0.84530995       0.19749407 </v>
   <v>       0.92345029       0.84530995       0.19749407 </v>
   <v>       0.21868463       0.34523395       0.37102476 </v>
   <v>       0.71868463       0.34523395       0.37102476 </v>
   <v>       0.21868463       0.84523395       0.37102476 </v>
   <v>       0.71868463       0.84523395       0.37102476 </v>
   <v>       0.46681660       0.09344897       0.37102399 </v>
   <v>       0.96681660       0.09344897       0.37102399 </v>
   <v>       0.46681660       0.59344897       0.37102399 </v>
   <v>       0.96681660       0.59344897       0.37102399 </v>
   <v>       0.03318340       0.34344897       0.62897601 </v>
   <v>       0.53318340       0.34344897       0.62897601 </v>
   <v>       0.03318340       0.84344897       0.62897601 </v>
   <v>       0.53318340       0.84344897       0.62897601 </v>
   <v>       0.28131537       0.09523395       0.62897524 </v>
   <v>       0.78131537       0.09523395       0.62897524 </v>
   <v>       0.28131537       0.59523395       0.62897524 </v>
   <v>       0.78131537       0.59523395       0.62897524 </v>
   <v>       0.12439279       0.34434306       0.00000412 </v>
   <v>       0.62439279       0.34434306       0.00000412 </v>
   <v>       0.12439279       0.84434306       0.00000412 </v>
   <v>       0.62439279       0.84434306       0.00000412 </v>
   <v>       0.37560721       0.09434306       0.99999588 </v>
   <v>       0.87560721       0.09434306       0.99999588 </v>
   <v>       0.37560721       0.59434306       0.99999588 </v>
   <v>       0.87560721       0.59434306       0.99999588 </v>
   <v>       0.03824426       0.10634799       0.60632306 </v>
   <v>       0.53824426       0.10634799       0.60632306 </v>
   <v>       0.03824426       0.60634799       0.60632306 </v>
   <v>       0.53824426       0.60634799       0.60632306 </v>
   <v>       0.26492712       0.33232651       0.60632763 </v>
   <v>       0.76492712       0.33232651       0.60632763 </v>
   <v>       0.26492712       0.83232651       0.60632763 </v>
   <v>       0.76492712       0.83232651       0.60632763 </v>
   <v>       0.23507288       0.08232651       0.39367237 </v>
   <v>       0.73507288       0.08232651       0.39367237 </v>
   <v>       0.23507288       0.58232651       0.39367237 </v>
   <v>       0.73507288       0.58232651       0.39367237 </v>
   <v>       0.46175574       0.35634799       0.39367694 </v>
   <v>       0.96175574       0.35634799       0.39367694 </v>
   <v>       0.46175574       0.85634799       0.39367694 </v>
   <v>       0.96175574       0.85634799       0.39367694 </v>
   <v>       0.03848398       0.46936404       0.15397331 </v>
   <v>       0.53848398       0.46936404       0.15397331 </v>
   <v>       0.03848398       0.96936404       0.15397331 </v>
   <v>       0.53848398       0.96936404       0.15397331 </v>
   <v>       0.28861657       0.21935690       0.15447525 </v>
   <v>       0.78861657       0.21935690       0.15447525 </v>
   <v>       0.28861657       0.71935690       0.15447525 </v>
   <v>       0.78861657       0.71935690       0.15447525 </v>
   <v>       0.21138343       0.46935690       0.84552475 </v>
   <v>       0.71138343       0.46935690       0.84552475 </v>
   <v>       0.21138343       0.96935690       0.84552475 </v>
   <v>       0.71138343       0.96935690       0.84552475 </v>
   <v>       0.46151602       0.21936404       0.84602669 </v>
   <v>       0.96151602       0.21936404       0.84602669 </v>
   <v>       0.46151602       0.71936404       0.84602669 </v>
   <v>       0.96151602       0.71936404       0.84602669 </v>
  </varray>
 </structure>
 <calculation>
  <scstep>
   <time name="dav">  314.92  318.32</time>
   <time name="total">  318.26  321.72</time>
   <energy>
    <i name="alphaZ">   2314.49656628 </i>
    <i name="ewald"> -57724.25352187 </i>
    <i name="hartreedc"> -30347.73969537 </i>
    <i name="XCdc">   3229.29437268 </i>
    <i name="pawpsdc">  92679.89207989 </i>
    <i name="pawaedc"> -95535.38516353 </i>
    <i name="eentropy">     -0.01855756 </i>
    <i name="bandstr">    349.83633938 </i>
    <i name="atom">  95443.47970955 </i>
    <i name="e_fr_energy">  10409.60212944 </i>
    <i name="e_wo_entrp">  10409.62068700 </i>
    <i name="e_0_energy">  10409.61140822 </i>
   </energy>
  </scstep>
  <scstep>
   <time name="dav">  309.25  312.10</time>
   <time name="total">  309.26  312.11</time>
   <energy>
    <i name="e_fr_energy">   1177.47939468 </i>
    <i name="e_wo_entrp">   1177.54525972 </i>
    <i name="e_0_energy">   1177.51232720 </i>
   </energy>
  </scstep>
  <scstep>
   <time name="dav">  326.39  329.15</time>
   <time name="total">  326.39  329.15</time>
   <energy>
    <i name="e_fr_energy">   -308.29209861 </i>
    <i name="e_wo_entrp">   -308.29209861 </i>
    <i name="e_0_energy">   -308.29209861 </i>
   </energy>
  </scstep>
  <scstep>
   <time name="dav">  347.40  350.65</time>
   <time name="total">  347.40  350.65</time>
   <energy>
    <i name="e_fr_energy">   -476.31132464 </i>
    <i name="e_wo_entrp">   -476.31132464 </i>
    <i name="e_0_energy">   -476.31132464 </i>
   </energy>
  </scstep>
  <scstep>
   <time name="dav">  464.23  468.45</time>
   <time name="total">  473.70  477.94</time>
   <energy>
    <i name="e_fr_energy">   -488.73563163 </i>
    <i name="e_wo_entrp">   -488.73563163 </i>
    <i name="e_0_energy">   -488.73563163 </i>
   </energy>
  </scstep>
  <scstep>
   <time name="dav">  401.73  405.35</time>
   <time name="total">  414.32  420.47</time>
   <energy>
    <i name="e_fr_energy">   -489.20029387 </i>
    <i name="e_wo_entrp">   -489.20029387 </i>
    <i name="e_0_energy">   -489.20029387 </i>
   </energy>
  </scstep>
  <scstep>
   <time name="dav">  436.63  442.62</time>
   <time name="total">  449.42  455.42</time>
   <energy>
    <i name="e_fr_energy">   -489.21700907 </i>
    <i name="e_wo_entrp">   -489.21700907 </i>
    <i name="e_0_energy">   -489.21700907 </i>
   </energy>
  </scstep>
  <scstep>
   <time name="dav">  410.15  414.15</time>
   <time name="total">  422.80  428.72</time>
   <energy>
    <i name="e_fr_energy">   -489.21651495 </i>
    <i name="e_wo_entrp">   -489.21651495 </i>
    <i name="e_0_energy">   -489.21651495 </i>
   </energy>
  </scstep>
  <scstep>
   <time name="dav">  455.23  459.46</time>
   <time name="total">  467.85  472.19</time>
   <energy>
    <i name="e_fr_energy">   -489.21600235 </i>
    <i name="e_wo_entrp">   -489.21600235 </i>
    <i name="e_0_energy">   -489.21600235 </i>
   </energy>
  </scstep>
  <scstep>
   <time name="dav">  444.95  449.21</time>
   <time name="total">  457.76  462.08</time>
   <energy>
    <i name="e_fr_energy">   -489.21495335 </i>
    <i name="e_wo_entrp">   -489.21495335 </i>
    <i name="e_0_energy">   -489.21495335 </i>
   </energy>
  </scstep>
  <scstep>
   <time name="dav">  350.21  353.52</time>
   <time name="total">  362.97  366.30</time>
   <energy>
    <i name="e_fr_energy">   -489.21491668 </i>
    <i name="e_wo_entrp">   -489.21491668 </i>
    <i name="e_0_energy">   -489.21491668 </i>
   </energy>
  </scstep>
  <scstep>
   <time name="dav">  394.53  398.55</time>
   <time name="total">  407.20  411.29</time>
   <energy>
    <i name="e_fr_energy">   -489.21492874 </i>
    <i name="e_wo_entrp">   -489.21492874 </i>
    <i name="e_0_energy">   -489.21492874 </i>
   </energy>
  </scstep>
  <scstep>
   <time name="dav">  270.93  273.38</time>
   <time name="total">  283.65  286.16</time>
   <energy>
    <i name="e_fr_energy">   -489.21493041 </i>
    <i name="e_wo_entrp">   -489.21493041 </i>
    <i name="e_0_energy">   -489.21493041 </i>
   </energy>
  </scstep>
  <scstep>
   <time name="dav">  318.19  320.94</time>
   <time name="total">  330.88  333.69</time>
   <energy>
    <i name="e_fr_energy">   -489.21493887 </i>
    <i name="e_wo_entrp">   -489.21493887 </i>
    <i name="e_0_energy">   -489.21493887 </i>
   </energy>
  </scstep>
  <scstep>
   <time name="dav">  285.39  288.06</time>
   <time name="total">  298.12  300.86</time>
   <energy>
    <i name="e_fr_energy">   -489.21493591 </i>
    <i name="e_wo_entrp">   -489.21493591 </i>
    <i name="e_0_energy">   -489.21493591 </i>
   </energy>
  </scstep>
  <scstep>
   <time name="dav">  224.22  226.75</time>
   <time name="total">  227.55  230.10</time>
   <energy>
    <i name="alphaZ">   2314.49656628 </i>
    <i name="ewald"> -57724.25352187 </i>
    <i name="hartreedc"> -30347.63945008 </i>
    <i name="XCdc">   3229.29314496 </i>
    <i name="pawpsdc">  92677.76015156 </i>
    <i name="pawaedc"> -95533.23863136 </i>
    <i name="eentropy">     -0.00000000 </i>
    <i name="bandstr"> -10549.11290525 </i>
    <i name="atom">  95443.47970955 </i>
    <i name="e_fr_energy">   -489.21493620 </i>
    <i name="e_wo_entrp">   -489.21493620 </i>
    <i name="e_0_energy">   -489.21493620 </i>
   </energy>
  </scstep>
  <structure>
   <crystal>
    <varray name="basis" >
     <v>      11.11223374       0.00000000      -0.00029034 </v>
     <v>       0.00000000      11.11745194       0.00000000 </v>
     <v>      -2.77510898       0.00000000      10.19872221 </v>
    </varray>
    <i name="volume">   1259.93837498 </i>
    <varray name="rec_basis" >
     <v>       0.08999155       0.00000000       0.02448702 </v>
     <v>       0.00000000       0.08994867       0.00000000 </v>
     <v>       0.00000256       0.00000000       0.09805220 </v>
    </varray>
   </crystal>
   <varray name="positions" >
    <v>       0.28894969       0.46933910       0.15583616 </v>
    <v>       0.78894969       0.46933910       0.15583616 </v>
    <v>       0.28894969       0.96933910       0.15583616 </v>
    <v>       0.78894969       0.96933910       0.15583616 </v>
    <v>       0.04646972       0.21934976       0.18586770 </v>
    <v>       0.54646972       0.21934976       0.18586770 </v>
    <v>       0.04646972       0.71934976       0.18586770 </v>
    <v>       0.54646972       0.71934976       0.18586770 </v>
    <v>       0.45353028       0.46934976       0.81413230 </v>
    <v>       0.95353028       0.46934976       0.81413230 </v>
    <v>       0.45353028       0.96934976       0.81413230 </v>
    <v>       0.95353028       0.96934976       0.81413230 </v>
    <v>       0.21105031       0.21933910       0.84416384 </v>
    <v>       0.71105031       0.21933910       0.84416384 </v>
    <v>       0.21105031       0.71933910       0.84416384 </v>
    <v>       0.71105031       0.71933910       0.84416384 </v>
    <v>       0.07654971       0.09530995       0.80250593 </v>
    <v>       0.57654971       0.09530995       0.80250593 </v>
    <v>       0.07654971       0.59530995       0.80250593 </v>
    <v>       0.57654971       0.59530995       0.80250593 </v>
    <v>       0.32470466       0.34338175       0.80344994 </v>
    <v>       0.82470466       0.34338175       0.80250383 </v>
    <v>       0.32470466       0.84338175       0.80250383 </v>
    <v>       0.82470466       0.84338175       0.80250383 </v>
    <v>       0.17529534       0.09338175       0.19749617 </v>
    <v>       0.67529534       0.09338175       0.19749617 </v>
    <v>       0.17529534       0.59338175       0.19749617 </v>
    <v>       0.67529534       0.59338175       0.19749617 </v>
    <v>       0.42345029       0.34530995       0.19749407 </v>
    <v>       0.92345029       0.34530995       0.19749407 </v>
    <v>       0.42345029       0.84530995       0.19749407 </v>
    <v>       0.92345029       0.84530995       0.19749407 </v>
    <v>       0.21868463       0.34523395       0.37102476 </v>
    <v>       0.71868463       0.34523395       0.37102476 </v>
    <v>       0.21868463       0.84523395       0.37102476 </v>
    <v>       0.71868463       0.84523395       0.37102476 </v>
    <v>       0.46681660       0.09344897       0.37102399 </v>
    <v>       0.96681660       0.09344897       0.37102399 </v>
    <v>       0.46681660       0.59344897       0.37102399 </v>
    <v>       0.96681660       0.59344897       0.37102399 </v>
    <v>       0.03318340       0.34344897       0.62897601 </v>
    <v>       0.53318340       0.34344897       0.62897601 </v>
    <v>       0.03318340       0.84344897       0.62897601 </v>
    <v>       0.53318340       0.84344897       0.62897601 </v>
    <v>       0.28131537       0.09523395       0.62897524 </v>
    <v>       0.78131537       0.09523395       0.62897524 </v>
    <v>       0.28131537       0.59523395       0.62897524 </v>
    <v>       0.78131537       0.59523395       0.62897524 </v>
    <v>       0.12439279       0.34434306       0.00000412 </v>
    <v>       0.62439279       0.34434306       0.00000412 </v>
    <v>       0.12439279       0.84434306       0.00000412 </v>
    <v>       0.62439279       0.84434306       0.00000412 </v>
    <v>       0.37560721       0.09434306       0.99999588 </v>
    <v>       0.87560721       0.09434306       0.99999588 </v>
    <v>       0.37560721       0.59434306       0.99999588 </v>
    <v>       0.87560721       0.59434306       0.99999588 </v>
    <v>       0.03824426       0.10634799       0.60632306 </v>
    <v>       0.53824426       0.10634799       0.60632306 </v>
    <v>       0.03824426       0.60634799       0.60632306 </v>
    <v>       0.53824426       0.60634799       0.60632306 </v>
    <v>       0.26492712       0.33232651       0.60632763 </v>
    <v>       0.76492712       0.33232651       0.60632763 </v>
    <v>       0.26492712       0.83232651       0.60632763 </v>
    <v>       0.76492712       0.83232651       0.60632763 </v>
    <v>       0.23507288       0.08232651       0.39367237 </v>
    <v>       0.73507288       0.08232651       0.39367237 </v>
    <v>       0.23507288       0.58232651       0.39367237 </v>
    <v>       0.73507288       0.58232651       0.39367237 </v>
    <v>       0.46175574       0.35634799       0.39367694 </v>
    <v>       0.96175574       0.35634799       0.39367694 </v>
    <v>       0.46175574       0.85634799       0.39367694 </v>
    <v>       0.96175574       0.85634799       0.39367694 </v>
    <v>       0.03848398       0.46936404       0.15397331 </v>
    <v>       0.53848398       0.46936404       0.15397331 </v>
    <v>       0.03848398       0.96936404       0.15397331 </v>
    <v>       0.53848398       0.96936404       0.15397331 </v>
    <v>       0.28861657       0.21935690       0.15447525 </v>
    <v>       0.78861657       0.21935690       0.15447525 </v>
    <v>       0.28861657       0.71935690       0.15447525 </v>
    <v>       0.78861657       0.71935690       0.15447525 </v>
    <v>       0.21138343       0.46935690       0.84552475 </v>
    <v>       0.71138343       0.46935690       0.84552475 </v>
    <v>       0.21138343       0.96935690       0.84552475 </v>
    <v>       0.71138343       0.96935690       0.84552475 </v>
    <v>       0.46151602       0.21936404       0.84602669 </v>
    <v>       0.96151602       0.21936404       0.84602669 </v>
    <v>       0.46151602       0.71936404       0.84602669 </v>
    <v>       0.96151602       0.71936404       0.84602669 </v>
   </varray>
  </structure>
  <varray name="forces" >
   <v>       0.00038640      -0.00008738      -0.00170353 </v>
   <v>      -0.00001857      -0.00020646      -0.00057056 </v>
   <v>       0.00064110       0.00020218      -0.00074141 </v>
   <v>      -0.00003391       0.00005681      -0.00025719 </v>
   <v>       0.00008251       0.00044648      -0.00124358 </v>
   <v>      -0.00030614       0.00004032      -0.00086652 </v>
   <v>      -0.00006891      -0.00009706      -0.00031368 </v>
   <v>      -0.00055750      -0.00022520      -0.00080192 </v>
   <v>      -0.00347952      -0.00193376       0.00432151 </v>
   <v>       0.00081185       0.00012854       0.00098062 </v>
   <v>       0.00012058       0.00012114       0.00098578 </v>
   <v>       0.00013260       0.00006041       0.00032318 </v>
   <v>      -0.00227127      -0.00060151       0.00566743 </v>
   <v>      -0.00006605      -0.00003210       0.00092022 </v>
   <v>      -0.00010899      -0.00062465       0.00091747 </v>
   <v>      -0.00004209       0.00002782       0.00034818 </v>
   <v>      -0.00021376      -0.00083550      -0.00171641 </v>
   <v>       0.00008748       0.00042426      -0.00176517 </v>
   <v>      -0.00135573       0.00189004      -0.00218556 </v>
   <v>       0.00026684      -0.00039696      -0.00126798 </v>
   <v>       0.02571787      -0.01297991      -0.09653527 </v>
   <v>      -0.00080746       0.00006586      -0.00226103 </v>
   <v>      -0.00019332       0.00017694      -0.00228924 </v>
   <v>      -0.00028426       0.00014971      -0.00071390 </v>
   <v>      -0.00022021      -0.00033592       0.00164777 </v>
   <v>       0.00048648       0.00005720       0.00094540 </v>
   <v>      -0.00012717       0.00003136       0.00167308 </v>
   <v>       0.00067234       0.00020725       0.00099549 </v>
   <v>      -0.00039807      -0.00009484       0.00283975 </v>
   <v>      -0.00050555      -0.00007157       0.00194489 </v>
   <v>      -0.00030743       0.00014928       0.00168477 </v>
   <v>      -0.00002998       0.00005101       0.00050791 </v>
   <v>       0.00004021      -0.00030286       0.00383860 </v>
   <v>      -0.00056778      -0.00015519       0.00175308 </v>
   <v>      -0.00016521       0.00000504       0.00156310 </v>
   <v>       0.00005775      -0.00009684       0.00055983 </v>
   <v>      -0.00026051       0.00050587       0.00133284 </v>
   <v>       0.00040714       0.00019023       0.00073487 </v>
   <v>      -0.00019231      -0.00028761       0.00132307 </v>
   <v>       0.00032509       0.00002437       0.00069551 </v>
   <v>       0.00513244      -0.00034274      -0.00086780 </v>
   <v>      -0.00959274       0.00029955       0.00333499 </v>
   <v>       0.00051975       0.00030155      -0.00053340 </v>
   <v>      -0.00052803       0.00019237      -0.00032035 </v>
   <v>       0.00033396       0.00761048       0.00196264 </v>
   <v>      -0.00016227       0.00046723      -0.00030138 </v>
   <v>       0.00082727      -0.00702802       0.00080271 </v>
   <v>      -0.00022812      -0.00060076      -0.00033250 </v>
   <v>      -0.00716139      -0.00034320       0.00549474 </v>
   <v>       0.00361985      -0.00013431       0.00162453 </v>
   <v>      -0.00040797       0.00013179       0.00013335 </v>
   <v>       0.00042160       0.00001232      -0.00012454 </v>
   <v>       0.00035265      -0.00516162       0.00284218 </v>
   <v>      -0.00013965      -0.00040289      -0.00018301 </v>
   <v>       0.00059701       0.00545574       0.00348198 </v>
   <v>      -0.00022831       0.00031524      -0.00015513 </v>
   <v>      -0.00121888      -0.00039830       0.00051089 </v>
   <v>       0.00042309      -0.00111175       0.00003234 </v>
   <v>      -0.00086956       0.00017751       0.00112638 </v>
   <v>       0.00019170       0.00083359       0.00004065 </v>
   <v>       0.00144071       0.00336901       0.05577153 </v>
   <v>       0.00162083      -0.00015942       0.00048536 </v>
   <v>       0.00006326       0.00004373       0.00054684 </v>
   <v>       0.00023727      -0.00007050       0.00014851 </v>
   <v>      -0.00009558      -0.00030661      -0.00210514 </v>
   <v>      -0.00024507      -0.00017604      -0.00062586 </v>
   <v>      -0.00010561       0.00067382      -0.00167318 </v>
   <v>      -0.00027075       0.00016644      -0.00056213 </v>
   <v>       0.00084016       0.00018788      -0.00293816 </v>
   <v>      -0.00014528       0.00001534      -0.00123930 </v>
   <v>       0.00052719      -0.00007512      -0.00080757 </v>
   <v>       0.00008488      -0.00002041      -0.00030877 </v>
   <v>       0.00034954      -0.00100197      -0.00219514 </v>
   <v>      -0.00084797       0.00007824      -0.00200785 </v>
   <v>      -0.00004654       0.00010609      -0.00052577 </v>
   <v>      -0.00105014       0.00028918      -0.00126088 </v>
   <v>       0.00057623       0.00040584      -0.00300442 </v>
   <v>      -0.00014902       0.00050648      -0.00114518 </v>
   <v>       0.00139430      -0.00055554      -0.00163833 </v>
   <v>      -0.00015882      -0.00020056      -0.00047953 </v>
   <v>      -0.00936920       0.00762341       0.00977887 </v>
   <v>      -0.00000613       0.00021598       0.00165359 </v>
   <v>      -0.00023479       0.00045248       0.00178816 </v>
   <v>      -0.00004124      -0.00010523       0.00064492 </v>
   <v>      -0.00541019       0.00349182       0.00595625 </v>
   <v>       0.00098811       0.00024427       0.00183638 </v>
   <v>      -0.00020107      -0.00041053       0.00177246 </v>
   <v>       0.00071798      -0.00070864       0.00029362 </v>
  </varray>
  <varray name="stress" >
   <v>       2.14833305      -0.00630263      -0.10582018 </v>
   <v>      -0.00630335       1.88920586      -0.00446867 </v>
   <v>      -0.10615022      -0.00446340       0.36454433 </v>
  </varray>
  <energy>
   <i name="e_fr_energy">   -489.21493620 </i>
   <i name="e_wo_entrp">   -489.21493620 </i>
   <i name="e_0_energy">     -0.00000000 </i>
  </energy>
  <time name="totalsc"> 6434.00 6502.65</time>
  <eigenvalues>
   <array>
    <dimension dim="1">band</dimension>
    <dimension dim="2">kpoint</dimension>
    <dimension dim="3">spin</dimension>
    <field>eigene</field>
    <field>occ</field>
    <set>
     <set comment="spin 1">
      <set comment="kpoint 1">
       <r>  -51.0673    1.0000 </r>
       <r>  -51.0556    1.0000 </r>
       <r>  -51.0552    1.0000 </r>
       <r>  -51.0549    1.0000 </r>
       <r>  -51.0548    1.0000 </r>
       <r>  -51.0547    1.0000 </r>
       <r>  -51.0542    1.0000 </r>
       <r>  -51.0540    1.0000 </r>
       <r>  -51.0535    1.0000 </r>
       <r>  -51.0533    1.0000 </r>
       <r>  -51.0532    1.0000 </r>
       <r>  -51.0529    1.0000 </r>
       <r>  -51.0529    1.0000 </r>
       <r>  -51.0522    1.0000 </r>
       <r>  -51.0518    1.0000 </r>
       <r>  -51.0511    1.0000 </r>
       <r>  -51.0443    1.0000 </r>
       <r>  -51.0442    1.0000 </r>
       <r>  -51.0440    1.0000 </r>
       <r>  -51.0440    1.0000 </r>
       <r>  -51.0438    1.0000 </r>
       <r>  -51.0434    1.0000 </r>
       <r>  -51.0433    1.0000 </r>
       <r>  -51.0395    1.0000 </r>
       <r>  -51.0393    1.0000 </r>
       <r>  -51.0392    1.0000 </r>
       <r>  -51.0391    1.0000 </r>
       <r>  -51.0387    1.0000 </r>
       <r>  -51.0387    1.0000 </r>
       <r>  -51.0386    1.0000 </r>
       <r>  -51.0373    1.0000 </r>
       <r>  -51.0355    1.0000 </r>
       <r>  -49.7017    1.0000 </r>
       <r>  -49.7017    1.0000 </r>
       <r>  -49.7015    1.0000 </r>
       <r>  -49.7014    1.0000 </r>
       <r>  -49.7011    1.0000 </r>
       <r>  -49.7008    1.0000 </r>
       <r>  -49.7006    1.0000 </r>
       <r>  -49.6941    1.0000 </r>
       <r>  -49.6939    1.0000 </r>
       <r>  -49.6938    1.0000 </r>
       <r>  -49.6936    1.0000 </r>
       <r>  -49.6932    1.0000 </r>
       <r>  -49.6932    1.0000 </r>
       <r>  -49.6931    1.0000 </r>
       <r>  -49.6929    1.0000 </r>
       <r>  -49.6919    1.0000 </r>
       <r>  -49.6099    1.0000 </r>
       <r>  -49.5993    1.0000 </r>
       <r>  -49.5988    1.0000 </r>
       <r>  -49.5984    1.0000 </r>
       <r>  -49.5982    1.0000 </r>
       <r>  -49.5981    1.0000 </r>
       <r>  -49.5978    1.0000 </r>
       <r>  -49.5977    1.0000 </r>
       <r>  -49.5973    1.0000 </r>
       <r>  -49.5972    1.0000 </r>
       <r>  -49.5969    1.0000 </r>
       <r>  -49.5969    1.0000 </r>
       <r>  -49.5966    1.0000 </r>
       <r>  -49.5966    1.0000 </r>
       <r>  -49.5965    1.0000 </r>
       <r>  -49.5965    1.0000 </r>
       <r>  -49.5783    1.0000 </r>
       <r>  -49.5681    1.0000 </r>
       <r>  -49.5675    1.0000 </r>
       <r>  -49.5670    1.0000 </r>
       <r>  -49.5669    1.0000 </r>
       <r>  -49.5668    1.0000 </r>
       <r>  -49.5665    1.0000 </r>
       <r>  -49.5663    1.0000 </r>
       <r>  -49.5657    1.0000 </r>
       <r>  -49.5655    1.0000 </r>
       <r>  -49.5653    1.0000 </r>
       <r>  -49.5651    1.0000 </r>
       <r>  -49.5648    1.0000 </r>
       <r>  -49.5648    1.0000 </r>
       <r>  -49.5646    1.0000 </r>
       <r>  -49.5646    1.0000 </r>
       <r>  -49.5542    1.0000 </r>
       <r>  -49.5542    1.0000 </r>
       <r>  -49.5540    1.0000 </r>
       <r>  -49.5539    1.0000 </r>
       <r>  -49.5536    1.0000 </r>
       <r>  -49.5532    1.0000 </r>
       <r>  -49.5529    1.0000 </r>
       <r>  -49.5469    1.0000 </r>
       <r>  -49.5395    1.0000 </r>
       <r>  -49.5391    1.0000 </r>
       <r>  -49.5391    1.0000 </r>
       <r>  -49.5389    1.0000 </r>
       <r>  -49.5385    1.0000 </r>
       <r>  -49.5384    1.0000 </r>
       <r>  -49.5383    1.0000 </r>
       <r>  -49.5381    1.0000 </r>
       <r>  -39.8652    1.0000 </r>
       <r>  -39.8650    1.0000 </r>
       <r>  -39.8648    1.0000 </r>
       <r>  -39.8646    1.0000 </r>
       <r>  -39.8645    1.0000 </r>
       <r>  -39.8645    1.0000 </r>
       <r>  -39.8644    1.0000 </r>
       <r>  -39.8643    1.0000 </r>
       <r>  -39.8642    1.0000 </r>
       <r>  -39.8641    1.0000 </r>
       <r>  -39.8639    1.0000 </r>
       <r>  -39.8638    1.0000 </r>
       <r>  -39.8638    1.0000 </r>
       <r>  -39.8634    1.0000 </r>
       <r>  -39.8632    1.0000 </r>
       <r>  -39.8564    1.0000 </r>
       <r>  -13.2245    1.0000 </r>
       <r>  -13.2238    1.0000 </r>
       <r>  -13.2097    1.0000 </r>
       <r>  -13.1828    1.0000 </r>
       <r>  -13.1006    1.0000 </r>
       <r>  -13.0987    1.0000 </r>
       <r>  -13.0975    1.0000 </r>
       <r>  -13.0924    1.0000 </r>
       <r>  -13.0852    1.0000 </r>
       <r>  -13.0798    1.0000 </r>
       <r>  -13.0789    1.0000 </r>
       <r>  -13.0761    1.0000 </r>
       <r>  -12.9872    1.0000 </r>
       <r>  -12.9764    1.0000 </r>
       <r>  -12.9416    1.0000 </r>
       <r>  -12.9399    1.0000 </r>
       <r>   -7.6461    1.0000 </r>
       <r>   -7.4057    1.0000 </r>
       <r>   -7.3259    1.0000 </r>
       <r>   -7.3257    1.0000 </r>
       <r>   -7.3088    1.0000 </r>
       <r>   -7.3083    1.0000 </r>
       <r>   -7.3077    1.0000 </r>
       <r>   -7.3068    1.0000 </r>
       <r>   -7.1699    1.0000 </r>
       <r>   -7.1576    1.0000 </r>
       <r>   -7.1239    1.0000 </r>
       <r>   -7.1237    1.0000 </r>
       <r>   -7.0354    1.0000 </r>
       <r>   -7.0231    1.0000 </r>
       <r>   -7.0034    1.0000 </r>
       <r>   -7.0029    1.0000 </r>
       <r>   -6.9417    1.0000 </r>
       <r>   -6.9413    1.0000 </r>
       <r>   -6.8885    1.0000 </r>
       <r>   -6.8882    1.0000 </r>
       <r>   -6.8664    1.0000 </r>
       <r>   -6.8628    1.0000 </r>
       <r>   -6.8357    1.0000 </r>
       <r>   -6.8046    1.0000 </r>
       <r>   -1.9363    1.0000 </r>
       <r>   -1.9351    1.0000 </r>
       <r>   -1.9107    1.0000 </r>
       <r>   -1.8937    1.0000 </r>
       <r>   -1.6660    1.0000 </r>
       <r>   -1.6655    1.0000 </r>
       <r>   -1.6582    1.0000 </r>
       <r>   -1.6562    1.0000 </r>
       <r>   -1.5993    1.0000 </r>
       <r>   -1.5970    1.0000 </r>
       <r>   -1.5859    1.0000 </r>
       <r>   -1.5850    1.0000 </r>
       <r>   -1.2975    1.0000 </r>
       <r>   -1.1750    1.0000 </r>
       <r>   -1.1739    1.0000 </r>
       <r>   -1.1134    1.0000 </r>
       <r>   -1.1118    1.0000 </r>
       <r>   -1.1066    1.0000 </r>
       <r>   -1.0487    1.0000 </r>
       <r>   -0.9805    1.0000 </r>
       <r>   -0.9636    1.0000 </r>
       <r>   -0.9587    1.0000 </r>
       <r>   -0.9576    1.0000 </r>
       <r>   -0.9572    1.0000 </r>
       <r>   -0.9470    1.0000 </r>
       <r>   -0.9450    1.0000 </r>
       <r>   -0.9222    1.0000 </r>
       <r>   -0.8710    1.0000 </r>
       <r>   -0.8689    1.0000 </r>
       <r>   -0.8035    1.0000 </r>
       <r>   -0.8022    1.0000 </r>
       <r>   -0.8020    1.0000 </r>
       <r>   -0.7750    1.0000 </r>
       <r>   -0.7739    1.0000 </r>
       <r>   -0.7737    1.0000 </r>
       <r>   -0.7607    1.0000 </r>
       <r>   -0.7162    1.0000 </r>
       <r>   -0.7162    1.0000 </r>
       <r>   -0.7062    1.0000 </r>
       <r>   -0.7045    1.0000 </r>
       <r>   -0.6996    1.0000 </r>
       <r>   -0.6994    1.0000 </r>
       <r>   -0.6099    1.0000 </r>
       <r>   -0.6095    1.0000 </r>
       <r>   -0.5618    1.0000 </r>
       <r>   -0.5616    1.0000 </r>
       <r>   -0.5497    1.0000 </r>
       <r>   -0.5482    1.0000 </r>
       <r>   -0.4086    1.0000 </r>
       <r>   -0.4077    1.0000 </r>
       <r>   -0.3575    1.0000 </r>
       <r>   -0.3479    1.0000 </r>
       <r>   -0.3297    1.0000 </r>
       <r>   -0.3291    1.0000 </r>
       <r>   -0.2991    1.0000 </r>
       <r>   -0.2989    1.0000 </r>
       <r>   -0.2808    1.0000 </r>
       <r>   -0.2695    1.0000 </r>
       <r>   -0.2629    1.0000 </r>
       <r>   -0.2561    1.0000 </r>
       <r>   -0.2551    1.0000 </r>
       <r>   -0.2094    1.0000 </r>
       <r>   -0.2087    1.0000 </r>
       <r>   -0.1891    1.0000 </r>
       <r>   -0.1863    1.0000 </r>
       <r>   -0.1861    1.0000 </r>
       <r>   -0.1759    1.0000 </r>
       <r>   -0.1584    1.0000 </r>
       <r>   -0.1256    1.0000 </r>
       <r>   -0.1254    1.0000 </r>
       <r>   -0.1095    1.0000 </r>
       <r>   -0.0713    1.0000 </r>
       <r>   -0.0699    1.0000 </r>
       <r>   -0.0610    1.0000 </r>
       <r>   -0.0443    1.0000 </r>
       <r>   -0.0185    1.0000 </r>
       <r>   -0.0178    1.0000 </r>
       <r>   -0.0111    1.0000 </r>
       <r>    0.0013    1.0000 </r>
       <r>    0.0018    1.0000 </r>
       <r>    0.0464    1.0000 </r>
       <r>    0.0488    1.0000 </r>
       <r>    0.0494    1.0000 </r>
       <r>    0.0910    1.0000 </r>
       <r>    0.0938    1.0000 </r>
       <r>    0.1176    1.0000 </r>
       <r>    0.1183    1.0000 </r>
       <r>    0.1587    1.0000 </r>
       <r>    0.1623    1.0000 </r>
       <r>    0.1772    1.0000 </r>
       <r>    0.1793    1.0000 </r>
       <r>    0.1818    1.0000 </r>
       <r>    0.1822    1.0000 </r>
       <r>    0.1847    1.0000 </r>
       <r>    0.1885    1.0000 </r>
       <r>    0.1943    1.0000 </r>
       <r>    0.1950    1.0000 </r>
       <r>    0.2007    1.0000 </r>
       <r>    0.2014    1.0000 </r>
       <r>    0.2392    1.0000 </r>
       <r>    0.2505    1.0000 </r>
       <r>    0.2565    1.0000 </r>
       <r>    0.2567    1.0000 </r>
       <r>    0.2759    1.0000 </r>
       <r>    0.3367    1.0000 </r>
       <r>    0.3468    1.0000 </r>
       <r>    0.3589    1.0000 </r>
       <r>    0.3593    1.0000 </r>
       <r>    0.3604    1.0000 </r>
       <r>    0.3609    1.0000 </r>
       <r>    0.3886    1.0000 </r>
       <r>    0.4019    1.0000 </r>
       <r>    0.4517    1.0000 </r>
       <r>    0.4518    1.0000 </r>
       <r>    0.5788    1.0000 </r>
       <r>    0.5791    1.0000 </r>
       <r>    0.5850    1.0000 </r>
       <r>    0.6012    1.0000 </r>
       <r>    0.6012    1.0000 </r>
       <r>    0.6064    1.0000 </r>
       <r>    0.6068    1.0000 </r>
       <r>    0.6402    1.0000 </r>
       <r>    0.6514    1.0000 </r>
       <r>    0.6518    1.0000 </r>
       <r>    0.6618    1.0000 </r>
       <r>    0.6623    1.0000 </r>
       <r>    0.6644    1.0000 </r>
       <r>    0.6716    1.0000 </r>
       <r>    0.6737    1.0000 </r>
       <r>    0.6743    1.0000 </r>
       <r>    0.6963    1.0000 </r>
       <r>    0.7228    1.0000 </r>
       <r>    0.7819    1.0000 </r>
       <r>    0.8188    1.0000 </r>
       <r>    0.8296    1.0000 </r>
       <r>    0.8311    1.0000 </r>
       <r>    0.8317    1.0000 </r>
       <r>    0.8610    1.0000 </r>
       <r>    0.8611    1.0000 </r>
       <r>    0.9081    1.0000 </r>
       <r>    0.9405    1.0000 </r>
       <r>    0.9485    1.0000 </r>
       <r>    0.9490    1.0000 </r>
       <r>    0.9831    1.0000 </r>
       <r>    1.0255    1.0000 </r>
       <r>    1.0696    1.0000 </r>
       <r>    1.2688    1.0000 </r>
       <r>    1.2978    1.0000 </r>
       <r>    1.2980    1.0000 </r>
       <r>    1.3111    1.0000 </r>
       <r>    1.3325    1.0000 </r>
       <r>    1.3331    1.0000 </r>
       <r>    1.3374    1.0000 </r>
       <r>    1.3840    1.0000 </r>
       <r>    1.4047    1.0000 </r>
       <r>    1.4279    1.0000 </r>
       <r>    1.4662    1.0000 </r>
       <r>    1.4679    1.0000 </r>
       <r>    1.4682    1.0000 </r>
       <r>    1.4811    1.0000 </r>
       <r>    1.5110    1.0000 </r>
       <r>    1.5112    1.0000 </r>
       <r>    1.5411    1.0000 </r>
       <r>    1.5614    1.0000 </r>
       <r>    1.5772    1.0000 </r>
       <r>    1.6449    1.0000 </r>
       <r>    1.6552    1.0000 </r>
       <r>    1.7549    1.0000 </r>
       <r>    1.7558    1.0000 </r>
       <r>    1.7619    1.0000 </r>
       <r>    1.7778    1.0000 </r>
       <r>    1.8031    1.0000 </r>
       <r>    1.8039    1.0000 </r>
       <r>    1.8117    1.0000 </r>
       <r>    1.8231    1.0000 </r>
       <r>    1.8367    1.0000 </r>
       <r>    1.8369    1.0000 </r>
       <r>    1.8451    1.0000 </r>
       <r>    1.8464    1.0000 </r>
       <r>    1.8792    1.0000 </r>
       <r>    1.8899    1.0000 </r>
       <r>    1.9463    1.0000 </r>
       <r>    1.9931    1.0000 </r>
       <r>    1.9936    1.0000 </r>
       <r>    2.0060    1.0000 </r>
       <r>    2.0061    1.0000 </r>
       <r>    2.0088    1.0000 </r>
       <r>    2.0174    1.0000 </r>
       <r>    2.0194    1.0000 </r>
       <r>    2.0199    1.0000 </r>
       <r>    2.0394    1.0000 </r>
       <r>    2.0450    1.0000 </r>
       <r>    2.0463    1.0000 </r>
       <r>    2.0569    1.0000 </r>
       <r>    2.0680    1.0000 </r>
       <r>    2.0684    1.0000 </r>
       <r>    2.0911    1.0000 </r>
       <r>    2.1128    1.0000 </r>
       <r>    2.1886    1.0000 </r>
       <r>    2.1912    1.0000 </r>
       <r>    2.2473    1.0000 </r>
       <r>    2.2478    1.0000 </r>
       <r>    2.2713    1.0000 </r>
       <r>    2.2731    1.0000 </r>
       <r>    2.2844    1.0000 </r>
       <r>    2.4278    1.0000 </r>
       <r>    2.4663    1.0000 </r>
       <r>    2.4670    1.0000 </r>
       <r>    2.4784    1.0000 </r>
       <r>    2.5042    1.0000 </r>
       <r>    2.5282    1.0000 </r>
       <r>    2.5549    1.0000 </r>
       <r>    2.5925    1.0000 </r>
       <r>    2.6272    1.0000 </r>
       <r>    2.6274    1.0000 </r>
       <r>    2.6557    1.0000 </r>
       <r>    2.7388    1.0000 </r>
       <r>    2.7388    1.0000 </r>
       <r>    2.7612    1.0000 </r>
       <r>    2.7613    1.0000 </r>
       <r>    2.8332    1.0000 </r>
       <r>    2.8723    1.0000 </r>
       <r>    2.9255    1.0000 </r>
       <r>    2.9342    1.0000 </r>
       <r>    2.9343    1.0000 </r>
       <r>    2.9685    1.0000 </r>
       <r>    3.0262    1.0000 </r>
       <r>    3.0273    1.0000 </r>
       <r>    3.0610    1.0000 </r>
       <r>    3.0966    1.0000 </r>
       <r>    3.3084    1.0000 </r>
       <r>    3.3108    1.0000 </r>
       <r>    3.3476    1.0000 </r>
       <r>    3.3745    1.0000 </r>
       <r>    3.4218    1.0000 </r>
       <r>    3.4220    1.0000 </r>
       <r>    3.4391    1.0000 </r>
       <r>    3.4581    1.0000 </r>
       <r>    3.4586    1.0000 </r>
       <r>    3.5309    1.0000 </r>
       <r>    3.7477    1.0000 </r>
       <r>    3.8085    1.0000 </r>
       <r>    3.8094    1.0000 </r>
       <r>    3.8153    1.0000 </r>
       <r>    3.8157    1.0000 </r>
       <r>    3.8832    1.0000 </r>
       <r>    3.8835    1.0000 </r>
       <r>    3.9326    1.0000 </r>
       <r>    3.9356    1.0000 </r>
       <r>    3.9412    1.0000 </r>
       <r>    3.9416    1.0000 </r>
       <r>    4.0396    1.0000 </r>
       <r>    4.0404    1.0000 </r>
       <r>    4.0717    1.0000 </r>
       <r>    4.1389    1.0000 </r>
       <r>    4.1484    1.0000 </r>
       <r>    4.1506    1.0000 </r>
       <r>    4.3154    1.0000 </r>
       <r>    4.3187    1.0000 </r>
       <r>    4.3389    1.0000 </r>
       <r>    4.3590    1.0000 </r>
       <r>    4.3597    1.0000 </r>
       <r>    4.4287    1.0000 </r>
       <r>    4.4452    1.0000 </r>
       <r>    4.4469    1.0000 </r>
       <r>    4.4523    1.0000 </r>
       <r>    4.4552    1.0000 </r>
       <r>    4.4558    1.0000 </r>
       <r>    4.6355    1.0000 </r>
       <r>    4.6356    1.0000 </r>
       <r>    4.7308    1.0000 </r>
       <r>    4.7320    1.0000 </r>
       <r>    4.7626    1.0000 </r>
       <r>    4.7636    1.0000 </r>
       <r>    4.7682    1.0000 </r>
       <r>    4.7688    1.0000 </r>
       <r>    4.8101    1.0000 </r>
       <r>    4.8523    1.0000 </r>
       <r>    4.8531    1.0000 </r>
       <r>    4.8559    1.0000 </r>
       <r>    7.3432    0.0000 </r>
       <r>    8.1272    0.0000 </r>
       <r>    8.4427    0.0000 </r>
       <r>    8.6420    0.0000 </r>
       <r>    8.6425    0.0000 </r>
       <r>    8.8558    0.0000 </r>
       <r>    9.0838    0.0000 </r>
       <r>    9.0848    0.0000 </r>
       <r>    9.2610    0.0000 </r>
       <r>    9.2729    0.0000 </r>
       <r>    9.2871    0.0000 </r>
       <r>    9.2887    0.0000 </r>
       <r>    9.7256    0.0000 </r>
       <r>    9.7718    0.0000 </r>
       <r>    9.7724    0.0000 </r>
       <r>    9.7899    0.0000 </r>
       <r>    9.8540    0.0000 </r>
       <r>    9.8545    0.0000 </r>
       <r>    9.8613    0.0000 </r>
       <r>    9.8808    0.0000 </r>
       <r>    9.8904    0.0000 </r>
       <r>   10.0589    0.0000 </r>
       <r>   10.0826    0.0000 </r>
       <r>   10.1345    0.0000 </r>
       <r>   10.1359    0.0000 </r>
       <r>   10.3067    0.0000 </r>
       <r>   10.3072    0.0000 </r>
       <r>   10.4154    0.0000 </r>
       <r>   10.5262    0.0000 </r>
       <r>   10.5703    0.0000 </r>
       <r>   10.5721    0.0000 </r>
       <r>   10.5725    0.0000 </r>
       <r>   10.5778    0.0000 </r>
       <r>   10.5780    0.0000 </r>
       <r>   10.6760    0.0000 </r>
       <r>   10.9757    0.0000 </r>
       <r>   11.0185    0.0000 </r>
       <r>   11.0189    0.0000 </r>
       <r>   11.0397    0.0000 </r>
       <r>   11.0410    0.0000 </r>
       <r>   11.0775    0.0000 </r>
       <r>   11.1279    0.0000 </r>
       <r>   11.1784    0.0000 </r>
       <r>   11.1878    0.0000 </r>
       <r>   11.2282    0.0000 </r>
       <r>   11.2483    0.0000 </r>
       <r>   11.2488    0.0000 </r>
       <r>   11.2924    0.0000 </r>
       <r>   11.3060    0.0000 </r>
       <r>   11.4159    0.0000 </r>
       <r>   11.4175    0.0000 </r>
       <r>   11.4583    0.0000 </r>
       <r>   11.5192    0.0000 </r>
       <r>   11.5202    0.0000 </r>
       <r>   11.5299    0.0000 </r>
       <r>   11.5771    0.0000 </r>
       <r>   11.6804    0.0000 </r>
       <r>   11.6815    0.0000 </r>
       <r>   11.7967    0.0000 </r>
       <r>   11.7973    0.0000 </r>
       <r>   11.8166    0.0000 </r>
       <r>   11.8167    0.0000 </r>
       <r>   11.8836    0.0000 </r>
       <r>   11.9409    0.0000 </r>
       <r>   11.9744    0.0000 </r>
       <r>   11.9762    0.0000 </r>
       <r>   11.9837    0.0000 </r>
       <r>   12.0277    0.0000 </r>
       <r>   12.0291    0.0000 </r>
       <r>   12.0583    0.0000 </r>
       <r>   12.1623    0.0000 </r>
       <r>   12.2421    0.0000 </r>
       <r>   12.2571    0.0000 </r>
       <r>   12.2572    0.0000 </r>
       <r>   12.3149    0.0000 </r>
       <r>   12.3162    0.0000 </r>
       <r>   12.3218    0.0000 </r>
       <r>   12.3478    0.0000 </r>
       <r>   12.4615    0.0000 </r>
       <r>   12.4799    0.0000 </r>
       <r>   12.5167    0.0000 </r>
       <r>   12.5178    0.0000 </r>
       <r>   12.6141    0.0000 </r>
       <r>   12.6144    0.0000 </r>
       <r>   12.6608    0.0000 </r>
       <r>   12.6635    0.0000 </r>
       <r>   12.6641    0.0000 </r>
       <r>   12.6900    0.0000 </r>
       <r>   12.7473    0.0000 </r>
       <r>   12.8314    0.0000 </r>
       <r>   12.8719    0.0000 </r>
       <r>   12.8725    0.0000 </r>
       <r>   12.8728    0.0000 </r>
       <r>   13.1192    0.0000 </r>
       <r>   13.1203    0.0000 </r>
       <r>   13.1995    0.0000 </r>
       <r>   13.3796    0.0000 </r>
       <r>   13.4080    0.0000 </r>
       <r>   13.4105    0.0000 </r>
       <r>   13.4330    0.0000 </r>
       <r>   13.4393    0.0000 </r>
       <r>   13.4528    0.0000 </r>
       <r>   13.4898    0.0000 </r>
       <r>   13.5088    0.0000 </r>
       <r>   13.5469    0.0000 </r>
       <r>   13.5488    0.0000 </r>
      </set>
      <set comment="kpoint 2">
       <r>  -51.0673    1.0000 </r>
       <r>  -51.0554    1.0000 </r>
       <r>  -51.0551    1.0000 </r>
       <r>  -51.0550    1.0000 </r>
       <r>  -51.0548    1.0000 </r>
       <r>  -51.0547    1.0000 </r>
       <r>  -51.0545    1.0000 </r>
       <r>  -51.0543    1.0000 </r>
       <r>  -51.0536    1.0000 </r>
       <r>  -51.0533    1.0000 </r>
       <r>  -51.0531    1.0000 </r>
       <r>  -51.0527    1.0000 </r>
       <r>  -51.0525    1.0000 </r>
       <r>  -51.0522    1.0000 </r>
       <r>  -51.0519    1.0000 </r>
       <r>  -51.0513    1.0000 </r>
       <r>  -51.0443    1.0000 </r>
       <r>  -51.0442    1.0000 </r>
       <r>  -51.0441    1.0000 </r>
       <r>  -51.0440    1.0000 </r>
       <r>  -51.0437    1.0000 </r>
       <r>  -51.0434    1.0000 </r>
       <r>  -51.0433    1.0000 </r>
       <r>  -51.0395    1.0000 </r>
       <r>  -51.0393    1.0000 </r>
       <r>  -51.0392    1.0000 </r>
       <r>  -51.0391    1.0000 </r>
       <r>  -51.0387    1.0000 </r>
       <r>  -51.0387    1.0000 </r>
       <r>  -51.0386    1.0000 </r>
       <r>  -51.0373    1.0000 </r>
       <r>  -51.0355    1.0000 </r>
       <r>  -49.7017    1.0000 </r>
       <r>  -49.7017    1.0000 </r>
       <r>  -49.7015    1.0000 </r>
       <r>  -49.7014    1.0000 </r>
       <r>  -49.7011    1.0000 </r>
       <r>  -49.7008    1.0000 </r>
       <r>  -49.7006    1.0000 </r>
       <r>  -49.6941    1.0000 </r>
       <r>  -49.6939    1.0000 </r>
       <r>  -49.6938    1.0000 </r>
       <r>  -49.6936    1.0000 </r>
       <r>  -49.6932    1.0000 </r>
       <r>  -49.6932    1.0000 </r>
       <r>  -49.6931    1.0000 </r>
       <r>  -49.6929    1.0000 </r>
       <r>  -49.6919    1.0000 </r>
       <r>  -49.6099    1.0000 </r>
       <r>  -49.5992    1.0000 </r>
       <r>  -49.5989    1.0000 </r>
       <r>  -49.5984    1.0000 </r>
       <r>  -49.5982    1.0000 </r>
       <r>  -49.5980    1.0000 </r>
       <r>  -49.5979    1.0000 </r>
       <r>  -49.5976    1.0000 </r>
       <r>  -49.5973    1.0000 </r>
       <r>  -49.5972    1.0000 </r>
       <r>  -49.5970    1.0000 </r>
       <r>  -49.5969    1.0000 </r>
       <r>  -49.5967    1.0000 </r>
       <r>  -49.5966    1.0000 </r>
       <r>  -49.5965    1.0000 </r>
       <r>  -49.5965    1.0000 </r>
       <r>  -49.5783    1.0000 </r>
       <r>  -49.5680    1.0000 </r>
       <r>  -49.5676    1.0000 </r>
       <r>  -49.5671    1.0000 </r>
       <r>  -49.5669    1.0000 </r>
       <r>  -49.5667    1.0000 </r>
       <r>  -49.5665    1.0000 </r>
       <r>  -49.5662    1.0000 </r>
       <r>  -49.5657    1.0000 </r>
       <r>  -49.5655    1.0000 </r>
       <r>  -49.5653    1.0000 </r>
       <r>  -49.5651    1.0000 </r>
       <r>  -49.5649    1.0000 </r>
       <r>  -49.5648    1.0000 </r>
       <r>  -49.5646    1.0000 </r>
       <r>  -49.5646    1.0000 </r>
       <r>  -49.5542    1.0000 </r>
       <r>  -49.5541    1.0000 </r>
       <r>  -49.5540    1.0000 </r>
       <r>  -49.5539    1.0000 </r>
       <r>  -49.5536    1.0000 </r>
       <r>  -49.5532    1.0000 </r>
       <r>  -49.5529    1.0000 </r>
       <r>  -49.5469    1.0000 </r>
       <r>  -49.5395    1.0000 </r>
       <r>  -49.5391    1.0000 </r>
       <r>  -49.5391    1.0000 </r>
       <r>  -49.5389    1.0000 </r>
       <r>  -49.5385    1.0000 </r>
       <r>  -49.5384    1.0000 </r>
       <r>  -49.5383    1.0000 </r>
       <r>  -49.5381    1.0000 </r>
       <r>  -39.8652    1.0000 </r>
       <r>  -39.8649    1.0000 </r>
       <r>  -39.8648    1.0000 </r>
       <r>  -39.8647    1.0000 </r>
       <r>  -39.8646    1.0000 </r>
       <r>  -39.8645    1.0000 </r>
       <r>  -39.8644    1.0000 </r>
       <r>  -39.8643    1.0000 </r>
       <r>  -39.8642    1.0000 </r>
       <r>  -39.8642    1.0000 </r>
       <r>  -39.8638    1.0000 </r>
       <r>  -39.8638    1.0000 </r>
       <r>  -39.8637    1.0000 </r>
       <r>  -39.8634    1.0000 </r>
       <r>  -39.8633    1.0000 </r>
       <r>  -39.8564    1.0000 </r>
       <r>  -13.2071    1.0000 </r>
       <r>  -13.2064    1.0000 </r>
       <r>  -13.1943    1.0000 </r>
       <r>  -13.1694    1.0000 </r>
       <r>  -13.1587    1.0000 </r>
[...]
       <r>   -49.2936     0.0000     0.0000 </r>
       <r>   -49.0527     0.0000     0.0000 </r>
       <r>   -48.8118     0.0000     0.0000 </r>
       <r>   -48.5709     0.0000     0.0000 </r>
       <r>   -48.3300     0.0000     0.0000 </r>
       <r>   -48.0892     0.0000     0.0000 </r>
       <r>   -47.8483     0.0000     0.0000 </r>
       <r>   -47.6074     0.0000     0.0000 </r>
       <r>   -47.3665     0.0000     0.0000 </r>
       <r>   -47.1256     0.0000     0.0000 </r>
       <r>   -46.8848     0.0000     0.0000 </r>
       <r>   -46.6439     0.0000     0.0000 </r>
       <r>   -46.4030     0.1943     0.0468 </r>
       <r>   -46.1621   132.5352    31.9719 </r>
       <r>   -45.9212    49.0097    43.7774 </r>
       <r>   -45.6804   216.7989    95.9999 </r>
       <r>   -45.4395     0.0002    96.0000 </r>
       <r>   -45.1986     0.0000    96.0000 </r>
       <r>   -44.9577     0.0000    96.0000 </r>
       <r>   -44.7168     0.0000    96.0000 </r>
       <r>   -44.4760     0.0000    96.0000 </r>
       <r>   -44.2351     0.0000    96.0000 </r>
       <r>   -43.9942     0.0000    96.0000 </r>
       <r>   -43.7533     0.0000    96.0000 </r>
       <r>   -43.5124     0.0000    96.0000 </r>
       <r>   -43.2716     0.0000    96.0000 </r>
       <r>   -43.0307     0.0000    96.0000 </r>
       <r>   -42.7898     0.0000    96.0000 </r>
       <r>   -42.5489     0.0000    96.0000 </r>
       <r>   -42.3080     0.0000    96.0000 </r>
       <r>   -42.0672     0.0000    96.0000 </r>
       <r>   -41.8263     0.0000    96.0000 </r>
       <r>   -41.5854     0.0000    96.0000 </r>
       <r>   -41.3445     0.0000    96.0000 </r>
       <r>   -41.1036     0.0000    96.0000 </r>
       <r>   -40.8628     0.0000    96.0000 </r>
       <r>   -40.6219     0.0000    96.0000 </r>
       <r>   -40.3810     0.0000    96.0000 </r>
       <r>   -40.1401     0.0000    96.0000 </r>
       <r>   -39.8992     9.6024    98.3130 </r>
       <r>   -39.6583    56.8206   112.0000 </r>
       <r>   -39.4175     0.0000   112.0000 </r>
       <r>   -39.1766     0.0000   112.0000 </r>
       <r>   -38.9357     0.0000   112.0000 </r>
       <r>   -38.6948     0.0000   112.0000 </r>
       <r>   -38.4539     0.0000   112.0000 </r>
       <r>   -38.2131     0.0000   112.0000 </r>
       <r>   -37.9722     0.0000   112.0000 </r>
       <r>   -37.7313     0.0000   112.0000 </r>
       <r>   -37.4904     0.0000   112.0000 </r>
       <r>   -37.2495     0.0000   112.0000 </r>
       <r>   -37.0087     0.0000   112.0000 </r>
       <r>   -36.7678     0.0000   112.0000 </r>
       <r>   -36.5269     0.0000   112.0000 </r>
       <r>   -36.2860     0.0000   112.0000 </r>
       <r>   -36.0451     0.0000   112.0000 </r>
       <r>   -35.8043     0.0000   112.0000 </r>
       <r>   -35.5634     0.0000   112.0000 </r>
       <r>   -35.3225     0.0000   112.0000 </r>
       <r>   -35.0816     0.0000   112.0000 </r>
       <r>   -34.8407     0.0000   112.0000 </r>
       <r>   -34.5999     0.0000   112.0000 </r>
       <r>   -34.3590     0.0000   112.0000 </r>
       <r>   -34.1181     0.0000   112.0000 </r>
       <r>   -33.8772     0.0000   112.0000 </r>
       <r>   -33.6363     0.0000   112.0000 </r>
       <r>   -33.3955     0.0000   112.0000 </r>
       <r>   -33.1546     0.0000   112.0000 </r>
       <r>   -32.9137     0.0000   112.0000 </r>
       <r>   -32.6728     0.0000   112.0000 </r>
       <r>   -32.4319     0.0000   112.0000 </r>
       <r>   -32.1911     0.0000   112.0000 </r>
       <r>   -31.9502     0.0000   112.0000 </r>
       <r>   -31.7093     0.0000   112.0000 </r>
       <r>   -31.4684     0.0000   112.0000 </r>
       <r>   -31.2275     0.0000   112.0000 </r>
       <r>   -30.9867     0.0000   112.0000 </r>
       <r>   -30.7458     0.0000   112.0000 </r>
       <r>   -30.5049     0.0000   112.0000 </r>
       <r>   -30.2640     0.0000   112.0000 </r>
       <r>   -30.0231     0.0000   112.0000 </r>
       <r>   -29.7823     0.0000   112.0000 </r>
       <r>   -29.5414     0.0000   112.0000 </r>
       <r>   -29.3005     0.0000   112.0000 </r>
       <r>   -29.0596     0.0000   112.0000 </r>
       <r>   -28.8187     0.0000   112.0000 </r>
       <r>   -28.5779     0.0000   112.0000 </r>
       <r>   -28.3370     0.0000   112.0000 </r>
       <r>   -28.0961     0.0000   112.0000 </r>
       <r>   -27.8552     0.0000   112.0000 </r>
       <r>   -27.6143     0.0000   112.0000 </r>
       <r>   -27.3735     0.0000   112.0000 </r>
       <r>   -27.1326     0.0000   112.0000 </r>
       <r>   -26.8917     0.0000   112.0000 </r>
       <r>   -26.6508     0.0000   112.0000 </r>
       <r>   -26.4099     0.0000   112.0000 </r>
       <r>   -26.1691     0.0000   112.0000 </r>
       <r>   -25.9282     0.0000   112.0000 </r>
       <r>   -25.6873     0.0000   112.0000 </r>
       <r>   -25.4464     0.0000   112.0000 </r>
       <r>   -25.2055     0.0000   112.0000 </r>
       <r>   -24.9647     0.0000   112.0000 </r>
       <r>   -24.7238     0.0000   112.0000 </r>
       <r>   -24.4829     0.0000   112.0000 </r>
       <r>   -24.2420     0.0000   112.0000 </r>
       <r>   -24.0011     0.0000   112.0000 </r>
       <r>   -23.7603     0.0000   112.0000 </r>
       <r>   -23.5194     0.0000   112.0000 </r>
       <r>   -23.2785     0.0000   112.0000 </r>
       <r>   -23.0376     0.0000   112.0000 </r>
       <r>   -22.7967     0.0000   112.0000 </r>
       <r>   -22.5559     0.0000   112.0000 </r>
       <r>   -22.3150     0.0000   112.0000 </r>
       <r>   -22.0741     0.0000   112.0000 </r>
       <r>   -21.8332     0.0000   112.0000 </r>
       <r>   -21.5923     0.0000   112.0000 </r>
       <r>   -21.3515     0.0000   112.0000 </r>
       <r>   -21.1106     0.0000   112.0000 </r>
       <r>   -20.8697     0.0000   112.0000 </r>
       <r>   -20.6288     0.0000   112.0000 </r>
       <r>   -20.3879     0.0000   112.0000 </r>
       <r>   -20.1471     0.0000   112.0000 </r>
       <r>   -19.9062     0.0000   112.0000 </r>
       <r>   -19.6653     0.0000   112.0000 </r>
       <r>   -19.4244     0.0000   112.0000 </r>
       <r>   -19.1835     0.0000   112.0000 </r>
       <r>   -18.9427     0.0000   112.0000 </r>
       <r>   -18.7018     0.0000   112.0000 </r>
       <r>   -18.4609     0.0000   112.0000 </r>
       <r>   -18.2200     0.0000   112.0000 </r>
       <r>   -17.9791     0.0000   112.0000 </r>
       <r>   -17.7383     0.0000   112.0000 </r>
       <r>   -17.4974     0.0000   112.0000 </r>
       <r>   -17.2565     0.0000   112.0000 </r>
       <r>   -17.0156     0.0000   112.0000 </r>
       <r>   -16.7747     0.0000   112.0000 </r>
       <r>   -16.5338     0.0000   112.0000 </r>
       <r>   -16.2930     0.0000   112.0000 </r>
       <r>   -16.0521     0.0000   112.0000 </r>
       <r>   -15.8112     0.0000   112.0000 </r>
       <r>   -15.5703     0.0000   112.0000 </r>
       <r>   -15.3294     0.0000   112.0000 </r>
       <r>   -15.0886     0.0000   112.0000 </r>
       <r>   -14.8477     0.0000   112.0000 </r>
       <r>   -14.6068     0.0000   112.0000 </r>
       <r>   -14.3659     0.0000   112.0000 </r>
       <r>   -14.1250     0.0000   112.0000 </r>
       <r>   -13.8842     0.0000   112.0000 </r>
       <r>   -13.6433     0.0000   112.0000 </r>
       <r>   -13.4024     0.0000   112.0000 </r>
       <r>   -13.1615     0.0000   112.0000 </r>
       <r>   -12.9206     0.0065   112.0016 </r>
       <r>   -12.6798    41.8094   122.0726 </r>
       <r>   -12.4389    24.6072   128.0000 </r>
       <r>   -12.1980     0.0000   128.0000 </r>
       <r>   -11.9571     0.0000   128.0000 </r>
       <r>   -11.7162     0.0000   128.0000 </r>
       <r>   -11.4754     0.0000   128.0000 </r>
       <r>   -11.2345     0.0000   128.0000 </r>
       <r>   -10.9936     0.0000   128.0000 </r>
       <r>   -10.7527     0.0000   128.0000 </r>
       <r>   -10.5118     0.0000   128.0000 </r>
       <r>   -10.2710     0.0000   128.0000 </r>
       <r>   -10.0301     0.0000   128.0000 </r>
       <r>    -9.7892     0.0000   128.0000 </r>
       <r>    -9.5483     0.0000   128.0000 </r>
       <r>    -9.3074     0.0000   128.0000 </r>
       <r>    -9.0666     0.0000   128.0000 </r>
       <r>    -8.8257     0.0000   128.0000 </r>
       <r>    -8.5848     0.0000   128.0000 </r>
       <r>    -8.3439     0.0000   128.0000 </r>
       <r>    -8.1030     0.0000   128.0000 </r>
       <r>    -7.8622     0.0000   128.0000 </r>
       <r>    -7.6213     0.0000   128.0000 </r>
       <r>    -7.3804     0.5176   128.1247 </r>
       <r>    -7.1395    13.7442   131.4354 </r>
       <r>    -6.8986    29.5315   138.5489 </r>
       <r>    -6.6578    26.3316   144.8917 </r>
       <r>    -6.4169    29.4570   151.9873 </r>
       <r>    -6.1760     0.0528   152.0000 </r>
       <r>    -5.9351     0.0000   152.0000 </r>
       <r>    -5.6942     0.0000   152.0000 </r>
       <r>    -5.4534     0.0000   152.0000 </r>
       <r>    -5.2125     0.0000   152.0000 </r>
       <r>    -4.9716     0.0000   152.0000 </r>
       <r>    -4.7307     0.0000   152.0000 </r>
       <r>    -4.4898     0.0000   152.0000 </r>
       <r>    -4.2490     0.0000   152.0000 </r>
       <r>    -4.0081     0.0000   152.0000 </r>
       <r>    -3.7672     0.0000   152.0000 </r>
       <r>    -3.5263     0.0000   152.0000 </r>
       <r>    -3.2854     0.0000   152.0000 </r>
       <r>    -3.0446     0.0000   152.0000 </r>
       <r>    -2.8037     0.0000   152.0000 </r>
       <r>    -2.5628     0.0000   152.0000 </r>
       <r>    -2.3219     0.0000   152.0000 </r>
       <r>    -2.0810     0.0000   152.0000 </r>
       <r>    -1.8402     0.0000   152.0000 </r>
       <r>    -1.5993     0.0000   152.0000 </r>
       <r>    -1.3584     0.0000   152.0000 </r>
       <r>    -1.1175     0.0000   152.0000 </r>
       <r>    -0.8766     0.0000   152.0000 </r>
       <r>    -0.6358     0.0000   152.0000 </r>
       <r>    -0.3949     4.2471   153.0230 </r>
       <r>    -0.1540    20.3255   157.9191 </r>
       <r>     0.0869    12.2394   160.8673 </r>
       <r>     0.3278    18.6116   165.3504 </r>
       <r>     0.5686    29.5673   172.4726 </r>
       <r>     0.8095    39.2076   181.9170 </r>
       <r>     1.0504    37.2962   190.9009 </r>
       <r>     1.2913    31.1482   198.4039 </r>
       <r>     1.5322    20.7778   203.4088 </r>
       <r>     1.7730    28.9236   210.3760 </r>
       <r>     2.0139    37.0011   219.2888 </r>
       <r>     2.2548    27.4797   225.9081 </r>
       <r>     2.4957    27.0438   232.4224 </r>
       <r>     2.7366    30.9745   239.8835 </r>
       <r>     2.9774    44.4281   250.5854 </r>
       <r>     3.2183    45.5917   261.5675 </r>
       <r>     3.4592    31.8548   269.2407 </r>
       <r>     3.7001    12.3069   272.2052 </r>
       <r>     3.9410    17.9203   276.5219 </r>
       <r>     4.1818    52.3517   289.1324 </r>
       <r>     4.4227    45.1383   300.0053 </r>
       <r>     4.6636    16.5796   303.9990 </r>
       <r>     4.9045     0.0042   304.0000 </r>
       <r>     5.1454     0.0000   304.0000 </r>
       <r>     5.3862     0.0000   304.0000 </r>
       <r>     5.6271     0.0000   304.0000 </r>
       <r>     5.8680     0.0000   304.0000 </r>
       <r>     6.1089     0.0000   304.0000 </r>
       <r>     6.3498     0.4208   304.1014 </r>
       <r>     6.5907     4.2073   305.1148 </r>
       <r>     6.8315     7.9653   307.0335 </r>
       <r>     7.0724    19.6062   311.7563 </r>
       <r>     7.3133    44.3357   322.4358 </r>
       <r>     7.5542    53.5973   335.3464 </r>
       <r>     7.7951    63.0973   350.5453 </r>
       <r>     8.0359    66.1571   366.4812 </r>
       <r>     8.2768    70.3740   383.4329 </r>
       <r>     8.5177    58.6956   397.5715 </r>
       <r>     8.7586    58.8306   411.7426 </r>
       <r>     8.9995    47.5246   423.1904 </r>
       <r>     9.2403    29.5282   430.3032 </r>
       <r>     9.4812     8.7200   432.4036 </r>
       <r>     9.7221     3.1215   433.1556 </r>
       <r>     9.9630     8.4135   435.1822 </r>
       <r>    10.2039    18.7885   439.7080 </r>
       <r>    10.4447    17.9371   444.0287 </r>
       <r>    10.6856    17.2035   448.1726 </r>
       <r>    10.9265    27.5899   454.8185 </r>
       <r>    11.1674    18.9760   459.3894 </r>
       <r>    11.4083    24.0306   465.1779 </r>
       <r>    11.6491    14.6125   468.6978 </r>
       <r>    11.8900    13.8615   472.0368 </r>
       <r>    12.1309    16.2026   475.9396 </r>
       <r>    12.3718    36.9763   484.8465 </r>
       <r>    12.6127    32.5613   492.6899 </r>
       <r>    12.8535    29.6087   499.8220 </r>
       <r>    13.0944    20.2134   504.6910 </r>
       <r>    13.3353    22.4021   510.0873 </r>
       <r>    13.5762    27.2295   516.6463 </r>
       <r>    13.8171    23.7529   522.3679 </r>
       <r>    14.0579    26.2216   528.6842 </r>
       <r>    14.2988    19.0628   533.2760 </r>
       <r>    14.5397    16.5518   537.2630 </r>
       <r>    14.7806     3.0596   538.0000 </r>
       <r>    15.0215     0.0000   538.0000 </r>
       <r>    15.2623     0.0000   538.0000 </r>
       <r>    15.5032     0.0000   538.0000 </r>
       <r>    15.7441     0.0000   538.0000 </r>
       <r>    15.9850     0.0000   538.0000 </r>
       <r>    16.2259     0.0000   538.0000 </r>
       <r>    16.4667     0.0000   538.0000 </r>
       <r>    16.7076     0.0000   538.0000 </r>
       <r>    16.9485     0.0000   538.0000 </r>
       <r>    17.1894     0.0000   538.0000 </r>
       <r>    17.4303     0.0000   538.0000 </r>
       <r>    17.6711     0.0000   538.0000 </r>
       <r>    17.9120     0.0000   538.0000 </r>
      </set>
     </set>
    </array>
   </total>
  </dos>
 </calculation>
 <structure name="finalpos" >
  <crystal>
   <varray name="basis" >
    <v>      11.11223374       0.00000000      -0.00029034 </v>
    <v>       0.00000000      11.11745194       0.00000000 </v>
    <v>      -2.77510898       0.00000000      10.19872221 </v>
   </varray>
   <i name="volume">   1259.93837498 </i>
   <varray name="rec_basis" >
    <v>       0.08999155       0.00000000       0.02448702 </v>
    <v>       0.00000000       0.08994867       0.00000000 </v>
    <v>       0.00000256       0.00000000       0.09805220 </v>
   </varray>
  </crystal>
  <varray name="positions" >
   <v>       0.28894969       0.46933910       0.15583616 </v>
   <v>       0.78894969       0.46933910       0.15583616 </v>
   <v>       0.28894969       0.96933910       0.15583616 </v>
   <v>       0.78894969       0.96933910       0.15583616 </v>
   <v>       0.04646972       0.21934976       0.18586770 </v>
   <v>       0.54646972       0.21934976       0.18586770 </v>
   <v>       0.04646972       0.71934976       0.18586770 </v>
   <v>       0.54646972       0.71934976       0.18586770 </v>
   <v>       0.45353028       0.46934976       0.81413230 </v>
   <v>       0.95353028       0.46934976       0.81413230 </v>
   <v>       0.45353028       0.96934976       0.81413230 </v>
   <v>       0.95353028       0.96934976       0.81413230 </v>
   <v>       0.21105031       0.21933910       0.84416384 </v>
   <v>       0.71105031       0.21933910       0.84416384 </v>
   <v>       0.21105031       0.71933910       0.84416384 </v>
   <v>       0.71105031       0.71933910       0.84416384 </v>
   <v>       0.07654971       0.09530995       0.80250593 </v>
   <v>       0.57654971       0.09530995       0.80250593 </v>
   <v>       0.07654971       0.59530995       0.80250593 </v>
   <v>       0.57654971       0.59530995       0.80250593 </v>
   <v>       0.32470466       0.34338175       0.80344994 </v>
   <v>       0.82470466       0.34338175       0.80250383 </v>
   <v>       0.32470466       0.84338175       0.80250383 </v>
   <v>       0.82470466       0.84338175       0.80250383 </v>
   <v>       0.17529534       0.09338175       0.19749617 </v>
   <v>       0.67529534       0.09338175       0.19749617 </v>
   <v>       0.17529534       0.59338175       0.19749617 </v>
   <v>       0.67529534       0.59338175       0.19749617 </v>
   <v>       0.42345029       0.34530995       0.19749407 </v>
   <v>       0.92345029       0.34530995       0.19749407 </v>
   <v>       0.42345029       0.84530995       0.19749407 </v>
   <v>       0.92345029       0.84530995       0.19749407 </v>
   <v>       0.21868463       0.34523395       0.37102476 </v>
   <v>       0.71868463       0.34523395       0.37102476 </v>
   <v>       0.21868463       0.84523395       0.37102476 </v>
   <v>       0.71868463       0.84523395       0.37102476 </v>
   <v>       0.46681660       0.09344897       0.37102399 </v>
   <v>       0.96681660       0.09344897       0.37102399 </v>
   <v>       0.46681660       0.59344897       0.37102399 </v>
   <v>       0.96681660       0.59344897       0.37102399 </v>
   <v>       0.03318340       0.34344897       0.62897601 </v>
   <v>       0.53318340       0.34344897       0.62897601 </v>
   <v>       0.03318340       0.84344897       0.62897601 </v>
   <v>       0.53318340       0.84344897       0.62897601 </v>
   <v>       0.28131537       0.09523395       0.62897524 </v>
   <v>       0.78131537       0.09523395       0.62897524 </v>
   <v>       0.28131537       0.59523395       0.62897524 </v>
   <v>       0.78131537       0.59523395       0.62897524 </v>
   <v>       0.12439279       0.34434306       0.00000412 </v>
   <v>       0.62439279       0.34434306       0.00000412 </v>
   <v>       0.12439279       0.84434306       0.00000412 </v>
   <v>       0.62439279       0.84434306       0.00000412 </v>
   <v>       0.37560721       0.09434306       0.99999588 </v>
   <v>       0.87560721       0.09434306       0.99999588 </v>
   <v>       0.37560721       0.59434306       0.99999588 </v>
   <v>       0.87560721       0.59434306       0.99999588 </v>
   <v>       0.03824426       0.10634799       0.60632306 </v>
   <v>       0.53824426       0.10634799       0.60632306 </v>
   <v>       0.03824426       0.60634799       0.60632306 </v>
   <v>       0.53824426       0.60634799       0.60632306 </v>
   <v>       0.26492712       0.33232651       0.60632763 </v>
   <v>       0.76492712       0.33232651       0.60632763 </v>
   <v>       0.26492712       0.83232651       0.60632763 </v>
   <v>       0.76492712       0.83232651       0.60632763 </v>
   <v>       0.23507288       0.08232651       0.39367237 </v>
   <v>       0.73507288       0.08232651       0.39367237 </v>
   <v>       0.23507288       0.58232651       0.39367237 </v>
   <v>       0.73507288       0.58232651       0.39367237 </v>
   <v>       0.46175574       0.35634799       0.39367694 </v>
   <v>       0.96175574       0.35634799       0.39367694 </v>
   <v>       0.46175574       0.85634799       0.39367694 </v>
   <v>       0.96175574       0.85634799       0.39367694 </v>
   <v>       0.03848398       0.46936404       0.15397331 </v>
   <v>       0.53848398       0.46936404       0.15397331 </v>
   <v>       0.03848398       0.96936404       0.15397331 </v>
   <v>       0.53848398       0.96936404       0.15397331 </v>
   <v>       0.28861657       0.21935690       0.15447525 </v>
   <v>       0.78861657       0.21935690       0.15447525 </v>
   <v>       0.28861657       0.71935690       0.15447525 </v>
   <v>       0.78861657       0.71935690       0.15447525 </v>
   <v>       0.21138343       0.46935690       0.84552475 </v>
   <v>       0.71138343       0.46935690       0.84552475 </v>
   <v>       0.21138343       0.96935690       0.84552475 </v>
   <v>       0.71138343       0.96935690       0.84552475 </v>
   <v>       0.46151602       0.21936404       0.84602669 </v>
   <v>       0.96151602       0.21936404       0.84602669 </v>
   <v>       0.46151602       0.71936404       0.84602669 </v>
   <v>       0.96151602       0.71936404       0.84602669 </v>
  </varray>
 </structure>
</modeling>
