  99  99   0   0
  0.1430410E+02  0.1177748E-08  0.1177748E-08  0.1058004E-08  0.5000000E-15
  1.000000000000000E-004
  CAR 
 unknown system                          
     17.92913586    -54.33681245  301      5.43314897      1.00000000
    -54.337  0.0000E+00  0.0000E+00  0.0000E+00  0.0000E+00
    -54.096  0.0000E+00  0.0000E+00  0.0000E+00  0.0000E+00
    -53.855  0.0000E+00  0.0000E+00  0.0000E+00  0.0000E+00
    -53.614  0.0000E+00  0.0000E+00  0.0000E+00  0.0000E+00
    -53.373  0.0000E+00  0.0000E+00  0.0000E+00  0.0000E+00
    -53.132  0.0000E+00  0.0000E+00  0.0000E+00  0.0000E+00
    -52.891  0.0000E+00  0.0000E+00  0.0000E+00  0.0000E+00
    -52.651  0.0000E+00  0.0000E+00  0.0000E+00  0.0000E+00
    -52.410  0.0000E+00  0.0000E+00  0.0000E+00  0.0000E+00
    -52.169  0.0000E+00  0.0000E+00  0.0000E+00  0.0000E+00
    -51.928  0.0000E+00  0.0000E+00  0.0000E+00  0.0000E+00
    -51.687  0.0000E+00  0.0000E+00  0.0000E+00  0.0000E+00
    -51.446  0.0000E+00  0.0000E+00  0.0000E+00  0.0000E+00
    -51.205  0.4368E-03  0.0000E+00  0.1052E-03  0.0000E+00
    -50.964  0.1472E+03  0.0000E+00  0.3547E+02  0.0000E+00
    -50.724  0.2207E+01  0.0000E+00  0.3600E+02  0.0000E+00
    -50.483  0.0000E+00  0.0000E+00  0.3600E+02  0.0000E+00
    -50.242  0.0000E+00  0.0000E+00  0.3600E+02  0.0000E+00
    -50.001  0.0000E+00  0.0000E+00  0.3600E+02  0.0000E+00
    -49.760  0.1696E+01  0.0000E+00  0.3641E+02  0.0000E+00
    -49.519  0.2702E+03  0.0000E+00  0.1015E+03  0.0000E+00
    -49.278  0.2697E+02  0.0000E+00  0.1080E+03  0.0000E+00
    -49.037  0.0000E+00  0.0000E+00  0.1080E+03  0.0000E+00
    -48.796  0.0000E+00  0.0000E+00  0.1080E+03  0.0000E+00
    -48.556  0.0000E+00  0.0000E+00  0.1080E+03  0.0000E+00
    -48.315  0.0000E+00  0.0000E+00  0.1080E+03  0.0000E+00
    -48.074  0.0000E+00  0.0000E+00  0.1080E+03  0.0000E+00
    -47.833  0.0000E+00  0.0000E+00  0.1080E+03  0.0000E+00
    -47.592  0.0000E+00  0.0000E+00  0.1080E+03  0.0000E+00
    -47.351  0.0000E+00  0.0000E+00  0.1080E+03  0.0000E+00
    -47.110  0.0000E+00  0.0000E+00  0.1080E+03  0.0000E+00
    -46.869  0.0000E+00  0.0000E+00  0.1080E+03  0.0000E+00
    -46.628  0.0000E+00  0.0000E+00  0.1080E+03  0.0000E+00
    -46.388  0.0000E+00  0.3252E+00  0.1080E+03  0.7833E-01
    -46.147  0.0000E+00  0.1491E+03  0.1080E+03  0.3599E+02
    -45.906  0.0000E+00  0.6769E+02  0.1080E+03  0.5230E+02
    -45.665  0.0000E+00  0.2312E+03  0.1080E+03  0.1080E+03
    -45.424  0.0000E+00  0.0000E+00  0.1080E+03  0.1080E+03
    -45.183  0.0000E+00  0.0000E+00  0.1080E+03  0.1080E+03
    -44.942  0.0000E+00  0.0000E+00  0.1080E+03  0.1080E+03
    -44.701  0.0000E+00  0.0000E+00  0.1080E+03  0.1080E+03
    -44.460  0.0000E+00  0.0000E+00  0.1080E+03  0.1080E+03
    -44.220  0.0000E+00  0.0000E+00  0.1080E+03  0.1080E+03
    -43.979  0.0000E+00  0.0000E+00  0.1080E+03  0.1080E+03
    -43.738  0.0000E+00  0.0000E+00  0.1080E+03  0.1080E+03
    -43.497  0.0000E+00  0.0000E+00  0.1080E+03  0.1080E+03
    -43.256  0.0000E+00  0.0000E+00  0.1080E+03  0.1080E+03
    -43.015  0.0000E+00  0.0000E+00  0.1080E+03  0.1080E+03
    -42.774  0.0000E+00  0.0000E+00  0.1080E+03  0.1080E+03
    -42.533  0.0000E+00  0.0000E+00  0.1080E+03  0.1080E+03
    -42.292  0.0000E+00  0.0000E+00  0.1080E+03  0.1080E+03
    -42.052  0.0000E+00  0.0000E+00  0.1080E+03  0.1080E+03
    -41.811  0.0000E+00  0.0000E+00  0.1080E+03  0.1080E+03
    -41.570  0.0000E+00  0.0000E+00  0.1080E+03  0.1080E+03
    -41.329  0.0000E+00  0.0000E+00  0.1080E+03  0.1080E+03
    -41.088  0.0000E+00  0.0000E+00  0.1080E+03  0.1080E+03
    -40.847  0.0000E+00  0.0000E+00  0.1080E+03  0.1080E+03
    -40.606  0.0000E+00  0.0000E+00  0.1080E+03  0.1080E+03
    -40.365  0.0000E+00  0.0000E+00  0.1080E+03  0.1080E+03
    -40.125  0.5761E-11  0.3673E-11  0.1080E+03  0.1080E+03
    -39.884  0.2119E+02  0.1971E+02  0.1131E+03  0.1127E+03
    -39.643  0.5353E+02  0.5501E+02  0.1260E+03  0.1260E+03
    -39.402  0.0000E+00  0.0000E+00  0.1260E+03  0.1260E+03
    -39.161  0.0000E+00  0.0000E+00  0.1260E+03  0.1260E+03
    -38.920  0.0000E+00  0.0000E+00  0.1260E+03  0.1260E+03
    -38.679  0.0000E+00  0.0000E+00  0.1260E+03  0.1260E+03
    -38.438  0.0000E+00  0.0000E+00  0.1260E+03  0.1260E+03
    -38.197  0.0000E+00  0.0000E+00  0.1260E+03  0.1260E+03
    -37.957  0.0000E+00  0.0000E+00  0.1260E+03  0.1260E+03
    -37.716  0.0000E+00  0.0000E+00  0.1260E+03  0.1260E+03
    -37.475  0.0000E+00  0.0000E+00  0.1260E+03  0.1260E+03
    -37.234  0.0000E+00  0.0000E+00  0.1260E+03  0.1260E+03
    -36.993  0.0000E+00  0.0000E+00  0.1260E+03  0.1260E+03
    -36.752  0.0000E+00  0.0000E+00  0.1260E+03  0.1260E+03
    -36.511  0.0000E+00  0.0000E+00  0.1260E+03  0.1260E+03
    -36.270  0.0000E+00  0.0000E+00  0.1260E+03  0.1260E+03
    -36.029  0.0000E+00  0.0000E+00  0.1260E+03  0.1260E+03
    -35.789  0.0000E+00  0.0000E+00  0.1260E+03  0.1260E+03
    -35.548  0.0000E+00  0.0000E+00  0.1260E+03  0.1260E+03
    -35.307  0.0000E+00  0.0000E+00  0.1260E+03  0.1260E+03
    -35.066  0.0000E+00  0.0000E+00  0.1260E+03  0.1260E+03
    -34.825  0.0000E+00  0.0000E+00  0.1260E+03  0.1260E+03
    -34.584  0.0000E+00  0.0000E+00  0.1260E+03  0.1260E+03
    -34.343  0.0000E+00  0.0000E+00  0.1260E+03  0.1260E+03
    -34.102  0.0000E+00  0.0000E+00  0.1260E+03  0.1260E+03
    -33.861  0.0000E+00  0.0000E+00  0.1260E+03  0.1260E+03
    -33.621  0.0000E+00  0.0000E+00  0.1260E+03  0.1260E+03
    -33.380  0.0000E+00  0.0000E+00  0.1260E+03  0.1260E+03
    -33.139  0.0000E+00  0.0000E+00  0.1260E+03  0.1260E+03
    -32.898  0.0000E+00  0.0000E+00  0.1260E+03  0.1260E+03
    -32.657  0.0000E+00  0.0000E+00  0.1260E+03  0.1260E+03
    -32.416  0.0000E+00  0.0000E+00  0.1260E+03  0.1260E+03
    -32.175  0.0000E+00  0.0000E+00  0.1260E+03  0.1260E+03
    -31.934  0.0000E+00  0.0000E+00  0.1260E+03  0.1260E+03
    -31.693  0.0000E+00  0.0000E+00  0.1260E+03  0.1260E+03
    -31.453  0.0000E+00  0.0000E+00  0.1260E+03  0.1260E+03
    -31.212  0.0000E+00  0.0000E+00  0.1260E+03  0.1260E+03
    -30.971  0.0000E+00  0.0000E+00  0.1260E+03  0.1260E+03
    -30.730  0.0000E+00  0.0000E+00  0.1260E+03  0.1260E+03
    -30.489  0.0000E+00  0.0000E+00  0.1260E+03  0.1260E+03
    -30.248  0.0000E+00  0.0000E+00  0.1260E+03  0.1260E+03
    -30.007  0.0000E+00  0.0000E+00  0.1260E+03  0.1260E+03
    -29.766  0.0000E+00  0.0000E+00  0.1260E+03  0.1260E+03
    -29.526  0.0000E+00  0.0000E+00  0.1260E+03  0.1260E+03
    -29.285  0.0000E+00  0.0000E+00  0.1260E+03  0.1260E+03
    -29.044  0.0000E+00  0.0000E+00  0.1260E+03  0.1260E+03
    -28.803  0.0000E+00  0.0000E+00  0.1260E+03  0.1260E+03
    -28.562  0.0000E+00  0.0000E+00  0.1260E+03  0.1260E+03
    -28.321  0.0000E+00  0.0000E+00  0.1260E+03  0.1260E+03
    -28.080  0.0000E+00  0.0000E+00  0.1260E+03  0.1260E+03
    -27.839  0.0000E+00  0.0000E+00  0.1260E+03  0.1260E+03
    -27.598  0.0000E+00  0.0000E+00  0.1260E+03  0.1260E+03
    -27.358  0.0000E+00  0.0000E+00  0.1260E+03  0.1260E+03
    -27.117  0.0000E+00  0.0000E+00  0.1260E+03  0.1260E+03
    -26.876  0.0000E+00  0.0000E+00  0.1260E+03  0.1260E+03
    -26.635  0.0000E+00  0.0000E+00  0.1260E+03  0.1260E+03
    -26.394  0.0000E+00  0.0000E+00  0.1260E+03  0.1260E+03
    -26.153  0.0000E+00  0.0000E+00  0.1260E+03  0.1260E+03
    -25.912  0.0000E+00  0.0000E+00  0.1260E+03  0.1260E+03
    -25.671  0.0000E+00  0.0000E+00  0.1260E+03  0.1260E+03
    -25.430  0.0000E+00  0.0000E+00  0.1260E+03  0.1260E+03
    -25.190  0.0000E+00  0.0000E+00  0.1260E+03  0.1260E+03
    -24.949  0.0000E+00  0.0000E+00  0.1260E+03  0.1260E+03
    -24.708  0.0000E+00  0.0000E+00  0.1260E+03  0.1260E+03
    -24.467  0.0000E+00  0.0000E+00  0.1260E+03  0.1260E+03
    -24.226  0.0000E+00  0.0000E+00  0.1260E+03  0.1260E+03
    -23.985  0.0000E+00  0.0000E+00  0.1260E+03  0.1260E+03
    -23.744  0.0000E+00  0.0000E+00  0.1260E+03  0.1260E+03
    -23.503  0.0000E+00  0.0000E+00  0.1260E+03  0.1260E+03
    -23.262  0.0000E+00  0.0000E+00  0.1260E+03  0.1260E+03
    -23.022  0.0000E+00  0.0000E+00  0.1260E+03  0.1260E+03
    -22.781  0.0000E+00  0.0000E+00  0.1260E+03  0.1260E+03
    -22.540  0.0000E+00  0.0000E+00  0.1260E+03  0.1260E+03
    -22.299  0.0000E+00  0.0000E+00  0.1260E+03  0.1260E+03
    -22.058  0.0000E+00  0.0000E+00  0.1260E+03  0.1260E+03
    -21.817  0.0000E+00  0.0000E+00  0.1260E+03  0.1260E+03
    -21.576  0.0000E+00  0.0000E+00  0.1260E+03  0.1260E+03
    -21.335  0.0000E+00  0.0000E+00  0.1260E+03  0.1260E+03
    -21.094  0.0000E+00  0.0000E+00  0.1260E+03  0.1260E+03
    -20.854  0.0000E+00  0.0000E+00  0.1260E+03  0.1260E+03
    -20.613  0.0000E+00  0.0000E+00  0.1260E+03  0.1260E+03
    -20.372  0.0000E+00  0.0000E+00  0.1260E+03  0.1260E+03
    -20.131  0.0000E+00  0.0000E+00  0.1260E+03  0.1260E+03
    -19.890  0.0000E+00  0.0000E+00  0.1260E+03  0.1260E+03
    -19.649  0.0000E+00  0.0000E+00  0.1260E+03  0.1260E+03
    -19.408  0.0000E+00  0.0000E+00  0.1260E+03  0.1260E+03
    -19.167  0.0000E+00  0.0000E+00  0.1260E+03  0.1260E+03
    -18.926  0.0000E+00  0.0000E+00  0.1260E+03  0.1260E+03
    -18.686  0.0000E+00  0.0000E+00  0.1260E+03  0.1260E+03
    -18.445  0.0000E+00  0.0000E+00  0.1260E+03  0.1260E+03
    -18.204  0.0000E+00  0.0000E+00  0.1260E+03  0.1260E+03
    -17.963  0.0000E+00  0.0000E+00  0.1260E+03  0.1260E+03
    -17.722  0.0000E+00  0.0000E+00  0.1260E+03  0.1260E+03
    -17.481  0.0000E+00  0.0000E+00  0.1260E+03  0.1260E+03
    -17.240  0.0000E+00  0.0000E+00  0.1260E+03  0.1260E+03
    -16.999  0.0000E+00  0.0000E+00  0.1260E+03  0.1260E+03
    -16.759  0.0000E+00  0.0000E+00  0.1260E+03  0.1260E+03
    -16.518  0.0000E+00  0.0000E+00  0.1260E+03  0.1260E+03
    -16.277  0.0000E+00  0.0000E+00  0.1260E+03  0.1260E+03
    -16.036  0.0000E+00  0.0000E+00  0.1260E+03  0.1260E+03
    -15.795  0.0000E+00  0.0000E+00  0.1260E+03  0.1260E+03
    -15.554  0.0000E+00  0.0000E+00  0.1260E+03  0.1260E+03
    -15.313  0.0000E+00  0.0000E+00  0.1260E+03  0.1260E+03
    -15.072  0.0000E+00  0.0000E+00  0.1260E+03  0.1260E+03
    -14.831  0.0000E+00  0.0000E+00  0.1260E+03  0.1260E+03
    -14.591  0.0000E+00  0.0000E+00  0.1260E+03  0.1260E+03
    -14.350  0.0000E+00  0.0000E+00  0.1260E+03  0.1260E+03
    -14.109  0.0000E+00  0.0000E+00  0.1260E+03  0.1260E+03
    -13.868  0.0000E+00  0.0000E+00  0.1260E+03  0.1260E+03
    -13.627  0.0000E+00  0.0000E+00  0.1260E+03  0.1260E+03
    -13.386  0.6898E-04  0.0000E+00  0.1260E+03  0.1260E+03
    -13.145  0.2843E+02  0.0000E+00  0.1328E+03  0.1260E+03
    -12.904  0.4589E+02  0.1234E+00  0.1439E+03  0.1260E+03
    -12.663  0.4018E+00  0.5588E+02  0.1440E+03  0.1395E+03
    -12.423  0.0000E+00  0.1872E+02  0.1440E+03  0.1440E+03
    -12.182  0.0000E+00  0.0000E+00  0.1440E+03  0.1440E+03
    -11.941  0.0000E+00  0.0000E+00  0.1440E+03  0.1440E+03
    -11.700  0.0000E+00  0.0000E+00  0.1440E+03  0.1440E+03
    -11.459  0.0000E+00  0.0000E+00  0.1440E+03  0.1440E+03
    -11.218  0.0000E+00  0.0000E+00  0.1440E+03  0.1440E+03
    -10.977  0.0000E+00  0.0000E+00  0.1440E+03  0.1440E+03
    -10.736  0.0000E+00  0.0000E+00  0.1440E+03  0.1440E+03
    -10.495  0.0000E+00  0.0000E+00  0.1440E+03  0.1440E+03
    -10.255  0.0000E+00  0.0000E+00  0.1440E+03  0.1440E+03
    -10.014  0.0000E+00  0.0000E+00  0.1440E+03  0.1440E+03
     -9.773  0.0000E+00  0.0000E+00  0.1440E+03  0.1440E+03
     -9.532  0.0000E+00  0.0000E+00  0.1440E+03  0.1440E+03
     -9.291  0.0000E+00  0.0000E+00  0.1440E+03  0.1440E+03
     -9.050  0.0000E+00  0.0000E+00  0.1440E+03  0.1440E+03
     -8.809  0.0000E+00  0.0000E+00  0.1440E+03  0.1440E+03
     -8.568  0.0000E+00  0.0000E+00  0.1440E+03  0.1440E+03
     -8.327  0.0000E+00  0.0000E+00  0.1440E+03  0.1440E+03
     -8.087  0.0000E+00  0.0000E+00  0.1440E+03  0.1440E+03
     -7.846  0.5083E-11  0.0000E+00  0.1440E+03  0.1440E+03
     -7.605  0.3955E+00  0.5717E-12  0.1441E+03  0.1440E+03
     -7.364  0.1578E+02  0.3170E+00  0.1479E+03  0.1441E+03
     -7.123  0.3274E+02  0.1753E+02  0.1558E+03  0.1483E+03
     -6.882  0.3194E+02  0.3162E+02  0.1635E+03  0.1559E+03
     -6.641  0.3122E+02  0.2375E+02  0.1710E+03  0.1616E+03
     -6.400  0.3396E-03  0.3865E+02  0.1710E+03  0.1709E+03
     -6.160  0.0000E+00  0.2124E+00  0.1710E+03  0.1710E+03
     -5.919  0.0000E+00  0.0000E+00  0.1710E+03  0.1710E+03
     -5.678  0.0000E+00  0.0000E+00  0.1710E+03  0.1710E+03
     -5.437  0.0000E+00  0.0000E+00  0.1710E+03  0.1710E+03
     -5.196  0.0000E+00  0.0000E+00  0.1710E+03  0.1710E+03
     -4.955  0.0000E+00  0.0000E+00  0.1710E+03  0.1710E+03
     -4.714  0.0000E+00  0.0000E+00  0.1710E+03  0.1710E+03
     -4.473  0.0000E+00  0.0000E+00  0.1710E+03  0.1710E+03
     -4.232  0.0000E+00  0.0000E+00  0.1710E+03  0.1710E+03
     -3.992  0.0000E+00  0.0000E+00  0.1710E+03  0.1710E+03
     -3.751  0.0000E+00  0.0000E+00  0.1710E+03  0.1710E+03
     -3.510  0.0000E+00  0.0000E+00  0.1710E+03  0.1710E+03
     -3.269  0.0000E+00  0.0000E+00  0.1710E+03  0.1710E+03
     -3.028  0.0000E+00  0.0000E+00  0.1710E+03  0.1710E+03
     -2.787  0.0000E+00  0.0000E+00  0.1710E+03  0.1710E+03
     -2.546  0.0000E+00  0.0000E+00  0.1710E+03  0.1710E+03
     -2.305  0.0000E+00  0.0000E+00  0.1710E+03  0.1710E+03
     -2.064  0.2129E-02  0.0000E+00  0.1710E+03  0.1710E+03
     -1.824  0.2196E+02  0.0000E+00  0.1763E+03  0.1710E+03
     -1.583  0.1895E+02  0.0000E+00  0.1809E+03  0.1710E+03
     -1.342  0.1473E+02  0.0000E+00  0.1844E+03  0.1710E+03
     -1.101  0.2286E+02  0.0000E+00  0.1899E+03  0.1710E+03
     -0.860  0.5503E+02  0.0000E+00  0.2032E+03  0.1710E+03
     -0.619  0.6281E+02  0.4536E-04  0.2183E+03  0.1710E+03
     -0.378  0.3902E+02  0.7590E+01  0.2277E+03  0.1728E+03
     -0.137  0.8085E+02  0.2210E+02  0.2472E+03  0.1782E+03
      0.104  0.8824E+02  0.1291E+02  0.2684E+03  0.1813E+03
      0.344  0.8431E+02  0.2314E+02  0.2887E+03  0.1868E+03
      0.585  0.7244E+02  0.2955E+02  0.3062E+03  0.1940E+03
      0.826  0.6435E+02  0.4851E+02  0.3217E+03  0.2056E+03
      1.067  0.4042E+02  0.4071E+02  0.3314E+03  0.2154E+03
      1.308  0.3405E+02  0.3423E+02  0.3396E+03  0.2237E+03
      1.549  0.5141E+02  0.2334E+02  0.3520E+03  0.2293E+03
      1.790  0.4992E+02  0.3314E+02  0.3640E+03  0.2373E+03
      2.031  0.7476E+02  0.4064E+02  0.3820E+03  0.2471E+03
      2.272  0.6888E+02  0.3004E+02  0.3986E+03  0.2543E+03
      2.512  0.3088E+02  0.2898E+02  0.4061E+03  0.2613E+03
      2.753  0.5004E+02  0.3643E+02  0.4181E+03  0.2701E+03
      2.994  0.2779E+02  0.4590E+02  0.4248E+03  0.2811E+03
      3.235  0.8569E+01  0.4946E+02  0.4269E+03  0.2930E+03
      3.476  0.3807E+02  0.4325E+02  0.4361E+03  0.3035E+03
      3.717  0.2616E+02  0.8232E+01  0.4424E+03  0.3054E+03
      3.958  0.3550E+02  0.1943E+02  0.4509E+03  0.3101E+03
      4.199  0.3996E+02  0.7028E+02  0.4605E+03  0.3271E+03
      4.439  0.3785E+02  0.4949E+02  0.4697E+03  0.3390E+03
      4.680  0.3654E+02  0.1253E+02  0.4785E+03  0.3420E+03
      4.921  0.2652E+02  0.7013E-04  0.4848E+03  0.3420E+03
      5.162  0.4814E+01  0.0000E+00  0.4860E+03  0.3420E+03
      5.403  0.7101E-05  0.0000E+00  0.4860E+03  0.3420E+03
      5.644  0.0000E+00  0.0000E+00  0.4860E+03  0.3420E+03
      5.885  0.0000E+00  0.0000E+00  0.4860E+03  0.3420E+03
      6.126  0.0000E+00  0.2665E-10  0.4860E+03  0.3420E+03
      6.367  0.0000E+00  0.9387E+00  0.4860E+03  0.3422E+03
      6.607  0.0000E+00  0.5116E+01  0.4860E+03  0.3435E+03
      6.848  0.0000E+00  0.8571E+01  0.4860E+03  0.3455E+03
      7.089  0.5292E-15  0.1956E+02  0.4860E+03  0.3502E+03
      7.330  0.2540E-01  0.5829E+02  0.4860E+03  0.3643E+03
      7.571  0.1284E+00  0.5994E+02  0.4860E+03  0.3787E+03
      7.812  0.5318E+00  0.6368E+02  0.4862E+03  0.3941E+03
      8.053  0.5047E+00  0.7396E+02  0.4863E+03  0.4119E+03
      8.294  0.2312E+01  0.7816E+02  0.4868E+03  0.4307E+03
      8.535  0.4390E+01  0.7131E+02  0.4879E+03  0.4479E+03
      8.775  0.9196E+01  0.6730E+02  0.4901E+03  0.4641E+03
      9.016  0.1512E+02  0.4890E+02  0.4938E+03  0.4759E+03
      9.257  0.1555E+02  0.3401E+02  0.4975E+03  0.4841E+03
      9.498  0.1953E+02  0.9544E+01  0.5022E+03  0.4864E+03
      9.739  0.1541E+02  0.5332E+01  0.5059E+03  0.4876E+03
      9.980  0.2355E+02  0.1114E+02  0.5116E+03  0.4903E+03
     10.221  0.1757E+02  0.1543E+02  0.5158E+03  0.4940E+03
     10.462  0.2138E+02  0.2498E+02  0.5210E+03  0.5001E+03
     10.703  0.1551E+02  0.2131E+02  0.5247E+03  0.5052E+03
     10.943  0.1485E+02  0.2127E+02  0.5283E+03  0.5103E+03
     11.184  0.2154E+02  0.3246E+02  0.5335E+03  0.5181E+03
     11.425  0.3157E+02  0.2034E+02  0.5411E+03  0.5230E+03
     11.666  0.2941E+02  0.1898E+02  0.5482E+03  0.5276E+03
     11.907  0.3222E+02  0.1201E+02  0.5559E+03  0.5305E+03
     12.148  0.3668E+02  0.2265E+02  0.5648E+03  0.5360E+03
     12.389  0.2240E+02  0.4404E+02  0.5702E+03  0.5466E+03
     12.630  0.2034E+02  0.3614E+02  0.5751E+03  0.5553E+03
     12.871  0.2604E+02  0.3412E+02  0.5813E+03  0.5635E+03
     13.111  0.2464E+02  0.2048E+02  0.5873E+03  0.5684E+03
     13.352  0.2839E+02  0.2314E+02  0.5941E+03  0.5740E+03
     13.593  0.2562E+02  0.3310E+02  0.6003E+03  0.5820E+03
     13.834  0.1906E+02  0.2675E+02  0.6049E+03  0.5884E+03
     14.075  0.4712E+01  0.2730E+02  0.6060E+03  0.5950E+03
     14.316  0.2008E-02  0.2181E+02  0.6060E+03  0.6002E+03
     14.557  0.0000E+00  0.2097E+02  0.6060E+03  0.6053E+03
     14.798  0.0000E+00  0.2909E+01  0.6060E+03  0.6060E+03
     15.038  0.0000E+00  0.3878E-05  0.6060E+03  0.6060E+03
     15.279  0.0000E+00  0.0000E+00  0.6060E+03  0.6060E+03
     15.520  0.0000E+00  0.0000E+00  0.6060E+03  0.6060E+03
     15.761  0.0000E+00  0.0000E+00  0.6060E+03  0.6060E+03
     16.002  0.0000E+00  0.0000E+00  0.6060E+03  0.6060E+03
     16.243  0.0000E+00  0.0000E+00  0.6060E+03  0.6060E+03
     16.484  0.0000E+00  0.0000E+00  0.6060E+03  0.6060E+03
     16.725  0.0000E+00  0.0000E+00  0.6060E+03  0.6060E+03
     16.966  0.0000E+00  0.0000E+00  0.6060E+03  0.6060E+03
     17.206  0.0000E+00  0.0000E+00  0.6060E+03  0.6060E+03
     17.447  0.0000E+00  0.0000E+00  0.6060E+03  0.6060E+03
     17.688  0.0000E+00  0.0000E+00  0.6060E+03  0.6060E+03
     17.929  0.0000E+00  0.0000E+00  0.6060E+03  0.6060E+03
