<?xml version="1.0" encoding="ISO-8859-1"?>
<modeling>
 <generator>
  <i name="program" type="string">vasp </i>
  <i name="version" type="string">5.4.4.18Apr17-6-g9f103f2a35  </i>
  <i name="subversion" type="string">(build Oct 25 2017 14:42:18) complex            parallel </i>
  <i name="platform" type="string">LinuxIFC </i>
  <i name="date" type="string">2021 05 28 </i>
  <i name="time" type="string">04:58:23 </i>
 </generator>
 <incar>
  <i type="string" name="PREC">accurate</i>
  <i type="string" name="ALGO"> normal</i>
  <i type="logical" name="ADDGRID"> T  </i>
  <i type="int" name="ISPIN">     2</i>
  <i type="int" name="ICHARG">     1</i>
  <i type="int" name="NELM">   200</i>
  <i type="int" name="NELMIN">     8</i>
  <i name="EDIFF">      0.00000100</i>
  <i type="int" name="ISYM">     0</i>
  <i name="ENCUT">    650.00000000</i>
  <v name="MAGMOM">      0.60000000      0.60000000      0.60000000      0.60000000      0.60000000      0.60000000      0.60000000      0.60000000      0.60000000      0.60000000      0.60000000      0.60000000      0.60000000      0.60000000      0.60000000      0.60000000      0.60000000      0.60000000      0.60000000      0.60000000
      0.60000000      0.60000000      0.60000000      0.60000000      0.60000000      0.60000000      0.60000000      0.60000000      0.60000000      0.60000000      0.60000000      0.60000000      0.60000000      0.60000000      0.60000000      0.60000000      0.60000000      0.60000000      0.60000000      0.60000000
      0.60000000      0.60000000      0.60000000      0.60000000      0.60000000      0.60000000      0.60000000      0.60000000      0.60000000      0.60000000      0.60000000      0.60000000      0.60000000      0.60000000      0.60000000      0.60000000      0.60000000      0.60000000      0.60000000      0.60000000
      0.60000000      0.60000000      0.60000000      5.00000000      5.00000000      5.00000000      5.00000000      5.00000000      5.00000000      5.00000000      5.00000000      5.00000000      5.00000000      5.00000000      5.00000000      5.00000000      5.00000000      5.00000000      5.00000000      5.00000000
      5.00000000      5.00000000      5.00000000      5.00000000      5.00000000      5.00000000      5.00000000      5.00000000      5.00000000      5.00000000      5.00000000      5.00000000      5.00000000      5.00000000      5.00000000      5.00000000      5.00000000      5.00000000      5.00000000</v>
  <i type="logical" name="LREAL"> F  </i>
  <i type="int" name="ISMEAR">     0</i>
  <i name="SIGMA">      0.05000000</i>
  <i type="int" name="NWRITE">     1</i>
  <i type="int" name="LMAXMIX">     4</i>
  <i type="logical" name="LWAVE"> F  </i>
  <i type="logical" name="LASPH"> T  </i>
  <v type="int" name="KPOINT_BSE">    -1     0     0     0</v>
  <i type="int" name="NELM">   200</i>
  <i type="string" name="GGA"> pe</i>
  <i type="logical" name="LDAU"> T  </i>
  <v type="int" name="LDAUTYPE">     2</v>
  <v type="int" name="LDAUL">    -1    -1    -1     2</v>
  <v name="LDAUU">      0.00000000      0.00000000      0.00000000      4.00000000</v>
  <v name="LDAUJ">      0.00000000      0.00000000      0.00000000      0.00000000</v>
  <i type="logical" name="LASPH"> T  </i>
 </incar>
 <structure name="primitive_cell" >
  <crystal>
   <varray name="basis" >
    <v>      11.77726974       0.00848871       0.06923316 </v>
    <v>      -0.03028248      11.77723386       0.06923316 </v>
    <v>      -2.02000231      -2.02666320      10.18574622 </v>
   </varray>
   <i name="volume">   1416.10551572 </i>
   <varray name="rec_basis" >
    <v>       0.08481023       0.00011906       0.01684296 </v>
    <v>      -0.00016014       0.08481016       0.01684296 </v>
    <v>      -0.00057537      -0.00057727       0.09794744 </v>
   </varray>
  </crystal>
  <varray name="positions" >
   <v>       0.20224939       0.24291860      -0.16816581 </v>
   <v>       0.19734517       0.40355659      -0.19686089 </v>
   <v>       0.19734517       0.07022326      -0.19686089 </v>
   <v>       0.39684232       0.26982435       0.00000000 </v>
   <v>       0.06350899       0.26982435       0.00000000 </v>
   <v>       0.37094724       0.41064640      -0.15457223 </v>
   <v>       0.03761391       0.41064640      -0.15457223 </v>
   <v>       0.03761391       0.07731307      -0.15457223 </v>
   <v>       0.37094724       0.07731307      -0.15457223 </v>
   <v>       0.00253935       0.20657296      -0.37079665 </v>
   <v>       0.33587268       0.20657296      -0.37079665 </v>
   <v>       0.16118393       0.04306059      -0.39352170 </v>
   <v>       0.16118393       0.37639393      -0.39352170 </v>
   <v>       0.25602027       0.29571943       0.15457223 </v>
   <v>       0.20224939      -0.42459715      -0.16816581 </v>
   <v>      -0.13108394       0.24206952      -0.16816581 </v>
   <v>      -0.46441728       0.24206952      -0.16816581 </v>
   <v>       0.20224939      -0.09126381      -0.16816581 </v>
   <v>       0.26311007       0.46932149       0.19686089 </v>
   <v>       0.26311007       0.13598816       0.19686089 </v>
   <v>      -0.46932149       0.40355659      -0.19686089 </v>
   <v>      -0.13598816       0.40355659      -0.19686089 </v>
   <v>      -0.13598816       0.07022326      -0.19686089 </v>
   <v>       0.42459715       0.46441728       0.16816581 </v>
   <v>      -0.46932149       0.07022326      -0.19686089 </v>
   <v>       0.09126381       0.46441728       0.16816581 </v>
   <v>       0.42459715       0.13108394       0.16816581 </v>
   <v>       0.09126381       0.13108394       0.16816581 </v>
   <v>       0.39684232      -0.39684232       0.00000000 </v>
   <v>       0.06350899      -0.39684232       0.00000000 </v>
   <v>       0.06350899      -0.06350899       0.00000000 </v>
   <v>       0.39684232      -0.06350899       0.00000000 </v>
   <v>       0.00253935      -0.46009370      -0.37079665 </v>
   <v>       0.33587268      -0.46009370      -0.37079665 </v>
   <v>       0.29027274       0.17214940       0.39352170 </v>
   <v>       0.00253935      -0.12676037      -0.37079665 </v>
   <v>       0.33587268      -0.12676037      -0.37079665 </v>
   <v>       0.49451727       0.04306059      -0.39352170 </v>
   <v>      -0.04306059       0.17214940       0.39352170 </v>
   <v>       0.49451727       0.37639393      -0.39352170 </v>
   <v>      -0.17214940       0.04306059      -0.39352170 </v>
   <v>      -0.17214940       0.37639393      -0.39352170 </v>
   <v>       0.12676037       0.33079399       0.37079665 </v>
   <v>       0.12676037      -0.00253935       0.37079665 </v>
   <v>       0.25602027      -0.37094724       0.15457223 </v>
   <v>      -0.41064640       0.29571943       0.15457223 </v>
   <v>      -0.07731307       0.29571943       0.15457223 </v>
   <v>       0.25602027      -0.03761391       0.15457223 </v>
   <v>      -0.46441728      -0.42459715      -0.16816581 </v>
   <v>      -0.13108394      -0.42459715      -0.16816581 </v>
   <v>      -0.13108394      -0.09126381      -0.16816581 </v>
   <v>      -0.46441728      -0.09126381      -0.16816581 </v>
   <v>      -0.40355659       0.46932149       0.19686089 </v>
   <v>      -0.07022326       0.46932149       0.19686089 </v>
   <v>      -0.07022326       0.13598816       0.19686089 </v>
   <v>      -0.40355659       0.13598816       0.19686089 </v>
   <v>       0.46009370       0.33079399       0.37079665 </v>
   <v>       0.19734517      -0.26311007      -0.19686089 </v>
   <v>       0.29027274      -0.49451727       0.39352170 </v>
   <v>      -0.26982435       0.26982435       0.00000000 </v>
   <v>       0.37094724      -0.25602027      -0.15457223 </v>
   <v>      -0.29571943       0.41064640      -0.15457223 </v>
   <v>       0.03761391      -0.25602027      -0.15457223 </v>
   <v>      -0.29571943       0.07731307      -0.15457223 </v>
   <v>       0.29027274      -0.16118393       0.39352170 </v>
   <v>      -0.33079399       0.20657296      -0.37079665 </v>
   <v>      -0.04306059      -0.16118393       0.39352170 </v>
   <v>       0.16118393      -0.29027274      -0.39352170 </v>
   <v>      -0.04306059      -0.49451727       0.39352170 </v>
   <v>      -0.20657296       0.33079399       0.37079665 </v>
   <v>      -0.20657296      -0.00253935       0.37079665 </v>
   <v>      -0.41064640      -0.37094724       0.15457223 </v>
   <v>      -0.07731307      -0.37094724       0.15457223 </v>
   <v>       0.46009370      -0.00253935       0.37079665 </v>
   <v>      -0.07731307      -0.03761391       0.15457223 </v>
   <v>      -0.41064640      -0.03761391       0.15457223 </v>
   <v>       0.26311007      -0.19734517       0.19686089 </v>
   <v>       0.12676037      -0.33587268       0.37079665 </v>
   <v>       0.46009370      -0.33587268       0.37079665 </v>
   <v>      -0.46932149      -0.26311007      -0.19686089 </v>
   <v>       0.42459715      -0.20224939       0.16816581 </v>
   <v>      -0.13598816      -0.26311007      -0.19686089 </v>
   <v>      -0.24206952       0.46441728       0.16816581 </v>
   <v>       0.09126381      -0.20224939       0.16816581 </v>
   <v>      -0.24206952       0.13108394       0.16816581 </v>
   <v>      -0.37639393       0.17214940       0.39352170 </v>
   <v>      -0.37639393      -0.49451727       0.39352170 </v>
   <v>      -0.26982435      -0.39684232       0.00000000 </v>
   <v>      -0.26982435      -0.06350899       0.00000000 </v>
   <v>      -0.33079399      -0.46009370      -0.37079665 </v>
   <v>      -0.33079399      -0.12676037      -0.37079665 </v>
   <v>       0.49451727      -0.29027274      -0.39352170 </v>
   <v>      -0.17214940      -0.29027274      -0.39352170 </v>
   <v>      -0.07022326      -0.19734517       0.19686089 </v>
   <v>      -0.40355659      -0.19734517       0.19686089 </v>
   <v>      -0.29571943      -0.25602027      -0.15457223 </v>
   <v>      -0.37639393      -0.16118393       0.39352170 </v>
   <v>      -0.20657296      -0.33587268       0.37079665 </v>
   <v>      -0.24206952      -0.20224939       0.16816581 </v>
  </varray>
 </structure>
 <varray name="primitive_index" >
  <v type="int" >        1 </v>
  <v type="int" >       31 </v>
  <v type="int" >       28 </v>
  <v type="int" >       56 </v>
  <v type="int" >       55 </v>
  <v type="int" >       86 </v>
  <v type="int" >       85 </v>
  <v type="int" >       82 </v>
  <v type="int" >       83 </v>
  <v type="int" >       37 </v>
  <v type="int" >       38 </v>
  <v type="int" >       73 </v>
  <v type="int" >       76 </v>
  <v type="int" >       91 </v>
  <v type="int" >        4 </v>
  <v type="int" >        3 </v>
  <v type="int" >        2 </v>
  <v type="int" >        7 </v>
  <v type="int" >       22 </v>
  <v type="int" >       19 </v>
  <v type="int" >       32 </v>
  <v type="int" >       33 </v>
  <v type="int" >       30 </v>
  <v type="int" >       14 </v>
  <v type="int" >       29 </v>
  <v type="int" >       13 </v>
  <v type="int" >       11 </v>
  <v type="int" >       10 </v>
  <v type="int" >       59 </v>
  <v type="int" >       58 </v>
  <v type="int" >       61 </v>
  <v type="int" >       62 </v>
  <v type="int" >       40 </v>
  <v type="int" >       41 </v>
  <v type="int" >       64 </v>
  <v type="int" >       43 </v>
  <v type="int" >       44 </v>
  <v type="int" >       74 </v>
  <v type="int" >       66 </v>
  <v type="int" >       77 </v>
  <v type="int" >       75 </v>
  <v type="int" >       78 </v>
  <v type="int" >       46 </v>
  <v type="int" >       52 </v>
  <v type="int" >       94 </v>
  <v type="int" >       92 </v>
  <v type="int" >       93 </v>
  <v type="int" >       97 </v>
  <v type="int" >        5 </v>
  <v type="int" >        6 </v>
  <v type="int" >        9 </v>
  <v type="int" >        8 </v>
  <v type="int" >       23 </v>
  <v type="int" >       24 </v>
  <v type="int" >       21 </v>
  <v type="int" >       20 </v>
  <v type="int" >       47 </v>
  <v type="int" >       34 </v>
  <v type="int" >       67 </v>
  <v type="int" >       57 </v>
  <v type="int" >       89 </v>
  <v type="int" >       87 </v>
  <v type="int" >       88 </v>
  <v type="int" >       84 </v>
  <v type="int" >       70 </v>
  <v type="int" >       39 </v>
  <v type="int" >       72 </v>
  <v type="int" >       79 </v>
  <v type="int" >       69 </v>
  <v type="int" >       48 </v>
  <v type="int" >       54 </v>
  <v type="int" >       95 </v>
  <v type="int" >       96 </v>
  <v type="int" >       53 </v>
  <v type="int" >       99 </v>
  <v type="int" >       98 </v>
  <v type="int" >       25 </v>
  <v type="int" >       49 </v>
  <v type="int" >       50 </v>
  <v type="int" >       35 </v>
  <v type="int" >       17 </v>
  <v type="int" >       36 </v>
  <v type="int" >       15 </v>
  <v type="int" >       16 </v>
  <v type="int" >       12 </v>
  <v type="int" >       65 </v>
  <v type="int" >       68 </v>
  <v type="int" >       60 </v>
  <v type="int" >       63 </v>
  <v type="int" >       42 </v>
  <v type="int" >       45 </v>
  <v type="int" >       80 </v>
  <v type="int" >       81 </v>
  <v type="int" >       27 </v>
  <v type="int" >       26 </v>
  <v type="int" >       90 </v>
  <v type="int" >       71 </v>
  <v type="int" >       51 </v>
  <v type="int" >       18 </v>
 </varray>
 <kpoints>
  <generation param="Gamma">
   <v type="int" name="divisions">       3        3        3 </v>
   <v name="usershift">      0.00000000       0.00000000       0.00000000 </v>
   <v name="genvec1">      0.33333333       0.00000000       0.00000000 </v>
   <v name="genvec2">      0.00000000       0.33333333       0.00000000 </v>
   <v name="genvec3">      0.00000000       0.00000000       0.33333333 </v>
   <v name="shift">      0.00000000       0.00000000       0.00000000 </v>
  </generation>
  <varray name="kpointlist" >
   <v>       0.00000000       0.00000000       0.00000000 </v>
   <v>       0.33333333      -0.00000000      -0.00000000 </v>
   <v>       0.00000000       0.33333333       0.00000000 </v>
   <v>       0.33333333       0.33333333       0.00000000 </v>
   <v>      -0.33333333       0.33333333       0.00000000 </v>
   <v>      -0.00000000      -0.00000000       0.33333333 </v>
   <v>       0.33333333      -0.00000000       0.33333333 </v>
   <v>      -0.33333333      -0.00000000       0.33333333 </v>
   <v>      -0.00000000       0.33333333       0.33333333 </v>
   <v>       0.33333333       0.33333333       0.33333333 </v>
   <v>      -0.33333333       0.33333333       0.33333333 </v>
   <v>      -0.00000000      -0.33333333       0.33333333 </v>
   <v>       0.33333333      -0.33333333       0.33333333 </v>
   <v>      -0.33333333      -0.33333333       0.33333333 </v>
  </varray>
  <varray name="weights" >
   <v>       0.03703704 </v>
   <v>       0.07407407 </v>
   <v>       0.07407407 </v>
   <v>       0.07407407 </v>
   <v>       0.07407407 </v>
   <v>       0.07407407 </v>
   <v>       0.07407407 </v>
   <v>       0.07407407 </v>
   <v>       0.07407407 </v>
   <v>       0.07407407 </v>
   <v>       0.07407407 </v>
   <v>       0.07407407 </v>
   <v>       0.07407407 </v>
   <v>       0.07407407 </v>
  </varray>
 </kpoints>
 <parameters>
  <separator name="general" >
   <i type="string" name="SYSTEM">unknown system</i>
   <i type="logical" name="LCOMPAT"> F  </i>
  </separator>
  <separator name="electronic" >
   <i type="string" name="PREC">accura</i>
   <i name="ENMAX">    650.00000000</i>
   <i name="ENAUG">    628.94500000</i>
   <i name="EDIFF">      0.00000100</i>
   <i type="int" name="IALGO">    38</i>
   <i type="int" name="IWAVPR">    10</i>
   <i type="int" name="NBANDS">   606</i>
   <i name="NELECT">    828.00000000</i>
   <i type="int" name="TURBO">     0</i>
   <i type="int" name="IRESTART">     0</i>
   <i type="int" name="NREBOOT">     0</i>
   <i type="int" name="NMIN">     0</i>
   <i name="EREF">      0.00000000</i>
   <separator name="electronic smearing" >
    <i type="int" name="ISMEAR">     0</i>
    <i name="SIGMA">      0.05000000</i>
    <i name="KSPACING">      0.50000000</i>
    <i type="logical" name="KGAMMA"> T  </i>
   </separator>
   <separator name="electronic projectors" >
    <i type="logical" name="LREAL"> F  </i>
    <v name="ROPT">      0.00000000      0.00000000      0.00000000      0.00000000</v>
    <i type="int" name="LMAXPAW">  -100</i>
    <i type="int" name="LMAXMIX">     4</i>
    <i type="logical" name="NLSPLINE"> F  </i>
   </separator>
   <separator name="electronic startup" >
    <i type="int" name="ISTART">     0</i>
    <i type="int" name="ICHARG">     1</i>
    <i type="int" name="INIWAV">     1</i>
   </separator>
   <separator name="electronic spin" >
    <i type="int" name="ISPIN">     2</i>
    <i type="logical" name="LNONCOLLINEAR"> F  </i>
    <v name="MAGMOM">      0.60000000      0.60000000      0.60000000      0.60000000      0.60000000      0.60000000      0.60000000      0.60000000      0.60000000      0.60000000      0.60000000      0.60000000      0.60000000      0.60000000      0.60000000      0.60000000      0.60000000      0.60000000      0.60000000      0.60000000
      0.60000000      0.60000000      0.60000000      0.60000000      0.60000000      0.60000000      0.60000000      0.60000000      0.60000000      0.60000000      0.60000000      0.60000000      0.60000000      0.60000000      0.60000000      0.60000000      0.60000000      0.60000000      0.60000000      0.60000000
      0.60000000      0.60000000      0.60000000      0.60000000      0.60000000      0.60000000      0.60000000      0.60000000      0.60000000      0.60000000      0.60000000      0.60000000      0.60000000      0.60000000      0.60000000      0.60000000      0.60000000      0.60000000      0.60000000      0.60000000
      0.60000000      0.60000000      0.60000000      5.00000000      5.00000000      5.00000000      5.00000000      5.00000000      5.00000000      5.00000000      5.00000000      5.00000000      5.00000000      5.00000000      5.00000000      5.00000000      5.00000000      5.00000000      5.00000000      5.00000000
      5.00000000      5.00000000      5.00000000      5.00000000      5.00000000      5.00000000      5.00000000      5.00000000      5.00000000      5.00000000      5.00000000      5.00000000      5.00000000      5.00000000      5.00000000      5.00000000      5.00000000      5.00000000      5.00000000</v>
    <i name="NUPDOWN">     -1.00000000</i>
    <i type="logical" name="LSORBIT"> F  </i>
    <v name="SAXIS">      0.00000000      0.00000000      1.00000000</v>
    <i type="logical" name="LSPIRAL"> F  </i>
    <v name="QSPIRAL">      0.00000000      0.00000000      0.00000000</v>
    <i type="logical" name="LZEROZ"> F  </i>
   </separator>
   <separator name="electronic exchange-correlation" >
    <i type="logical" name="LASPH"> T  </i>
    <i type="logical" name="LMETAGGA"> F  </i>
   </separator>
   <separator name="electronic convergence" >
    <i type="int" name="NELM">   200</i>
    <i type="int" name="NELMDL">     0</i>
    <i type="int" name="NELMIN">     8</i>
    <i name="ENINI">    650.00000000</i>
    <separator name="electronic convergence detail" >
     <i type="logical" name="LDIAG"> T  </i>
     <i type="logical" name="LSUBROT"> F  </i>
     <i name="WEIMIN">      0.00000000</i>
     <i name="EBREAK">      0.00000000</i>
     <i name="DEPER">      0.30000000</i>
     <i type="int" name="NRMM">     4</i>
     <i name="TIME">      0.40000000</i>
    </separator>
   </separator>
   <separator name="electronic mixer" >
    <i name="AMIX">      0.40000000</i>
    <i name="BMIX">      1.00000000</i>
    <i name="AMIN">      0.10000000</i>
    <i name="AMIX_MAG">      1.60000000</i>
    <i name="BMIX_MAG">      1.00000000</i>
    <separator name="electronic mixer details" >
     <i type="int" name="IMIX">     4</i>
     <i type="logical" name="MIXFIRST"> F  </i>
     <i type="int" name="MAXMIX">   -45</i>
     <i name="WC">    100.00000000</i>
     <i type="int" name="INIMIX">     1</i>
     <i type="int" name="MIXPRE">     1</i>
     <i type="int" name="MREMOVE">     5</i>
    </separator>
   </separator>
   <separator name="electronic dipolcorrection" >
    <i type="logical" name="LDIPOL"> F  </i>
    <i type="logical" name="LMONO"> F  </i>
    <i type="int" name="IDIPOL">     0</i>
    <i name="EPSILON">      1.00000000</i>
    <v name="DIPOL">   -100.00000000   -100.00000000   -100.00000000</v>
    <i name="EFIELD">      0.00000000</i>
   </separator>
  </separator>
  <separator name="grids" >
   <i type="int" name="NGX">    98</i>
   <i type="int" name="NGY">    98</i>
   <i type="int" name="NGZ">    90</i>
   <i type="int" name="NGXF">   196</i>
   <i type="int" name="NGYF">   196</i>
   <i type="int" name="NGZF">   180</i>
   <i type="logical" name="ADDGRID"> T  </i>
  </separator>
  <separator name="ionic" >
   <i type="int" name="NSW">     0</i>
   <i type="int" name="IBRION">    -1</i>
   <i type="int" name="MDALGO">     0</i>
   <i type="int" name="ISIF">     2</i>
   <i name="PSTRESS">      0.00000000</i>
   <i name="EDIFFG">      0.00001000</i>
   <i type="int" name="NFREE">     0</i>
   <i name="POTIM">      0.50000000</i>
   <i name="SMASS">     -3.00000000</i>
   <i name="SCALEE">      1.00000000</i>
  </separator>
  <separator name="ionic md" >
   <i name="TEBEG">      0.00010000</i>
   <i name="TEEND">      0.00010000</i>
   <i type="int" name="NBLOCK">     1</i>
   <i type="int" name="KBLOCK">     1</i>
   <i type="int" name="NPACO">   256</i>
   <i name="APACO">     16.00000000</i>
  </separator>
  <separator name="symmetry" >
   <i type="int" name="ISYM">     0</i>
   <i name="SYMPREC">      0.00001000</i>
  </separator>
  <separator name="dos" >
   <i type="int" name="LORBIT">     0</i>
   <v name="RWIGS">     -1.00000000     -1.00000000     -1.00000000     -1.00000000</v>
   <i type="int" name="NEDOS">   301</i>
   <i name="EMIN">     10.00000000</i>
   <i name="EMAX">    -10.00000000</i>
   <i name="EFERMI">      0.00000000</i>
  </separator>
  <separator name="writing" >
   <i type="int" name="NWRITE">     1</i>
   <i type="logical" name="LWAVE"> F  </i>
   <i type="logical" name="LDOWNSAMPLE"> F  </i>
   <i type="logical" name="LCHARG"> T  </i>
   <i type="logical" name="LPARD"> F  </i>
   <i type="logical" name="LVTOT"> F  </i>
   <i type="logical" name="LVHAR"> F  </i>
   <i type="logical" name="LELF"> F  </i>
   <i type="logical" name="LOPTICS"> F  </i>
   <v name="STM">      0.00000000      0.00000000      0.00000000      0.00000000      0.00000000      0.00000000      0.00000000</v>
  </separator>
  <separator name="performance" >
   <i type="int" name="NPAR">     2</i>
   <i type="int" name="NSIM">     4</i>
   <i type="int" name="NBLK">    -1</i>
   <i type="logical" name="LPLANE"> T  </i>
   <i type="logical" name="LSCALAPACK"> T  </i>
   <i type="logical" name="LSCAAWARE"> F  </i>
   <i type="logical" name="LSCALU"> F  </i>
   <i type="logical" name="LASYNC"> F  </i>
   <i type="logical" name="LORBITALREAL"> F  </i>
  </separator>
  <separator name="miscellaneous" >
   <i type="int" name="IDIOT">     3</i>
   <i type="int" name="ISPECIAL">     0</i>
   <i type="logical" name="LMUSIC"> F  </i>
   <v name="POMASS">      7.01000000     16.00000000     32.06600000     55.84700000</v>
   <v name="DARWINR">      0.00000000      0.00000000      0.00000000      0.00000000</v>
   <v name="DARWINV">      1.00000000      1.00000000      1.00000000      1.00000000</v>
   <i type="logical" name="LCORR"> T  </i>
  </separator>
  <i type="logical" name="GGA_COMPAT"> T  </i>
  <i type="logical" name="LBERRY"> F  </i>
  <i type="int" name="ICORELEVEL">     0</i>
  <i type="logical" name="LDAU"> T  </i>
  <v type="int" name="LDAUTYPE">     2</v>
  <v type="int" name="LDAUL">    -1</v>
  <v name="LDAUU">      0.00000000</v>
  <v name="LDAUJ">      0.00000000</v>
  <i type="int" name="LDAUPRINT">     0</i>
  <i type="int" name="I_CONSTRAINED_M">     0</i>
  <separator name="electronic exchange-correlation" >
   <i type="string" name="GGA">PE</i>
   <i type="int" name="VOSKOWN">     0</i>
   <i type="logical" name="LHFCALC"> F  </i>
   <i type="string" name="PRECFOCK"></i>
   <i type="logical" name="LSYMGRAD"> F  </i>
   <i type="logical" name="LHFONE"> F  </i>
   <i type="logical" name="LRHFCALC"> F  </i>
   <i type="logical" name="LTHOMAS"> F  </i>
   <i type="logical" name="LMODELHF"> F  </i>
   <i name="ENCUT4O">     -1.00000000</i>
   <i type="int" name="EXXOEP">     0</i>
   <i type="int" name="FOURORBIT">     0</i>
   <i name="AEXX">      0.00000000</i>
   <i name="HFALPHA">      0.00000000</i>
   <i name="MCALPHA">      0.00000000</i>
   <i name="ALDAX">      1.00000000</i>
   <i name="AGGAX">      1.00000000</i>
   <i name="ALDAC">      1.00000000</i>
   <i name="AGGAC">      1.00000000</i>
   <i type="int" name="NKREDX">     1</i>
   <i type="int" name="NKREDY">     1</i>
   <i type="int" name="NKREDZ">     1</i>
   <i type="logical" name="SHIFTRED"> F  </i>
   <i type="logical" name="ODDONLY"> F  </i>
   <i type="logical" name="EVENONLY"> F  </i>
   <i type="int" name="LMAXFOCK">     0</i>
   <i type="int" name="NMAXFOCKAE">     0</i>
   <i type="logical" name="LFOCKAEDFT"> F  </i>
   <i name="HFSCREEN">      0.00000000</i>
   <i name="HFSCREENC">      0.00000000</i>
   <i type="int" name="NBANDSGWLOW">     0</i>
  </separator>
  <separator name="vdW DFT" >
   <i type="logical" name="LUSE_VDW"> F  </i>
   <i name="Zab_VDW">     -0.84910000</i>
   <i name="PARAM1">      0.12340000</i>
   <i name="PARAM2">      1.00000000</i>
   <i name="PARAM3">      0.00000000</i>
  </separator>
  <separator name="model GW" >
   <i type="int" name="MODEL_GW">     0</i>
   <i name="MODEL_EPS0">      8.58245767</i>
   <i name="MODEL_ALPHA">      1.00000000</i>
  </separator>
  <separator name="linear response parameters" >
   <i type="logical" name="LEPSILON"> F  </i>
   <i type="logical" name="LRPA"> F  </i>
   <i type="logical" name="LNABLA"> F  </i>
   <i type="logical" name="LVEL"> F  </i>
   <i type="int" name="KINTER">     0</i>
   <i name="CSHIFT">      0.10000000</i>
   <i name="OMEGAMAX">     -1.00000000</i>
   <i name="DEG_THRESHOLD">      0.00200000</i>
   <i name="RTIME">     -0.10000000</i>
   <i name="WPLASMAI">      0.00000000</i>
   <v name="DFIELD">      0.00000000      0.00000000      0.00000000</v>
   <v name="WPLASMA">      0.00000000      0.00000000      0.00000000      0.00000000      0.00000000      0.00000000      0.00000000      0.00000000      0.00000000</v>
  </separator>
  <separator name="orbital magnetization" >
   <i type="logical" name="NUCIND"> F  </i>
   <v name="MAGPOS">      0.00000000      0.00000000      0.00000000</v>
   <i type="logical" name="LNICSALL"> T  </i>
   <i type="logical" name="ORBITALMAG"> F  </i>
   <i type="logical" name="LMAGBLOCH"> F  </i>
   <i type="logical" name="LCHIMAG"> F  </i>
   <i type="logical" name="LGAUGE"> T  </i>
   <i type="int" name="MAGATOM">     0</i>
   <v name="MAGDIPOL">      0.00000000      0.00000000      0.00000000</v>
   <v name="AVECCONST">      0.00000000      0.00000000      0.00000000</v>
  </separator>
  <separator name="response functions" >
   <i type="logical" name="LADDER"> F  </i>
   <i type="logical" name="LRPAFORCE"> F  </i>
   <i type="logical" name="LFXC"> F  </i>
   <i type="logical" name="LHARTREE"> T  </i>
   <i type="int" name="IBSE">     0</i>
   <v type="int" name="KPOINT">    -1     0     0     0</v>
   <i type="logical" name="LTCTE"> F  </i>
   <i type="logical" name="LTETE"> F  </i>
   <i type="logical" name="LTRIPLET"> F  </i>
   <i type="logical" name="LFXCEPS"> F  </i>
   <i type="logical" name="LFXHEG"> F  </i>
   <i type="int" name="NATURALO">     2</i>
   <i type="logical" name="L2ORDER"> F  </i>
   <i type="logical" name="LMP2LT"> F  </i>
   <i type="logical" name="LUSEW"> F  </i>
   <i name="ENCUTGW">     -2.00000000</i>
   <i name="ENCUTGWSOFT">     -2.00000000</i>
   <i name="ENCUTLF">     -1.00000000</i>
   <i type="int" name="LMAXMP2">    -1</i>
   <i name="SCISSOR">      0.00000000</i>
   <i type="int" name="NOMEGA">     0</i>
   <i type="int" name="NOMEGAR">     0</i>
   <i type="int" name="NBANDSGW">    -1</i>
   <i type="int" name="NBANDSO">    -1</i>
   <i type="int" name="NBANDSV">    -1</i>
   <i type="int" name="NELM">   200</i>
   <i type="int" name="NELMHF">     1</i>
   <i type="int" name="DIM">     3</i>
   <i type="int" name="ANTIRES">     0</i>
   <i name="OMEGAMAX">    -30.00000000</i>
   <i name="OMEGAMIN">    -30.00000000</i>
   <i name="OMEGATL">   -200.00000000</i>
   <i type="int" name="OMEGAGRID">   140</i>
   <i name="CSHIFT">     -0.10000000</i>
   <i type="logical" name="SELFENERGY"> F  </i>
   <i type="logical" name="LSPECTRAL"> F  </i>
   <i type="logical" name="LSPECTRALGW"> F  </i>
   <i type="logical" name="LSINGLES"> F  </i>
   <i type="logical" name="LFERMIGW"> F  </i>
   <i type="logical" name="ODDONLYGW"> F  </i>
   <i type="logical" name="EVENONLYGW"> F  </i>
   <i type="int" name="NKREDLFX">     1</i>
   <i type="int" name="NKREDLFY">     1</i>
   <i type="int" name="NKREDLFZ">     1</i>
   <i type="int" name="MAXMEM">  2800</i>
   <i type="int" name="TELESCOPE">     0</i>
   <i type="int" name="TAUPAR">     1</i>
   <i type="int" name="OMEGAPAR">    -1</i>
   <i name="LAMBDA">      1.00000000</i>
  </separator>
  <separator name="External order field" >
   <i name="OFIELD_KAPPA">      0.00000000</i>
   <v name="OFIELD_K">      0.00000000      0.00000000      0.00000000</v>
   <i name="OFIELD_Q6_NEAR">      0.00000000</i>
   <i name="OFIELD_Q6_FAR">      0.00000000</i>
   <i name="OFIELD_A">      0.00000000</i>
  </separator>
 </parameters>
 <atominfo>
  <atoms>      99 </atoms>
  <types>       4 </types>
  <array name="atoms" >
   <dimension dim="1">ion</dimension>
   <field type="string">element</field>
   <field type="int">atomtype</field>
   <set>
    <rc><c>Li</c><c>   1</c></rc>
    <rc><c>Li</c><c>   1</c></rc>
    <rc><c>Li</c><c>   1</c></rc>
    <rc><c>Li</c><c>   1</c></rc>
    <rc><c>Li</c><c>   1</c></rc>
    <rc><c>Li</c><c>   1</c></rc>
    <rc><c>Li</c><c>   1</c></rc>
    <rc><c>Li</c><c>   1</c></rc>
    <rc><c>Li</c><c>   1</c></rc>
    <rc><c>Li</c><c>   1</c></rc>
    <rc><c>Li</c><c>   1</c></rc>
    <rc><c>Li</c><c>   1</c></rc>
    <rc><c>Li</c><c>   1</c></rc>
    <rc><c>Li</c><c>   1</c></rc>
    <rc><c>Li</c><c>   1</c></rc>
    <rc><c>Li</c><c>   1</c></rc>
    <rc><c>Li</c><c>   1</c></rc>
    <rc><c>Li</c><c>   1</c></rc>
    <rc><c>O </c><c>   2</c></rc>
    <rc><c>O </c><c>   2</c></rc>
    <rc><c>O </c><c>   2</c></rc>
    <rc><c>O </c><c>   2</c></rc>
    <rc><c>O </c><c>   2</c></rc>
    <rc><c>O </c><c>   2</c></rc>
    <rc><c>O </c><c>   2</c></rc>
    <rc><c>O </c><c>   2</c></rc>
    <rc><c>O </c><c>   2</c></rc>
    <rc><c>O </c><c>   2</c></rc>
    <rc><c>O </c><c>   2</c></rc>
    <rc><c>O </c><c>   2</c></rc>
    <rc><c>O </c><c>   2</c></rc>
    <rc><c>O </c><c>   2</c></rc>
    <rc><c>O </c><c>   2</c></rc>
    <rc><c>O </c><c>   2</c></rc>
    <rc><c>O </c><c>   2</c></rc>
    <rc><c>O </c><c>   2</c></rc>
    <rc><c>S </c><c>   3</c></rc>
    <rc><c>S </c><c>   3</c></rc>
    <rc><c>S </c><c>   3</c></rc>
    <rc><c>S </c><c>   3</c></rc>
    <rc><c>S </c><c>   3</c></rc>
    <rc><c>S </c><c>   3</c></rc>
    <rc><c>S </c><c>   3</c></rc>
    <rc><c>S </c><c>   3</c></rc>
    <rc><c>S </c><c>   3</c></rc>
    <rc><c>S </c><c>   3</c></rc>
    <rc><c>S </c><c>   3</c></rc>
    <rc><c>S </c><c>   3</c></rc>
    <rc><c>S </c><c>   3</c></rc>
    <rc><c>S </c><c>   3</c></rc>
    <rc><c>S </c><c>   3</c></rc>
    <rc><c>S </c><c>   3</c></rc>
    <rc><c>S </c><c>   3</c></rc>
    <rc><c>S </c><c>   3</c></rc>
    <rc><c>S </c><c>   3</c></rc>
    <rc><c>S </c><c>   3</c></rc>
    <rc><c>S </c><c>   3</c></rc>
    <rc><c>S </c><c>   3</c></rc>
    <rc><c>S </c><c>   3</c></rc>
    <rc><c>S </c><c>   3</c></rc>
    <rc><c>S </c><c>   3</c></rc>
    <rc><c>S </c><c>   3</c></rc>
    <rc><c>S </c><c>   3</c></rc>
    <rc><c>Fe</c><c>   4</c></rc>
    <rc><c>Fe</c><c>   4</c></rc>
    <rc><c>Fe</c><c>   4</c></rc>
    <rc><c>Fe</c><c>   4</c></rc>
    <rc><c>Fe</c><c>   4</c></rc>
    <rc><c>Fe</c><c>   4</c></rc>
    <rc><c>Fe</c><c>   4</c></rc>
    <rc><c>Fe</c><c>   4</c></rc>
    <rc><c>Fe</c><c>   4</c></rc>
    <rc><c>Fe</c><c>   4</c></rc>
    <rc><c>Fe</c><c>   4</c></rc>
    <rc><c>Fe</c><c>   4</c></rc>
    <rc><c>Fe</c><c>   4</c></rc>
    <rc><c>Fe</c><c>   4</c></rc>
    <rc><c>Fe</c><c>   4</c></rc>
    <rc><c>Fe</c><c>   4</c></rc>
    <rc><c>Fe</c><c>   4</c></rc>
    <rc><c>Fe</c><c>   4</c></rc>
    <rc><c>Fe</c><c>   4</c></rc>
    <rc><c>Fe</c><c>   4</c></rc>
    <rc><c>Fe</c><c>   4</c></rc>
    <rc><c>Fe</c><c>   4</c></rc>
    <rc><c>Fe</c><c>   4</c></rc>
    <rc><c>Fe</c><c>   4</c></rc>
    <rc><c>Fe</c><c>   4</c></rc>
    <rc><c>Fe</c><c>   4</c></rc>
    <rc><c>Fe</c><c>   4</c></rc>
    <rc><c>Fe</c><c>   4</c></rc>
    <rc><c>Fe</c><c>   4</c></rc>
    <rc><c>Fe</c><c>   4</c></rc>
    <rc><c>Fe</c><c>   4</c></rc>
    <rc><c>Fe</c><c>   4</c></rc>
    <rc><c>Fe</c><c>   4</c></rc>
    <rc><c>Fe</c><c>   4</c></rc>
    <rc><c>Fe</c><c>   4</c></rc>
    <rc><c>Fe</c><c>   4</c></rc>
   </set>
  </array>
  <array name="atomtypes" >
   <dimension dim="1">type</dimension>
   <field type="int">atomspertype</field>
   <field type="string">element</field>
   <field>mass</field>
   <field>valence</field>
   <field type="string">pseudopotential</field>
   <set>
    <rc><c>  18</c><c>Li</c><c>      7.01000000</c><c>      3.00000000</c><c>  PAW_PBE Li_sv 10Sep2004               </c></rc>
    <rc><c>  18</c><c>O </c><c>     16.00000000</c><c>      6.00000000</c><c>  PAW_PBE O 08Apr2002                   </c></rc>
    <rc><c>  27</c><c>S </c><c>     32.06600000</c><c>      6.00000000</c><c>  PAW_PBE S 06Sep2000                   </c></rc>
    <rc><c>  36</c><c>Fe</c><c>     55.84700000</c><c>     14.00000000</c><c>  PAW_PBE Fe_pv 02Aug2007               </c></rc>
   </set>
  </array>
 </atominfo>
 <structure name="initialpos" >
  <crystal>
   <varray name="basis" >
    <v>      11.77726974       0.00848871       0.06923316 </v>
    <v>      -0.03028248      11.77723386       0.06923316 </v>
    <v>      -2.02000231      -2.02666320      10.18574622 </v>
   </varray>
   <i name="volume">   1416.10551572 </i>
   <varray name="rec_basis" >
    <v>       0.08481023       0.00011906       0.01684296 </v>
    <v>      -0.00016014       0.08481016       0.01684296 </v>
    <v>      -0.00057537      -0.00057727       0.09794744 </v>
   </varray>
  </crystal>
  <varray name="positions" >
   <v>       0.20224939       0.24291860       0.83183419 </v>
   <v>       0.53558272       0.24206952       0.83183419 </v>
   <v>       0.86891606       0.24206952       0.83183419 </v>
   <v>       0.20224939       0.57540285       0.83183419 </v>
   <v>       0.53558272       0.57540285       0.83183419 </v>
   <v>       0.86891606       0.57540285       0.83183419 </v>
   <v>       0.20224939       0.90873619       0.83183419 </v>
   <v>       0.53558272       0.90873619       0.83183419 </v>
   <v>       0.86891606       0.90873619       0.83183419 </v>
   <v>       0.09126381       0.13108394       0.16816581 </v>
   <v>       0.42459715       0.13108394       0.16816581 </v>
   <v>       0.75793048       0.13108394       0.16816581 </v>
   <v>       0.09126381       0.46441728       0.16816581 </v>
   <v>       0.42459715       0.46441728       0.16816581 </v>
   <v>       0.75793048       0.46441728       0.16816581 </v>
   <v>       0.09126381       0.79775061       0.16816581 </v>
   <v>       0.42459715       0.79775061       0.16816581 </v>
   <v>       0.75793048       0.79775061       0.16816581 </v>
   <v>       0.26311007       0.13598816       0.19686089 </v>
   <v>       0.59644341       0.13598816       0.19686089 </v>
   <v>       0.92977674       0.13598816       0.19686089 </v>
   <v>       0.26311007       0.46932149       0.19686089 </v>
   <v>       0.59644341       0.46932149       0.19686089 </v>
   <v>       0.92977674       0.46932149       0.19686089 </v>
   <v>       0.26311007       0.80265483       0.19686089 </v>
   <v>       0.59644341       0.80265483       0.19686089 </v>
   <v>       0.92977674       0.80265483       0.19686089 </v>
   <v>       0.19734517       0.07022326       0.80313911 </v>
   <v>       0.53067851       0.07022326       0.80313911 </v>
   <v>       0.86401184       0.07022326       0.80313911 </v>
   <v>       0.19734517       0.40355659       0.80313911 </v>
   <v>       0.53067851       0.40355659       0.80313911 </v>
   <v>       0.86401184       0.40355659       0.80313911 </v>
   <v>       0.19734517       0.73688993       0.80313911 </v>
   <v>       0.53067851       0.73688993       0.80313911 </v>
   <v>       0.86401184       0.73688993       0.80313911 </v>
   <v>       0.00253935       0.20657296       0.62920335 </v>
   <v>       0.33587268       0.20657296       0.62920335 </v>
   <v>       0.66920601       0.20657296       0.62920335 </v>
   <v>       0.00253935       0.53990630       0.62920335 </v>
   <v>       0.33587268       0.53990630       0.62920335 </v>
   <v>       0.66920601       0.53990630       0.62920335 </v>
   <v>       0.00253935       0.87323963       0.62920335 </v>
   <v>       0.33587268       0.87323963       0.62920335 </v>
   <v>       0.66920601       0.87323963       0.62920335 </v>
   <v>       0.12676037       0.33079399       0.37079665 </v>
   <v>       0.46009370       0.33079399       0.37079665 </v>
   <v>       0.79342704       0.33079399       0.37079665 </v>
   <v>       0.12676037       0.66412732       0.37079665 </v>
   <v>       0.46009370       0.66412732       0.37079665 </v>
   <v>       0.79342704       0.66412732       0.37079665 </v>
   <v>       0.12676037       0.99746065       0.37079665 </v>
   <v>       0.46009370       0.99746065       0.37079665 </v>
   <v>       0.79342704       0.99746065       0.37079665 </v>
   <v>       0.06350899       0.26982435       0.00000000 </v>
   <v>       0.39684232       0.26982435       0.00000000 </v>
   <v>       0.73017565       0.26982435       0.00000000 </v>
   <v>       0.06350899       0.60315768       0.00000000 </v>
   <v>       0.39684232       0.60315768       0.00000000 </v>
   <v>       0.73017565       0.60315768       0.00000000 </v>
   <v>       0.06350899       0.93649101       0.00000000 </v>
   <v>       0.39684232       0.93649101       0.00000000 </v>
   <v>       0.73017565       0.93649101       0.00000000 </v>
   <v>       0.29027274       0.17214940       0.39352170 </v>
   <v>       0.62360607       0.17214940       0.39352170 </v>
   <v>       0.95693941       0.17214940       0.39352170 </v>
   <v>       0.29027274       0.50548273       0.39352170 </v>
   <v>       0.62360607       0.50548273       0.39352170 </v>
   <v>       0.95693941       0.50548273       0.39352170 </v>
   <v>       0.29027274       0.83881607       0.39352170 </v>
   <v>       0.62360607       0.83881607       0.39352170 </v>
   <v>       0.95693941       0.83881607       0.39352170 </v>
   <v>       0.16118393       0.04306059       0.60647830 </v>
   <v>       0.49451727       0.04306059       0.60647830 </v>
   <v>       0.82785060       0.04306059       0.60647830 </v>
   <v>       0.16118393       0.37639393       0.60647830 </v>
   <v>       0.49451727       0.37639393       0.60647830 </v>
   <v>       0.82785060       0.37639393       0.60647830 </v>
   <v>       0.16118393       0.70972726       0.60647830 </v>
   <v>       0.49451727       0.70972726       0.60647830 </v>
   <v>       0.82785060       0.70972726       0.60647830 </v>
   <v>       0.03761391       0.07731307       0.84542777 </v>
   <v>       0.37094724       0.07731307       0.84542777 </v>
   <v>       0.70428057       0.07731307       0.84542777 </v>
   <v>       0.03761391       0.41064640       0.84542777 </v>
   <v>       0.37094724       0.41064640       0.84542777 </v>
   <v>       0.70428057       0.41064640       0.84542777 </v>
   <v>       0.03761391       0.74397973       0.84542777 </v>
   <v>       0.37094724       0.74397973       0.84542777 </v>
   <v>       0.70428057       0.74397973       0.84542777 </v>
   <v>       0.25602027       0.29571943       0.15457223 </v>
   <v>       0.58935360       0.29571943       0.15457223 </v>
   <v>       0.92268693       0.29571943       0.15457223 </v>
   <v>       0.25602027       0.62905276       0.15457223 </v>
   <v>       0.58935360       0.62905276       0.15457223 </v>
   <v>       0.92268693       0.62905276       0.15457223 </v>
   <v>       0.25602027       0.96238609       0.15457223 </v>
   <v>       0.58935360       0.96238609       0.15457223 </v>
   <v>       0.92268693       0.96238609       0.15457223 </v>
  </varray>
 </structure>
 <calculation>
  <scstep>
   <time name="dav">  437.88  442.51</time>
   <time name="total">  441.58  446.24</time>
   <energy>
    <i name="alphaZ">   2606.24521607 </i>
    <i name="ewald"> -65007.70808983 </i>
    <i name="hartreedc"> -34081.90546689 </i>
    <i name="XCdc">   3632.83659895 </i>
    <i name="pawpsdc"> 104149.30743192 </i>
    <i name="pawaedc">-107360.85880398 </i>
    <i name="eentropy">     -0.01715301 </i>
    <i name="bandstr">    394.16626243 </i>
    <i name="atom"> 107373.91467324 </i>
    <i name="e_fr_energy">  11705.98066892 </i>
    <i name="e_wo_entrp">  11705.99782193 </i>
    <i name="e_0_energy">  11705.98924542 </i>
   </energy>
  </scstep>
  <scstep>
   <time name="dav">  428.94  432.95</time>
   <time name="total">  428.95  432.96</time>
   <energy>
    <i name="e_fr_energy">   1328.70205723 </i>
    <i name="e_wo_entrp">   1328.76954184 </i>
    <i name="e_0_energy">   1328.73579953 </i>
   </energy>
  </scstep>
  <scstep>
   <time name="dav">  452.32  456.39</time>
   <time name="total">  452.33  456.39</time>
   <energy>
    <i name="e_fr_energy">   -345.49030879 </i>
    <i name="e_wo_entrp">   -345.49030879 </i>
    <i name="e_0_energy">   -345.49030879 </i>
   </energy>
  </scstep>
  <scstep>
   <time name="dav">  484.41  489.03</time>
   <time name="total">  484.41  489.03</time>
   <energy>
    <i name="e_fr_energy">   -535.87984236 </i>
    <i name="e_wo_entrp">   -535.87984236 </i>
    <i name="e_0_energy">   -535.87984236 </i>
   </energy>
  </scstep>
  <scstep>
   <time name="dav">  634.86  639.81</time>
   <time name="total">  646.97  652.14</time>
   <energy>
    <i name="e_fr_energy">   -549.79314643 </i>
    <i name="e_wo_entrp">   -549.79314643 </i>
    <i name="e_0_energy">   -549.79314643 </i>
   </energy>
  </scstep>
  <scstep>
   <time name="dav">  564.99  570.29</time>
   <time name="total">  580.68  586.11</time>
   <energy>
    <i name="e_fr_energy">   -550.32297336 </i>
    <i name="e_wo_entrp">   -550.32297336 </i>
    <i name="e_0_energy">   -550.32297336 </i>
   </energy>
  </scstep>
  <scstep>
   <time name="dav">  603.08  608.87</time>
   <time name="total">  618.90  625.03</time>
   <energy>
    <i name="e_fr_energy">   -550.34116231 </i>
    <i name="e_wo_entrp">   -550.34116231 </i>
    <i name="e_0_energy">   -550.34116231 </i>
   </energy>
  </scstep>
  <scstep>
   <time name="dav">  568.63  573.90</time>
   <time name="total">  584.47  589.98</time>
   <energy>
    <i name="e_fr_energy">   -550.34065469 </i>
    <i name="e_wo_entrp">   -550.34065469 </i>
    <i name="e_0_energy">   -550.34065469 </i>
   </energy>
  </scstep>
  <scstep>
   <time name="dav">  609.97  615.69</time>
   <time name="total">  626.26  632.20</time>
   <energy>
    <i name="e_fr_energy">   -550.34030877 </i>
    <i name="e_wo_entrp">   -550.34030877 </i>
    <i name="e_0_energy">   -550.34030877 </i>
   </energy>
  </scstep>
  <scstep>
   <time name="dav">  568.55  573.61</time>
   <time name="total">  584.28  589.49</time>
   <energy>
    <i name="e_fr_energy">   -550.33986661 </i>
    <i name="e_wo_entrp">   -550.33986661 </i>
    <i name="e_0_energy">   -550.33986661 </i>
   </energy>
  </scstep>
  <scstep>
   <time name="dav">  587.17  592.98</time>
   <time name="total">  603.26  609.20</time>
   <energy>
    <i name="e_fr_energy">   -550.33913890 </i>
    <i name="e_wo_entrp">   -550.33913890 </i>
    <i name="e_0_energy">   -550.33913890 </i>
   </energy>
  </scstep>
  <scstep>
   <time name="dav">  501.59  505.72</time>
   <time name="total">  517.65  521.86</time>
   <energy>
    <i name="e_fr_energy">   -550.33905439 </i>
    <i name="e_wo_entrp">   -550.33905439 </i>
    <i name="e_0_energy">   -550.33905439 </i>
   </energy>
  </scstep>
  <scstep>
   <time name="dav">  530.36  535.26</time>
   <time name="total">  546.40  551.43</time>
   <energy>
    <i name="e_fr_energy">   -550.33906123 </i>
    <i name="e_wo_entrp">   -550.33906123 </i>
    <i name="e_0_energy">   -550.33906123 </i>
   </energy>
  </scstep>
  <scstep>
   <time name="dav">  344.47  348.13</time>
   <time name="total">  360.66  364.33</time>
   <energy>
    <i name="e_fr_energy">   -550.33906422 </i>
    <i name="e_wo_entrp">   -550.33906422 </i>
    <i name="e_0_energy">   -550.33906422 </i>
   </energy>
  </scstep>
  <scstep>
   <time name="dav">  512.52  517.27</time>
   <time name="total">  528.55  533.35</time>
   <energy>
    <i name="e_fr_energy">   -550.33899010 </i>
    <i name="e_wo_entrp">   -550.33899010 </i>
    <i name="e_0_energy">   -550.33899010 </i>
   </energy>
  </scstep>
  <scstep>
   <time name="dav">  444.67  448.43</time>
   <time name="total">  460.74  464.57</time>
   <energy>
    <i name="e_fr_energy">   -550.33897986 </i>
    <i name="e_wo_entrp">   -550.33897986 </i>
    <i name="e_0_energy">   -550.33897986 </i>
   </energy>
  </scstep>
  <scstep>
   <time name="dav">  464.67  469.44</time>
   <time name="total">  468.38  473.15</time>
   <energy>
    <i name="alphaZ">   2606.24521607 </i>
    <i name="ewald"> -65007.70808983 </i>
    <i name="hartreedc"> -34081.88201042 </i>
    <i name="XCdc">   3632.83414602 </i>
    <i name="pawpsdc"> 104147.61900869 </i>
    <i name="pawaedc">-107359.15625251 </i>
    <i name="eentropy">     -0.00000000 </i>
    <i name="bandstr"> -11862.20567123 </i>
    <i name="atom"> 107373.91467324 </i>
    <i name="e_fr_energy">   -550.33897996 </i>
    <i name="e_wo_entrp">   -550.33897996 </i>
    <i name="e_0_energy">   -550.33897996 </i>
   </energy>
  </scstep>
  <structure>
   <crystal>
    <varray name="basis" >
     <v>      11.77726974       0.00848871       0.06923316 </v>
     <v>      -0.03028248      11.77723386       0.06923316 </v>
     <v>      -2.02000231      -2.02666320      10.18574622 </v>
    </varray>
    <i name="volume">   1416.10551572 </i>
    <varray name="rec_basis" >
     <v>       0.08481023       0.00011906       0.01684296 </v>
     <v>      -0.00016014       0.08481016       0.01684296 </v>
     <v>      -0.00057537      -0.00057727       0.09794744 </v>
    </varray>
   </crystal>
   <varray name="positions" >
    <v>       0.20224939       0.24291860       0.83183419 </v>
    <v>       0.53558272       0.24206952       0.83183419 </v>
    <v>       0.86891606       0.24206952       0.83183419 </v>
    <v>       0.20224939       0.57540285       0.83183419 </v>
    <v>       0.53558272       0.57540285       0.83183419 </v>
    <v>       0.86891606       0.57540285       0.83183419 </v>
    <v>       0.20224939       0.90873619       0.83183419 </v>
    <v>       0.53558272       0.90873619       0.83183419 </v>
    <v>       0.86891606       0.90873619       0.83183419 </v>
    <v>       0.09126381       0.13108394       0.16816581 </v>
    <v>       0.42459715       0.13108394       0.16816581 </v>
    <v>       0.75793048       0.13108394       0.16816581 </v>
    <v>       0.09126381       0.46441728       0.16816581 </v>
    <v>       0.42459715       0.46441728       0.16816581 </v>
    <v>       0.75793048       0.46441728       0.16816581 </v>
    <v>       0.09126381       0.79775061       0.16816581 </v>
    <v>       0.42459715       0.79775061       0.16816581 </v>
    <v>       0.75793048       0.79775061       0.16816581 </v>
    <v>       0.26311007       0.13598816       0.19686089 </v>
    <v>       0.59644341       0.13598816       0.19686089 </v>
    <v>       0.92977674       0.13598816       0.19686089 </v>
    <v>       0.26311007       0.46932149       0.19686089 </v>
    <v>       0.59644341       0.46932149       0.19686089 </v>
    <v>       0.92977674       0.46932149       0.19686089 </v>
    <v>       0.26311007       0.80265483       0.19686089 </v>
    <v>       0.59644341       0.80265483       0.19686089 </v>
    <v>       0.92977674       0.80265483       0.19686089 </v>
    <v>       0.19734517       0.07022326       0.80313911 </v>
    <v>       0.53067851       0.07022326       0.80313911 </v>
    <v>       0.86401184       0.07022326       0.80313911 </v>
    <v>       0.19734517       0.40355659       0.80313911 </v>
    <v>       0.53067851       0.40355659       0.80313911 </v>
    <v>       0.86401184       0.40355659       0.80313911 </v>
    <v>       0.19734517       0.73688993       0.80313911 </v>
    <v>       0.53067851       0.73688993       0.80313911 </v>
    <v>       0.86401184       0.73688993       0.80313911 </v>
    <v>       0.00253935       0.20657296       0.62920335 </v>
    <v>       0.33587268       0.20657296       0.62920335 </v>
    <v>       0.66920601       0.20657296       0.62920335 </v>
    <v>       0.00253935       0.53990630       0.62920335 </v>
    <v>       0.33587268       0.53990630       0.62920335 </v>
    <v>       0.66920601       0.53990630       0.62920335 </v>
    <v>       0.00253935       0.87323963       0.62920335 </v>
    <v>       0.33587268       0.87323963       0.62920335 </v>
    <v>       0.66920601       0.87323963       0.62920335 </v>
    <v>       0.12676037       0.33079399       0.37079665 </v>
    <v>       0.46009370       0.33079399       0.37079665 </v>
    <v>       0.79342704       0.33079399       0.37079665 </v>
    <v>       0.12676037       0.66412732       0.37079665 </v>
    <v>       0.46009370       0.66412732       0.37079665 </v>
    <v>       0.79342704       0.66412732       0.37079665 </v>
    <v>       0.12676037       0.99746065       0.37079665 </v>
    <v>       0.46009370       0.99746065       0.37079665 </v>
    <v>       0.79342704       0.99746065       0.37079665 </v>
    <v>       0.06350899       0.26982435       0.00000000 </v>
    <v>       0.39684232       0.26982435       0.00000000 </v>
    <v>       0.73017565       0.26982435       0.00000000 </v>
    <v>       0.06350899       0.60315768       0.00000000 </v>
    <v>       0.39684232       0.60315768       0.00000000 </v>
    <v>       0.73017565       0.60315768       0.00000000 </v>
    <v>       0.06350899       0.93649101       0.00000000 </v>
    <v>       0.39684232       0.93649101       0.00000000 </v>
    <v>       0.73017565       0.93649101       0.00000000 </v>
    <v>       0.29027274       0.17214940       0.39352170 </v>
    <v>       0.62360607       0.17214940       0.39352170 </v>
    <v>       0.95693941       0.17214940       0.39352170 </v>
    <v>       0.29027274       0.50548273       0.39352170 </v>
    <v>       0.62360607       0.50548273       0.39352170 </v>
    <v>       0.95693941       0.50548273       0.39352170 </v>
    <v>       0.29027274       0.83881607       0.39352170 </v>
    <v>       0.62360607       0.83881607       0.39352170 </v>
    <v>       0.95693941       0.83881607       0.39352170 </v>
    <v>       0.16118393       0.04306059       0.60647830 </v>
    <v>       0.49451727       0.04306059       0.60647830 </v>
    <v>       0.82785060       0.04306059       0.60647830 </v>
    <v>       0.16118393       0.37639393       0.60647830 </v>
    <v>       0.49451727       0.37639393       0.60647830 </v>
    <v>       0.82785060       0.37639393       0.60647830 </v>
    <v>       0.16118393       0.70972726       0.60647830 </v>
    <v>       0.49451727       0.70972726       0.60647830 </v>
    <v>       0.82785060       0.70972726       0.60647830 </v>
    <v>       0.03761391       0.07731307       0.84542777 </v>
    <v>       0.37094724       0.07731307       0.84542777 </v>
    <v>       0.70428057       0.07731307       0.84542777 </v>
    <v>       0.03761391       0.41064640       0.84542777 </v>
    <v>       0.37094724       0.41064640       0.84542777 </v>
    <v>       0.70428057       0.41064640       0.84542777 </v>
    <v>       0.03761391       0.74397973       0.84542777 </v>
    <v>       0.37094724       0.74397973       0.84542777 </v>
    <v>       0.70428057       0.74397973       0.84542777 </v>
    <v>       0.25602027       0.29571943       0.15457223 </v>
    <v>       0.58935360       0.29571943       0.15457223 </v>
    <v>       0.92268693       0.29571943       0.15457223 </v>
    <v>       0.25602027       0.62905276       0.15457223 </v>
    <v>       0.58935360       0.62905276       0.15457223 </v>
    <v>       0.92268693       0.62905276       0.15457223 </v>
    <v>       0.25602027       0.96238609       0.15457223 </v>
    <v>       0.58935360       0.96238609       0.15457223 </v>
    <v>       0.92268693       0.96238609       0.15457223 </v>
   </varray>
  </structure>
  <varray name="forces" >
   <v>       0.00003975      -0.05794918      -0.00045474 </v>
   <v>       0.00004167       0.00011536       0.00011679 </v>
   <v>      -0.00007639       0.00011698       0.00012649 </v>
   <v>       0.00005469       0.00090663      -0.00002087 </v>
   <v>       0.00018104      -0.00046704      -0.00005019 </v>
   <v>      -0.00020650      -0.00046158      -0.00005431 </v>
   <v>       0.00005589       0.00189078       0.00012026 </v>
   <v>      -0.00006676       0.00050882       0.00012289 </v>
   <v>       0.00004364       0.00050459       0.00011565 </v>
   <v>      -0.00018134      -0.00025925      -0.00013664 </v>
   <v>       0.00041507      -0.00013274       0.00001031 </v>
   <v>      -0.00052323       0.00002006      -0.00009402 </v>
   <v>      -0.00056001      -0.00019845       0.00003041 </v>
   <v>       0.00082279      -0.00027309       0.00022251 </v>
   <v>      -0.00054880      -0.00008785      -0.00003344 </v>
   <v>      -0.00038199       0.00032981       0.00000072 </v>
   <v>       0.00057782       0.00027446       0.00010433 </v>
   <v>      -0.00048273       0.00003775      -0.00008039 </v>
   <v>      -0.00018976       0.00034312       0.00031869 </v>
   <v>      -0.00020349       0.00032215      -0.00009829 </v>
   <v>      -0.00025803       0.00045987      -0.00011551 </v>
   <v>      -0.00022963       0.00006807      -0.00027845 </v>
   <v>      -0.00004035       0.00029003       0.00002966 </v>
   <v>      -0.00037395       0.00019965       0.00011927 </v>
   <v>      -0.00013842      -0.00057871      -0.00010825 </v>
   <v>      -0.00012980      -0.00041030       0.00000961 </v>
   <v>      -0.00037152      -0.00048467      -0.00012887 </v>
   <v>      -0.00003163       0.01316267      -0.00071444 </v>
   <v>       0.00107428       0.00042768      -0.00026738 </v>
   <v>      -0.00097515       0.00040912      -0.00030005 </v>
   <v>       0.00007746       0.01532430       0.00054919 </v>
   <v>      -0.00096120       0.00021010       0.00036113 </v>
   <v>       0.00106137       0.00021581       0.00037805 </v>
   <v>       0.00005540      -0.00048542      -0.00000130 </v>
   <v>       0.00005158      -0.00012494       0.00001653 </v>
   <v>       0.00002768      -0.00011790       0.00001517 </v>
   <v>      -0.00001349       0.00223057      -0.00006487 </v>
   <v>       0.00002658       0.00228441      -0.00004545 </v>
   <v>       0.00001997       0.00029441      -0.00001224 </v>
   <v>       0.00069782      -0.00072006       0.00071070 </v>
   <v>      -0.00066937      -0.00070372       0.00065238 </v>
   <v>       0.00000148       0.00000307       0.00011393 </v>
   <v>      -0.00065055      -0.00074010      -0.00069671 </v>
   <v>       0.00066828      -0.00073135      -0.00065460 </v>
   <v>       0.00000570      -0.00003512      -0.00012555 </v>
   <v>      -0.00000636       0.00027226       0.00057961 </v>
   <v>       0.00004957       0.00026541       0.00000094 </v>
   <v>      -0.00000015       0.00022945       0.00000013 </v>
   <v>       0.00004993      -0.00027175      -0.00007738 </v>
   <v>      -0.00000696      -0.00019578      -0.00007049 </v>
   <v>       0.00002739      -0.00017295       0.00001931 </v>
   <v>       0.00002926       0.00012957      -0.00037174 </v>
   <v>       0.00002771       0.00016222       0.00020572 </v>
   <v>       0.00004127       0.00019799       0.00012738 </v>
   <v>       0.00003394       0.00210811       0.00005859 </v>
   <v>      -0.00002835       0.00210714      -0.00000572 </v>
   <v>       0.00002115       0.00012161       0.00000436 </v>
   <v>       0.00053037      -0.00068639      -0.00061538 </v>
   <v>      -0.00049328      -0.00067497      -0.00062415 </v>
   <v>       0.00000907      -0.00008323      -0.00005544 </v>
   <v>      -0.00049781      -0.00065623       0.00054863 </v>
   <v>       0.00053303      -0.00066176       0.00060387 </v>
   <v>      -0.00000380      -0.00006894       0.00005287 </v>
   <v>       0.00010246      -0.00018748      -0.00018728 </v>
   <v>       0.00006717      -0.00018475      -0.00005696 </v>
   <v>      -0.00005484      -0.00010582      -0.00004580 </v>
   <v>       0.00010122      -0.00005610      -0.00033406 </v>
   <v>       0.00009653      -0.00012926      -0.00019598 </v>
   <v>      -0.00007903      -0.00008477      -0.00055625 </v>
   <v>       0.00004517       0.00020342       0.00032099 </v>
   <v>       0.00006452       0.00013223       0.00007423 </v>
   <v>       0.00002254       0.00015093       0.00032471 </v>
   <v>      -0.00006763       0.00169282       0.00718242 </v>
   <v>       0.00001692      -0.00051031       0.00054297 </v>
   <v>      -0.00003952      -0.00048577       0.00053340 </v>
   <v>      -0.00024957       0.00162434      -0.00649895 </v>
   <v>       0.00001079      -0.00070987      -0.00038367 </v>
   <v>       0.00001713      -0.00065775      -0.00037438 </v>
   <v>      -0.00017476       0.00042284       0.00013912 </v>
   <v>      -0.00002555       0.00037769       0.00013825 </v>
   <v>       0.00005553       0.00034247       0.00010476 </v>
   <v>       0.01016219       0.00488049      -0.00067786 </v>
   <v>      -0.00994070       0.00493066      -0.00082632 </v>
   <v>       0.00020210      -0.00013410      -0.00010949 </v>
   <v>      -0.01011218       0.00499881       0.00074106 </v>
   <v>       0.01046140       0.00511164       0.00087329 </v>
   <v>       0.00022263      -0.00011406       0.00017712 </v>
   <v>       0.00010527       0.00061163       0.00000656 </v>
   <v>       0.00010558       0.00059318      -0.00002050 </v>
   <v>       0.00024215       0.00009925       0.00002028 </v>
   <v>       0.00017511      -0.00094119      -0.00020912 </v>
   <v>       0.00004310       0.00012496      -0.00015129 </v>
   <v>      -0.00003020       0.00005557      -0.00020073 </v>
   <v>       0.00007109       0.00025488       0.00039836 </v>
   <v>       0.00030140      -0.00019072       0.00019565 </v>
   <v>      -0.00018305      -0.00005214       0.00020551 </v>
   <v>      -0.00002975       0.00011370      -0.00048626 </v>
   <v>      -0.00019463      -0.00011002      -0.00043548 </v>
   <v>       0.00043758      -0.00017800      -0.00031750 </v>
  </varray>
  <varray name="stress" >
   <v>      -0.14823809      -0.00165770      -0.00677989 </v>
   <v>      -0.00118686      -0.12641156      -0.02086334 </v>
   <v>       0.00284938      -0.01088979      -0.13968243 </v>
  </varray>
  <energy>
   <i name="e_fr_energy">   -550.33897996 </i>
   <i name="e_wo_entrp">   -550.33897996 </i>
   <i name="e_0_energy">     -0.00000000 </i>
  </energy>
  <time name="totalsc"> 9682.97 9772.14</time>
  <eigenvalues>
   <array>
    <dimension dim="1">band</dimension>
    <dimension dim="2">kpoint</dimension>
    <dimension dim="3">spin</dimension>
    <field>eigene</field>
    <field>occ</field>
    <set>
     <set comment="spin 1">
      <set comment="kpoint 1">
       <r>  -51.0519    1.0000 </r>
       <r>  -51.0501    1.0000 </r>
       <r>  -51.0500    1.0000 </r>
       <r>  -51.0499    1.0000 </r>
       <r>  -51.0499    1.0000 </r>
       <r>  -51.0498    1.0000 </r>
       <r>  -51.0497    1.0000 </r>
       <r>  -51.0497    1.0000 </r>
       <r>  -51.0494    1.0000 </r>
       <r>  -51.0494    1.0000 </r>
       <r>  -51.0493    1.0000 </r>
       <r>  -51.0487    1.0000 </r>
       <r>  -51.0482    1.0000 </r>
       <r>  -51.0476    1.0000 </r>
       <r>  -51.0472    1.0000 </r>
       <r>  -51.0472    1.0000 </r>
       <r>  -51.0467    1.0000 </r>
       <r>  -51.0456    1.0000 </r>
       <r>  -51.0395    1.0000 </r>
       <r>  -51.0385    1.0000 </r>
       <r>  -51.0372    1.0000 </r>
       <r>  -51.0371    1.0000 </r>
       <r>  -51.0371    1.0000 </r>
       <r>  -51.0371    1.0000 </r>
       <r>  -51.0364    1.0000 </r>
       <r>  -51.0361    1.0000 </r>
       <r>  -51.0361    1.0000 </r>
       <r>  -51.0360    1.0000 </r>
       <r>  -51.0360    1.0000 </r>
       <r>  -51.0359    1.0000 </r>
       <r>  -51.0359    1.0000 </r>
       <r>  -51.0358    1.0000 </r>
       <r>  -51.0358    1.0000 </r>
       <r>  -51.0357    1.0000 </r>
       <r>  -51.0339    1.0000 </r>
       <r>  -51.0333    1.0000 </r>
       <r>  -49.6916    1.0000 </r>
       <r>  -49.6916    1.0000 </r>
       <r>  -49.6897    1.0000 </r>
       <r>  -49.6897    1.0000 </r>
       <r>  -49.6896    1.0000 </r>
       <r>  -49.6895    1.0000 </r>
       <r>  -49.6894    1.0000 </r>
       <r>  -49.6893    1.0000 </r>
       <r>  -49.6892    1.0000 </r>
       <r>  -49.6892    1.0000 </r>
       <r>  -49.6891    1.0000 </r>
       <r>  -49.6891    1.0000 </r>
       <r>  -49.6890    1.0000 </r>
       <r>  -49.6888    1.0000 </r>
       <r>  -49.6886    1.0000 </r>
       <r>  -49.6884    1.0000 </r>
       <r>  -49.6868    1.0000 </r>
       <r>  -49.6867    1.0000 </r>
       <r>  -49.5926    1.0000 </r>
       <r>  -49.5911    1.0000 </r>
       <r>  -49.5910    1.0000 </r>
       <r>  -49.5909    1.0000 </r>
       <r>  -49.5908    1.0000 </r>
       <r>  -49.5906    1.0000 </r>
       <r>  -49.5901    1.0000 </r>
       <r>  -49.5901    1.0000 </r>
       <r>  -49.5890    1.0000 </r>
       <r>  -49.5890    1.0000 </r>
       <r>  -49.5889    1.0000 </r>
       <r>  -49.5885    1.0000 </r>
       <r>  -49.5885    1.0000 </r>
       <r>  -49.5884    1.0000 </r>
       <r>  -49.5884    1.0000 </r>
       <r>  -49.5882    1.0000 </r>
       <r>  -49.5881    1.0000 </r>
       <r>  -49.5879    1.0000 </r>
       <r>  -49.5621    1.0000 </r>
       <r>  -49.5616    1.0000 </r>
       <r>  -49.5614    1.0000 </r>
       <r>  -49.5613    1.0000 </r>
       <r>  -49.5612    1.0000 </r>
       <r>  -49.5610    1.0000 </r>
       <r>  -49.5607    1.0000 </r>
       <r>  -49.5597    1.0000 </r>
       <r>  -49.5594    1.0000 </r>
       <r>  -49.5593    1.0000 </r>
       <r>  -49.5591    1.0000 </r>
       <r>  -49.5591    1.0000 </r>
       <r>  -49.5590    1.0000 </r>
       <r>  -49.5590    1.0000 </r>
       <r>  -49.5583    1.0000 </r>
       <r>  -49.5579    1.0000 </r>
       <r>  -49.5574    1.0000 </r>
       <r>  -49.5561    1.0000 </r>
       <r>  -49.5504    1.0000 </r>
       <r>  -49.5491    1.0000 </r>
       <r>  -49.5486    1.0000 </r>
       <r>  -49.5485    1.0000 </r>
       <r>  -49.5485    1.0000 </r>
       <r>  -49.5483    1.0000 </r>
       <r>  -49.5473    1.0000 </r>
       <r>  -49.5473    1.0000 </r>
       <r>  -49.5472    1.0000 </r>
       <r>  -49.5471    1.0000 </r>
       <r>  -49.5471    1.0000 </r>
       <r>  -49.5469    1.0000 </r>
       <r>  -49.5468    1.0000 </r>
       <r>  -49.5468    1.0000 </r>
       <r>  -49.5467    1.0000 </r>
       <r>  -49.5467    1.0000 </r>
       <r>  -49.5452    1.0000 </r>
       <r>  -49.5444    1.0000 </r>
       <r>  -39.8655    1.0000 </r>
       <r>  -39.8643    1.0000 </r>
       <r>  -39.8642    1.0000 </r>
       <r>  -39.8639    1.0000 </r>
       <r>  -39.8639    1.0000 </r>
       <r>  -39.8637    1.0000 </r>
       <r>  -39.8635    1.0000 </r>
       <r>  -39.8635    1.0000 </r>
       <r>  -39.8633    1.0000 </r>
       <r>  -39.8633    1.0000 </r>
       <r>  -39.8632    1.0000 </r>
       <r>  -39.8630    1.0000 </r>
       <r>  -39.8630    1.0000 </r>
       <r>  -39.8630    1.0000 </r>
       <r>  -39.8629    1.0000 </r>
       <r>  -39.8628    1.0000 </r>
       <r>  -39.8628    1.0000 </r>
       <r>  -39.8614    1.0000 </r>
       <r>  -13.2374    1.0000 </r>
       <r>  -13.2348    1.0000 </r>
       <r>  -13.2348    1.0000 </r>
       <r>  -13.2331    1.0000 </r>
       <r>  -13.2254    1.0000 </r>
       <r>  -13.1986    1.0000 </r>
       <r>  -13.0576    1.0000 </r>
       <r>  -13.0551    1.0000 </r>
       <r>  -13.0545    1.0000 </r>
       <r>  -13.0530    1.0000 </r>
       <r>  -13.0438    1.0000 </r>
       <r>  -13.0419    1.0000 </r>
       <r>  -13.0414    1.0000 </r>
       <r>  -13.0396    1.0000 </r>
       <r>  -13.0187    1.0000 </r>
       <r>  -13.0186    1.0000 </r>
       <r>  -13.0185    1.0000 </r>
       <r>  -13.0174    1.0000 </r>
       <r>   -7.6148    1.0000 </r>
       <r>   -7.4115    1.0000 </r>
       <r>   -7.3754    1.0000 </r>
       <r>   -7.3751    1.0000 </r>
       <r>   -7.3751    1.0000 </r>
       <r>   -7.3747    1.0000 </r>
       <r>   -7.1814    1.0000 </r>
       <r>   -7.1812    1.0000 </r>
       <r>   -7.1718    1.0000 </r>
       <r>   -7.1716    1.0000 </r>
       <r>   -7.1514    1.0000 </r>
       <r>   -7.1512    1.0000 </r>
       <r>   -7.1512    1.0000 </r>
       <r>   -7.1510    1.0000 </r>
       <r>   -6.9846    1.0000 </r>
       <r>   -6.9651    1.0000 </r>
       <r>   -6.9650    1.0000 </r>
       <r>   -6.9304    1.0000 </r>
       <r>   -6.9303    1.0000 </r>
       <r>   -6.8715    1.0000 </r>
       <r>   -6.8713    1.0000 </r>
       <r>   -6.8713    1.0000 </r>
       <r>   -6.8712    1.0000 </r>
       <r>   -6.8073    1.0000 </r>
       <r>   -6.8071    1.0000 </r>
       <r>   -6.7805    1.0000 </r>
       <r>   -6.7804    1.0000 </r>
       <r>   -1.8369    1.0000 </r>
       <r>   -1.8368    1.0000 </r>
       <r>   -1.8367    1.0000 </r>
       <r>   -1.8366    1.0000 </r>
       <r>   -1.8165    1.0000 </r>
       <r>   -1.8158    1.0000 </r>
       <r>   -1.8038    1.0000 </r>
       <r>   -1.8031    1.0000 </r>
       <r>   -1.7667    1.0000 </r>
       <r>   -1.7659    1.0000 </r>
       <r>   -1.7539    1.0000 </r>
       <r>   -1.7530    1.0000 </r>
       <r>   -1.2808    1.0000 </r>
       <r>   -1.1983    1.0000 </r>
       <r>   -1.1973    1.0000 </r>
       <r>   -1.1972    1.0000 </r>
       <r>   -1.1963    1.0000 </r>
       <r>   -1.0052    1.0000 </r>
       <r>   -1.0047    1.0000 </r>
       <r>   -0.9744    1.0000 </r>
       <r>   -0.9738    1.0000 </r>
       <r>   -0.9589    1.0000 </r>
       <r>   -0.9585    1.0000 </r>
       <r>   -0.9469    1.0000 </r>
       <r>   -0.9385    1.0000 </r>
       <r>   -0.9312    1.0000 </r>
       <r>   -0.9286    1.0000 </r>
       <r>   -0.9277    1.0000 </r>
       <r>   -0.8856    1.0000 </r>
       <r>   -0.8845    1.0000 </r>
       <r>   -0.8845    1.0000 </r>
       <r>   -0.8830    1.0000 </r>
       <r>   -0.8714    1.0000 </r>
       <r>   -0.8713    1.0000 </r>
       <r>   -0.8677    1.0000 </r>
       <r>   -0.8672    1.0000 </r>
       <r>   -0.8672    1.0000 </r>
       <r>   -0.8666    1.0000 </r>
       <r>   -0.8594    1.0000 </r>
       <r>   -0.8592    1.0000 </r>
       <r>   -0.7002    1.0000 </r>
       <r>   -0.7002    1.0000 </r>
       <r>   -0.7002    1.0000 </r>
       <r>   -0.7000    1.0000 </r>
       <r>   -0.6713    1.0000 </r>
       <r>   -0.6711    1.0000 </r>
       <r>   -0.6232    1.0000 </r>
       <r>   -0.6227    1.0000 </r>
       <r>   -0.6226    1.0000 </r>
       <r>   -0.6223    1.0000 </r>
       <r>   -0.6221    1.0000 </r>
       <r>   -0.6217    1.0000 </r>
       <r>   -0.3522    1.0000 </r>
       <r>   -0.3521    1.0000 </r>
       <r>   -0.3520    1.0000 </r>
       <r>   -0.3519    1.0000 </r>
       <r>   -0.3219    1.0000 </r>
       <r>   -0.3215    1.0000 </r>
       <r>   -0.2914    1.0000 </r>
       <r>   -0.2913    1.0000 </r>
       <r>   -0.2642    1.0000 </r>
       <r>   -0.2641    1.0000 </r>
       <r>   -0.2641    1.0000 </r>
       <r>   -0.2635    1.0000 </r>
       <r>   -0.2606    1.0000 </r>
       <r>   -0.2605    1.0000 </r>
       <r>   -0.2579    1.0000 </r>
       <r>   -0.2486    1.0000 </r>
       <r>   -0.2486    1.0000 </r>
       <r>   -0.2426    1.0000 </r>
       <r>   -0.2203    1.0000 </r>
       <r>   -0.1404    1.0000 </r>
       <r>   -0.1402    1.0000 </r>
       <r>   -0.1402    1.0000 </r>
       <r>   -0.1399    1.0000 </r>
       <r>   -0.1394    1.0000 </r>
       <r>   -0.1391    1.0000 </r>
       <r>   -0.1236    1.0000 </r>
       <r>   -0.1228    1.0000 </r>
       <r>   -0.1228    1.0000 </r>
       <r>   -0.1221    1.0000 </r>
       <r>   -0.1202    1.0000 </r>
       <r>   -0.1198    1.0000 </r>
       <r>   -0.0778    1.0000 </r>
       <r>   -0.0774    1.0000 </r>
       <r>   -0.0595    1.0000 </r>
       <r>   -0.0118    1.0000 </r>
       <r>   -0.0115    1.0000 </r>
       <r>    0.0159    1.0000 </r>
       <r>    0.0159    1.0000 </r>
       <r>    0.0261    1.0000 </r>
       <r>    0.0262    1.0000 </r>
       <r>    0.0428    1.0000 </r>
       <r>    0.0431    1.0000 </r>
       <r>    0.0432    1.0000 </r>
       <r>    0.0436    1.0000 </r>
       <r>    0.0606    1.0000 </r>
       <r>    0.0608    1.0000 </r>
       <r>    0.1497    1.0000 </r>
       <r>    0.1500    1.0000 </r>
       <r>    0.1501    1.0000 </r>
       <r>    0.1506    1.0000 </r>
       <r>    0.1584    1.0000 </r>
       <r>    0.1639    1.0000 </r>
       <r>    0.1656    1.0000 </r>
       <r>    0.1824    1.0000 </r>
       <r>    0.1828    1.0000 </r>
       <r>    0.1923    1.0000 </r>
       <r>    0.1966    1.0000 </r>
       <r>    0.1968    1.0000 </r>
       <r>    0.2078    1.0000 </r>
       <r>    0.2081    1.0000 </r>
       <r>    0.2581    1.0000 </r>
       <r>    0.2583    1.0000 </r>
       <r>    0.2584    1.0000 </r>
       <r>    0.2585    1.0000 </r>
       <r>    0.2784    1.0000 </r>
       <r>    0.2786    1.0000 </r>
       <r>    0.3392    1.0000 </r>
       <r>    0.3395    1.0000 </r>
       <r>    0.3597    1.0000 </r>
       <r>    0.3599    1.0000 </r>
       <r>    0.3599    1.0000 </r>
       <r>    0.3604    1.0000 </r>
       <r>    0.3802    1.0000 </r>
       <r>    0.3832    1.0000 </r>
       <r>    0.4897    1.0000 </r>
       <r>    0.4898    1.0000 </r>
       <r>    0.4900    1.0000 </r>
       <r>    0.4901    1.0000 </r>
       <r>    0.5169    1.0000 </r>
       <r>    0.5170    1.0000 </r>
       <r>    0.5170    1.0000 </r>
       <r>    0.5175    1.0000 </r>
       <r>    0.5588    1.0000 </r>
       <r>    0.5589    1.0000 </r>
       <r>    0.6088    1.0000 </r>
       <r>    0.6090    1.0000 </r>
       <r>    0.6148    1.0000 </r>
       <r>    0.6308    1.0000 </r>
       <r>    0.6309    1.0000 </r>
       <r>    0.6309    1.0000 </r>
       <r>    0.6316    1.0000 </r>
       <r>    0.7522    1.0000 </r>
       <r>    0.7525    1.0000 </r>
       <r>    0.7614    1.0000 </r>
       <r>    0.7614    1.0000 </r>
       <r>    0.7620    1.0000 </r>
       <r>    0.7624    1.0000 </r>
       <r>    0.7906    1.0000 </r>
       <r>    0.7909    1.0000 </r>
       <r>    0.7932    1.0000 </r>
       <r>    0.8461    1.0000 </r>
       <r>    0.8462    1.0000 </r>
       <r>    0.8549    1.0000 </r>
       <r>    0.8551    1.0000 </r>
       <r>    0.9690    1.0000 </r>
       <r>    0.9691    1.0000 </r>
       <r>    0.9692    1.0000 </r>
       <r>    0.9693    1.0000 </r>
       <r>    0.9793    1.0000 </r>
       <r>    1.2399    1.0000 </r>
       <r>    1.2400    1.0000 </r>
       <r>    1.2401    1.0000 </r>
       <r>    1.2402    1.0000 </r>
       <r>    1.2639    1.0000 </r>
       <r>    1.2927    1.0000 </r>
       <r>    1.2928    1.0000 </r>
       <r>    1.3306    1.0000 </r>
       <r>    1.3307    1.0000 </r>
       <r>    1.3585    1.0000 </r>
       <r>    1.3590    1.0000 </r>
       <r>    1.3590    1.0000 </r>
       <r>    1.3591    1.0000 </r>
       <r>    1.4366    1.0000 </r>
       <r>    1.4368    1.0000 </r>
       <r>    1.4641    1.0000 </r>
       <r>    1.4755    1.0000 </r>
       <r>    1.4873    1.0000 </r>
       <r>    1.4876    1.0000 </r>
       <r>    1.5476    1.0000 </r>
       <r>    1.6788    1.0000 </r>
       <r>    1.6802    1.0000 </r>
       <r>    1.6802    1.0000 </r>
       <r>    1.7235    1.0000 </r>
       <r>    1.7238    1.0000 </r>
       <r>    1.7239    1.0000 </r>
       <r>    1.7240    1.0000 </r>
       <r>    1.7655    1.0000 </r>
       <r>    1.7658    1.0000 </r>
       <r>    1.8139    1.0000 </r>
       <r>    1.8147    1.0000 </r>
       <r>    1.8149    1.0000 </r>
       <r>    1.8149    1.0000 </r>
       <r>    1.8266    1.0000 </r>
       <r>    1.8271    1.0000 </r>
       <r>    1.8278    1.0000 </r>
       <r>    1.8281    1.0000 </r>
       <r>    1.8395    1.0000 </r>
       <r>    1.8760    1.0000 </r>
       <r>    1.8866    1.0000 </r>
       <r>    1.9030    1.0000 </r>
       <r>    1.9031    1.0000 </r>
       <r>    1.9175    1.0000 </r>
       <r>    1.9178    1.0000 </r>
       <r>    1.9633    1.0000 </r>
       <r>    1.9635    1.0000 </r>
       <r>    1.9899    1.0000 </r>
       <r>    1.9901    1.0000 </r>
       <r>    1.9989    1.0000 </r>
       <r>    1.9994    1.0000 </r>
       <r>    1.9994    1.0000 </r>
       <r>    1.9995    1.0000 </r>
       <r>    2.0714    1.0000 </r>
       <r>    2.0715    1.0000 </r>
       <r>    2.0801    1.0000 </r>
       <r>    2.0816    1.0000 </r>
       <r>    2.0816    1.0000 </r>
       <r>    2.0831    1.0000 </r>
       <r>    2.0944    1.0000 </r>
       <r>    2.0946    1.0000 </r>
       <r>    2.1161    1.0000 </r>
       <r>    2.1163    1.0000 </r>
       <r>    2.1165    1.0000 </r>
       <r>    2.1166    1.0000 </r>
       <r>    2.1955    1.0000 </r>
       <r>    2.1957    1.0000 </r>
       <r>    2.2885    1.0000 </r>
       <r>    2.2887    1.0000 </r>
       <r>    2.4162    1.0000 </r>
       <r>    2.4165    1.0000 </r>
       <r>    2.4404    1.0000 </r>
       <r>    2.4408    1.0000 </r>
       <r>    2.4409    1.0000 </r>
       <r>    2.4414    1.0000 </r>
       <r>    2.4997    1.0000 </r>
       <r>    2.5162    1.0000 </r>
       <r>    2.5165    1.0000 </r>
       <r>    2.5165    1.0000 </r>
       <r>    2.5170    1.0000 </r>
       <r>    2.5593    1.0000 </r>
       <r>    2.5598    1.0000 </r>
       <r>    2.5653    1.0000 </r>
       <r>    2.7184    1.0000 </r>
       <r>    2.7188    1.0000 </r>
       <r>    2.7189    1.0000 </r>
       <r>    2.7191    1.0000 </r>
       <r>    2.7330    1.0000 </r>
       <r>    2.7335    1.0000 </r>
       <r>    2.8000    1.0000 </r>
       <r>    2.8007    1.0000 </r>
       <r>    3.0022    1.0000 </r>
       <r>    3.0030    1.0000 </r>
       <r>    3.0062    1.0000 </r>
       <r>    3.0071    1.0000 </r>
       <r>    3.1702    1.0000 </r>
       <r>    3.2188    1.0000 </r>
       <r>    3.2194    1.0000 </r>
       <r>    3.2217    1.0000 </r>
       <r>    3.2224    1.0000 </r>
       <r>    3.3592    1.0000 </r>
       <r>    3.3598    1.0000 </r>
       <r>    3.3599    1.0000 </r>
       <r>    3.3606    1.0000 </r>
       <r>    3.3930    1.0000 </r>
       <r>    3.4018    1.0000 </r>
       <r>    3.5017    1.0000 </r>
       <r>    3.5020    1.0000 </r>
       <r>    3.5872    1.0000 </r>
       <r>    3.5877    1.0000 </r>
       <r>    3.8159    1.0000 </r>
       <r>    3.8160    1.0000 </r>
       <r>    3.8301    1.0000 </r>
       <r>    3.8303    1.0000 </r>
       <r>    4.0026    1.0000 </r>
       <r>    4.0029    1.0000 </r>
       <r>    4.0030    1.0000 </r>
       <r>    4.0033    1.0000 </r>
       <r>    4.0314    1.0000 </r>
       <r>    4.0316    1.0000 </r>
       <r>    4.0317    1.0000 </r>
       <r>    4.0320    1.0000 </r>
       <r>    4.1063    1.0000 </r>
       <r>    4.1168    1.0000 </r>
       <r>    4.1221    1.0000 </r>
       <r>    4.1599    1.0000 </r>
       <r>    4.1603    1.0000 </r>
       <r>    4.2588    1.0000 </r>
       <r>    4.2592    1.0000 </r>
       <r>    4.2766    1.0000 </r>
       <r>    4.2773    1.0000 </r>
       <r>    4.3302    1.0000 </r>
       <r>    4.3305    1.0000 </r>
       <r>    4.3586    1.0000 </r>
       <r>    4.3587    1.0000 </r>
       <r>    4.3587    1.0000 </r>
       <r>    4.3588    1.0000 </r>
       <r>    4.4114    1.0000 </r>
       <r>    4.4119    1.0000 </r>
       <r>    4.4337    1.0000 </r>
       <r>    4.4343    1.0000 </r>
       <r>    4.5229    1.0000 </r>
       <r>    4.5234    1.0000 </r>
       <r>    4.5236    1.0000 </r>
       <r>    4.5242    1.0000 </r>
       <r>    4.5509    1.0000 </r>
       <r>    4.5510    1.0000 </r>
       <r>    4.8118    1.0000 </r>
       <r>    4.8120    1.0000 </r>
       <r>    4.8120    1.0000 </r>
       <r>    4.8121    1.0000 </r>
       <r>    4.8748    1.0000 </r>
       <r>    4.8750    1.0000 </r>
       <r>    4.8751    1.0000 </r>
       <r>    4.8754    1.0000 </r>
       <r>    7.3645    0.0000 </r>
       <r>    8.4303    0.0000 </r>
       <r>    8.6651    0.0000 </r>
       <r>    8.6655    0.0000 </r>
       <r>    8.8414    0.0000 </r>
       <r>    8.8418    0.0000 </r>
       <r>    8.8419    0.0000 </r>
       <r>    8.8422    0.0000 </r>
       <r>    8.9864    0.0000 </r>
       <r>    8.9865    0.0000 </r>
       <r>    9.3109    0.0000 </r>
       <r>    9.3113    0.0000 </r>
       <r>    9.3113    0.0000 </r>
       <r>    9.3114    0.0000 </r>
       <r>    9.3214    0.0000 </r>
       <r>    9.3217    0.0000 </r>
       <r>    9.4448    0.0000 </r>
       <r>    9.4450    0.0000 </r>
       <r>    9.5154    0.0000 </r>
       <r>    9.5159    0.0000 </r>
       <r>    9.5159    0.0000 </r>
       <r>    9.5160    0.0000 </r>
       <r>    9.8732    0.0000 </r>
       <r>    9.8787    0.0000 </r>
       <r>    9.9189    0.0000 </r>
       <r>    9.9191    0.0000 </r>
       <r>    9.9191    0.0000 </r>
       <r>    9.9194    0.0000 </r>
       <r>    9.9669    0.0000 </r>
       <r>    9.9673    0.0000 </r>
       <r>   10.0692    0.0000 </r>
       <r>   10.0697    0.0000 </r>
       <r>   10.4888    0.0000 </r>
       <r>   10.5025    0.0000 </r>
       <r>   10.5026    0.0000 </r>
       <r>   10.5196    0.0000 </r>
       <r>   10.5196    0.0000 </r>
       <r>   10.8012    0.0000 </r>
       <r>   10.8015    0.0000 </r>
       <r>   10.8015    0.0000 </r>
       <r>   10.8016    0.0000 </r>
       <r>   10.8752    0.0000 </r>
       <r>   10.8760    0.0000 </r>
       <r>   11.0177    0.0000 </r>
       <r>   11.0183    0.0000 </r>
       <r>   11.0512    0.0000 </r>
       <r>   11.2662    0.0000 </r>
       <r>   11.2668    0.0000 </r>
       <r>   11.3729    0.0000 </r>
       <r>   11.3734    0.0000 </r>
       <r>   11.3736    0.0000 </r>
       <r>   11.3740    0.0000 </r>
       <r>   11.3875    0.0000 </r>
       <r>   11.3884    0.0000 </r>
       <r>   11.3938    0.0000 </r>
[...]
       <r>   -45.9058    67.6918    52.2971 </r>
       <r>   -45.6649   231.2412   108.0000 </r>
       <r>   -45.4240     0.0000   108.0000 </r>
       <r>   -45.1831     0.0000   108.0000 </r>
       <r>   -44.9422     0.0000   108.0000 </r>
       <r>   -44.7014     0.0000   108.0000 </r>
       <r>   -44.4605     0.0000   108.0000 </r>
       <r>   -44.2196     0.0000   108.0000 </r>
       <r>   -43.9787     0.0000   108.0000 </r>
       <r>   -43.7378     0.0000   108.0000 </r>
       <r>   -43.4969     0.0000   108.0000 </r>
       <r>   -43.2560     0.0000   108.0000 </r>
       <r>   -43.0151     0.0000   108.0000 </r>
       <r>   -42.7743     0.0000   108.0000 </r>
       <r>   -42.5334     0.0000   108.0000 </r>
       <r>   -42.2925     0.0000   108.0000 </r>
       <r>   -42.0516     0.0000   108.0000 </r>
       <r>   -41.8107     0.0000   108.0000 </r>
       <r>   -41.5698     0.0000   108.0000 </r>
       <r>   -41.3289     0.0000   108.0000 </r>
       <r>   -41.0881     0.0000   108.0000 </r>
       <r>   -40.8472     0.0000   108.0000 </r>
       <r>   -40.6063     0.0000   108.0000 </r>
       <r>   -40.3654     0.0000   108.0000 </r>
       <r>   -40.1245     0.0000   108.0000 </r>
       <r>   -39.8836    19.7106   112.7480 </r>
       <r>   -39.6427    55.0134   126.0000 </r>
       <r>   -39.4018     0.0000   126.0000 </r>
       <r>   -39.1610     0.0000   126.0000 </r>
       <r>   -38.9201     0.0000   126.0000 </r>
       <r>   -38.6792     0.0000   126.0000 </r>
       <r>   -38.4383     0.0000   126.0000 </r>
       <r>   -38.1974     0.0000   126.0000 </r>
       <r>   -37.9565     0.0000   126.0000 </r>
       <r>   -37.7156     0.0000   126.0000 </r>
       <r>   -37.4748     0.0000   126.0000 </r>
       <r>   -37.2339     0.0000   126.0000 </r>
       <r>   -36.9930     0.0000   126.0000 </r>
       <r>   -36.7521     0.0000   126.0000 </r>
       <r>   -36.5112     0.0000   126.0000 </r>
       <r>   -36.2703     0.0000   126.0000 </r>
       <r>   -36.0294     0.0000   126.0000 </r>
       <r>   -35.7886     0.0000   126.0000 </r>
       <r>   -35.5477     0.0000   126.0000 </r>
       <r>   -35.3068     0.0000   126.0000 </r>
       <r>   -35.0659     0.0000   126.0000 </r>
       <r>   -34.8250     0.0000   126.0000 </r>
       <r>   -34.5841     0.0000   126.0000 </r>
       <r>   -34.3432     0.0000   126.0000 </r>
       <r>   -34.1023     0.0000   126.0000 </r>
       <r>   -33.8615     0.0000   126.0000 </r>
       <r>   -33.6206     0.0000   126.0000 </r>
       <r>   -33.3797     0.0000   126.0000 </r>
       <r>   -33.1388     0.0000   126.0000 </r>
       <r>   -32.8979     0.0000   126.0000 </r>
       <r>   -32.6570     0.0000   126.0000 </r>
       <r>   -32.4161     0.0000   126.0000 </r>
       <r>   -32.1753     0.0000   126.0000 </r>
       <r>   -31.9344     0.0000   126.0000 </r>
       <r>   -31.6935     0.0000   126.0000 </r>
       <r>   -31.4526     0.0000   126.0000 </r>
       <r>   -31.2117     0.0000   126.0000 </r>
       <r>   -30.9708     0.0000   126.0000 </r>
       <r>   -30.7299     0.0000   126.0000 </r>
       <r>   -30.4890     0.0000   126.0000 </r>
       <r>   -30.2482     0.0000   126.0000 </r>
       <r>   -30.0073     0.0000   126.0000 </r>
       <r>   -29.7664     0.0000   126.0000 </r>
       <r>   -29.5255     0.0000   126.0000 </r>
       <r>   -29.2846     0.0000   126.0000 </r>
       <r>   -29.0437     0.0000   126.0000 </r>
       <r>   -28.8028     0.0000   126.0000 </r>
       <r>   -28.5620     0.0000   126.0000 </r>
       <r>   -28.3211     0.0000   126.0000 </r>
       <r>   -28.0802     0.0000   126.0000 </r>
       <r>   -27.8393     0.0000   126.0000 </r>
       <r>   -27.5984     0.0000   126.0000 </r>
       <r>   -27.3575     0.0000   126.0000 </r>
       <r>   -27.1166     0.0000   126.0000 </r>
       <r>   -26.8758     0.0000   126.0000 </r>
       <r>   -26.6349     0.0000   126.0000 </r>
       <r>   -26.3940     0.0000   126.0000 </r>
       <r>   -26.1531     0.0000   126.0000 </r>
       <r>   -25.9122     0.0000   126.0000 </r>
       <r>   -25.6713     0.0000   126.0000 </r>
       <r>   -25.4304     0.0000   126.0000 </r>
       <r>   -25.1895     0.0000   126.0000 </r>
       <r>   -24.9487     0.0000   126.0000 </r>
       <r>   -24.7078     0.0000   126.0000 </r>
       <r>   -24.4669     0.0000   126.0000 </r>
       <r>   -24.2260     0.0000   126.0000 </r>
       <r>   -23.9851     0.0000   126.0000 </r>
       <r>   -23.7442     0.0000   126.0000 </r>
       <r>   -23.5033     0.0000   126.0000 </r>
       <r>   -23.2625     0.0000   126.0000 </r>
       <r>   -23.0216     0.0000   126.0000 </r>
       <r>   -22.7807     0.0000   126.0000 </r>
       <r>   -22.5398     0.0000   126.0000 </r>
       <r>   -22.2989     0.0000   126.0000 </r>
       <r>   -22.0580     0.0000   126.0000 </r>
       <r>   -21.8171     0.0000   126.0000 </r>
       <r>   -21.5762     0.0000   126.0000 </r>
       <r>   -21.3354     0.0000   126.0000 </r>
       <r>   -21.0945     0.0000   126.0000 </r>
       <r>   -20.8536     0.0000   126.0000 </r>
       <r>   -20.6127     0.0000   126.0000 </r>
       <r>   -20.3718     0.0000   126.0000 </r>
       <r>   -20.1309     0.0000   126.0000 </r>
       <r>   -19.8900     0.0000   126.0000 </r>
       <r>   -19.6492     0.0000   126.0000 </r>
       <r>   -19.4083     0.0000   126.0000 </r>
       <r>   -19.1674     0.0000   126.0000 </r>
       <r>   -18.9265     0.0000   126.0000 </r>
       <r>   -18.6856     0.0000   126.0000 </r>
       <r>   -18.4447     0.0000   126.0000 </r>
       <r>   -18.2038     0.0000   126.0000 </r>
       <r>   -17.9630     0.0000   126.0000 </r>
       <r>   -17.7221     0.0000   126.0000 </r>
       <r>   -17.4812     0.0000   126.0000 </r>
       <r>   -17.2403     0.0000   126.0000 </r>
       <r>   -16.9994     0.0000   126.0000 </r>
       <r>   -16.7585     0.0000   126.0000 </r>
       <r>   -16.5176     0.0000   126.0000 </r>
       <r>   -16.2767     0.0000   126.0000 </r>
       <r>   -16.0359     0.0000   126.0000 </r>
       <r>   -15.7950     0.0000   126.0000 </r>
       <r>   -15.5541     0.0000   126.0000 </r>
       <r>   -15.3132     0.0000   126.0000 </r>
       <r>   -15.0723     0.0000   126.0000 </r>
       <r>   -14.8314     0.0000   126.0000 </r>
       <r>   -14.5905     0.0000   126.0000 </r>
       <r>   -14.3497     0.0000   126.0000 </r>
       <r>   -14.1088     0.0000   126.0000 </r>
       <r>   -13.8679     0.0000   126.0000 </r>
       <r>   -13.6270     0.0000   126.0000 </r>
       <r>   -13.3861     0.0000   126.0000 </r>
       <r>   -13.1452     0.0000   126.0000 </r>
       <r>   -12.9043     0.1234   126.0297 </r>
       <r>   -12.6634    55.8759   139.4895 </r>
       <r>   -12.4226    18.7247   144.0000 </r>
       <r>   -12.1817     0.0000   144.0000 </r>
       <r>   -11.9408     0.0000   144.0000 </r>
       <r>   -11.6999     0.0000   144.0000 </r>
       <r>   -11.4590     0.0000   144.0000 </r>
       <r>   -11.2181     0.0000   144.0000 </r>
       <r>   -10.9772     0.0000   144.0000 </r>
       <r>   -10.7364     0.0000   144.0000 </r>
       <r>   -10.4955     0.0000   144.0000 </r>
       <r>   -10.2546     0.0000   144.0000 </r>
       <r>   -10.0137     0.0000   144.0000 </r>
       <r>    -9.7728     0.0000   144.0000 </r>
       <r>    -9.5319     0.0000   144.0000 </r>
       <r>    -9.2910     0.0000   144.0000 </r>
       <r>    -9.0502     0.0000   144.0000 </r>
       <r>    -8.8093     0.0000   144.0000 </r>
       <r>    -8.5684     0.0000   144.0000 </r>
       <r>    -8.3275     0.0000   144.0000 </r>
       <r>    -8.0866     0.0000   144.0000 </r>
       <r>    -7.8457     0.0000   144.0000 </r>
       <r>    -7.6048     0.0000   144.0000 </r>
       <r>    -7.3639     0.3170   144.0764 </r>
       <r>    -7.1231    17.5339   148.3001 </r>
       <r>    -6.8822    31.6162   155.9160 </r>
       <r>    -6.6413    23.7534   161.6378 </r>
       <r>    -6.4004    38.6530   170.9488 </r>
       <r>    -6.1595     0.2124   171.0000 </r>
       <r>    -5.9186     0.0000   171.0000 </r>
       <r>    -5.6777     0.0000   171.0000 </r>
       <r>    -5.4369     0.0000   171.0000 </r>
       <r>    -5.1960     0.0000   171.0000 </r>
       <r>    -4.9551     0.0000   171.0000 </r>
       <r>    -4.7142     0.0000   171.0000 </r>
       <r>    -4.4733     0.0000   171.0000 </r>
       <r>    -4.2324     0.0000   171.0000 </r>
       <r>    -3.9915     0.0000   171.0000 </r>
       <r>    -3.7506     0.0000   171.0000 </r>
       <r>    -3.5098     0.0000   171.0000 </r>
       <r>    -3.2689     0.0000   171.0000 </r>
       <r>    -3.0280     0.0000   171.0000 </r>
       <r>    -2.7871     0.0000   171.0000 </r>
       <r>    -2.5462     0.0000   171.0000 </r>
       <r>    -2.3053     0.0000   171.0000 </r>
       <r>    -2.0644     0.0000   171.0000 </r>
       <r>    -1.8236     0.0000   171.0000 </r>
       <r>    -1.5827     0.0000   171.0000 </r>
       <r>    -1.3418     0.0000   171.0000 </r>
       <r>    -1.1009     0.0000   171.0000 </r>
       <r>    -0.8600     0.0000   171.0000 </r>
       <r>    -0.6191     0.0000   171.0000 </r>
       <r>    -0.3782     7.5897   172.8283 </r>
       <r>    -0.1374    22.1017   178.1523 </r>
       <r>     0.1035    12.9061   181.2612 </r>
       <r>     0.3444    23.1354   186.8342 </r>
       <r>     0.5853    29.5548   193.9535 </r>
       <r>     0.8262    48.5102   205.6390 </r>
       <r>     1.0671    40.7065   215.4446 </r>
       <r>     1.3080    34.2287   223.6898 </r>
       <r>     1.5489    23.3445   229.3132 </r>
       <r>     1.7897    33.1375   237.2956 </r>
       <r>     2.0306    40.6387   247.0849 </r>
       <r>     2.2715    30.0365   254.3203 </r>
       <r>     2.5124    28.9833   261.3020 </r>
       <r>     2.7533    36.4344   270.0785 </r>
       <r>     2.9942    45.9023   281.1358 </r>
       <r>     3.2351    49.4556   293.0490 </r>
       <r>     3.4759    43.2485   303.4670 </r>
       <r>     3.7168     8.2318   305.4499 </r>
       <r>     3.9577    19.4300   310.1303 </r>
       <r>     4.1986    70.2827   327.0605 </r>
       <r>     4.4395    49.4927   338.9826 </r>
       <r>     4.6804    12.5261   342.0000 </r>
       <r>     4.9213     0.0001   342.0000 </r>
       <r>     5.1622     0.0000   342.0000 </r>
       <r>     5.4030     0.0000   342.0000 </r>
       <r>     5.6439     0.0000   342.0000 </r>
       <r>     5.8848     0.0000   342.0000 </r>
       <r>     6.1257     0.0000   342.0000 </r>
       <r>     6.3666     0.9387   342.2261 </r>
       <r>     6.6075     5.1155   343.4584 </r>
       <r>     6.8484     8.5705   345.5229 </r>
       <r>     7.0892    19.5602   350.2347 </r>
       <r>     7.3301    58.2946   364.2771 </r>
       <r>     7.5710    59.9440   378.7168 </r>
       <r>     7.8119    63.6831   394.0572 </r>
       <r>     8.0528    73.9571   411.8724 </r>
       <r>     8.2937    78.1561   430.6992 </r>
       <r>     8.5346    71.3056   447.8757 </r>
       <r>     8.7754    67.2961   464.0865 </r>
       <r>     9.0163    48.8975   475.8652 </r>
       <r>     9.2572    34.0146   484.0589 </r>
       <r>     9.4981     9.5439   486.3579 </r>
       <r>     9.7390     5.3324   487.6424 </r>
       <r>     9.9799    11.1440   490.3268 </r>
       <r>    10.2208    15.4346   494.0448 </r>
       <r>    10.4617    24.9814   500.0625 </r>
       <r>    10.7025    21.3130   505.1965 </r>
       <r>    10.9434    21.2721   510.3206 </r>
       <r>    11.1843    32.4587   518.1395 </r>
       <r>    11.4252    20.3439   523.0401 </r>
       <r>    11.6661    18.9766   527.6113 </r>
       <r>    11.9070    12.0124   530.5049 </r>
       <r>    12.1479    22.6478   535.9605 </r>
       <r>    12.3887    44.0433   546.5699 </r>
       <r>    12.6296    36.1439   555.2765 </r>
       <r>    12.8705    34.1182   563.4951 </r>
       <r>    13.1114    20.4755   568.4273 </r>
       <r>    13.3523    23.1399   574.0014 </r>
       <r>    13.5932    33.0972   581.9741 </r>
       <r>    13.8341    26.7529   588.4185 </r>
       <r>    14.0750    27.3030   594.9954 </r>
       <r>    14.3158    21.8058   600.2482 </r>
       <r>    14.5567    20.9692   605.2994 </r>
       <r>    14.7976     2.9086   606.0000 </r>
       <r>    15.0385     0.0000   606.0000 </r>
       <r>    15.2794     0.0000   606.0000 </r>
       <r>    15.5203     0.0000   606.0000 </r>
       <r>    15.7612     0.0000   606.0000 </r>
       <r>    16.0020     0.0000   606.0000 </r>
       <r>    16.2429     0.0000   606.0000 </r>
       <r>    16.4838     0.0000   606.0000 </r>
       <r>    16.7247     0.0000   606.0000 </r>
       <r>    16.9656     0.0000   606.0000 </r>
       <r>    17.2065     0.0000   606.0000 </r>
       <r>    17.4474     0.0000   606.0000 </r>
       <r>    17.6882     0.0000   606.0000 </r>
       <r>    17.9291     0.0000   606.0000 </r>
      </set>
     </set>
    </array>
   </total>
  </dos>
 </calculation>
 <structure name="finalpos" >
  <crystal>
   <varray name="basis" >
    <v>      11.77726974       0.00848871       0.06923316 </v>
    <v>      -0.03028248      11.77723386       0.06923316 </v>
    <v>      -2.02000231      -2.02666320      10.18574622 </v>
   </varray>
   <i name="volume">   1416.10551572 </i>
   <varray name="rec_basis" >
    <v>       0.08481023       0.00011906       0.01684296 </v>
    <v>      -0.00016014       0.08481016       0.01684296 </v>
    <v>      -0.00057537      -0.00057727       0.09794744 </v>
   </varray>
  </crystal>
  <varray name="positions" >
   <v>       0.20224939       0.24291860       0.83183419 </v>
   <v>       0.53558272       0.24206952       0.83183419 </v>
   <v>       0.86891606       0.24206952       0.83183419 </v>
   <v>       0.20224939       0.57540285       0.83183419 </v>
   <v>       0.53558272       0.57540285       0.83183419 </v>
   <v>       0.86891606       0.57540285       0.83183419 </v>
   <v>       0.20224939       0.90873619       0.83183419 </v>
   <v>       0.53558272       0.90873619       0.83183419 </v>
   <v>       0.86891606       0.90873619       0.83183419 </v>
   <v>       0.09126381       0.13108394       0.16816581 </v>
   <v>       0.42459715       0.13108394       0.16816581 </v>
   <v>       0.75793048       0.13108394       0.16816581 </v>
   <v>       0.09126381       0.46441728       0.16816581 </v>
   <v>       0.42459715       0.46441728       0.16816581 </v>
   <v>       0.75793048       0.46441728       0.16816581 </v>
   <v>       0.09126381       0.79775061       0.16816581 </v>
   <v>       0.42459715       0.79775061       0.16816581 </v>
   <v>       0.75793048       0.79775061       0.16816581 </v>
   <v>       0.26311007       0.13598816       0.19686089 </v>
   <v>       0.59644341       0.13598816       0.19686089 </v>
   <v>       0.92977674       0.13598816       0.19686089 </v>
   <v>       0.26311007       0.46932149       0.19686089 </v>
   <v>       0.59644341       0.46932149       0.19686089 </v>
   <v>       0.92977674       0.46932149       0.19686089 </v>
   <v>       0.26311007       0.80265483       0.19686089 </v>
   <v>       0.59644341       0.80265483       0.19686089 </v>
   <v>       0.92977674       0.80265483       0.19686089 </v>
   <v>       0.19734517       0.07022326       0.80313911 </v>
   <v>       0.53067851       0.07022326       0.80313911 </v>
   <v>       0.86401184       0.07022326       0.80313911 </v>
   <v>       0.19734517       0.40355659       0.80313911 </v>
   <v>       0.53067851       0.40355659       0.80313911 </v>
   <v>       0.86401184       0.40355659       0.80313911 </v>
   <v>       0.19734517       0.73688993       0.80313911 </v>
   <v>       0.53067851       0.73688993       0.80313911 </v>
   <v>       0.86401184       0.73688993       0.80313911 </v>
   <v>       0.00253935       0.20657296       0.62920335 </v>
   <v>       0.33587268       0.20657296       0.62920335 </v>
   <v>       0.66920601       0.20657296       0.62920335 </v>
   <v>       0.00253935       0.53990630       0.62920335 </v>
   <v>       0.33587268       0.53990630       0.62920335 </v>
   <v>       0.66920601       0.53990630       0.62920335 </v>
   <v>       0.00253935       0.87323963       0.62920335 </v>
   <v>       0.33587268       0.87323963       0.62920335 </v>
   <v>       0.66920601       0.87323963       0.62920335 </v>
   <v>       0.12676037       0.33079399       0.37079665 </v>
   <v>       0.46009370       0.33079399       0.37079665 </v>
   <v>       0.79342704       0.33079399       0.37079665 </v>
   <v>       0.12676037       0.66412732       0.37079665 </v>
   <v>       0.46009370       0.66412732       0.37079665 </v>
   <v>       0.79342704       0.66412732       0.37079665 </v>
   <v>       0.12676037       0.99746065       0.37079665 </v>
   <v>       0.46009370       0.99746065       0.37079665 </v>
   <v>       0.79342704       0.99746065       0.37079665 </v>
   <v>       0.06350899       0.26982435       0.00000000 </v>
   <v>       0.39684232       0.26982435       0.00000000 </v>
   <v>       0.73017565       0.26982435       0.00000000 </v>
   <v>       0.06350899       0.60315768       0.00000000 </v>
   <v>       0.39684232       0.60315768       0.00000000 </v>
   <v>       0.73017565       0.60315768       0.00000000 </v>
   <v>       0.06350899       0.93649101       0.00000000 </v>
   <v>       0.39684232       0.93649101       0.00000000 </v>
   <v>       0.73017565       0.93649101       0.00000000 </v>
   <v>       0.29027274       0.17214940       0.39352170 </v>
   <v>       0.62360607       0.17214940       0.39352170 </v>
   <v>       0.95693941       0.17214940       0.39352170 </v>
   <v>       0.29027274       0.50548273       0.39352170 </v>
   <v>       0.62360607       0.50548273       0.39352170 </v>
   <v>       0.95693941       0.50548273       0.39352170 </v>
   <v>       0.29027274       0.83881607       0.39352170 </v>
   <v>       0.62360607       0.83881607       0.39352170 </v>
   <v>       0.95693941       0.83881607       0.39352170 </v>
   <v>       0.16118393       0.04306059       0.60647830 </v>
   <v>       0.49451727       0.04306059       0.60647830 </v>
   <v>       0.82785060       0.04306059       0.60647830 </v>
   <v>       0.16118393       0.37639393       0.60647830 </v>
   <v>       0.49451727       0.37639393       0.60647830 </v>
   <v>       0.82785060       0.37639393       0.60647830 </v>
   <v>       0.16118393       0.70972726       0.60647830 </v>
   <v>       0.49451727       0.70972726       0.60647830 </v>
   <v>       0.82785060       0.70972726       0.60647830 </v>
   <v>       0.03761391       0.07731307       0.84542777 </v>
   <v>       0.37094724       0.07731307       0.84542777 </v>
   <v>       0.70428057       0.07731307       0.84542777 </v>
   <v>       0.03761391       0.41064640       0.84542777 </v>
   <v>       0.37094724       0.41064640       0.84542777 </v>
   <v>       0.70428057       0.41064640       0.84542777 </v>
   <v>       0.03761391       0.74397973       0.84542777 </v>
   <v>       0.37094724       0.74397973       0.84542777 </v>
   <v>       0.70428057       0.74397973       0.84542777 </v>
   <v>       0.25602027       0.29571943       0.15457223 </v>
   <v>       0.58935360       0.29571943       0.15457223 </v>
   <v>       0.92268693       0.29571943       0.15457223 </v>
   <v>       0.25602027       0.62905276       0.15457223 </v>
   <v>       0.58935360       0.62905276       0.15457223 </v>
   <v>       0.92268693       0.62905276       0.15457223 </v>
   <v>       0.25602027       0.96238609       0.15457223 </v>
   <v>       0.58935360       0.96238609       0.15457223 </v>
   <v>       0.92268693       0.96238609       0.15457223 </v>
  </varray>
 </structure>
</modeling>
