 160 160   0   0
  0.1218736E+02  0.1542482E-08  0.1121024E-08  0.1127703E-08  0.5000000E-15
  1.000000000000000E-004
  CAR 
 unknown system                          
     16.88465775    -54.74468189  301      4.97628003      1.00000000
    -54.745  0.0000E+00  0.0000E+00  0.0000E+00  0.0000E+00
    -54.506  0.0000E+00  0.0000E+00  0.0000E+00  0.0000E+00
    -54.267  0.0000E+00  0.0000E+00  0.0000E+00  0.0000E+00
    -54.028  0.0000E+00  0.0000E+00  0.0000E+00  0.0000E+00
    -53.790  0.0000E+00  0.0000E+00  0.0000E+00  0.0000E+00
    -53.551  0.0000E+00  0.0000E+00  0.0000E+00  0.0000E+00
    -53.312  0.0000E+00  0.0000E+00  0.0000E+00  0.0000E+00
    -53.073  0.0000E+00  0.0000E+00  0.0000E+00  0.0000E+00
    -52.835  0.0000E+00  0.0000E+00  0.0000E+00  0.0000E+00
    -52.596  0.0000E+00  0.0000E+00  0.0000E+00  0.0000E+00
    -52.357  0.0000E+00  0.0000E+00  0.0000E+00  0.0000E+00
    -52.118  0.0000E+00  0.0000E+00  0.0000E+00  0.0000E+00
    -51.880  0.0000E+00  0.0000E+00  0.0000E+00  0.0000E+00
    -51.641  0.8226E-03  0.0000E+00  0.1964E-03  0.0000E+00
    -51.402  0.1328E+03  0.0000E+00  0.3172E+02  0.0000E+00
    -51.163  0.1174E+01  0.0000E+00  0.3200E+02  0.0000E+00
    -50.924  0.0000E+00  0.0000E+00  0.3200E+02  0.0000E+00
    -50.686  0.0000E+00  0.0000E+00  0.3200E+02  0.0000E+00
    -50.447  0.0000E+00  0.0000E+00  0.3200E+02  0.0000E+00
    -50.208  0.9183E-01  0.0000E+00  0.3202E+02  0.0000E+00
    -49.969  0.2660E+03  0.0000E+00  0.9554E+02  0.0000E+00
    -49.731  0.1923E+01  0.0000E+00  0.9600E+02  0.0000E+00
    -49.492  0.0000E+00  0.0000E+00  0.9600E+02  0.0000E+00
    -49.253  0.0000E+00  0.0000E+00  0.9600E+02  0.0000E+00
    -49.014  0.0000E+00  0.0000E+00  0.9600E+02  0.0000E+00
    -48.776  0.0000E+00  0.0000E+00  0.9600E+02  0.0000E+00
    -48.537  0.0000E+00  0.0000E+00  0.9600E+02  0.0000E+00
    -48.298  0.0000E+00  0.0000E+00  0.9600E+02  0.0000E+00
    -48.059  0.0000E+00  0.0000E+00  0.9600E+02  0.0000E+00
    -47.821  0.0000E+00  0.0000E+00  0.9600E+02  0.0000E+00
    -47.582  0.0000E+00  0.0000E+00  0.9600E+02  0.0000E+00
    -47.343  0.0000E+00  0.0000E+00  0.9600E+02  0.0000E+00
    -47.104  0.0000E+00  0.0000E+00  0.9600E+02  0.0000E+00
    -46.865  0.0000E+00  0.3244E-01  0.9600E+02  0.7747E-02
    -46.627  0.0000E+00  0.1339E+03  0.9600E+02  0.3198E+02
    -46.388  0.0000E+00  0.6264E+02  0.9600E+02  0.4694E+02
    -46.149  0.0000E+00  0.2055E+03  0.9600E+02  0.9600E+02
    -45.910  0.0000E+00  0.0000E+00  0.9600E+02  0.9600E+02
    -45.672  0.0000E+00  0.0000E+00  0.9600E+02  0.9600E+02
    -45.433  0.0000E+00  0.0000E+00  0.9600E+02  0.9600E+02
    -45.194  0.0000E+00  0.0000E+00  0.9600E+02  0.9600E+02
    -44.955  0.0000E+00  0.0000E+00  0.9600E+02  0.9600E+02
    -44.717  0.0000E+00  0.0000E+00  0.9600E+02  0.9600E+02
    -44.478  0.0000E+00  0.0000E+00  0.9600E+02  0.9600E+02
    -44.239  0.0000E+00  0.0000E+00  0.9600E+02  0.9600E+02
    -44.000  0.0000E+00  0.0000E+00  0.9600E+02  0.9600E+02
    -43.762  0.0000E+00  0.0000E+00  0.9600E+02  0.9600E+02
    -43.523  0.0000E+00  0.0000E+00  0.9600E+02  0.9600E+02
    -43.284  0.0000E+00  0.0000E+00  0.9600E+02  0.9600E+02
    -43.045  0.0000E+00  0.0000E+00  0.9600E+02  0.9600E+02
    -42.806  0.0000E+00  0.0000E+00  0.9600E+02  0.9600E+02
    -42.568  0.0000E+00  0.0000E+00  0.9600E+02  0.9600E+02
    -42.329  0.0000E+00  0.0000E+00  0.9600E+02  0.9600E+02
    -42.090  0.0000E+00  0.0000E+00  0.9600E+02  0.9600E+02
    -41.851  0.0000E+00  0.0000E+00  0.9600E+02  0.9600E+02
    -41.613  0.0000E+00  0.0000E+00  0.9600E+02  0.9600E+02
    -41.374  0.0000E+00  0.0000E+00  0.9600E+02  0.9600E+02
    -41.135  0.0000E+00  0.0000E+00  0.9600E+02  0.9600E+02
    -40.896  0.0000E+00  0.0000E+00  0.9600E+02  0.9600E+02
    -40.658  0.0000E+00  0.0000E+00  0.9600E+02  0.9600E+02
    -40.419  0.1047E+01  0.9342E+00  0.9625E+02  0.9622E+02
    -40.180  0.2484E+03  0.2499E+03  0.1556E+03  0.1559E+03
    -39.941  0.1860E+02  0.1726E+02  0.1600E+03  0.1600E+03
    -39.703  0.0000E+00  0.0000E+00  0.1600E+03  0.1600E+03
    -39.464  0.0000E+00  0.0000E+00  0.1600E+03  0.1600E+03
    -39.225  0.0000E+00  0.0000E+00  0.1600E+03  0.1600E+03
    -38.986  0.0000E+00  0.0000E+00  0.1600E+03  0.1600E+03
    -38.747  0.0000E+00  0.0000E+00  0.1600E+03  0.1600E+03
    -38.509  0.0000E+00  0.0000E+00  0.1600E+03  0.1600E+03
    -38.270  0.0000E+00  0.0000E+00  0.1600E+03  0.1600E+03
    -38.031  0.0000E+00  0.0000E+00  0.1600E+03  0.1600E+03
    -37.792  0.0000E+00  0.0000E+00  0.1600E+03  0.1600E+03
    -37.554  0.0000E+00  0.0000E+00  0.1600E+03  0.1600E+03
    -37.315  0.0000E+00  0.0000E+00  0.1600E+03  0.1600E+03
    -37.076  0.0000E+00  0.0000E+00  0.1600E+03  0.1600E+03
    -36.837  0.0000E+00  0.0000E+00  0.1600E+03  0.1600E+03
    -36.599  0.0000E+00  0.0000E+00  0.1600E+03  0.1600E+03
    -36.360  0.0000E+00  0.0000E+00  0.1600E+03  0.1600E+03
    -36.121  0.0000E+00  0.0000E+00  0.1600E+03  0.1600E+03
    -35.882  0.0000E+00  0.0000E+00  0.1600E+03  0.1600E+03
    -35.644  0.0000E+00  0.0000E+00  0.1600E+03  0.1600E+03
    -35.405  0.0000E+00  0.0000E+00  0.1600E+03  0.1600E+03
    -35.166  0.0000E+00  0.0000E+00  0.1600E+03  0.1600E+03
    -34.927  0.0000E+00  0.0000E+00  0.1600E+03  0.1600E+03
    -34.688  0.0000E+00  0.0000E+00  0.1600E+03  0.1600E+03
    -34.450  0.0000E+00  0.0000E+00  0.1600E+03  0.1600E+03
    -34.211  0.0000E+00  0.0000E+00  0.1600E+03  0.1600E+03
    -33.972  0.0000E+00  0.0000E+00  0.1600E+03  0.1600E+03
    -33.733  0.0000E+00  0.0000E+00  0.1600E+03  0.1600E+03
    -33.495  0.0000E+00  0.0000E+00  0.1600E+03  0.1600E+03
    -33.256  0.0000E+00  0.0000E+00  0.1600E+03  0.1600E+03
    -33.017  0.0000E+00  0.0000E+00  0.1600E+03  0.1600E+03
    -32.778  0.0000E+00  0.0000E+00  0.1600E+03  0.1600E+03
    -32.540  0.0000E+00  0.0000E+00  0.1600E+03  0.1600E+03
    -32.301  0.0000E+00  0.0000E+00  0.1600E+03  0.1600E+03
    -32.062  0.0000E+00  0.0000E+00  0.1600E+03  0.1600E+03
    -31.823  0.0000E+00  0.0000E+00  0.1600E+03  0.1600E+03
    -31.585  0.0000E+00  0.0000E+00  0.1600E+03  0.1600E+03
    -31.346  0.0000E+00  0.0000E+00  0.1600E+03  0.1600E+03
    -31.107  0.0000E+00  0.0000E+00  0.1600E+03  0.1600E+03
    -30.868  0.0000E+00  0.0000E+00  0.1600E+03  0.1600E+03
    -30.629  0.0000E+00  0.0000E+00  0.1600E+03  0.1600E+03
    -30.391  0.0000E+00  0.0000E+00  0.1600E+03  0.1600E+03
    -30.152  0.0000E+00  0.0000E+00  0.1600E+03  0.1600E+03
    -29.913  0.0000E+00  0.0000E+00  0.1600E+03  0.1600E+03
    -29.674  0.0000E+00  0.0000E+00  0.1600E+03  0.1600E+03
    -29.436  0.0000E+00  0.0000E+00  0.1600E+03  0.1600E+03
    -29.197  0.0000E+00  0.0000E+00  0.1600E+03  0.1600E+03
    -28.958  0.0000E+00  0.0000E+00  0.1600E+03  0.1600E+03
    -28.719  0.0000E+00  0.0000E+00  0.1600E+03  0.1600E+03
    -28.481  0.0000E+00  0.0000E+00  0.1600E+03  0.1600E+03
    -28.242  0.0000E+00  0.0000E+00  0.1600E+03  0.1600E+03
    -28.003  0.0000E+00  0.0000E+00  0.1600E+03  0.1600E+03
    -27.764  0.0000E+00  0.0000E+00  0.1600E+03  0.1600E+03
    -27.526  0.0000E+00  0.0000E+00  0.1600E+03  0.1600E+03
    -27.287  0.0000E+00  0.0000E+00  0.1600E+03  0.1600E+03
    -27.048  0.0000E+00  0.0000E+00  0.1600E+03  0.1600E+03
    -26.809  0.0000E+00  0.0000E+00  0.1600E+03  0.1600E+03
    -26.570  0.0000E+00  0.0000E+00  0.1600E+03  0.1600E+03
    -26.332  0.0000E+00  0.0000E+00  0.1600E+03  0.1600E+03
    -26.093  0.0000E+00  0.0000E+00  0.1600E+03  0.1600E+03
    -25.854  0.0000E+00  0.0000E+00  0.1600E+03  0.1600E+03
    -25.615  0.0000E+00  0.0000E+00  0.1600E+03  0.1600E+03
    -25.377  0.0000E+00  0.0000E+00  0.1600E+03  0.1600E+03
    -25.138  0.0000E+00  0.0000E+00  0.1600E+03  0.1600E+03
    -24.899  0.0000E+00  0.0000E+00  0.1600E+03  0.1600E+03
    -24.660  0.0000E+00  0.0000E+00  0.1600E+03  0.1600E+03
    -24.422  0.0000E+00  0.0000E+00  0.1600E+03  0.1600E+03
    -24.183  0.0000E+00  0.0000E+00  0.1600E+03  0.1600E+03
    -23.944  0.0000E+00  0.0000E+00  0.1600E+03  0.1600E+03
    -23.705  0.0000E+00  0.0000E+00  0.1600E+03  0.1600E+03
    -23.467  0.0000E+00  0.0000E+00  0.1600E+03  0.1600E+03
    -23.228  0.0000E+00  0.0000E+00  0.1600E+03  0.1600E+03
    -22.989  0.0000E+00  0.0000E+00  0.1600E+03  0.1600E+03
    -22.750  0.0000E+00  0.0000E+00  0.1600E+03  0.1600E+03
    -22.511  0.0000E+00  0.0000E+00  0.1600E+03  0.1600E+03
    -22.273  0.0000E+00  0.0000E+00  0.1600E+03  0.1600E+03
    -22.034  0.0000E+00  0.0000E+00  0.1600E+03  0.1600E+03
    -21.795  0.0000E+00  0.0000E+00  0.1600E+03  0.1600E+03
    -21.556  0.0000E+00  0.0000E+00  0.1600E+03  0.1600E+03
    -21.318  0.0000E+00  0.0000E+00  0.1600E+03  0.1600E+03
    -21.079  0.0000E+00  0.0000E+00  0.1600E+03  0.1600E+03
    -20.840  0.0000E+00  0.0000E+00  0.1600E+03  0.1600E+03
    -20.601  0.0000E+00  0.0000E+00  0.1600E+03  0.1600E+03
    -20.363  0.0000E+00  0.0000E+00  0.1600E+03  0.1600E+03
    -20.124  0.0000E+00  0.0000E+00  0.1600E+03  0.1600E+03
    -19.885  0.0000E+00  0.0000E+00  0.1600E+03  0.1600E+03
    -19.646  0.0000E+00  0.0000E+00  0.1600E+03  0.1600E+03
    -19.408  0.0000E+00  0.0000E+00  0.1600E+03  0.1600E+03
    -19.169  0.0000E+00  0.0000E+00  0.1600E+03  0.1600E+03
    -18.930  0.0000E+00  0.0000E+00  0.1600E+03  0.1600E+03
    -18.691  0.0000E+00  0.0000E+00  0.1600E+03  0.1600E+03
    -18.452  0.0000E+00  0.0000E+00  0.1600E+03  0.1600E+03
    -18.214  0.0000E+00  0.0000E+00  0.1600E+03  0.1600E+03
    -17.975  0.0000E+00  0.0000E+00  0.1600E+03  0.1600E+03
    -17.736  0.0000E+00  0.0000E+00  0.1600E+03  0.1600E+03
    -17.497  0.0000E+00  0.0000E+00  0.1600E+03  0.1600E+03
    -17.259  0.0000E+00  0.0000E+00  0.1600E+03  0.1600E+03
    -17.020  0.0000E+00  0.0000E+00  0.1600E+03  0.1600E+03
    -16.781  0.0000E+00  0.0000E+00  0.1600E+03  0.1600E+03
    -16.542  0.0000E+00  0.0000E+00  0.1600E+03  0.1600E+03
    -16.304  0.0000E+00  0.0000E+00  0.1600E+03  0.1600E+03
    -16.065  0.0000E+00  0.0000E+00  0.1600E+03  0.1600E+03
    -15.826  0.0000E+00  0.0000E+00  0.1600E+03  0.1600E+03
    -15.587  0.0000E+00  0.0000E+00  0.1600E+03  0.1600E+03
    -15.349  0.0000E+00  0.0000E+00  0.1600E+03  0.1600E+03
    -15.110  0.0000E+00  0.0000E+00  0.1600E+03  0.1600E+03
    -14.871  0.0000E+00  0.0000E+00  0.1600E+03  0.1600E+03
    -14.632  0.0000E+00  0.0000E+00  0.1600E+03  0.1600E+03
    -14.393  0.0000E+00  0.0000E+00  0.1600E+03  0.1600E+03
    -14.155  0.0000E+00  0.0000E+00  0.1600E+03  0.1600E+03
    -13.916  0.0000E+00  0.0000E+00  0.1600E+03  0.1600E+03
    -13.677  0.1749E-04  0.0000E+00  0.1600E+03  0.1600E+03
    -13.438  0.3985E+02  0.1955E-10  0.1695E+03  0.1600E+03
    -13.200  0.7578E+02  0.9493E+01  0.1876E+03  0.1623E+03
    -12.961  0.1839E+02  0.1105E+03  0.1920E+03  0.1887E+03
    -12.722  0.0000E+00  0.1399E+02  0.1920E+03  0.1920E+03
    -12.483  0.0000E+00  0.0000E+00  0.1920E+03  0.1920E+03
    -12.245  0.0000E+00  0.0000E+00  0.1920E+03  0.1920E+03
    -12.006  0.0000E+00  0.0000E+00  0.1920E+03  0.1920E+03
    -11.767  0.0000E+00  0.0000E+00  0.1920E+03  0.1920E+03
    -11.528  0.0000E+00  0.0000E+00  0.1920E+03  0.1920E+03
    -11.290  0.0000E+00  0.0000E+00  0.1920E+03  0.1920E+03
    -11.051  0.0000E+00  0.0000E+00  0.1920E+03  0.1920E+03
    -10.812  0.0000E+00  0.0000E+00  0.1920E+03  0.1920E+03
    -10.573  0.0000E+00  0.0000E+00  0.1920E+03  0.1920E+03
    -10.334  0.0000E+00  0.0000E+00  0.1920E+03  0.1920E+03
    -10.096  0.0000E+00  0.0000E+00  0.1920E+03  0.1920E+03
     -9.857  0.0000E+00  0.0000E+00  0.1920E+03  0.1920E+03
     -9.618  0.0000E+00  0.0000E+00  0.1920E+03  0.1920E+03
     -9.379  0.0000E+00  0.0000E+00  0.1920E+03  0.1920E+03
     -9.141  0.0000E+00  0.0000E+00  0.1920E+03  0.1920E+03
     -8.902  0.0000E+00  0.0000E+00  0.1920E+03  0.1920E+03
     -8.663  0.0000E+00  0.0000E+00  0.1920E+03  0.1920E+03
     -8.424  0.0000E+00  0.0000E+00  0.1920E+03  0.1920E+03
     -8.186  0.0000E+00  0.0000E+00  0.1920E+03  0.1920E+03
     -7.947  0.0000E+00  0.0000E+00  0.1920E+03  0.1920E+03
     -7.708  0.1727E-01  0.4960E-14  0.1920E+03  0.1920E+03
     -7.469  0.2703E+02  0.3156E+00  0.1985E+03  0.1921E+03
     -7.231  0.6309E+02  0.4568E+02  0.2135E+03  0.2030E+03
     -6.992  0.4285E+02  0.6294E+02  0.2238E+03  0.2180E+03
     -6.753  0.1030E+01  0.2460E+02  0.2240E+03  0.2239E+03
     -6.514  0.0000E+00  0.4893E+00  0.2240E+03  0.2240E+03
     -6.275  0.0000E+00  0.0000E+00  0.2240E+03  0.2240E+03
     -6.037  0.0000E+00  0.0000E+00  0.2240E+03  0.2240E+03
     -5.798  0.0000E+00  0.0000E+00  0.2240E+03  0.2240E+03
     -5.559  0.0000E+00  0.0000E+00  0.2240E+03  0.2240E+03
     -5.320  0.0000E+00  0.0000E+00  0.2240E+03  0.2240E+03
     -5.082  0.0000E+00  0.0000E+00  0.2240E+03  0.2240E+03
     -4.843  0.0000E+00  0.0000E+00  0.2240E+03  0.2240E+03
     -4.604  0.0000E+00  0.0000E+00  0.2240E+03  0.2240E+03
     -4.365  0.0000E+00  0.0000E+00  0.2240E+03  0.2240E+03
     -4.127  0.0000E+00  0.0000E+00  0.2240E+03  0.2240E+03
     -3.888  0.0000E+00  0.0000E+00  0.2240E+03  0.2240E+03
     -3.649  0.0000E+00  0.0000E+00  0.2240E+03  0.2240E+03
     -3.410  0.0000E+00  0.0000E+00  0.2240E+03  0.2240E+03
     -3.172  0.0000E+00  0.0000E+00  0.2240E+03  0.2240E+03
     -2.933  0.0000E+00  0.0000E+00  0.2240E+03  0.2240E+03
     -2.694  0.3039E-03  0.0000E+00  0.2240E+03  0.2240E+03
     -2.455  0.1908E+02  0.0000E+00  0.2286E+03  0.2240E+03
     -2.216  0.1463E+02  0.0000E+00  0.2320E+03  0.2240E+03
     -1.978  0.2213E+02  0.0000E+00  0.2373E+03  0.2240E+03
     -1.739  0.4718E+00  0.0000E+00  0.2374E+03  0.2240E+03
     -1.500  0.2187E+02  0.0000E+00  0.2427E+03  0.2240E+03
     -1.261  0.3642E+02  0.7216E-13  0.2514E+03  0.2240E+03
     -1.023  0.7565E+02  0.2213E+00  0.2694E+03  0.2241E+03
     -0.784  0.7234E+02  0.2457E+02  0.2867E+03  0.2299E+03
     -0.545  0.7089E+02  0.2591E+02  0.3036E+03  0.2361E+03
     -0.306  0.9776E+02  0.1612E+02  0.3270E+03  0.2400E+03
     -0.068  0.1005E+03  0.1339E+02  0.3510E+03  0.2432E+03
      0.171  0.5336E+02  0.2805E+02  0.3637E+03  0.2499E+03
      0.410  0.4771E+02  0.5685E+02  0.3751E+03  0.2634E+03
      0.649  0.5209E+02  0.7609E+02  0.3875E+03  0.2816E+03
      0.887  0.4292E+02  0.7204E+02  0.3978E+03  0.2988E+03
      1.126  0.6594E+02  0.7635E+02  0.4135E+03  0.3170E+03
      1.365  0.8534E+02  0.2555E+02  0.4339E+03  0.3231E+03
      1.604  0.7636E+02  0.4020E+02  0.4521E+03  0.3327E+03
      1.842  0.3883E+02  0.5044E+02  0.4614E+03  0.3448E+03
      2.081  0.4108E+02  0.4066E+02  0.4712E+03  0.3545E+03
      2.320  0.4854E+02  0.3008E+02  0.4828E+03  0.3617E+03
      2.559  0.4561E+02  0.5165E+02  0.4937E+03  0.3740E+03
      2.798  0.5521E+02  0.6976E+02  0.5069E+03  0.3906E+03
      3.036  0.5586E+02  0.8019E+02  0.5202E+03  0.4098E+03
      3.275  0.5416E+02  0.2572E+02  0.5331E+03  0.4159E+03
      3.514  0.4444E+02  0.2414E+02  0.5438E+03  0.4217E+03
      3.753  0.5749E+02  0.5001E+02  0.5575E+03  0.4336E+03
      3.991  0.3583E+02  0.5300E+02  0.5660E+03  0.4463E+03
      4.230  0.2492E+02  0.7163E+01  0.5720E+03  0.4480E+03
      4.469  0.1520E+02  0.5922E-04  0.5756E+03  0.4480E+03
      4.708  0.1632E+01  0.0000E+00  0.5760E+03  0.4480E+03
      4.946  0.8191E-05  0.0000E+00  0.5760E+03  0.4480E+03
      5.185  0.0000E+00  0.0000E+00  0.5760E+03  0.4480E+03
      5.424  0.0000E+00  0.0000E+00  0.5760E+03  0.4480E+03
      5.663  0.0000E+00  0.0000E+00  0.5760E+03  0.4480E+03
      5.901  0.0000E+00  0.0000E+00  0.5760E+03  0.4480E+03
      6.140  0.0000E+00  0.0000E+00  0.5760E+03  0.4480E+03
      6.379  0.0000E+00  0.4395E-09  0.5760E+03  0.4480E+03
      6.618  0.0000E+00  0.3026E+01  0.5760E+03  0.4487E+03
      6.857  0.7764E-13  0.5894E+02  0.5760E+03  0.4628E+03
      7.095  0.7739E-01  0.7667E+02  0.5760E+03  0.4811E+03
      7.334  0.1555E+00  0.5638E+02  0.5761E+03  0.4946E+03
      7.573  0.1044E+01  0.7012E+02  0.5763E+03  0.5113E+03
      7.812  0.1601E+01  0.6784E+02  0.5767E+03  0.5275E+03
      8.050  0.3613E+01  0.9507E+02  0.5775E+03  0.5502E+03
      8.289  0.9387E+01  0.6711E+02  0.5798E+03  0.5662E+03
      8.528  0.1136E+02  0.3346E+02  0.5825E+03  0.5742E+03
      8.767  0.2287E+02  0.1008E+02  0.5880E+03  0.5766E+03
      9.005  0.2772E+02  0.8434E+01  0.5946E+03  0.5786E+03
      9.244  0.2807E+02  0.1193E+02  0.6013E+03  0.5815E+03
      9.483  0.3311E+02  0.2247E+02  0.6092E+03  0.5868E+03
      9.722  0.2860E+02  0.2608E+02  0.6160E+03  0.5931E+03
      9.960  0.2022E+02  0.4195E+02  0.6208E+03  0.6031E+03
     10.199  0.2205E+02  0.3198E+02  0.6261E+03  0.6107E+03
     10.438  0.2665E+02  0.3479E+02  0.6325E+03  0.6190E+03
     10.677  0.4270E+02  0.3107E+02  0.6427E+03  0.6264E+03
     10.916  0.3849E+02  0.2508E+02  0.6519E+03  0.6324E+03
     11.154  0.4547E+02  0.3360E+02  0.6627E+03  0.6405E+03
     11.393  0.3979E+02  0.2177E+02  0.6722E+03  0.6457E+03
     11.632  0.3932E+02  0.3865E+02  0.6816E+03  0.6549E+03
     11.871  0.4591E+02  0.5268E+02  0.6926E+03  0.6675E+03
     12.109  0.2986E+02  0.5945E+02  0.6997E+03  0.6817E+03
     12.348  0.2914E+02  0.4240E+02  0.7067E+03  0.6918E+03
     12.587  0.3361E+02  0.3077E+02  0.7147E+03  0.6991E+03
     12.826  0.4122E+02  0.3325E+02  0.7245E+03  0.7071E+03
     13.064  0.1871E+02  0.3612E+02  0.7290E+03  0.7157E+03
     13.303  0.1245E+02  0.3437E+02  0.7320E+03  0.7239E+03
     13.542  0.1500E+00  0.2941E+02  0.7320E+03  0.7309E+03
     13.781  0.0000E+00  0.4531E+01  0.7320E+03  0.7320E+03
     14.019  0.0000E+00  0.4018E-05  0.7320E+03  0.7320E+03
     14.258  0.0000E+00  0.0000E+00  0.7320E+03  0.7320E+03
     14.497  0.0000E+00  0.0000E+00  0.7320E+03  0.7320E+03
     14.736  0.0000E+00  0.0000E+00  0.7320E+03  0.7320E+03
     14.975  0.0000E+00  0.0000E+00  0.7320E+03  0.7320E+03
     15.213  0.0000E+00  0.0000E+00  0.7320E+03  0.7320E+03
     15.452  0.0000E+00  0.0000E+00  0.7320E+03  0.7320E+03
     15.691  0.0000E+00  0.0000E+00  0.7320E+03  0.7320E+03
     15.930  0.0000E+00  0.0000E+00  0.7320E+03  0.7320E+03
     16.168  0.0000E+00  0.0000E+00  0.7320E+03  0.7320E+03
     16.407  0.0000E+00  0.0000E+00  0.7320E+03  0.7320E+03
     16.646  0.0000E+00  0.0000E+00  0.7320E+03  0.7320E+03
     16.885  0.0000E+00  0.0000E+00  0.7320E+03  0.7320E+03
