 108 108   0   0
  0.1367340E+02  0.1151037E-08  0.1132740E-08  0.1132740E-08  0.5000000E-15
  1.000000000000000E-004
  CAR 
 unknown system                          
     17.82241244    -54.65935098  301      5.28910752      1.00000000
    -54.659  0.0000E+00  0.0000E+00  0.0000E+00  0.0000E+00
    -54.418  0.0000E+00  0.0000E+00  0.0000E+00  0.0000E+00
    -54.176  0.0000E+00  0.0000E+00  0.0000E+00  0.0000E+00
    -53.935  0.0000E+00  0.0000E+00  0.0000E+00  0.0000E+00
    -53.693  0.0000E+00  0.0000E+00  0.0000E+00  0.0000E+00
    -53.451  0.0000E+00  0.0000E+00  0.0000E+00  0.0000E+00
    -53.210  0.0000E+00  0.0000E+00  0.0000E+00  0.0000E+00
    -52.968  0.0000E+00  0.0000E+00  0.0000E+00  0.0000E+00
    -52.727  0.0000E+00  0.0000E+00  0.0000E+00  0.0000E+00
    -52.485  0.0000E+00  0.0000E+00  0.0000E+00  0.0000E+00
    -52.243  0.0000E+00  0.0000E+00  0.0000E+00  0.0000E+00
    -52.002  0.0000E+00  0.0000E+00  0.0000E+00  0.0000E+00
    -51.760  0.0000E+00  0.0000E+00  0.0000E+00  0.0000E+00
    -51.518  0.3093E-03  0.0000E+00  0.7472E-04  0.0000E+00
    -51.277  0.9827E+02  0.0000E+00  0.2374E+02  0.0000E+00
    -51.035  0.4276E+02  0.0000E+00  0.3407E+02  0.0000E+00
    -50.794  0.7972E+01  0.0000E+00  0.3600E+02  0.0000E+00
    -50.552  0.0000E+00  0.0000E+00  0.3600E+02  0.0000E+00
    -50.310  0.1444E-03  0.0000E+00  0.3600E+02  0.0000E+00
    -50.069  0.9774E+02  0.0000E+00  0.5962E+02  0.0000E+00
    -49.827  0.4892E+02  0.0000E+00  0.7143E+02  0.0000E+00
    -49.586  0.1246E+03  0.0000E+00  0.1016E+03  0.0000E+00
    -49.344  0.2670E+02  0.0000E+00  0.1080E+03  0.0000E+00
    -49.102  0.0000E+00  0.0000E+00  0.1080E+03  0.0000E+00
    -48.861  0.0000E+00  0.0000E+00  0.1080E+03  0.0000E+00
    -48.619  0.0000E+00  0.0000E+00  0.1080E+03  0.0000E+00
    -48.378  0.0000E+00  0.0000E+00  0.1080E+03  0.0000E+00
    -48.136  0.0000E+00  0.0000E+00  0.1080E+03  0.0000E+00
    -47.894  0.0000E+00  0.0000E+00  0.1080E+03  0.0000E+00
    -47.653  0.0000E+00  0.0000E+00  0.1080E+03  0.0000E+00
    -47.411  0.0000E+00  0.0000E+00  0.1080E+03  0.0000E+00
    -47.170  0.0000E+00  0.0000E+00  0.1080E+03  0.0000E+00
    -46.928  0.0000E+00  0.0000E+00  0.1080E+03  0.0000E+00
    -46.686  0.0000E+00  0.1228E+01  0.1080E+03  0.2968E+00
    -46.445  0.0000E+00  0.9813E+02  0.1080E+03  0.2400E+02
    -46.203  0.0000E+00  0.1740E+03  0.1080E+03  0.6605E+02
    -45.962  0.0000E+00  0.8426E+02  0.1080E+03  0.8640E+02
    -45.720  0.0000E+00  0.8938E+02  0.1080E+03  0.1080E+03
    -45.478  0.0000E+00  0.4867E-03  0.1080E+03  0.1080E+03
    -45.237  0.0000E+00  0.0000E+00  0.1080E+03  0.1080E+03
    -44.995  0.0000E+00  0.0000E+00  0.1080E+03  0.1080E+03
    -44.754  0.0000E+00  0.0000E+00  0.1080E+03  0.1080E+03
    -44.512  0.0000E+00  0.0000E+00  0.1080E+03  0.1080E+03
    -44.270  0.0000E+00  0.0000E+00  0.1080E+03  0.1080E+03
    -44.029  0.0000E+00  0.0000E+00  0.1080E+03  0.1080E+03
    -43.787  0.0000E+00  0.0000E+00  0.1080E+03  0.1080E+03
    -43.545  0.0000E+00  0.0000E+00  0.1080E+03  0.1080E+03
    -43.304  0.0000E+00  0.0000E+00  0.1080E+03  0.1080E+03
    -43.062  0.0000E+00  0.0000E+00  0.1080E+03  0.1080E+03
    -42.821  0.0000E+00  0.0000E+00  0.1080E+03  0.1080E+03
    -42.579  0.0000E+00  0.0000E+00  0.1080E+03  0.1080E+03
    -42.337  0.0000E+00  0.0000E+00  0.1080E+03  0.1080E+03
    -42.096  0.0000E+00  0.0000E+00  0.1080E+03  0.1080E+03
    -41.854  0.0000E+00  0.0000E+00  0.1080E+03  0.1080E+03
    -41.613  0.0000E+00  0.0000E+00  0.1080E+03  0.1080E+03
    -41.371  0.0000E+00  0.0000E+00  0.1080E+03  0.1080E+03
    -41.129  0.0000E+00  0.0000E+00  0.1080E+03  0.1080E+03
    -40.888  0.0000E+00  0.0000E+00  0.1080E+03  0.1080E+03
    -40.646  0.0000E+00  0.0000E+00  0.1080E+03  0.1080E+03
    -40.405  0.2951E-12  0.5758E-12  0.1080E+03  0.1080E+03
    -40.163  0.1574E+02  0.1786E+02  0.1118E+03  0.1123E+03
    -39.921  0.8360E+02  0.8148E+02  0.1320E+03  0.1320E+03
    -39.680  0.0000E+00  0.0000E+00  0.1320E+03  0.1320E+03
    -39.438  0.0000E+00  0.0000E+00  0.1320E+03  0.1320E+03
    -39.197  0.0000E+00  0.0000E+00  0.1320E+03  0.1320E+03
    -38.955  0.0000E+00  0.0000E+00  0.1320E+03  0.1320E+03
    -38.713  0.0000E+00  0.0000E+00  0.1320E+03  0.1320E+03
    -38.472  0.0000E+00  0.0000E+00  0.1320E+03  0.1320E+03
    -38.230  0.0000E+00  0.0000E+00  0.1320E+03  0.1320E+03
    -37.989  0.0000E+00  0.0000E+00  0.1320E+03  0.1320E+03
    -37.747  0.0000E+00  0.0000E+00  0.1320E+03  0.1320E+03
    -37.505  0.0000E+00  0.0000E+00  0.1320E+03  0.1320E+03
    -37.264  0.0000E+00  0.0000E+00  0.1320E+03  0.1320E+03
    -37.022  0.0000E+00  0.0000E+00  0.1320E+03  0.1320E+03
    -36.781  0.0000E+00  0.0000E+00  0.1320E+03  0.1320E+03
    -36.539  0.0000E+00  0.0000E+00  0.1320E+03  0.1320E+03
    -36.297  0.0000E+00  0.0000E+00  0.1320E+03  0.1320E+03
    -36.056  0.0000E+00  0.0000E+00  0.1320E+03  0.1320E+03
    -35.814  0.0000E+00  0.0000E+00  0.1320E+03  0.1320E+03
    -35.572  0.0000E+00  0.0000E+00  0.1320E+03  0.1320E+03
    -35.331  0.0000E+00  0.0000E+00  0.1320E+03  0.1320E+03
    -35.089  0.0000E+00  0.0000E+00  0.1320E+03  0.1320E+03
    -34.848  0.0000E+00  0.0000E+00  0.1320E+03  0.1320E+03
    -34.606  0.0000E+00  0.0000E+00  0.1320E+03  0.1320E+03
    -34.364  0.0000E+00  0.0000E+00  0.1320E+03  0.1320E+03
    -34.123  0.0000E+00  0.0000E+00  0.1320E+03  0.1320E+03
    -33.881  0.0000E+00  0.0000E+00  0.1320E+03  0.1320E+03
    -33.640  0.0000E+00  0.0000E+00  0.1320E+03  0.1320E+03
    -33.398  0.0000E+00  0.0000E+00  0.1320E+03  0.1320E+03
    -33.156  0.0000E+00  0.0000E+00  0.1320E+03  0.1320E+03
    -32.915  0.0000E+00  0.0000E+00  0.1320E+03  0.1320E+03
    -32.673  0.0000E+00  0.0000E+00  0.1320E+03  0.1320E+03
    -32.432  0.0000E+00  0.0000E+00  0.1320E+03  0.1320E+03
    -32.190  0.0000E+00  0.0000E+00  0.1320E+03  0.1320E+03
    -31.948  0.0000E+00  0.0000E+00  0.1320E+03  0.1320E+03
    -31.707  0.0000E+00  0.0000E+00  0.1320E+03  0.1320E+03
    -31.465  0.0000E+00  0.0000E+00  0.1320E+03  0.1320E+03
    -31.224  0.0000E+00  0.0000E+00  0.1320E+03  0.1320E+03
    -30.982  0.0000E+00  0.0000E+00  0.1320E+03  0.1320E+03
    -30.740  0.0000E+00  0.0000E+00  0.1320E+03  0.1320E+03
    -30.499  0.0000E+00  0.0000E+00  0.1320E+03  0.1320E+03
    -30.257  0.0000E+00  0.0000E+00  0.1320E+03  0.1320E+03
    -30.016  0.0000E+00  0.0000E+00  0.1320E+03  0.1320E+03
    -29.774  0.0000E+00  0.0000E+00  0.1320E+03  0.1320E+03
    -29.532  0.0000E+00  0.0000E+00  0.1320E+03  0.1320E+03
    -29.291  0.0000E+00  0.0000E+00  0.1320E+03  0.1320E+03
    -29.049  0.0000E+00  0.0000E+00  0.1320E+03  0.1320E+03
    -28.808  0.0000E+00  0.0000E+00  0.1320E+03  0.1320E+03
    -28.566  0.0000E+00  0.0000E+00  0.1320E+03  0.1320E+03
    -28.324  0.0000E+00  0.0000E+00  0.1320E+03  0.1320E+03
    -28.083  0.0000E+00  0.0000E+00  0.1320E+03  0.1320E+03
    -27.841  0.0000E+00  0.0000E+00  0.1320E+03  0.1320E+03
    -27.599  0.0000E+00  0.0000E+00  0.1320E+03  0.1320E+03
    -27.358  0.0000E+00  0.0000E+00  0.1320E+03  0.1320E+03
    -27.116  0.0000E+00  0.0000E+00  0.1320E+03  0.1320E+03
    -26.875  0.0000E+00  0.0000E+00  0.1320E+03  0.1320E+03
    -26.633  0.0000E+00  0.0000E+00  0.1320E+03  0.1320E+03
    -26.391  0.0000E+00  0.0000E+00  0.1320E+03  0.1320E+03
    -26.150  0.0000E+00  0.0000E+00  0.1320E+03  0.1320E+03
    -25.908  0.0000E+00  0.0000E+00  0.1320E+03  0.1320E+03
    -25.667  0.0000E+00  0.0000E+00  0.1320E+03  0.1320E+03
    -25.425  0.0000E+00  0.0000E+00  0.1320E+03  0.1320E+03
    -25.183  0.0000E+00  0.0000E+00  0.1320E+03  0.1320E+03
    -24.942  0.0000E+00  0.0000E+00  0.1320E+03  0.1320E+03
    -24.700  0.0000E+00  0.0000E+00  0.1320E+03  0.1320E+03
    -24.459  0.0000E+00  0.0000E+00  0.1320E+03  0.1320E+03
    -24.217  0.0000E+00  0.0000E+00  0.1320E+03  0.1320E+03
    -23.975  0.0000E+00  0.0000E+00  0.1320E+03  0.1320E+03
    -23.734  0.0000E+00  0.0000E+00  0.1320E+03  0.1320E+03
    -23.492  0.0000E+00  0.0000E+00  0.1320E+03  0.1320E+03
    -23.251  0.0000E+00  0.0000E+00  0.1320E+03  0.1320E+03
    -23.009  0.0000E+00  0.0000E+00  0.1320E+03  0.1320E+03
    -22.767  0.0000E+00  0.0000E+00  0.1320E+03  0.1320E+03
    -22.526  0.0000E+00  0.0000E+00  0.1320E+03  0.1320E+03
    -22.284  0.0000E+00  0.0000E+00  0.1320E+03  0.1320E+03
    -22.043  0.0000E+00  0.0000E+00  0.1320E+03  0.1320E+03
    -21.801  0.0000E+00  0.0000E+00  0.1320E+03  0.1320E+03
    -21.559  0.0000E+00  0.0000E+00  0.1320E+03  0.1320E+03
    -21.318  0.0000E+00  0.0000E+00  0.1320E+03  0.1320E+03
    -21.076  0.0000E+00  0.0000E+00  0.1320E+03  0.1320E+03
    -20.835  0.0000E+00  0.0000E+00  0.1320E+03  0.1320E+03
    -20.593  0.0000E+00  0.0000E+00  0.1320E+03  0.1320E+03
    -20.351  0.0000E+00  0.0000E+00  0.1320E+03  0.1320E+03
    -20.110  0.0000E+00  0.0000E+00  0.1320E+03  0.1320E+03
    -19.868  0.0000E+00  0.0000E+00  0.1320E+03  0.1320E+03
    -19.626  0.0000E+00  0.0000E+00  0.1320E+03  0.1320E+03
    -19.385  0.0000E+00  0.0000E+00  0.1320E+03  0.1320E+03
    -19.143  0.0000E+00  0.0000E+00  0.1320E+03  0.1320E+03
    -18.902  0.0000E+00  0.0000E+00  0.1320E+03  0.1320E+03
    -18.660  0.0000E+00  0.0000E+00  0.1320E+03  0.1320E+03
    -18.418  0.0000E+00  0.0000E+00  0.1320E+03  0.1320E+03
    -18.177  0.0000E+00  0.0000E+00  0.1320E+03  0.1320E+03
    -17.935  0.0000E+00  0.0000E+00  0.1320E+03  0.1320E+03
    -17.694  0.0000E+00  0.0000E+00  0.1320E+03  0.1320E+03
    -17.452  0.0000E+00  0.0000E+00  0.1320E+03  0.1320E+03
    -17.210  0.0000E+00  0.0000E+00  0.1320E+03  0.1320E+03
    -16.969  0.0000E+00  0.0000E+00  0.1320E+03  0.1320E+03
    -16.727  0.0000E+00  0.0000E+00  0.1320E+03  0.1320E+03
    -16.486  0.0000E+00  0.0000E+00  0.1320E+03  0.1320E+03
    -16.244  0.0000E+00  0.0000E+00  0.1320E+03  0.1320E+03
    -16.002  0.0000E+00  0.0000E+00  0.1320E+03  0.1320E+03
    -15.761  0.0000E+00  0.0000E+00  0.1320E+03  0.1320E+03
    -15.519  0.0000E+00  0.0000E+00  0.1320E+03  0.1320E+03
    -15.278  0.0000E+00  0.0000E+00  0.1320E+03  0.1320E+03
    -15.036  0.0000E+00  0.0000E+00  0.1320E+03  0.1320E+03
    -14.794  0.0000E+00  0.0000E+00  0.1320E+03  0.1320E+03
    -14.553  0.0000E+00  0.0000E+00  0.1320E+03  0.1320E+03
    -14.311  0.0000E+00  0.0000E+00  0.1320E+03  0.1320E+03
    -14.070  0.0000E+00  0.0000E+00  0.1320E+03  0.1320E+03
    -13.828  0.1054E-11  0.0000E+00  0.1320E+03  0.1320E+03
    -13.586  0.2181E+01  0.0000E+00  0.1325E+03  0.1320E+03
    -13.345  0.5730E+02  0.1333E-05  0.1464E+03  0.1320E+03
    -13.103  0.3969E+02  0.1858E+02  0.1560E+03  0.1365E+03
    -12.862  0.1641E+00  0.7633E+02  0.1560E+03  0.1549E+03
    -12.620  0.0000E+00  0.4421E+01  0.1560E+03  0.1560E+03
    -12.378  0.0000E+00  0.0000E+00  0.1560E+03  0.1560E+03
    -12.137  0.0000E+00  0.0000E+00  0.1560E+03  0.1560E+03
    -11.895  0.0000E+00  0.0000E+00  0.1560E+03  0.1560E+03
    -11.654  0.0000E+00  0.0000E+00  0.1560E+03  0.1560E+03
    -11.412  0.0000E+00  0.0000E+00  0.1560E+03  0.1560E+03
    -11.170  0.0000E+00  0.0000E+00  0.1560E+03  0.1560E+03
    -10.929  0.0000E+00  0.0000E+00  0.1560E+03  0.1560E+03
    -10.687  0.0000E+00  0.0000E+00  0.1560E+03  0.1560E+03
    -10.445  0.0000E+00  0.0000E+00  0.1560E+03  0.1560E+03
    -10.204  0.0000E+00  0.0000E+00  0.1560E+03  0.1560E+03
     -9.962  0.0000E+00  0.0000E+00  0.1560E+03  0.1560E+03
     -9.721  0.0000E+00  0.0000E+00  0.1560E+03  0.1560E+03
     -9.479  0.0000E+00  0.0000E+00  0.1560E+03  0.1560E+03
     -9.237  0.0000E+00  0.0000E+00  0.1560E+03  0.1560E+03
     -8.996  0.0000E+00  0.0000E+00  0.1560E+03  0.1560E+03
     -8.754  0.0000E+00  0.0000E+00  0.1560E+03  0.1560E+03
     -8.513  0.0000E+00  0.0000E+00  0.1560E+03  0.1560E+03
     -8.271  0.0000E+00  0.0000E+00  0.1560E+03  0.1560E+03
     -8.029  0.0000E+00  0.0000E+00  0.1560E+03  0.1560E+03
     -7.788  0.2097E-13  0.0000E+00  0.1560E+03  0.1560E+03
     -7.546  0.2010E+00  0.2553E-16  0.1560E+03  0.1560E+03
     -7.305  0.2210E+02  0.5858E-01  0.1614E+03  0.1560E+03
     -7.063  0.4703E+02  0.2419E+02  0.1728E+03  0.1619E+03
     -6.821  0.2973E+02  0.4649E+02  0.1799E+03  0.1731E+03
     -6.580  0.2726E+00  0.2702E+02  0.1800E+03  0.1796E+03
     -6.338  0.0000E+00  0.1572E+01  0.1800E+03  0.1800E+03
     -6.097  0.0000E+00  0.0000E+00  0.1800E+03  0.1800E+03
     -5.855  0.0000E+00  0.0000E+00  0.1800E+03  0.1800E+03
     -5.613  0.0000E+00  0.0000E+00  0.1800E+03  0.1800E+03
     -5.372  0.0000E+00  0.0000E+00  0.1800E+03  0.1800E+03
     -5.130  0.0000E+00  0.0000E+00  0.1800E+03  0.1800E+03
     -4.889  0.0000E+00  0.0000E+00  0.1800E+03  0.1800E+03
     -4.647  0.0000E+00  0.0000E+00  0.1800E+03  0.1800E+03
     -4.405  0.0000E+00  0.0000E+00  0.1800E+03  0.1800E+03
     -4.164  0.0000E+00  0.0000E+00  0.1800E+03  0.1800E+03
     -3.922  0.0000E+00  0.0000E+00  0.1800E+03  0.1800E+03
     -3.681  0.0000E+00  0.0000E+00  0.1800E+03  0.1800E+03
     -3.439  0.0000E+00  0.0000E+00  0.1800E+03  0.1800E+03
     -3.197  0.0000E+00  0.0000E+00  0.1800E+03  0.1800E+03
     -2.956  0.0000E+00  0.0000E+00  0.1800E+03  0.1800E+03
     -2.714  0.0000E+00  0.0000E+00  0.1800E+03  0.1800E+03
     -2.472  0.0000E+00  0.0000E+00  0.1800E+03  0.1800E+03
     -2.231  0.1227E-01  0.0000E+00  0.1800E+03  0.1800E+03
     -1.989  0.2676E+02  0.0000E+00  0.1865E+03  0.1800E+03
     -1.748  0.5037E+02  0.0000E+00  0.1986E+03  0.1800E+03
     -1.506  0.1598E+02  0.0000E+00  0.2025E+03  0.1800E+03
     -1.264  0.1886E+02  0.0000E+00  0.2071E+03  0.1800E+03
     -1.023  0.5858E+02  0.1287E-03  0.2212E+03  0.1800E+03
     -0.781  0.7369E+02  0.1865E+01  0.2390E+03  0.1805E+03
     -0.540  0.6459E+02  0.9923E+01  0.2546E+03  0.1828E+03
     -0.298  0.6345E+02  0.2030E+02  0.2699E+03  0.1878E+03
     -0.056  0.6197E+02  0.3412E+02  0.2849E+03  0.1960E+03
      0.185  0.5481E+02  0.2516E+02  0.2982E+03  0.2021E+03
      0.427  0.1065E+03  0.3699E+02  0.3239E+03  0.2110E+03
      0.668  0.5273E+02  0.3615E+02  0.3366E+03  0.2197E+03
      0.910  0.4691E+02  0.5703E+02  0.3480E+03  0.2335E+03
      1.152  0.5317E+02  0.5616E+02  0.3608E+03  0.2471E+03
      1.393  0.6411E+02  0.1986E+02  0.3763E+03  0.2519E+03
      1.635  0.5410E+02  0.2504E+02  0.3894E+03  0.2579E+03
      1.876  0.5836E+02  0.4739E+02  0.4035E+03  0.2694E+03
      2.118  0.4855E+02  0.3578E+02  0.4152E+03  0.2780E+03
      2.360  0.2769E+02  0.3010E+02  0.4219E+03  0.2853E+03
      2.601  0.3505E+02  0.3332E+02  0.4304E+03  0.2934E+03
      2.843  0.3394E+02  0.4473E+02  0.4386E+03  0.3042E+03
      3.084  0.3656E+02  0.3818E+02  0.4474E+03  0.3134E+03
      3.326  0.3371E+02  0.5931E+02  0.4555E+03  0.3277E+03
      3.568  0.2564E+02  0.2845E+02  0.4617E+03  0.3346E+03
      3.809  0.4113E+02  0.9257E+01  0.4717E+03  0.3368E+03
      4.051  0.4604E+02  0.1071E+02  0.4828E+03  0.3394E+03
      4.292  0.3580E+02  0.4090E+02  0.4915E+03  0.3493E+03
      4.534  0.3614E+02  0.2250E+02  0.5002E+03  0.3547E+03
      4.776  0.1578E+02  0.2014E+02  0.5040E+03  0.3596E+03
      5.017  0.1460E-01  0.1646E+01  0.5040E+03  0.3600E+03
      5.259  0.0000E+00  0.2391E-04  0.5040E+03  0.3600E+03
      5.501  0.0000E+00  0.0000E+00  0.5040E+03  0.3600E+03
      5.742  0.0000E+00  0.0000E+00  0.5040E+03  0.3600E+03
      5.984  0.0000E+00  0.1623E-07  0.5040E+03  0.3600E+03
      6.225  0.0000E+00  0.3104E+00  0.5040E+03  0.3601E+03
      6.467  0.0000E+00  0.3634E+01  0.5040E+03  0.3610E+03
      6.709  0.4091E-02  0.9658E+01  0.5040E+03  0.3633E+03
      6.950  0.1492E+00  0.3243E+02  0.5040E+03  0.3711E+03
      7.192  0.3097E+00  0.7752E+02  0.5041E+03  0.3899E+03
      7.433  0.7655E+00  0.6523E+02  0.5043E+03  0.4056E+03
      7.675  0.2514E+01  0.5170E+02  0.5049E+03  0.4181E+03
      7.917  0.2185E+01  0.8521E+02  0.5054E+03  0.4387E+03
      8.158  0.2114E+01  0.7863E+02  0.5059E+03  0.4577E+03
      8.400  0.5339E+01  0.5284E+02  0.5072E+03  0.4705E+03
      8.641  0.7869E+01  0.7271E+02  0.5091E+03  0.4880E+03
      8.883  0.1641E+02  0.4535E+02  0.5131E+03  0.4990E+03
      9.125  0.1352E+02  0.2237E+02  0.5164E+03  0.5044E+03
      9.366  0.1851E+02  0.4884E+01  0.5208E+03  0.5056E+03
      9.608  0.1991E+02  0.6546E+01  0.5256E+03  0.5071E+03
      9.849  0.1783E+02  0.1158E+02  0.5300E+03  0.5099E+03
     10.091  0.1795E+02  0.1436E+02  0.5343E+03  0.5134E+03
     10.333  0.1980E+02  0.1808E+02  0.5391E+03  0.5178E+03
     10.574  0.2428E+02  0.3197E+02  0.5449E+03  0.5255E+03
     10.816  0.2126E+02  0.2818E+02  0.5501E+03  0.5323E+03
     11.057  0.2847E+02  0.2203E+02  0.5570E+03  0.5376E+03
     11.299  0.2887E+02  0.2476E+02  0.5639E+03  0.5436E+03
     11.541  0.2213E+02  0.2210E+02  0.5693E+03  0.5490E+03
     11.782  0.2718E+02  0.2152E+02  0.5758E+03  0.5542E+03
     12.024  0.3939E+02  0.1862E+02  0.5854E+03  0.5587E+03
     12.265  0.3445E+02  0.3045E+02  0.5937E+03  0.5660E+03
     12.507  0.2811E+02  0.4284E+02  0.6005E+03  0.5764E+03
     12.749  0.2525E+02  0.3537E+02  0.6066E+03  0.5849E+03
     12.990  0.2867E+02  0.2844E+02  0.6135E+03  0.5918E+03
     13.232  0.2545E+02  0.2738E+02  0.6197E+03  0.5984E+03
     13.474  0.2161E+02  0.3669E+02  0.6249E+03  0.6073E+03
     13.715  0.1798E+02  0.2949E+02  0.6292E+03  0.6144E+03
     13.957  0.3015E+01  0.2309E+02  0.6300E+03  0.6200E+03
     14.198  0.2007E+00  0.2360E+02  0.6300E+03  0.6257E+03
     14.440  0.0000E+00  0.1652E+02  0.6300E+03  0.6296E+03
     14.682  0.0000E+00  0.1450E+01  0.6300E+03  0.6300E+03
     14.923  0.0000E+00  0.2099E-05  0.6300E+03  0.6300E+03
     15.165  0.0000E+00  0.0000E+00  0.6300E+03  0.6300E+03
     15.406  0.0000E+00  0.0000E+00  0.6300E+03  0.6300E+03
     15.648  0.0000E+00  0.0000E+00  0.6300E+03  0.6300E+03
     15.890  0.0000E+00  0.0000E+00  0.6300E+03  0.6300E+03
     16.131  0.0000E+00  0.0000E+00  0.6300E+03  0.6300E+03
     16.373  0.0000E+00  0.0000E+00  0.6300E+03  0.6300E+03
     16.614  0.0000E+00  0.0000E+00  0.6300E+03  0.6300E+03
     16.856  0.0000E+00  0.0000E+00  0.6300E+03  0.6300E+03
     17.098  0.0000E+00  0.0000E+00  0.6300E+03  0.6300E+03
     17.339  0.0000E+00  0.0000E+00  0.6300E+03  0.6300E+03
     17.581  0.0000E+00  0.0000E+00  0.6300E+03  0.6300E+03
     17.822  0.0000E+00  0.0000E+00  0.6300E+03  0.6300E+03
