  88  88   0   0
  0.1431748E+02  0.1111223E-08  0.1111745E-08  0.1056954E-08  0.5000000E-15
  1.000000000000000E-004
  CAR 
 unknown system                          
     17.90432437    -54.33915152  301      5.20151319      1.00000000
    -54.339  0.0000E+00  0.0000E+00  0.0000E+00  0.0000E+00
    -54.098  0.0000E+00  0.0000E+00  0.0000E+00  0.0000E+00
    -53.858  0.0000E+00  0.0000E+00  0.0000E+00  0.0000E+00
    -53.617  0.0000E+00  0.0000E+00  0.0000E+00  0.0000E+00
    -53.376  0.0000E+00  0.0000E+00  0.0000E+00  0.0000E+00
    -53.135  0.0000E+00  0.0000E+00  0.0000E+00  0.0000E+00
    -52.894  0.0000E+00  0.0000E+00  0.0000E+00  0.0000E+00
    -52.653  0.0000E+00  0.0000E+00  0.0000E+00  0.0000E+00
    -52.413  0.0000E+00  0.0000E+00  0.0000E+00  0.0000E+00
    -52.172  0.0000E+00  0.0000E+00  0.0000E+00  0.0000E+00
    -51.931  0.0000E+00  0.0000E+00  0.0000E+00  0.0000E+00
    -51.690  0.0000E+00  0.0000E+00  0.0000E+00  0.0000E+00
    -51.449  0.0000E+00  0.0000E+00  0.0000E+00  0.0000E+00
    -51.209  0.4522E-03  0.0000E+00  0.1089E-03  0.0000E+00
    -50.968  0.1311E+03  0.0000E+00  0.3158E+02  0.0000E+00
    -50.727  0.1754E+01  0.0000E+00  0.3200E+02  0.0000E+00
    -50.486  0.0000E+00  0.0000E+00  0.3200E+02  0.0000E+00
    -50.245  0.0000E+00  0.0000E+00  0.3200E+02  0.0000E+00
    -50.005  0.0000E+00  0.0000E+00  0.3200E+02  0.0000E+00
    -49.764  0.2114E+01  0.0000E+00  0.3251E+02  0.0000E+00
    -49.523  0.2379E+03  0.0000E+00  0.8979E+02  0.0000E+00
    -49.282  0.2578E+02  0.0000E+00  0.9600E+02  0.0000E+00
    -49.041  0.0000E+00  0.0000E+00  0.9600E+02  0.0000E+00
    -48.800  0.0000E+00  0.0000E+00  0.9600E+02  0.0000E+00
    -48.560  0.0000E+00  0.0000E+00  0.9600E+02  0.0000E+00
    -48.319  0.0000E+00  0.0000E+00  0.9600E+02  0.0000E+00
    -48.078  0.0000E+00  0.0000E+00  0.9600E+02  0.0000E+00
    -47.837  0.0000E+00  0.0000E+00  0.9600E+02  0.0000E+00
    -47.596  0.0000E+00  0.0000E+00  0.9600E+02  0.0000E+00
    -47.356  0.0000E+00  0.0000E+00  0.9600E+02  0.0000E+00
    -47.115  0.0000E+00  0.0000E+00  0.9600E+02  0.0000E+00
    -46.874  0.0000E+00  0.0000E+00  0.9600E+02  0.0000E+00
    -46.633  0.0000E+00  0.0000E+00  0.9600E+02  0.0000E+00
    -46.392  0.0000E+00  0.4065E+00  0.9600E+02  0.9788E-01
    -46.152  0.0000E+00  0.1324E+03  0.9600E+02  0.3199E+02
    -45.911  0.0000E+00  0.6164E+02  0.9600E+02  0.4684E+02
    -45.670  0.0000E+00  0.2042E+03  0.9600E+02  0.9600E+02
    -45.429  0.0000E+00  0.0000E+00  0.9600E+02  0.9600E+02
    -45.188  0.0000E+00  0.0000E+00  0.9600E+02  0.9600E+02
    -44.947  0.0000E+00  0.0000E+00  0.9600E+02  0.9600E+02
    -44.707  0.0000E+00  0.0000E+00  0.9600E+02  0.9600E+02
    -44.466  0.0000E+00  0.0000E+00  0.9600E+02  0.9600E+02
    -44.225  0.0000E+00  0.0000E+00  0.9600E+02  0.9600E+02
    -43.984  0.0000E+00  0.0000E+00  0.9600E+02  0.9600E+02
    -43.743  0.0000E+00  0.0000E+00  0.9600E+02  0.9600E+02
    -43.503  0.0000E+00  0.0000E+00  0.9600E+02  0.9600E+02
    -43.262  0.0000E+00  0.0000E+00  0.9600E+02  0.9600E+02
    -43.021  0.0000E+00  0.0000E+00  0.9600E+02  0.9600E+02
    -42.780  0.0000E+00  0.0000E+00  0.9600E+02  0.9600E+02
    -42.539  0.0000E+00  0.0000E+00  0.9600E+02  0.9600E+02
    -42.299  0.0000E+00  0.0000E+00  0.9600E+02  0.9600E+02
    -42.058  0.0000E+00  0.0000E+00  0.9600E+02  0.9600E+02
    -41.817  0.0000E+00  0.0000E+00  0.9600E+02  0.9600E+02
    -41.576  0.0000E+00  0.0000E+00  0.9600E+02  0.9600E+02
    -41.335  0.0000E+00  0.0000E+00  0.9600E+02  0.9600E+02
    -41.095  0.0000E+00  0.0000E+00  0.9600E+02  0.9600E+02
    -40.854  0.0000E+00  0.0000E+00  0.9600E+02  0.9600E+02
    -40.613  0.0000E+00  0.0000E+00  0.9600E+02  0.9600E+02
    -40.372  0.0000E+00  0.0000E+00  0.9600E+02  0.9600E+02
    -40.131  0.1655E-11  0.1047E-11  0.9600E+02  0.9600E+02
    -39.890  0.1542E+02  0.1425E+02  0.9971E+02  0.9943E+02
    -39.650  0.5102E+02  0.5219E+02  0.1120E+03  0.1120E+03
    -39.409  0.0000E+00  0.0000E+00  0.1120E+03  0.1120E+03
    -39.168  0.0000E+00  0.0000E+00  0.1120E+03  0.1120E+03
    -38.927  0.0000E+00  0.0000E+00  0.1120E+03  0.1120E+03
    -38.686  0.0000E+00  0.0000E+00  0.1120E+03  0.1120E+03
    -38.446  0.0000E+00  0.0000E+00  0.1120E+03  0.1120E+03
    -38.205  0.0000E+00  0.0000E+00  0.1120E+03  0.1120E+03
    -37.964  0.0000E+00  0.0000E+00  0.1120E+03  0.1120E+03
    -37.723  0.0000E+00  0.0000E+00  0.1120E+03  0.1120E+03
    -37.482  0.0000E+00  0.0000E+00  0.1120E+03  0.1120E+03
    -37.242  0.0000E+00  0.0000E+00  0.1120E+03  0.1120E+03
    -37.001  0.0000E+00  0.0000E+00  0.1120E+03  0.1120E+03
    -36.760  0.0000E+00  0.0000E+00  0.1120E+03  0.1120E+03
    -36.519  0.0000E+00  0.0000E+00  0.1120E+03  0.1120E+03
    -36.278  0.0000E+00  0.0000E+00  0.1120E+03  0.1120E+03
    -36.037  0.0000E+00  0.0000E+00  0.1120E+03  0.1120E+03
    -35.797  0.0000E+00  0.0000E+00  0.1120E+03  0.1120E+03
    -35.556  0.0000E+00  0.0000E+00  0.1120E+03  0.1120E+03
    -35.315  0.0000E+00  0.0000E+00  0.1120E+03  0.1120E+03
    -35.074  0.0000E+00  0.0000E+00  0.1120E+03  0.1120E+03
    -34.833  0.0000E+00  0.0000E+00  0.1120E+03  0.1120E+03
    -34.593  0.0000E+00  0.0000E+00  0.1120E+03  0.1120E+03
    -34.352  0.0000E+00  0.0000E+00  0.1120E+03  0.1120E+03
    -34.111  0.0000E+00  0.0000E+00  0.1120E+03  0.1120E+03
    -33.870  0.0000E+00  0.0000E+00  0.1120E+03  0.1120E+03
    -33.629  0.0000E+00  0.0000E+00  0.1120E+03  0.1120E+03
    -33.389  0.0000E+00  0.0000E+00  0.1120E+03  0.1120E+03
    -33.148  0.0000E+00  0.0000E+00  0.1120E+03  0.1120E+03
    -32.907  0.0000E+00  0.0000E+00  0.1120E+03  0.1120E+03
    -32.666  0.0000E+00  0.0000E+00  0.1120E+03  0.1120E+03
    -32.425  0.0000E+00  0.0000E+00  0.1120E+03  0.1120E+03
    -32.184  0.0000E+00  0.0000E+00  0.1120E+03  0.1120E+03
    -31.944  0.0000E+00  0.0000E+00  0.1120E+03  0.1120E+03
    -31.703  0.0000E+00  0.0000E+00  0.1120E+03  0.1120E+03
    -31.462  0.0000E+00  0.0000E+00  0.1120E+03  0.1120E+03
    -31.221  0.0000E+00  0.0000E+00  0.1120E+03  0.1120E+03
    -30.980  0.0000E+00  0.0000E+00  0.1120E+03  0.1120E+03
    -30.740  0.0000E+00  0.0000E+00  0.1120E+03  0.1120E+03
    -30.499  0.0000E+00  0.0000E+00  0.1120E+03  0.1120E+03
    -30.258  0.0000E+00  0.0000E+00  0.1120E+03  0.1120E+03
    -30.017  0.0000E+00  0.0000E+00  0.1120E+03  0.1120E+03
    -29.776  0.0000E+00  0.0000E+00  0.1120E+03  0.1120E+03
    -29.536  0.0000E+00  0.0000E+00  0.1120E+03  0.1120E+03
    -29.295  0.0000E+00  0.0000E+00  0.1120E+03  0.1120E+03
    -29.054  0.0000E+00  0.0000E+00  0.1120E+03  0.1120E+03
    -28.813  0.0000E+00  0.0000E+00  0.1120E+03  0.1120E+03
    -28.572  0.0000E+00  0.0000E+00  0.1120E+03  0.1120E+03
    -28.332  0.0000E+00  0.0000E+00  0.1120E+03  0.1120E+03
    -28.091  0.0000E+00  0.0000E+00  0.1120E+03  0.1120E+03
    -27.850  0.0000E+00  0.0000E+00  0.1120E+03  0.1120E+03
    -27.609  0.0000E+00  0.0000E+00  0.1120E+03  0.1120E+03
    -27.368  0.0000E+00  0.0000E+00  0.1120E+03  0.1120E+03
    -27.127  0.0000E+00  0.0000E+00  0.1120E+03  0.1120E+03
    -26.887  0.0000E+00  0.0000E+00  0.1120E+03  0.1120E+03
    -26.646  0.0000E+00  0.0000E+00  0.1120E+03  0.1120E+03
    -26.405  0.0000E+00  0.0000E+00  0.1120E+03  0.1120E+03
    -26.164  0.0000E+00  0.0000E+00  0.1120E+03  0.1120E+03
    -25.923  0.0000E+00  0.0000E+00  0.1120E+03  0.1120E+03
    -25.683  0.0000E+00  0.0000E+00  0.1120E+03  0.1120E+03
    -25.442  0.0000E+00  0.0000E+00  0.1120E+03  0.1120E+03
    -25.201  0.0000E+00  0.0000E+00  0.1120E+03  0.1120E+03
    -24.960  0.0000E+00  0.0000E+00  0.1120E+03  0.1120E+03
    -24.719  0.0000E+00  0.0000E+00  0.1120E+03  0.1120E+03
    -24.479  0.0000E+00  0.0000E+00  0.1120E+03  0.1120E+03
    -24.238  0.0000E+00  0.0000E+00  0.1120E+03  0.1120E+03
    -23.997  0.0000E+00  0.0000E+00  0.1120E+03  0.1120E+03
    -23.756  0.0000E+00  0.0000E+00  0.1120E+03  0.1120E+03
    -23.515  0.0000E+00  0.0000E+00  0.1120E+03  0.1120E+03
    -23.274  0.0000E+00  0.0000E+00  0.1120E+03  0.1120E+03
    -23.034  0.0000E+00  0.0000E+00  0.1120E+03  0.1120E+03
    -22.793  0.0000E+00  0.0000E+00  0.1120E+03  0.1120E+03
    -22.552  0.0000E+00  0.0000E+00  0.1120E+03  0.1120E+03
    -22.311  0.0000E+00  0.0000E+00  0.1120E+03  0.1120E+03
    -22.070  0.0000E+00  0.0000E+00  0.1120E+03  0.1120E+03
    -21.830  0.0000E+00  0.0000E+00  0.1120E+03  0.1120E+03
    -21.589  0.0000E+00  0.0000E+00  0.1120E+03  0.1120E+03
    -21.348  0.0000E+00  0.0000E+00  0.1120E+03  0.1120E+03
    -21.107  0.0000E+00  0.0000E+00  0.1120E+03  0.1120E+03
    -20.866  0.0000E+00  0.0000E+00  0.1120E+03  0.1120E+03
    -20.626  0.0000E+00  0.0000E+00  0.1120E+03  0.1120E+03
    -20.385  0.0000E+00  0.0000E+00  0.1120E+03  0.1120E+03
    -20.144  0.0000E+00  0.0000E+00  0.1120E+03  0.1120E+03
    -19.903  0.0000E+00  0.0000E+00  0.1120E+03  0.1120E+03
    -19.662  0.0000E+00  0.0000E+00  0.1120E+03  0.1120E+03
    -19.421  0.0000E+00  0.0000E+00  0.1120E+03  0.1120E+03
    -19.181  0.0000E+00  0.0000E+00  0.1120E+03  0.1120E+03
    -18.940  0.0000E+00  0.0000E+00  0.1120E+03  0.1120E+03
    -18.699  0.0000E+00  0.0000E+00  0.1120E+03  0.1120E+03
    -18.458  0.0000E+00  0.0000E+00  0.1120E+03  0.1120E+03
    -18.217  0.0000E+00  0.0000E+00  0.1120E+03  0.1120E+03
    -17.977  0.0000E+00  0.0000E+00  0.1120E+03  0.1120E+03
    -17.736  0.0000E+00  0.0000E+00  0.1120E+03  0.1120E+03
    -17.495  0.0000E+00  0.0000E+00  0.1120E+03  0.1120E+03
    -17.254  0.0000E+00  0.0000E+00  0.1120E+03  0.1120E+03
    -17.013  0.0000E+00  0.0000E+00  0.1120E+03  0.1120E+03
    -16.773  0.0000E+00  0.0000E+00  0.1120E+03  0.1120E+03
    -16.532  0.0000E+00  0.0000E+00  0.1120E+03  0.1120E+03
    -16.291  0.0000E+00  0.0000E+00  0.1120E+03  0.1120E+03
    -16.050  0.0000E+00  0.0000E+00  0.1120E+03  0.1120E+03
    -15.809  0.0000E+00  0.0000E+00  0.1120E+03  0.1120E+03
    -15.568  0.0000E+00  0.0000E+00  0.1120E+03  0.1120E+03
    -15.328  0.0000E+00  0.0000E+00  0.1120E+03  0.1120E+03
    -15.087  0.0000E+00  0.0000E+00  0.1120E+03  0.1120E+03
    -14.846  0.0000E+00  0.0000E+00  0.1120E+03  0.1120E+03
    -14.605  0.0000E+00  0.0000E+00  0.1120E+03  0.1120E+03
    -14.364  0.0000E+00  0.0000E+00  0.1120E+03  0.1120E+03
    -14.124  0.0000E+00  0.0000E+00  0.1120E+03  0.1120E+03
    -13.883  0.0000E+00  0.0000E+00  0.1120E+03  0.1120E+03
    -13.642  0.0000E+00  0.0000E+00  0.1120E+03  0.1120E+03
    -13.401  0.6213E-06  0.0000E+00  0.1120E+03  0.1120E+03
    -13.160  0.1898E+02  0.0000E+00  0.1166E+03  0.1120E+03
    -12.920  0.4606E+02  0.7713E-02  0.1277E+03  0.1120E+03
    -12.679  0.1402E+01  0.4233E+02  0.1280E+03  0.1222E+03
    -12.438  0.0000E+00  0.2411E+02  0.1280E+03  0.1280E+03
    -12.197  0.0000E+00  0.0000E+00  0.1280E+03  0.1280E+03
    -11.956  0.0000E+00  0.0000E+00  0.1280E+03  0.1280E+03
    -11.716  0.0000E+00  0.0000E+00  0.1280E+03  0.1280E+03
    -11.475  0.0000E+00  0.0000E+00  0.1280E+03  0.1280E+03
    -11.234  0.0000E+00  0.0000E+00  0.1280E+03  0.1280E+03
    -10.993  0.0000E+00  0.0000E+00  0.1280E+03  0.1280E+03
    -10.752  0.0000E+00  0.0000E+00  0.1280E+03  0.1280E+03
    -10.511  0.0000E+00  0.0000E+00  0.1280E+03  0.1280E+03
    -10.271  0.0000E+00  0.0000E+00  0.1280E+03  0.1280E+03
    -10.030  0.0000E+00  0.0000E+00  0.1280E+03  0.1280E+03
     -9.789  0.0000E+00  0.0000E+00  0.1280E+03  0.1280E+03
     -9.548  0.0000E+00  0.0000E+00  0.1280E+03  0.1280E+03
     -9.307  0.0000E+00  0.0000E+00  0.1280E+03  0.1280E+03
     -9.067  0.0000E+00  0.0000E+00  0.1280E+03  0.1280E+03
     -8.826  0.0000E+00  0.0000E+00  0.1280E+03  0.1280E+03
     -8.585  0.0000E+00  0.0000E+00  0.1280E+03  0.1280E+03
     -8.344  0.0000E+00  0.0000E+00  0.1280E+03  0.1280E+03
     -8.103  0.0000E+00  0.0000E+00  0.1280E+03  0.1280E+03
     -7.863  0.6491E-10  0.0000E+00  0.1280E+03  0.1280E+03
     -7.622  0.5619E+00  0.1150E-10  0.1281E+03  0.1280E+03
     -7.381  0.1255E+02  0.4942E+00  0.1312E+03  0.1281E+03
     -7.140  0.3026E+02  0.1379E+02  0.1384E+03  0.1314E+03
     -6.899  0.3394E+02  0.2948E+02  0.1466E+03  0.1385E+03
     -6.658  0.2235E+02  0.2604E+02  0.1520E+03  0.1448E+03
     -6.418  0.2413E-04  0.2980E+02  0.1520E+03  0.1520E+03
     -6.177  0.0000E+00  0.5836E-01  0.1520E+03  0.1520E+03
     -5.936  0.0000E+00  0.0000E+00  0.1520E+03  0.1520E+03
     -5.695  0.0000E+00  0.0000E+00  0.1520E+03  0.1520E+03
     -5.454  0.0000E+00  0.0000E+00  0.1520E+03  0.1520E+03
     -5.214  0.0000E+00  0.0000E+00  0.1520E+03  0.1520E+03
     -4.973  0.0000E+00  0.0000E+00  0.1520E+03  0.1520E+03
     -4.732  0.0000E+00  0.0000E+00  0.1520E+03  0.1520E+03
     -4.491  0.0000E+00  0.0000E+00  0.1520E+03  0.1520E+03
     -4.250  0.0000E+00  0.0000E+00  0.1520E+03  0.1520E+03
     -4.010  0.0000E+00  0.0000E+00  0.1520E+03  0.1520E+03
     -3.769  0.0000E+00  0.0000E+00  0.1520E+03  0.1520E+03
     -3.528  0.0000E+00  0.0000E+00  0.1520E+03  0.1520E+03
     -3.287  0.0000E+00  0.0000E+00  0.1520E+03  0.1520E+03
     -3.046  0.0000E+00  0.0000E+00  0.1520E+03  0.1520E+03
     -2.805  0.0000E+00  0.0000E+00  0.1520E+03  0.1520E+03
     -2.565  0.0000E+00  0.0000E+00  0.1520E+03  0.1520E+03
     -2.324  0.0000E+00  0.0000E+00  0.1520E+03  0.1520E+03
     -2.083  0.2148E-04  0.0000E+00  0.1520E+03  0.1520E+03
     -1.842  0.1584E+02  0.0000E+00  0.1558E+03  0.1520E+03
     -1.601  0.1960E+02  0.0000E+00  0.1605E+03  0.1520E+03
     -1.361  0.1484E+02  0.0000E+00  0.1641E+03  0.1520E+03
     -1.120  0.1709E+02  0.0000E+00  0.1682E+03  0.1520E+03
     -0.879  0.4569E+02  0.0000E+00  0.1792E+03  0.1520E+03
     -0.638  0.5898E+02  0.7694E-06  0.1934E+03  0.1520E+03
     -0.397  0.3869E+02  0.4074E+01  0.2028E+03  0.1530E+03
     -0.157  0.6780E+02  0.2035E+02  0.2191E+03  0.1579E+03
      0.084  0.7378E+02  0.1224E+02  0.2368E+03  0.1608E+03
      0.325  0.7756E+02  0.1848E+02  0.2555E+03  0.1653E+03
      0.566  0.6981E+02  0.2952E+02  0.2723E+03  0.1724E+03
      0.807  0.5582E+02  0.3917E+02  0.2858E+03  0.1818E+03
      1.048  0.3644E+02  0.3732E+02  0.2946E+03  0.1908E+03
      1.288  0.3055E+02  0.3131E+02  0.3019E+03  0.1983E+03
      1.529  0.4507E+02  0.2071E+02  0.3128E+03  0.2033E+03
      1.770  0.4206E+02  0.2899E+02  0.3229E+03  0.2103E+03
      2.011  0.6882E+02  0.3680E+02  0.3395E+03  0.2192E+03
      2.252  0.5826E+02  0.2776E+02  0.3535E+03  0.2259E+03
      2.492  0.2675E+02  0.2699E+02  0.3599E+03  0.2324E+03
      2.733  0.4262E+02  0.3057E+02  0.3702E+03  0.2397E+03
      2.974  0.3040E+02  0.4431E+02  0.3775E+03  0.2504E+03
      3.215  0.8649E+01  0.4554E+02  0.3796E+03  0.2614E+03
      3.456  0.2774E+02  0.3239E+02  0.3863E+03  0.2692E+03
      3.696  0.2732E+02  0.1253E+02  0.3929E+03  0.2722E+03
      3.937  0.3085E+02  0.1752E+02  0.4003E+03  0.2764E+03
      4.178  0.3592E+02  0.5263E+02  0.4089E+03  0.2891E+03
      4.419  0.3635E+02  0.4472E+02  0.4177E+03  0.2998E+03
      4.660  0.3030E+02  0.1728E+02  0.4250E+03  0.3040E+03
      4.900  0.2583E+02  0.5705E-02  0.4312E+03  0.3040E+03
      5.141  0.3264E+01  0.0000E+00  0.4320E+03  0.3040E+03
      5.382  0.0000E+00  0.0000E+00  0.4320E+03  0.3040E+03
      5.623  0.0000E+00  0.0000E+00  0.4320E+03  0.3040E+03
      5.864  0.0000E+00  0.0000E+00  0.4320E+03  0.3040E+03
      6.105  0.0000E+00  0.2680E-09  0.4320E+03  0.3040E+03
      6.345  0.0000E+00  0.3871E+00  0.4320E+03  0.3041E+03
      6.586  0.0000E+00  0.4193E+01  0.4320E+03  0.3051E+03
      6.827  0.0000E+00  0.7820E+01  0.4320E+03  0.3070E+03
      7.068  0.4781E-15  0.1910E+02  0.4320E+03  0.3116E+03
      7.309  0.2482E-01  0.4405E+02  0.4320E+03  0.3222E+03
      7.549  0.1290E+00  0.5324E+02  0.4320E+03  0.3350E+03
      7.790  0.2357E+00  0.6341E+02  0.4321E+03  0.3503E+03
      8.031  0.7374E+00  0.6576E+02  0.4323E+03  0.3661E+03
      8.272  0.2092E+01  0.7001E+02  0.4328E+03  0.3830E+03
      8.513  0.2639E+01  0.5941E+02  0.4334E+03  0.3973E+03
      8.753  0.8871E+01  0.5862E+02  0.4355E+03  0.4114E+03
      8.994  0.1242E+02  0.4808E+02  0.4385E+03  0.4230E+03
      9.235  0.1309E+02  0.3010E+02  0.4417E+03  0.4302E+03
      9.476  0.1804E+02  0.8986E+01  0.4460E+03  0.4324E+03
      9.717  0.1631E+02  0.2976E+01  0.4500E+03  0.4331E+03
      9.958  0.1569E+02  0.8326E+01  0.4537E+03  0.4351E+03
     10.198  0.2250E+02  0.1861E+02  0.4592E+03  0.4396E+03
     10.439  0.1484E+02  0.1798E+02  0.4627E+03  0.4439E+03
     10.680  0.1535E+02  0.1714E+02  0.4664E+03  0.4481E+03
     10.921  0.1316E+02  0.2759E+02  0.4696E+03  0.4547E+03
     11.162  0.2059E+02  0.1898E+02  0.4746E+03  0.4593E+03
     11.402  0.2467E+02  0.2394E+02  0.4805E+03  0.4650E+03
     11.643  0.2733E+02  0.1494E+02  0.4871E+03  0.4686E+03
     11.884  0.2452E+02  0.1377E+02  0.4930E+03  0.4719E+03
     12.125  0.3358E+02  0.1596E+02  0.5011E+03  0.4758E+03
     12.366  0.1996E+02  0.3660E+02  0.5059E+03  0.4846E+03
     12.606  0.2304E+02  0.3270E+02  0.5114E+03  0.4925E+03
     12.847  0.2141E+02  0.3002E+02  0.5166E+03  0.4997E+03
     13.088  0.2036E+02  0.2027E+02  0.5215E+03  0.5046E+03
     13.329  0.2378E+02  0.2210E+02  0.5272E+03  0.5099E+03
     13.570  0.2439E+02  0.2723E+02  0.5331E+03  0.5165E+03
     13.811  0.1350E+02  0.2374E+02  0.5363E+03  0.5222E+03
     14.051  0.6934E+01  0.2630E+02  0.5380E+03  0.5285E+03
     14.292  0.4669E-02  0.1925E+02  0.5380E+03  0.5332E+03
     14.533  0.0000E+00  0.1678E+02  0.5380E+03  0.5372E+03
     14.774  0.0000E+00  0.3360E+01  0.5380E+03  0.5380E+03
     15.015  0.0000E+00  0.2248E-05  0.5380E+03  0.5380E+03
     15.255  0.0000E+00  0.0000E+00  0.5380E+03  0.5380E+03
     15.496  0.0000E+00  0.0000E+00  0.5380E+03  0.5380E+03
     15.737  0.0000E+00  0.0000E+00  0.5380E+03  0.5380E+03
     15.978  0.0000E+00  0.0000E+00  0.5380E+03  0.5380E+03
     16.219  0.0000E+00  0.0000E+00  0.5380E+03  0.5380E+03
     16.459  0.0000E+00  0.0000E+00  0.5380E+03  0.5380E+03
     16.700  0.0000E+00  0.0000E+00  0.5380E+03  0.5380E+03
     16.941  0.0000E+00  0.0000E+00  0.5380E+03  0.5380E+03
     17.182  0.0000E+00  0.0000E+00  0.5380E+03  0.5380E+03
     17.423  0.0000E+00  0.0000E+00  0.5380E+03  0.5380E+03
     17.664  0.0000E+00  0.0000E+00  0.5380E+03  0.5380E+03
     17.904  0.0000E+00  0.0000E+00  0.5380E+03  0.5380E+03
