 vasp.6.2.0 18Jan21 (build May  3 2021 10:16:23) complex                         
 executed on        HPECrayEX_GCC date 2021.05.05  07:16:05
 running 1280 mpi-ranks, with    1 threads/rank
 each image running on  256 cores
 distrk:  each k-point on   32 cores,    8 groups
 distr:  one band on NCORE=   4 cores,    8 groups


--------------------------------------------------------------------------------------------------------


 INCAR:
   ALGO = all
   EDIFF = 1e-06
   EDIFFG = -0.02
   ENCUT = 520
   GGA = pe
   IBRION = 3
   IMAGES = 5
   IOPT = 7
   ISIF = 2
   ISMEAR = 0
   ISPIN = 2
   KPAR = 8
   LASPH = .TRUE.
   LCHARG = .TRUE.
   LDAU = .TRUE.
   LDAUJ = 0.0 0.0 0.0 0.0
   LDAUL = 2 -1 -1 -1
   LDAUTYPE = 2
   LDAUU = 4.0 0.0 0.0 0.0
   LMAXMIX = 4
   LORBIT = 10
   LREAL = .FALSE.
   LVHAR = .TRUE.
   LWAVE = .TRUE.
   MAGMOM = 5 5 5 5 5 5 5 5 5 5 5 5 5 5 5 5 5 5 5 5 5 5 5 5 5 5 5 5 5 5 5 5 0.6 0.6 0.6 0.6 0.6 0.6 0.6 0.6 0.6 0.6 0.6 0.6 0.6 0.6 0.6 0.6 0.6 0.6 0.6 0.6 0.6 0.6 0.6 0.6 0.6 0.6 0.6 0.6 0.6 0.6 0.6 0.6 0.6 0.6 0.6 0.6 0.6 0.6 0.6 0.6 0.6 0.6 0.6 0.6 0.6 0.6 0.6 0.6 0.6 0.6 0.6 0.6 0.6 0.6 0.6 0.6 0.6 0.6 0.6 0.6 0.6 0.6 0.6 0.6 0.6 0.6 0.6 0.6 0.6 0.6 0.6 0.6 0.6 0.6 0.6 0.6 0.6 0.6 0.6
   NCORE = 4
   NEDOS = 2000
   NELECT = 828
   NELM = 200
   NELMIN = 4
   NSW = 60
   NWRITE = 1
   POTIM = 0.0
   PREC = accurate
   SIGMA = 0.05
   SPRING = -5

 POTCAR:    PAW_PBE Fe_pv 02Aug2007               
 POTCAR:    PAW_PBE Li_sv 10Sep2004               
 POTCAR:    PAW_PBE O 08Apr2002                   
 POTCAR:    PAW_PBE S 06Sep2000                   
 POTCAR:    PAW_PBE Fe_pv 02Aug2007               
  local pseudopotential read in
  partial core-charges read in
  partial kinetic energy density read in
  atomic valenz-charges read in
  non local Contribution for L=           1  read in
    real space projection operators read in
  non local Contribution for L=           1  read in
    real space projection operators read in
  non local Contribution for L=           2  read in
    real space projection operators read in
  non local Contribution for L=           2  read in
    real space projection operators read in
  non local Contribution for L=           0  read in
    real space projection operators read in
  non local Contribution for L=           0  read in
    real space projection operators read in
    PAW grid and wavefunctions read in

   number of l-projection  operators is LMAX  =           6
   number of lm-projection operators is LMMAX =          18

 POTCAR:    PAW_PBE Li_sv 10Sep2004               
  local pseudopotential read in
  atomic valenz-charges read in
  non local Contribution for L=           0  read in
    real space projection operators read in
  non local Contribution for L=           0  read in
    real space projection operators read in
  non local Contribution for L=           1  read in
    real space projection operators read in
    PAW grid and wavefunctions read in

   number of l-projection  operators is LMAX  =           3
   number of lm-projection operators is LMMAX =           5

 POTCAR:    PAW_PBE O 08Apr2002                   
  local pseudopotential read in
  partial core-charges read in
  partial kinetic energy density read in
  kinetic energy density of atom read in
  atomic valenz-charges read in
  non local Contribution for L=           0  read in
    real space projection operators read in
  non local Contribution for L=           0  read in
    real space projection operators read in
  non local Contribution for L=           1  read in
    real space projection operators read in
  non local Contribution for L=           1  read in
    real space projection operators read in
    PAW grid and wavefunctions read in

   number of l-projection  operators is LMAX  =           4
   number of lm-projection operators is LMMAX =           8

 POTCAR:    PAW_PBE S 06Sep2000                   
  local pseudopotential read in
  partial core-charges read in
  partial kinetic energy density read in
  atomic valenz-charges read in
  non local Contribution for L=           0  read in
    real space projection operators read in
  non local Contribution for L=           0  read in
    real space projection operators read in
  non local Contribution for L=           1  read in
    real space projection operators read in
  non local Contribution for L=           1  read in
    real space projection operators read in
    PAW grid and wavefunctions read in

   number of l-projection  operators is LMAX  =           4
   number of lm-projection operators is LMMAX =           8

 -----------------------------------------------------------------------------
|                                                                             |
|               ----> ADVICE to this user running VASP <----                  |
|                                                                             |
|     You have a (more or less) 'large supercell' and for larger cells it     |
|     might be more efficient to use real-space projection operators.         |
|     Therefore, try LREAL= Auto in the INCAR file.                           |
|     Mind: For very accurate calculation, you might also keep the            |
|     reciprocal projection scheme (i.e. LREAL=.FALSE.).                      |
|                                                                             |
 -----------------------------------------------------------------------------

  PAW_PBE Fe_pv 02Aug2007               :
 energy of atom  1       EATOM=-2457.4239
 kinetic energy error for atom=    0.0062 (will be added to EATOM!!)
  PAW_PBE Li_sv 10Sep2004               :
 energy of atom  2       EATOM= -202.7858
 kinetic energy error for atom=    0.0130 (will be added to EATOM!!)
  PAW_PBE O 08Apr2002                   :
 energy of atom  3       EATOM= -432.3788
 kinetic energy error for atom=    0.0208 (will be added to EATOM!!)
  PAW_PBE S 06Sep2000                   :
 energy of atom  4       EATOM= -276.8230
 kinetic energy error for atom=    0.0016 (will be added to EATOM!!)


 POSCAR: # Compound: Fe32Li31O16S32. Old comment:
  positions in direct lattice
  No initial velocities read in
 exchange correlation table for  LEXCH =        8
   RHO(1)=    0.500       N(1)  =     2000
   RHO(2)=  100.500       N(2)  =     4000

 VTST: version 3.2, (02/03/18)

 CHAIN: initializing optimizer
 
 OPT: Using FIRE optimizer
 OPT: FIRE, Init
 OPT: FIRE, MAXMOVE       0.20000
 OPT: FIRE, TIMESTEP      0.10000
 OPT: FIRE, FTIMEMAX      1.00000
 OPT: FIRE, FTIMEINC      1.10000
 OPT: FIRE, FTIMEDEC      0.50000
 OPT: FIRE, FALPHADEC     0.99000
 OPT: FIRE, FALPHA        0.10000
 OPT: FIRE, FNMIN         5
 
 CHAIN: Read ICHAIN            0
 CHAIN: Running the NEB
 NEB:          SPRING     -5.000000
 NEB:          LCLIMB      T
 NEB:     LTANGENTOLD      F
 NEB:           LDNEB      F
 NEB:        LDNEBORG      F
 NEB:        LNEBCELL      F
 NEB:          EFIRST      0.000000
 NEB:           ELAST      0.000000

 POSCAR: # Compound: Fe32Li31O16S32. Old comment:
  positions in direct lattice
  No initial velocities read in

 POSCAR: # Compound: Fe32Li31O16S32. Old comment:
  positions in direct lattice
  No initial velocities read in



--------------------------------------------------------------------------------------------------------


 ion  position               nearest neighbor table
   1  0.974  0.081  0.160-  73 2.04  84 2.42  80 2.71  97 2.72  98 2.73  83 2.74
   2  0.224  0.331  0.160-  68 2.05  85 2.43  80 2.71  98 2.72  81 2.73  99 2.73
   3  0.724  0.330  0.157-  79 2.03  86 2.41  82 2.70  99 2.71  80 2.73  97 2.75
   4  0.975  0.580  0.158-  66 2.04  87 2.42  83 2.71  81 2.72  82 2.73  80 2.73
   5  0.965  0.433  0.347-  70 1.98  80 2.46  86 2.60  87 2.64
   6  0.225  0.670  0.341-  67 2.04  81 2.44  87 2.69  85 2.70 100 2.71 102 2.74
   7  0.728  0.674  0.345-  72 1.99  82 2.45 101 2.69  87 2.71 100 2.77
   8  0.974  0.922  0.341-  77 2.04  83 2.44  84 2.67  87 2.72 102 2.73 101 2.73
   9  0.974  0.081  0.659-  77 2.04  92 2.44  88 2.67  91 2.72 106 2.73 105 2.73
  10  0.224  0.331  0.659-  64 2.04  93 2.44  88 2.71  89 2.72 106 2.72 107 2.73
  11  0.726  0.328  0.659-  75 2.05  94 2.44  90 2.64  88 2.70 105 2.71 107 2.74
  12  0.965  0.586  0.653-  70 1.98  95 2.46  90 2.60  91 2.64
  13  0.974  0.422  0.840-  66 2.04  88 2.42  95 2.71  94 2.72  93 2.73  92 2.74
  14  0.224  0.670  0.840-  71 2.05  89 2.43  95 2.71  93 2.72 110 2.73 108 2.73
  15  0.724  0.672  0.843-  76 2.03  90 2.41 109 2.70 108 2.70  95 2.73  94 2.75
  16  0.975  0.923  0.842-  73 2.04  91 2.42  92 2.70 110 2.72 109 2.73  95 2.73
  17  0.474  0.582  0.159-  65 2.04 100 2.42  96 2.70  81 2.71  82 2.73  99 2.75
  18  0.724  0.831  0.159-  76 2.04 101 2.42  97 2.69  96 2.72  83 2.73  82 2.75
  19  0.224  0.830  0.158-  71 2.05 102 2.44  81 2.71  83 2.71  96 2.72  98 2.72
  20  0.475  0.081  0.160-  74 2.05 103 2.44  99 2.71  98 2.72  97 2.72  96 2.73
  21  0.474  0.921  0.341-  78 2.05  96 2.44 103 2.68 101 2.71 102 2.71 100 2.72
  22  0.726  0.169  0.341-  75 2.05  97 2.44  86 2.64  84 2.70 101 2.71 103 2.74
  23  0.224  0.172  0.341-  64 2.04  98 2.44  84 2.71  85 2.72 102 2.72 103 2.73
  24  0.480  0.430  0.343-  69 2.02  99 2.45 100 2.65  86 2.69  85 2.71
  25  0.480  0.586  0.657-  69 2.02 108 2.45 104 2.65  90 2.69  89 2.71
  26  0.728  0.829  0.655-  72 1.99 109 2.45 105 2.69  91 2.71 104 2.77
  27  0.225  0.829  0.659-  67 2.04 110 2.44  91 2.69  89 2.70 104 2.71 106 2.74
  28  0.474  0.081  0.659-  78 2.05 111 2.44 107 2.68 105 2.71 106 2.72 104 2.72
  29  0.474  0.923  0.841-  74 2.04 104 2.42 111 2.70 110 2.71 109 2.73 108 2.75
  30  0.724  0.172  0.841-  79 2.04 105 2.42  94 2.69 111 2.72  92 2.73 109 2.75
  31  0.224  0.171  0.842-  68 2.05 106 2.44 110 2.71  92 2.71 111 2.72  93 2.73
  32  0.475  0.422  0.840-  65 2.05 107 2.44 108 2.71  93 2.72  94 2.72 111 2.73
  33  0.081  0.145  0.001-  68 1.94  73 1.95  92 2.55  80 2.57
  34  0.869  0.856  0.000-  73 1.95  76 1.95  83 2.54  95 2.58
  35  0.869  0.356  1.000-  66 1.95  79 1.95  92 2.54  80 2.58
  36  0.081  0.644  0.999-  71 1.94  66 1.95  83 2.55  95 2.57
  37  0.117  0.394  0.500-  70 1.88  64 1.93  89 2.58  85 2.58
  38  0.351  0.622  0.500-  69 1.96  67 1.97  89 2.68  85 2.68
  39  0.666  0.593  0.500-  72 1.86  69 2.22  86 2.38  90 2.38  40 2.56
  40  0.600  0.367  0.500-  75 1.91  69 1.91  39 2.56  59 2.60
  41  0.083  0.142  0.500-  64 1.95  77 1.96  84 2.55  88 2.55
  42  0.873  0.848  0.500-  72 1.90  77 1.97  91 2.51  87 2.51
  43  0.862  0.362  0.500-  70 1.93  75 1.96  88 2.62  84 2.62
  44  0.079  0.643  0.500-  70 1.93  67 1.96  87 2.56  91 2.56
  45  0.118  0.394  1.000-  68 1.94  66 1.94  93 2.55  81 2.55
  46  0.331  0.608  0.999-  71 1.94  65 1.95  93 2.54  81 2.55
  47  0.830  0.606  0.001-  76 1.94  66 1.94  94 2.55  82 2.56
  48  0.617  0.393  0.000-  65 1.94  79 1.96  94 2.53  82 2.57
  49  0.581  0.644  1.000-  65 1.94  76 1.94  96 2.55 108 2.55
  50  0.367  0.359  0.001-  65 1.94  68 1.94 111 2.55  99 2.57
  51  0.367  0.858  0.999-  74 1.94  71 1.94  96 2.55 108 2.57
  52  0.581  0.144  0.000-  74 1.94  79 1.94 111 2.55  99 2.55
  53  0.600  0.872  0.500-  72 1.89  78 1.94
  54  0.833  0.104  0.500-  77 1.93  75 1.93 105 2.56 101 2.56
  55  0.338  0.115  0.500-  64 1.94  78 1.94 106 2.62 102 2.62
  56  0.118  0.894  0.500-  77 1.92  67 1.94 102 2.56 106 2.56
  57  0.360  0.368  0.500-  64 1.95  69 1.97 103 2.65 107 2.65
  58  0.359  0.865  0.500-  78 1.91  67 1.92 104 2.63 100 2.63
  59  0.592  0.128  0.500-  78 1.91  75 1.94  40 2.60 103 2.65 107 2.66
  60  0.617  0.893  1.000-  74 1.94  76 1.96  97 2.53 109 2.57
  61  0.830  0.105  0.999-  79 1.94  73 1.94  97 2.55 109 2.56
  62  0.331  0.108  0.001-  68 1.94  74 1.95  98 2.54 110 2.55
  63  0.118  0.894  0.000-  71 1.94  73 1.94  98 2.55 110 2.55
  64  0.224  0.252  0.500-  37 1.93  55 1.94  41 1.95  57 1.95  10 2.04  23 2.04
  65  0.475  0.501  1.000-  49 1.94  48 1.94  50 1.94  46 1.95  17 2.04  32 2.05
  66  0.974  0.500  0.999-  47 1.94  45 1.94  35 1.95  36 1.95   4 2.04  13 2.04
  67  0.224  0.751  0.500-  58 1.92  56 1.94  44 1.96  38 1.97   6 2.04  27 2.04
  68  0.224  0.252  0.001-  45 1.94  33 1.94  62 1.94  50 1.94  31 2.05   2 2.05
  69  0.484  0.500  0.500-  40 1.91  38 1.96  57 1.97  24 2.02  25 2.02  39 2.22
  70  0.978  0.497  0.500-  37 1.88  44 1.93  43 1.93  12 1.98   5 1.98
  71  0.224  0.751  0.999-  63 1.94  36 1.94  46 1.94  51 1.94  19 2.05  14 2.05
  72  0.726  0.753  0.500-  39 1.86  53 1.89  42 1.90  26 1.99   7 1.99
  73  0.974  0.001  0.001-  61 1.94  63 1.94  34 1.95  33 1.95  16 2.04   1 2.04
  74  0.475  0.001  0.000-  52 1.94  60 1.94  51 1.94  62 1.95  29 2.04  20 2.05
  75  0.726  0.245  0.500-  40 1.91  54 1.93  59 1.94  43 1.96  22 2.05  11 2.05
  76  0.725  0.750  0.000-  47 1.94  49 1.94  34 1.95  60 1.96  15 2.03  18 2.04
  77  0.974  0.998  0.500-  56 1.92  54 1.93  41 1.96  42 1.97   9 2.04   8 2.04
  78  0.473  0.998  0.500-  58 1.91  59 1.91  53 1.94  55 1.94  28 2.05  21 2.05
  79  0.725  0.249  1.000-  61 1.94  52 1.94  35 1.95  48 1.96   3 2.03  30 2.04
  80  0.975  0.328  0.155-   5 2.46  33 2.57  35 2.58   2 2.71   1 2.71   4 2.73   3 2.73
  81  0.225  0.577  0.152-   6 2.44  45 2.55  46 2.55  19 2.71  17 2.71   4 2.72   2 2.73
  82  0.725  0.576  0.154-   7 2.45  47 2.56  48 2.57   3 2.70   4 2.73  17 2.73  18 2.75
  83  0.975  0.826  0.151-   8 2.44  34 2.54  36 2.55   4 2.71  19 2.71  18 2.73   1 2.74
  84  0.974  0.171  0.348-   1 2.42  41 2.55  43 2.62   8 2.67  22 2.70  23 2.71
  85  0.230  0.426  0.349-   2 2.43  37 2.58  38 2.68   6 2.70  24 2.71  23 2.72
  86  0.727  0.413  0.345-  39 2.38   3 2.41   5 2.60  22 2.64  24 2.69
  87  0.978  0.675  0.346-   4 2.42  42 2.51  44 2.56   5 2.64   6 2.69   7 2.71   8 2.72
  88  0.974  0.323  0.652-  13 2.42  41 2.55  43 2.62   9 2.67  11 2.70  10 2.71
  89  0.230  0.577  0.651-  14 2.43  37 2.58  38 2.68  27 2.70  25 2.71  10 2.72
  90  0.727  0.569  0.655-  39 2.38  15 2.41  12 2.60  11 2.64  25 2.69
  91  0.978  0.829  0.654-  16 2.42  42 2.51  44 2.56  12 2.64  27 2.69  26 2.71   9 2.72
  92  0.975  0.175  0.849-   9 2.44  35 2.54  33 2.55  16 2.70  31 2.71  30 2.73  13 2.74
  93  0.225  0.425  0.848-  10 2.44  46 2.54  45 2.55  14 2.72  32 2.72  31 2.73  13 2.73
  94  0.724  0.423  0.849-  11 2.44  48 2.53  47 2.55  30 2.69  32 2.72  13 2.72  15 2.75
  95  0.975  0.673  0.845-  12 2.46  36 2.57  34 2.58  14 2.71  13 2.71  16 2.73  15 2.73
  96  0.474  0.826  0.151-  21 2.44  49 2.55  51 2.55  17 2.70  19 2.72  18 2.72  20 2.73
  97  0.724  0.074  0.151-  22 2.44  60 2.53  61 2.55  18 2.69  20 2.72   1 2.72   3 2.75
  98  0.225  0.077  0.152-  23 2.44  62 2.54  63 2.55   2 2.72  20 2.72  19 2.72   1 2.73
  99  0.475  0.327  0.153-  24 2.45  52 2.55  50 2.57   3 2.71  20 2.71   2 2.73  17 2.75
 100  0.474  0.675  0.347-  17 2.42  58 2.63  24 2.65   6 2.71  21 2.72   7 2.77
 101  0.723  0.923  0.347-  18 2.42  54 2.56   7 2.69  21 2.71  22 2.71   8 2.73
 102  0.225  0.926  0.348-  19 2.44  56 2.56  55 2.62  21 2.71  23 2.72   8 2.73   6 2.74
 103  0.474  0.172  0.350-  20 2.44  57 2.65  59 2.65  21 2.68  23 2.73  22 2.74
 104  0.474  0.828  0.653-  29 2.42  58 2.63  25 2.65  27 2.71  28 2.72  26 2.77
 105  0.723  0.075  0.653-  30 2.42  54 2.56  26 2.69  28 2.71  11 2.71   9 2.73
 106  0.225  0.077  0.652-  31 2.44  56 2.56  55 2.62  28 2.72  10 2.72   9 2.73  27 2.74
 107  0.474  0.323  0.650-  32 2.44  57 2.65  59 2.66  28 2.68  10 2.73  11 2.74
 108  0.475  0.674  0.847-  25 2.45  49 2.55  51 2.57  15 2.70  32 2.71  14 2.73  29 2.75
 109  0.725  0.922  0.846-  26 2.45  61 2.56  60 2.57  15 2.70  16 2.73  29 2.73  30 2.75
 110  0.225  0.926  0.848-  27 2.44  63 2.55  62 2.55  31 2.71  29 2.71  16 2.72  14 2.73
 111  0.474  0.176  0.849-  28 2.44  52 2.55  50 2.55  29 2.70  31 2.72  30 2.72  32 2.73

  LATTYP: Found a base centered orthorhombic cell.
 ALAT       =    10.8749739061
 B/A-ratio  =     2.3644048249
 C/A-ratio  =     1.0000101723
  
  Lattice vectors:
  
 A1 = (   3.8335882400,   3.8349345400, -12.8627506400)
 A2 = (   3.8548230400,   3.8561790800,  12.8500725900)
 A3 = (   7.6911861600,  -7.6885056400,   0.0000000100)


Analysis of symmetry for initial positions (statically):
=====================================================================
 Subroutine PRICEL returns:
 Original cell was already a primitive cell.
 

 Routine SETGRP: Setting up the symmetry group for a 
 base centered orthorhombic supercell.


 Subroutine GETGRP returns: Found  1 space group operations
 (whereof  1 operations were pure point group operations)
 out of a pool of  8 trial point group operations.


The static configuration has the point symmetry C_1 .


Analysis of symmetry for dynamics (positions and initial velocities):
=====================================================================
 Subroutine PRICEL returns:
 Original cell was already a primitive cell.
 

 Routine SETGRP: Setting up the symmetry group for a 
 base centered orthorhombic supercell.


 Subroutine GETGRP returns: Found  1 space group operations
 (whereof  1 operations were pure point group operations)
 out of a pool of  8 trial point group operations.


The dynamic configuration has the point symmetry C_1 .


Analysis of structural, dynamic, and magnetic symmetry:
=====================================================================
 Subroutine PRICEL returns:
 Original cell was already a primitive cell.
 

 Routine SETGRP: Setting up the symmetry group for a 
 base centered orthorhombic supercell.


 Subroutine GETGRP returns: Found  1 space group operations
 (whereof  1 operations were pure point group operations)
 out of a pool of  8 trial point group operations.


The overall configuration has the point symmetry C_1 .


 Subroutine INISYM returns: Found  1 space group operations
 (whereof  1 operations are pure point group operations),
 and found     1 'primitive' translations


----------------------------------------------------------------------------------------

                                     Primitive cell                                     

  volume of cell :    1520.4808

  direct lattice vectors                    reciprocal lattice vectors
     7.691186160 -7.688505640  0.000000010     0.065032232 -0.065009382  0.000000006
     7.688411280  7.691113620 -0.012678050     0.065042145  0.065064822  0.038783628
    -3.833588240 -3.834934540 12.862750640     0.000064108  0.000064131  0.077782096

  length of vectors
    10.875084530 10.874973906 13.958992648     0.091953308  0.099840280  0.077782149

  position of ions in fractional coordinates (direct lattice)
     0.974267602  0.081399058  0.159567608
     0.224087521  0.330840089  0.160442528
     0.724005736  0.329603782  0.157448160
     0.975298199  0.580478407  0.157870250
     0.964958846  0.432830669  0.346623293
     0.224798662  0.670203747  0.341263705
     0.728433883  0.673775314  0.344855714
     0.974050699  0.922074923  0.341060442
     0.974096024  0.081042032  0.658934558
     0.223889927  0.330898328  0.658551203
     0.726099172  0.327750841  0.659234262
     0.964921705  0.586278686  0.653373618
     0.974259074  0.421847388  0.840419061
     0.224077709  0.670391621  0.839554059
     0.723938350  0.672134253  0.842553043
     0.975259281  0.922623909  0.842121207
     0.474102523  0.582156817  0.158942877
     0.724196033  0.830959750  0.159092459
     0.224328725  0.829692316  0.158453210
     0.474567457  0.081480914  0.159747597
     0.474228877  0.921483047  0.340819997
     0.726092909  0.168547821  0.340781543
     0.223841609  0.172343691  0.341442028
     0.479659028  0.429879623  0.343454440
     0.479653337  0.586417070  0.656543453
     0.728392544  0.828923456  0.655146449
     0.224776734  0.828961620  0.658741644
     0.474270713  0.080672145  0.659174577
     0.474082499  0.923240261  0.841062341
     0.724136715  0.171852720  0.840906963
     0.224298885  0.171207979  0.841543899
     0.474552007  0.421743511  0.840254657
     0.081199958  0.145055076  0.001428506
     0.868583443  0.856433086  0.000211960
     0.868581161  0.356204825  0.999743702
     0.081200480  0.643635469  0.998579178
     0.116788162  0.393596675  0.500032648
     0.350747718  0.621870045  0.500006896
     0.666140771  0.592793238  0.499997241
     0.599577853  0.367363914  0.500007098
     0.082848929  0.141609705  0.499986771
     0.873412365  0.847714851  0.500012978
     0.862356101  0.362437216  0.500008884
     0.079478342  0.643170148  0.499993639
     0.118079229  0.394124943  0.999694928
     0.331195948  0.607639965  0.999226019
     0.829943069  0.605947326  0.000931586
     0.616896036  0.393340221  0.000066052
     0.580669915  0.643806597  0.999689780
     0.367330556  0.358617406  0.000984100
     0.367340570  0.857622795  0.999009797
     0.580671663  0.144140497  0.000350594
     0.600482648  0.872365204  0.499986933
     0.832848560  0.103854157  0.500008174
     0.338202380  0.115113217  0.499998745
     0.117738904  0.893910768  0.499997506
     0.359830249  0.368414118  0.499975877
     0.359334913  0.865011887  0.500018056
     0.591512154  0.128072750  0.499987237
     0.616900943  0.893289027  0.999954803
     0.829941754  0.105015894  0.999060790
     0.331200917  0.108426946  0.000787875
     0.118078736  0.894426884  0.000295972
     0.223762292  0.251758555  0.499997930
     0.474522420  0.500979491  0.999912409
     0.974420428  0.500400310  0.999452767
     0.224106825  0.751111642  0.500001551
     0.224310389  0.251552970  0.000959978
     0.484229194  0.500157059  0.499996779
     0.978452432  0.497247478  0.500003240
     0.224311832  0.750593748  0.999038307
     0.726445638  0.752545510  0.500001322
     0.974416981  0.000941138  0.000537508
     0.474524965  0.001071838  0.000093896
     0.725714976  0.245188408  0.500005456
     0.724742100  0.749630586  0.000301328
     0.974450584  0.997597368  0.499998322
     0.473422361  0.998068606  0.499998240
     0.724743149  0.249330060  0.999699098
     0.975288091  0.328383946  0.155327703
     0.224932627  0.577048447  0.151522300
     0.724710649  0.576000319  0.154363581
     0.974901720  0.825685981  0.151046115
     0.974446918  0.170965463  0.347923400
     0.230382720  0.426298070  0.349337453
     0.726537603  0.413379312  0.344554578
     0.977686492  0.674714975  0.345867373
     0.974451405  0.323029501  0.652070019
     0.230404665  0.576966329  0.650663480
     0.726529027  0.568819783  0.655445958
     0.977694840  0.828851998  0.654129297
     0.974907129  0.174634483  0.848947974
     0.224777759  0.424894750  0.847997873
     0.724310097  0.422849566  0.849337404
     0.975290204  0.673052124  0.844663963
     0.473928424  0.826497137  0.150834310
     0.724312297  0.073523567  0.150670544
     0.224769158  0.076893096  0.151997760
     0.475319370  0.326979771  0.153312053
     0.473998771  0.675093806  0.347438685
     0.723145601  0.922700108  0.347447004
     0.224754043  0.925562997  0.348160564
     0.474424547  0.172427692  0.349628412
     0.474008050  0.827657476  0.652564455
     0.723142347  0.075248981  0.652553298
     0.224758539  0.077395419  0.651835754
     0.474423838  0.322800397  0.650371006
     0.475326421  0.673666633  0.846690641
     0.724711736  0.921634060  0.845637089
     0.224941823  0.925530364  0.848479661
     0.473932418  0.175662388  0.849166534

  ion indices of the primitive-cell ions
   primitive index   ion index
                 1           1
                 2           2
                 3           3
                 4           4
                 5           5
                 6           6
                 7           7
                 8           8
                 9           9
                10          10
                11          11
                12          12
                13          13
                14          14
                15          15
                16          16
                17          17
                18          18
                19          19
                20          20
                21          21
                22          22
                23          23
                24          24
                25          25
                26          26
                27          27
                28          28
                29          29
                30          30
                31          31
                32          32
                33          33
                34          34
                35          35
                36          36
                37          37
                38          38
                39          39
                40          40
                41          41
                42          42
                43          43
                44          44
                45          45
                46          46
                47          47
                48          48
                49          49
                50          50
                51          51
                52          52
                53          53
                54          54
                55          55
                56          56
                57          57
                58          58
                59          59
                60          60
                61          61
                62          62
                63          63
                64          64
                65          65
                66          66
                67          67
                68          68
                69          69
                70          70
                71          71
                72          72
                73          73
                74          74
                75          75
                76          76
                77          77
                78          78
                79          79
                80          80
                81          81
                82          82
                83          83
                84          84
                85          85
                86          86
                87          87
                88          88
                89          89
                90          90
                91          91
                92          92
                93          93
                94          94
                95          95
                96          96
                97          97
                98          98
                99          99
               100         100
               101         101
               102         102
               103         103
               104         104
               105         105
               106         106
               107         107
               108         108
               109         109
               110         110
               111         111

----------------------------------------------------------------------------------------



 KPOINTS: # No comment                            

Automatic generation of k-mesh.
 Grid dimensions read from file:
 generate k-points for:    2    2    2

 Generating k-lattice:

  Cartesian coordinates                     Fractional coordinates (reciprocal lattice)
     0.032516116 -0.032504691  0.000000003     0.500000000 -0.000000000  0.000000000
     0.032521073  0.032532411  0.019391814    -0.000000000  0.500000000 -0.000000000
     0.000032054  0.000032065  0.038891048     0.000000000 -0.000000000  0.500000000

  Length of vectors
     0.045976654  0.049920140  0.038891074

  Shift w.r.t. Gamma in fractional coordinates (k-lattice)
     0.000000000  0.000000000  0.000000000

 
 Subroutine IBZKPT returns following result:
 ===========================================
 
 Found      8 irreducible k-points:
 
 Following reciprocal coordinates:
            Coordinates               Weight
  0.000000  0.000000  0.000000      1.000000
  0.500000  0.000000  0.000000      1.000000
  0.000000  0.500000  0.000000      1.000000
  0.000000  0.500000  0.500000      1.000000
  0.500000  0.500000  0.000000      1.000000
  0.500000  0.500000  0.500000      1.000000
  0.000000  0.000000  0.500000      1.000000
  0.500000  0.000000  0.500000      1.000000
 
 Following cartesian coordinates:
            Coordinates               Weight
  0.000000  0.000000  0.000000      1.000000
  0.032516 -0.032505  0.000000      1.000000
  0.032521  0.032532  0.019392      1.000000
  0.032553  0.032564  0.058283      1.000000
  0.065037  0.000028  0.019392      1.000000
  0.065069  0.000060  0.058283      1.000000
  0.000032  0.000032  0.038891      1.000000
  0.032548 -0.032473  0.038891      1.000000
 


--------------------------------------------------------------------------------------------------------




 Dimension of arrays:
   k-points           NKPTS =      8   k-points in BZ     NKDIM =      8   number of bands    NBANDS=    600
   number of dos      NEDOS =   2000   number of ions     NIONS =    111
   non local maximal  LDIM  =      6   non local SUM 2l+1 LMDIM =     18
   total plane-waves  NPLWV = 762048
   max r-space proj   IRMAX =      1   max aug-charges    IRDMAX=  15988
   dimension x,y,z NGX =    84 NGY =   84 NGZ =  108
   dimension x,y,z NGXF=   168 NGYF=  168 NGZF=  216
   support grid    NGXF=   168 NGYF=  168 NGZF=  216
   ions per type =              32  31  16  32
   NGX,Y,Z   is equivalent  to a cutoff of  12.84, 12.84, 12.86 a.u.
   NGXF,Y,Z  is equivalent  to a cutoff of  25.68, 25.68, 25.72 a.u.

 SYSTEM =  unknown system                          
 POSCAR =  # Compound: Fe32Li31O16S32. Old comment:

 Startparameter for this run:
   NWRITE =      1    write-flag & timer
   PREC   = accura    normal or accurate (medium, high low for compatibility)
   ISTART =      0    job   : 0-new  1-cont  2-samecut
   ICHARG =      2    charge: 1-file 2-atom 10-const
   ISPIN  =      2    spin polarized calculation?
   LNONCOLLINEAR =      F non collinear calculations
   LSORBIT =      F    spin-orbit coupling
   INIWAV =      1    electr: 0-lowe 1-rand  2-diag
   LASPH  =      T    aspherical Exc in radial PAW
   METAGGA=      F    non-selfconsistent MetaGGA calc.

 Electronic Relaxation 1
   ENCUT  =  520.0 eV  38.22 Ry    6.18 a.u.  20.22 20.22 25.95*2*pi/ulx,y,z
   ENINI  =  520.0     initial cutoff
   ENAUG  =  628.9 eV  augmentation charge cutoff
   NELM   =    200;   NELMIN=  4; NELMDL= -5     # of ELM steps 
   EDIFF  = 0.1E-05   stopping-criterion for ELM
   LREAL  =      F    real-space projection
   NLSPLINE    = F    spline interpolate recip. space projectors
   LCOMPAT=      F    compatible to vasp.4.4
   GGA_COMPAT  = T    GGA compatible to vasp.4.4-vasp.4.6
   LMAXPAW     = -100 max onsite density
   LMAXMIX     =    4 max onsite mixed and CHGCAR
   VOSKOWN=      0    Vosko Wilk Nusair interpolation
   ROPT   =    0.00000   0.00000   0.00000   0.00000
 Ionic relaxation
   EDIFFG = -.2E-01   stopping-criterion for IOM
   NSW    =     60    number of steps for IOM
   NBLOCK =      1;   KBLOCK =     60    inner block; outer block 
   IBRION =      3    ionic relax: 0-MD 1-quasi-New 2-CG
   NFREE  =      0    steps in history (QN), initial steepest desc. (CG)
   ISIF   =      2    stress and relaxation
   IWAVPR =     11    prediction:  0-non 1-charg 2-wave 3-comb
   ISYM   =      2    0-nonsym 1-usesym 2-fastsym
   LCORR  =      T    Harris-Foulkes like correction to forces

   POTIM  = 0.0000    time-step for ionic-motion
   TEIN   =    0.0    initial temperature
   TEBEG  =    0.0;   TEEND  =   0.0 temperature during run
   SMASS  =  -3.00    Nose mass-parameter (am)
   estimated Nose-frequenzy (Omega)   =  0.10E-29 period in steps = 0.00E+00 mass=  -0.270E-26a.u.
   SCALEE = 1.0000    scale energy and forces
   NPACO  =    256;   APACO  = 16.0  distance and # of slots for P.C.
   PSTRESS=    0.0 pullay stress

  Mass of Ions in am
   POMASS =  55.85  7.01 16.00 32.07
  Ionic Valenz
   ZVAL   =  14.00  3.00  6.00  6.00
  Atomic Wigner-Seitz radii
   RWIGS  =  -1.00 -1.00 -1.00 -1.00
  virtual crystal weights 
   VCA    =   1.00  1.00  1.00  1.00
   NELECT =     828.0000    total number of electrons
   NUPDOWN=      -1.0000    fix difference up-down

 DOS related values:
   EMIN   =  10.00;   EMAX   =-10.00  energy-range for DOS
   EFERMI =   0.00
   ISMEAR =     0;   SIGMA  =   0.05  broadening in eV -4-tet -1-fermi 0-gaus

 Electronic relaxation 2 (details)
   IALGO  =     58    algorithm
   LDIAG  =      T    sub-space diagonalisation (order eigenvalues)
   LSUBROT=      F    optimize rotation matrix (better conditioning)
   TURBO    =      0    0=normal 1=particle mesh
   IRESTART =      0    0=no restart 2=restart with 2 vectors
   NREBOOT  =      0    no. of reboots
   NMIN     =      0    reboot dimension
   EREF     =   0.00    reference energy to select bands
   IMIX   =      4    mixing-type and parameters
     AMIX     =   0.40;   BMIX     =  1.00
     AMIX_MAG =   1.60;   BMIX_MAG =  1.00
     AMIN     =   0.10
     WC   =   100.;   INIMIX=   1;  MIXPRE=   1;  MAXMIX= -45

 Intra band minimization:
   WEIMIN = 0.0010     energy-eigenvalue tresh-hold
   EBREAK =  0.42E-09  absolut break condition
   DEPER  =   0.30     relativ break condition  

   TIME   =   0.40     timestep for ELM

  volume/ion in A,a.u.               =      13.70        92.44
  Fermi-wavevector in a.u.,A,eV,Ry     =   1.336877  2.526330 24.316861  1.787239
  Thomas-Fermi vector in A             =   2.465469

 Write flags
   LWAVE        =      T    write WAVECAR
   LDOWNSAMPLE  =      F    k-point downsampling of WAVECAR
   LCHARG       =      T    write CHGCAR
   LVTOT        =      F    write LOCPOT, total local potential
   LVHAR        =      T    write LOCPOT, Hartree potential only
   LELF         =      F    write electronic localiz. function (ELF)
   LORBIT       =     10    0 simple, 1 ext, 2 COOP (PROOUT), +10 PAW based schemes


 Dipole corrections
   LMONO  =      F    monopole corrections only (constant potential shift)
   LDIPOL =      F    correct potential (dipole corrections)
   IDIPOL =      0    1-x, 2-y, 3-z, 4-all directions 
   EPSILON=  1.0000000 bulk dielectric constant

 LDA+U is selected, type is set to LDAUTYPE =  2
   angular momentum for each species LDAUL =     2   -1   -1   -1
   U (eV)           for each species LDAUU =   4.0  0.0  0.0  0.0
   J (eV)           for each species LDAUJ =   0.0  0.0  0.0  0.0
 Exchange correlation treatment:
   GGA     =    PE    GGA type
   LEXCH   =     8    internal setting for exchange type
   VOSKOWN=      0    Vosko Wilk Nusair interpolation
   LHFCALC =     F    Hartree Fock is set to
   LHFONE  =     F    Hartree Fock one center treatment
   AEXX    =    0.0000 exact exchange contribution

 Linear response parameters
   LEPSILON=     F    determine dielectric tensor
   LRPA    =     F    only Hartree local field effects (RPA)
   LNABLA  =     F    use nabla operator in PAW spheres
   LVEL    =     F    velocity operator in full k-point grid
   LINTERFAST=   F  fast interpolation
   KINTER  =     0    interpolate to denser k-point grid
   CSHIFT  =0.1000    complex shift for real part using Kramers Kronig
   OMEGAMAX=  -1.0    maximum frequency
   DEG_THRESHOLD= 0.2000000E-02 threshold for treating states as degnerate
   RTIME   =   -0.100 relaxation time in fs
  (WPLASMAI=    0.000 imaginary part of plasma frequency in eV, 0.658/RTIME)
   DFIELD  = 0.0000000 0.0000000 0.0000000 field for delta impulse in time

 Orbital magnetization related:
   ORBITALMAG=     F  switch on orbital magnetization
   LCHIMAG   =     F  perturbation theory with respect to B field
   DQ        =  0.001000  dq finite difference perturbation B field
   LLRAUG    =     F  two centre corrections for induced B field



--------------------------------------------------------------------------------------------------------


 quickmin algorithm: (dynamic with friction)
 charge density and potential will be updated during run
 spin polarized calculation
 Conjugate gradient for all bands (Freysoldt, et al. PRB 79, 241103 (2009))
 preconditioned conjugated gradient                                        
 perform sub-space diagonalisation
    before iterative eigenvector-optimisation
 modified Broyden-mixing scheme, WC =      100.0
 initial mixing is a Kerker type mixing with AMIX =  0.4000 and BMIX =      1.0000
 Hartree-type preconditioning will be used
 using additional bands          186
 reciprocal scheme for non local part
 use partial core corrections
 no Harris-corrections to forces 
 use gradient corrections 
 use of overlap-Matrix (Vanderbilt PP)
 Gauss-broadening in eV      SIGMA  =   0.05


--------------------------------------------------------------------------------------------------------


  energy-cutoff  :      520.00
  volume of cell :     1520.48
      direct lattice vectors                 reciprocal lattice vectors
     7.691186160 -7.688505640  0.000000010     0.065032232 -0.065009382  0.000000006
     7.688411280  7.691113620 -0.012678050     0.065042145  0.065064822  0.038783628
    -3.833588240 -3.834934540 12.862750640     0.000064108  0.000064131  0.077782096

  length of vectors
    10.875084530 10.874973906 13.958992648     0.091953308  0.099840280  0.077782149



 k-points in units of 2pi/SCALE and weight: # No comment                            
   0.00000000  0.00000000  0.00000000       0.125
   0.03251612 -0.03250469  0.00000000       0.125
   0.03252107  0.03253241  0.01939181       0.125
   0.03255313  0.03256448  0.05828286       0.125
   0.06503719  0.00002772  0.01939182       0.125
   0.06506924  0.00005979  0.05828286       0.125
   0.00003205  0.00003207  0.03889105       0.125
   0.03254817 -0.03247263  0.03889105       0.125

 k-points in reciprocal lattice and weights: # No comment                            
   0.00000000  0.00000000  0.00000000       0.125
   0.50000000  0.00000000  0.00000000       0.125
   0.00000000  0.50000000  0.00000000       0.125
   0.00000000  0.50000000  0.50000000       0.125
   0.50000000  0.50000000  0.00000000       0.125
   0.50000000  0.50000000  0.50000000       0.125
   0.00000000  0.00000000  0.50000000       0.125
   0.50000000  0.00000000  0.50000000       0.125

 position of ions in fractional coordinates (direct lattice) 
   0.97426760  0.08139906  0.15956761
   0.22408752  0.33084009  0.16044253
   0.72400574  0.32960378  0.15744816
   0.97529820  0.58047841  0.15787025
   0.96495885  0.43283067  0.34662329
   0.22479866  0.67020375  0.34126370
   0.72843388  0.67377531  0.34485571
   0.97405070  0.92207492  0.34106044
   0.97409602  0.08104203  0.65893456
   0.22388993  0.33089833  0.65855120
   0.72609917  0.32775084  0.65923426
   0.96492170  0.58627869  0.65337362
   0.97425907  0.42184739  0.84041906
   0.22407771  0.67039162  0.83955406
   0.72393835  0.67213425  0.84255304
   0.97525928  0.92262391  0.84212121
   0.47410252  0.58215682  0.15894288
   0.72419603  0.83095975  0.15909246
   0.22432872  0.82969232  0.15845321
   0.47456746  0.08148091  0.15974760
   0.47422888  0.92148305  0.34082000
   0.72609291  0.16854782  0.34078154
   0.22384161  0.17234369  0.34144203
   0.47965903  0.42987962  0.34345444
   0.47965334  0.58641707  0.65654345
   0.72839254  0.82892346  0.65514645
   0.22477673  0.82896162  0.65874164
   0.47427071  0.08067215  0.65917458
   0.47408250  0.92324026  0.84106234
   0.72413672  0.17185272  0.84090696
   0.22429888  0.17120798  0.84154390
   0.47455201  0.42174351  0.84025466
   0.08119996  0.14505508  0.00142851
   0.86858344  0.85643309  0.00021196
   0.86858116  0.35620483  0.99974370
   0.08120048  0.64363547  0.99857918
   0.11678816  0.39359667  0.50003265
   0.35074772  0.62187004  0.50000690
   0.66614077  0.59279324  0.49999724
   0.59957785  0.36736391  0.50000710
   0.08284893  0.14160971  0.49998677
   0.87341237  0.84771485  0.50001298
   0.86235610  0.36243722  0.50000888
   0.07947834  0.64317015  0.49999364
   0.11807923  0.39412494  0.99969493
   0.33119595  0.60763996  0.99922602
   0.82994307  0.60594733  0.00093159
   0.61689604  0.39334022  0.00006605
   0.58066991  0.64380660  0.99968978
   0.36733056  0.35861741  0.00098410
   0.36734057  0.85762279  0.99900980
   0.58067166  0.14414050  0.00035059
   0.60048265  0.87236520  0.49998693
   0.83284856  0.10385416  0.50000817
   0.33820238  0.11511322  0.49999875
   0.11773890  0.89391077  0.49999751
   0.35983025  0.36841412  0.49997588
   0.35933491  0.86501189  0.50001806
   0.59151215  0.12807275  0.49998724
   0.61690094  0.89328903  0.99995480
   0.82994175  0.10501589  0.99906079
   0.33120092  0.10842695  0.00078788
   0.11807874  0.89442688  0.00029597
   0.22376229  0.25175855  0.49999793
   0.47452242  0.50097949  0.99991241
   0.97442043  0.50040031  0.99945277
   0.22410682  0.75111164  0.50000155
   0.22431039  0.25155297  0.00095998
   0.48422919  0.50015706  0.49999678
   0.97845243  0.49724748  0.50000324
   0.22431183  0.75059375  0.99903831
   0.72644564  0.75254551  0.50000132
   0.97441698  0.00094114  0.00053751
   0.47452497  0.00107184  0.00009390
   0.72571498  0.24518841  0.50000546
   0.72474210  0.74963059  0.00030133
   0.97445058  0.99759737  0.49999832
   0.47342236  0.99806861  0.49999824
   0.72474315  0.24933006  0.99969910
   0.97528809  0.32838395  0.15532770
   0.22493263  0.57704845  0.15152230
   0.72471065  0.57600032  0.15436358
   0.97490172  0.82568598  0.15104611
   0.97444692  0.17096546  0.34792340
   0.23038272  0.42629807  0.34933745
   0.72653760  0.41337931  0.34455458
   0.97768649  0.67471498  0.34586737
   0.97445140  0.32302950  0.65207002
   0.23040467  0.57696633  0.65066348
   0.72652903  0.56881978  0.65544596
   0.97769484  0.82885200  0.65412930
   0.97490713  0.17463448  0.84894797
   0.22477776  0.42489475  0.84799787
   0.72431010  0.42284957  0.84933740
   0.97529020  0.67305212  0.84466396
   0.47392842  0.82649714  0.15083431
   0.72431230  0.07352357  0.15067054
   0.22476916  0.07689310  0.15199776
   0.47531937  0.32697977  0.15331205
   0.47399877  0.67509381  0.34743869
   0.72314560  0.92270011  0.34744700
   0.22475404  0.92556300  0.34816056
   0.47442455  0.17242769  0.34962841
   0.47400805  0.82765748  0.65256446
   0.72314235  0.07524898  0.65255330
   0.22475854  0.07739542  0.65183575
   0.47442384  0.32280040  0.65037101
   0.47532642  0.67366663  0.84669064
   0.72471174  0.92163406  0.84563709
   0.22494182  0.92553036  0.84847966
   0.47393242  0.17566239  0.84916653

 position of ions in cartesian coordinates  (Angst):
   7.50738643 -7.47654388  2.05144637
   3.65206292  0.20634395  2.05953783
   7.49900092 -3.63530544  2.02103770
  11.35894721 -3.63948240  2.02328633
   9.42064734 -5.41941932  4.45304154
   5.57350588  2.11752341  4.38109306
   9.46074751 -1.74098461  4.42725091
  13.27341120 -1.70515576  4.37528531
   5.58895456 -9.39301020  8.47468347
   1.74144739 -1.70190308  8.46658476
   5.57721445 -5.58996887  8.47541069
   9.42417871 -5.41531504  8.39674906
   7.51472349 -7.46907228 10.80475262
   3.65916531  0.21360054 10.79047526
   7.50558775 -3.62767895 10.82902835
  11.36606680 -3.63176088 10.82029804
   7.51295026  0.22275878  2.03706198
  11.34879184  0.21291140  2.03583169
   7.49692538  4.04884752  2.02762525
   3.66403893 -3.63465718  2.05376049
   9.42555970  2.13409704  4.37220003
   5.57396459 -5.59312389  4.38125116
   1.73770853 -1.70490039  4.38969869
   5.67757532 -1.69873341  4.41231878
   5.68080147 -1.69541824  8.43752010
   9.46374538 -1.73734945  8.41647629
   5.57685336  2.12120974  8.46271989
   1.74094107 -5.55386577  8.47777545
   7.52022089  0.23034075 10.80667029
   3.66705363 -7.47061358 10.81419783
  -0.18469096 -3.63500899 10.82239875
   3.67121503 -3.62724013 10.80263924
   1.73429078  0.48585051  0.01653550
  13.26423419 -0.09199738 -0.00813150
   5.58646290 -7.77243102 12.85493796
   1.74492081  0.49647739 12.83631492
   2.00745333  0.21167783  6.42680522
   5.56203811  0.16865364  6.42357993
   7.76426735 -2.47984362  6.42382438
   5.51908842 -3.70191460  6.42680917
  -0.19078321 -1.46526467  6.42940983
  11.31831364 -2.11288170  6.42079489
   7.50227951 -5.76018528  6.42689460
   3.63946961  2.41818213  6.42313936
   0.10594527 -1.71035771 12.85382984
   3.38845453 -1.70494027 12.84509143
  11.03844759 -1.72418481  0.00430054
   7.76857043 -1.71803763 -0.00413717
   5.58349133 -3.34663910 12.85059815
   5.57863316 -0.06982979  0.00811167
   5.58924927 -0.05936287 12.83914093
   5.57292125 -3.35724093  0.00268218
   9.40878228  0.17522852  6.42014736
   5.28724133 -7.52210535  6.43016380
   1.56942591 -3.63238454  6.42989977
   5.86152090  4.05247535  6.42001019
   3.68333906 -1.85041681  6.42639426
   7.49741552  1.97261968  6.42064091
   3.61736088 -5.48024079  6.42958744
   7.77925846 -1.70742018 12.85084412
   3.36065422 -9.40465541 12.84933843
   3.37793847 -1.71553760  0.00875960
   7.78375265  5.97015473 -0.00753257
   1.73983457 -1.70155332  6.42815689
   3.66812419 -3.62987675 12.85527254
   7.51024192 -7.47603725 12.84936763
   5.58170246  2.13636518  6.42187265
   3.65557549  0.20642933  0.00915876
   5.65292828 -1.79368904  6.42499288
   9.43169638 -5.61592988  6.42511287
   3.66619599  0.21703251 12.84086456
   9.45630884 -1.71484070  6.42185152
   7.49959767 -7.48663336  0.00690191
   3.65754061 -3.64050433  0.00119418
   5.54990326 -5.61137998  6.42833700
  11.33643949  0.19215471 -0.00562793
  13.24783202 -1.73689494  6.41870616
   9.39795407  2.11888804  6.41869912
   3.65865182 -7.48834657 12.85571920
   9.43041065 -5.56854132  1.99377826
   5.58571039  2.12767130  1.94167771
   9.41064546 -1.73383224  1.97823769
  13.26731542 -1.72434465  1.93240043
   7.47531039 -7.51138928  4.47308444
   3.71025533  0.16772179  4.48803592
   7.44528574 -3.72798545  4.42667878
  11.38114195 -3.65401730  4.44025171
   7.47850286 -7.50826436  8.38331867
   3.71366374  0.17079417  8.36200729
   7.44848052 -3.72465728  8.42362640
  11.38452570 -3.65076044  8.40339382
   5.58633697 -9.40810522 10.91759209
   1.74469851 -1.71230761 10.90219835
   5.56583528 -5.57383156 10.91945434
   9.43774623 -5.56123488 10.85616895
   9.42128501  2.13444232  1.92966575
   5.55849132 -5.58121274  1.93710551
   1.73723036 -1.71964687  1.95413443
   5.58198943 -1.72759877  1.96786925
   7.50407476  0.21547633  4.46045830
  11.32397660  0.20424582  4.45742614
   7.51002993  4.05541448  4.46656819
   3.63425116 -3.66225691  4.49499704
   7.50739181  0.21865215  8.38328079
   3.63874687 -7.48363473  8.39267635
  -0.17516231 -3.63254778  8.38341955
   3.63744963 -3.65904606  8.36146760
   5.58938685 -1.72030644 10.88222982
   9.41797017 -1.72652088 10.86553449
   5.59320587  2.13502876 10.90204838
   1.74031230 -5.54929075 10.92039033



--------------------------------------------------------------------------------------------------------


 k-point   1 :   0.0000 0.0000 0.0000  plane waves:   40887
 k-point   2 :   0.5000 0.0000 0.0000  plane waves:   40892
 k-point   3 :   0.0000 0.5000 0.0000  plane waves:   40934
 k-point   4 :   0.0000 0.5000 0.5000  plane waves:   40934
 k-point   5 :   0.5000 0.5000 0.0000  plane waves:   40932
 k-point   6 :   0.5000 0.5000 0.5000  plane waves:   40932
 k-point   7 :   0.0000 0.0000 0.5000  plane waves:   40952
 k-point   8 :   0.5000 0.0000 0.5000  plane waves:   40976

 maximum and minimum number of plane-waves per node :     10279    10176

 maximum number of plane-waves:     40976
 maximum index in each direction: 
   IXMAX=   20   IYMAX=   20   IZMAX=   25
   IXMIN=  -20   IYMIN=  -20   IZMIN=  -26


 parallel 3D FFT for wavefunctions:
    minimum data exchange during FFTs selected (reduces bandwidth)
 parallel 3D FFT for charge:
    minimum data exchange during FFTs selected (reduces bandwidth)


 total amount of memory used by VASP MPI-rank0   753861. kBytes
=======================================================================

   base      :      30000. kBytes
   nonl-proj :      65627. kBytes
   fftplans  :      12748. kBytes
   grid      :      36360. kBytes
   one-center:        870. kBytes
   wavefun   :     608256. kBytes

     INWAV:  cpu time    0.0001: real time    0.0004
 Broyden mixing: mesh for mixing (old mesh)
   NGX = 41   NGY = 41   NGZ = 51
  (NGX  =168   NGY  =168   NGZ  =216)
  gives a total of  85731 points

 initial charge density was supplied:
 charge density of overlapping atoms calculated
 number of electron     829.0000000 magnetization     207.4000000
 keeping initial charge density in first step


--------------------------------------------------------------------------------------------------------


 Maximum index for augmentation-charges         1428 (set IRDMAX)


--------------------------------------------------------------------------------------------------------


 First call to EWALD:  gamma=   0.154
 Maximum number of real-space cells 3x 3x 3
 Maximum number of reciprocal cells 3x 3x 3

    FEWALD:  cpu time    0.0215: real time    0.0217


--------------------------------------- Iteration      1(   1)  ---------------------------------------


    POTLOK:  cpu time    0.4501: real time    0.4501
    SETDIJ:  cpu time    0.4706: real time    0.4711
    TRIAL :  cpu time   25.5506: real time   25.6274
    CORREC:  cpu time    0.0029: real time    0.0033
    --------------------------------------------
      LOOP:  cpu time   26.9092: real time   26.9872

 eigenvalue-minimisations  : 19976
 total energy-change (2. order) : 0.1077508E+05  (-0.4172860E+05)
 number of electron     829.0000000 magnetization     207.4000000
 augmentation part      829.0000000 magnetization     207.4000000

 Free energy of the ion-electron system (eV)
  ---------------------------------------------------
  alpha Z        PSCENC =      2332.72493728
  Ewald energy   TEWEN  =    -61288.67685613
  -Hartree energ DENC   =    -32042.51204232
  -exchange      EXHF   =         0.00000000
  -V(xc)+E(xc)   XCENC  =      3557.10544503
  PAW double counting   =     78939.49469920   -81928.53671730
  entropy T*S    EENTRO =        -0.03035038
  eigenvalues    EBANDS =       506.17363481
  atomic energy  EATOM  =    100699.33914061
  ---------------------------------------------------
  free energy    TOTEN  =     10775.08189079 eV

  energy without entropy =    10775.11224117  energy(sigma->0) =    10775.09706598


--------------------------------------------------------------------------------------------------------




--------------------------------------- Iteration      1(   2)  ---------------------------------------


    TRIAL :  cpu time   24.9053: real time   24.9174
    CORREC:  cpu time    0.0031: real time    0.0031
    --------------------------------------------
      LOOP:  cpu time   24.9108: real time   24.9232

 eigenvalue-minimisations  : 19200
 total energy-change (2. order) :-0.9666160E+04  (-0.8887003E+04)
 number of electron     829.0000000 magnetization     207.4000000
 augmentation part      829.0000000 magnetization     207.4000000

 Free energy of the ion-electron system (eV)
  ---------------------------------------------------
  alpha Z        PSCENC =      2332.72493728
  Ewald energy   TEWEN  =    -61288.67685613
  -Hartree energ DENC   =    -32042.51204232
  -exchange      EXHF   =         0.00000000
  -V(xc)+E(xc)   XCENC  =      3557.10544503
  PAW double counting   =     78939.49469920   -81928.53671730
  entropy T*S    EENTRO =        -0.08263603
  eigenvalues    EBANDS =     -9159.93415745
  atomic energy  EATOM  =    100699.33914061
  ---------------------------------------------------
  free energy    TOTEN  =      1108.92181288 eV

  energy without entropy =     1109.00444891  energy(sigma->0) =     1108.96313089


--------------------------------------------------------------------------------------------------------




--------------------------------------- Iteration      1(   3)  ---------------------------------------


    TRIAL :  cpu time   26.6298: real time   26.6428
    CORREC:  cpu time    0.0029: real time    0.0029
    --------------------------------------------
      LOOP:  cpu time   26.6344: real time   26.6473

 eigenvalue-minimisations  : 20696
 total energy-change (2. order) :-0.1577795E+04  (-0.1473438E+04)
 number of electron     829.0000000 magnetization     207.4000000
 augmentation part      829.0000000 magnetization     207.4000000

 Free energy of the ion-electron system (eV)
  ---------------------------------------------------
  alpha Z        PSCENC =      2332.72493728
  Ewald energy   TEWEN  =    -61288.67685613
  -Hartree energ DENC   =    -32042.51204232
  -exchange      EXHF   =         0.00000000
  -V(xc)+E(xc)   XCENC  =      3557.10544503
  PAW double counting   =     78939.49469920   -81928.53671730
  entropy T*S    EENTRO =        -0.05677100
  eigenvalues    EBANDS =    -10737.75527576
  atomic energy  EATOM  =    100699.33914061
  ---------------------------------------------------
  free energy    TOTEN  =      -468.87344039 eV

  energy without entropy =     -468.81666940  energy(sigma->0) =     -468.84505490


--------------------------------------------------------------------------------------------------------




--------------------------------------- Iteration      1(   4)  ---------------------------------------


    TRIAL :  cpu time   30.3689: real time   30.3809
    CORREC:  cpu time    0.0029: real time    0.0029
    --------------------------------------------
      LOOP:  cpu time   30.3736: real time   30.3855

 eigenvalue-minimisations  : 25024
 total energy-change (2. order) :-0.1773457E+03  (-0.1738435E+03)
 number of electron     829.0000000 magnetization     207.4000000
 augmentation part      829.0000000 magnetization     207.4000000

 Free energy of the ion-electron system (eV)
  ---------------------------------------------------
  alpha Z        PSCENC =      2332.72493728
  Ewald energy   TEWEN  =    -61288.67685613
  -Hartree energ DENC   =    -32042.51204232
  -exchange      EXHF   =         0.00000000
  -V(xc)+E(xc)   XCENC  =      3557.10544503
  PAW double counting   =     78939.49469920   -81928.53671730
  entropy T*S    EENTRO =        -0.06385067
  eigenvalues    EBANDS =    -10915.09391641
  atomic energy  EATOM  =    100699.33914061
  ---------------------------------------------------
  free energy    TOTEN  =      -646.21916072 eV

  energy without entropy =     -646.15531005  energy(sigma->0) =     -646.18723539


--------------------------------------------------------------------------------------------------------




--------------------------------------- Iteration      1(   5)  ---------------------------------------


    TRIAL :  cpu time   38.6673: real time   38.6833
    CORREC:  cpu time    0.0030: real time    0.0030
    CHARGE:  cpu time    0.6463: real time    0.6469
    --------------------------------------------
      LOOP:  cpu time   39.3172: real time   39.3473

 eigenvalue-minimisations  : 33544
 total energy-change (2. order) :-0.2053169E+02  (-0.2015431E+02)
 number of electron     828.0000056 magnetization     149.1614761
 augmentation part      262.8511609 magnetization      91.9959526

 Free energy of the ion-electron system (eV)
  ---------------------------------------------------
  alpha Z        PSCENC =      2332.72493728
  Ewald energy   TEWEN  =    -61288.67685613
  -Hartree energ DENC   =    -32042.51204232
  -exchange      EXHF   =         0.00000000
  -V(xc)+E(xc)   XCENC  =      3557.10544503
  PAW double counting   =     78939.49469920   -81928.53671730
  entropy T*S    EENTRO =        -0.07605421
  eigenvalues    EBANDS =    -10935.61340599
  atomic energy  EATOM  =    100699.33914061
  ---------------------------------------------------
  free energy    TOTEN  =      -666.75085384 eV

  energy without entropy =     -666.67479963  energy(sigma->0) =     -666.71282674


--------------------------------------------------------------------------------------------------------




--------------------------------------- Iteration      1(   6)  ---------------------------------------


    POTLOK:  cpu time    0.4421: real time    0.4421
    SETDIJ:  cpu time    0.4743: real time    0.4745
    TRIAL :  cpu time   14.2626: real time   14.2685
    CORREC:  cpu time    3.9214: real time    3.9227
    CHARGE:  cpu time    0.6124: real time    0.6124
    --------------------------------------------
      LOOP:  cpu time   19.7138: real time   19.7213

 eigenvalue-minimisations  :     0
 total energy-change (2. order) : 0.6317915E+03  (-0.4269634E+03)
 number of electron     828.0000058 magnetization     132.3186458
 augmentation part      288.4560468 magnetization      94.0716962

 Free energy of the ion-electron system (eV)
  ---------------------------------------------------
  alpha Z        PSCENC =      2332.72493728
  Ewald energy   TEWEN  =    -61288.67685613
  -Hartree energ DENC   =    -26982.89309991
  -exchange      EXHF   =         0.00000000
  -V(xc)+E(xc)   XCENC  =      3425.81943180
  PAW double counting   =     87773.33613575   -90437.67308526
  entropy T*S    EENTRO =        -0.07804410
  eigenvalues    EBANDS =    -15556.85991511
  atomic energy  EATOM  =    100699.33914061
  ---------------------------------------------------
  free energy    TOTEN  =       -34.95936519 eV

  energy without entropy =      -34.88132109  energy(sigma->0) =      -34.92034314


--------------------------------------------------------------------------------------------------------




--------------------------------------- Iteration      1(   7)  ---------------------------------------


    POTLOK:  cpu time    0.4419: real time    0.4421
    SETDIJ:  cpu time    0.4721: real time    0.4721
    TRIAL :  cpu time   14.2333: real time   14.2396
    CORREC:  cpu time    3.8996: real time    3.9001
    CHARGE:  cpu time    0.6062: real time    0.6076
    --------------------------------------------
      LOOP:  cpu time   19.6543: real time   19.6628

 eigenvalue-minimisations  :     0
 total energy-change (2. order) :-0.4311570E+03  (-0.4893893E+02)
 number of electron     828.0000057 magnetization     130.9998023
 augmentation part      287.6602510 magnetization      93.2224743

 Free energy of the ion-electron system (eV)
  ---------------------------------------------------
  alpha Z        PSCENC =      2332.72493728
  Ewald energy   TEWEN  =    -61288.67685613
  -Hartree energ DENC   =    -30554.02489277
  -exchange      EXHF   =         0.00000000
  -V(xc)+E(xc)   XCENC  =      3531.95357921
  PAW double counting   =     97542.04213593  -100850.42944391
  entropy T*S    EENTRO =        -0.08077079
  eigenvalues    EBANDS =    -11878.96687744
  atomic energy  EATOM  =    100699.33914061
  ---------------------------------------------------
  free energy    TOTEN  =      -466.11632133 eV

  energy without entropy =     -466.03555053  energy(sigma->0) =     -466.07593593


--------------------------------------------------------------------------------------------------------




--------------------------------------- Iteration      1(   8)  ---------------------------------------


    POTLOK:  cpu time    0.4382: real time    0.4382
    SETDIJ:  cpu time    0.4801: real time    0.4802
    TRIAL :  cpu time   14.2717: real time   14.2773
    CORREC:  cpu time    3.8940: real time    3.8949
    CHARGE:  cpu time    0.6042: real time    0.6044
    --------------------------------------------
      LOOP:  cpu time   19.6899: real time   19.6967

 eigenvalue-minimisations  :     0
 total energy-change (2. order) :-0.4379897E+02  (-0.1540989E+02)
 number of electron     828.0000056 magnetization     130.6942223
 augmentation part      286.1932315 magnetization      92.6341403

 Free energy of the ion-electron system (eV)
  ---------------------------------------------------
  alpha Z        PSCENC =      2332.72493728
  Ewald energy   TEWEN  =    -61288.67685613
  -Hartree energ DENC   =    -30676.34067817
  -exchange      EXHF   =         0.00000000
  -V(xc)+E(xc)   XCENC  =      3522.32421295
  PAW double counting   =     99245.62965260  -102502.03820402
  entropy T*S    EENTRO =        -0.11255081
  eigenvalues    EBANDS =    -11842.79672352
  atomic energy  EATOM  =    100699.33914061
  ---------------------------------------------------
  free energy    TOTEN  =      -509.91528919 eV

  energy without entropy =     -509.80273838  energy(sigma->0) =     -509.85901379


--------------------------------------------------------------------------------------------------------




--------------------------------------- Iteration      1(   9)  ---------------------------------------


    POTLOK:  cpu time    0.4402: real time    0.4402
    SETDIJ:  cpu time    0.4746: real time    0.4747
    TRIAL :  cpu time   14.2372: real time   14.2420
    CORREC:  cpu time    3.8757: real time    3.8766
    CHARGE:  cpu time    0.6043: real time    0.6043
    --------------------------------------------
      LOOP:  cpu time   19.6331: real time   19.6390

 eigenvalue-minimisations  :     0
 total energy-change (2. order) :-0.2021985E+02  (-0.5862922E+01)
 number of electron     828.0000055 magnetization     130.2623366
 augmentation part      285.3416493 magnetization      91.8987115

 Free energy of the ion-electron system (eV)
  ---------------------------------------------------
  alpha Z        PSCENC =      2332.72493728
  Ewald energy   TEWEN  =    -61288.67685613
  -Hartree energ DENC   =    -30578.53788690
  -exchange      EXHF   =         0.00000000
  -V(xc)+E(xc)   XCENC  =      3512.61343573
  PAW double counting   =     99486.28650423  -102683.98319882
  entropy T*S    EENTRO =        -0.11776845
  eigenvalues    EBANDS =    -12009.78866656
  atomic energy  EATOM  =    100699.33914061
  ---------------------------------------------------
  free energy    TOTEN  =      -530.13514137 eV

  energy without entropy =     -530.01737292  energy(sigma->0) =     -530.07625715


--------------------------------------------------------------------------------------------------------




--------------------------------------- Iteration      1(  10)  ---------------------------------------


    POTLOK:  cpu time    0.4392: real time    0.4393
    SETDIJ:  cpu time    0.4729: real time    0.4729
    TRIAL :  cpu time   14.2466: real time   14.2528
    CORREC:  cpu time    3.8577: real time    3.8584
    CHARGE:  cpu time    0.5945: real time    0.5948
    --------------------------------------------
      LOOP:  cpu time   19.6126: real time   19.6198

 eigenvalue-minimisations  :     0
 total energy-change (2. order) :-0.5589484E+01  (-0.7206981E+01)
 number of electron     828.0000055 magnetization     130.0000038
 augmentation part      283.7361126 magnetization      90.4068004

 Free energy of the ion-electron system (eV)
  ---------------------------------------------------
  alpha Z        PSCENC =      2332.72493728
  Ewald energy   TEWEN  =    -61288.67685613
  -Hartree energ DENC   =    -30538.39320362
  -exchange      EXHF   =         0.00000000
  -V(xc)+E(xc)   XCENC  =      3508.41057873
  PAW double counting   =     99228.06109519  -102385.29412841
  entropy T*S    EENTRO =        -0.13217089
  eigenvalues    EBANDS =    -12091.77842010
  atomic energy  EATOM  =    100699.33914061
  ---------------------------------------------------
  free energy    TOTEN  =      -535.72462490 eV

  energy without entropy =     -535.59245402  energy(sigma->0) =     -535.65853946


--------------------------------------------------------------------------------------------------------




--------------------------------------- Iteration      1(  11)  ---------------------------------------


    POTLOK:  cpu time    0.4386: real time    0.4386
    SETDIJ:  cpu time    0.4777: real time    0.4779
    TRIAL :  cpu time   14.2359: real time   14.2430
    CORREC:  cpu time    3.8634: real time    3.8658
    CHARGE:  cpu time    0.5914: real time    0.5916
    --------------------------------------------
      LOOP:  cpu time   19.6095: real time   19.6193

 eigenvalue-minimisations  :     0
 total energy-change (2. order) :-0.6573000E+01  (-0.5767447E+01)
 number of electron     828.0000056 magnetization     130.0000037
 augmentation part      282.6620058 magnetization      89.1263936

 Free energy of the ion-electron system (eV)
  ---------------------------------------------------
  alpha Z        PSCENC =      2332.72493728
  Ewald energy   TEWEN  =    -61288.67685613
  -Hartree energ DENC   =    -30472.71818809
  -exchange      EXHF   =         0.00000000
  -V(xc)+E(xc)   XCENC  =      3501.47027586
  PAW double counting   =     98631.86187096  -101717.32088429
  entropy T*S    EENTRO =        -0.10877699
  eigenvalues    EBANDS =    -12228.84575033
  atomic energy  EATOM  =    100699.33914061
  ---------------------------------------------------
  free energy    TOTEN  =      -542.29762502 eV

  energy without entropy =     -542.18884803  energy(sigma->0) =     -542.24323653


--------------------------------------------------------------------------------------------------------




--------------------------------------- Iteration      1(  12)  ---------------------------------------


    POTLOK:  cpu time    0.4383: real time    0.4383
    SETDIJ:  cpu time    0.4746: real time    0.4748
    TRIAL :  cpu time   14.2752: real time   14.2814
    CORREC:  cpu time    3.8688: real time    3.8709
    CHARGE:  cpu time    0.6052: real time    0.6052
    --------------------------------------------
      LOOP:  cpu time   19.6650: real time   19.6734

 eigenvalue-minimisations  :     0
 total energy-change (2. order) :-0.3697561E+01  (-0.2729710E+01)
 number of electron     828.0000057 magnetization     130.0000036
 augmentation part      283.1012168 magnetization      88.3406155

 Free energy of the ion-electron system (eV)
  ---------------------------------------------------
  alpha Z        PSCENC =      2332.72493728
  Ewald energy   TEWEN  =    -61288.67685613
  -Hartree energ DENC   =    -30454.07060623
  -exchange      EXHF   =         0.00000000
  -V(xc)+E(xc)   XCENC  =      3497.50717276
  PAW double counting   =     98284.28134053  -101324.30440941
  entropy T*S    EENTRO =        -0.07702478
  eigenvalues    EBANDS =    -12292.68712824
  atomic energy  EATOM  =    100699.33914061
  ---------------------------------------------------
  free energy    TOTEN  =      -545.99518582 eV

  energy without entropy =     -545.91816104  energy(sigma->0) =     -545.95667343


--------------------------------------------------------------------------------------------------------




--------------------------------------- Iteration      1(  13)  ---------------------------------------


    POTLOK:  cpu time    0.4380: real time    0.4382
    SETDIJ:  cpu time    0.4803: real time    0.4803
    TRIAL :  cpu time   14.2126: real time   14.2206
    CORREC:  cpu time    3.8553: real time    3.8566
    CHARGE:  cpu time    0.5935: real time    0.5948
    --------------------------------------------
      LOOP:  cpu time   19.5822: real time   19.5930

 eigenvalue-minimisations  :     0
 total energy-change (2. order) :-0.2573927E+01  (-0.2072605E+01)
 number of electron     828.0000057 magnetization     130.0000036
 augmentation part      283.9438207 magnetization      87.9117647

 Free energy of the ion-electron system (eV)
  ---------------------------------------------------
  alpha Z        PSCENC =      2332.72493728
  Ewald energy   TEWEN  =    -61288.67685613
  -Hartree energ DENC   =    -30580.90578886
  -exchange      EXHF   =         0.00000000
  -V(xc)+E(xc)   XCENC  =      3500.78978932
  PAW double counting   =     98231.96205586  -101279.36209329
  entropy T*S    EENTRO =        -0.10646897
  eigenvalues    EBANDS =    -12164.36327326
  atomic energy  EATOM  =    100699.33914061
  ---------------------------------------------------
  free energy    TOTEN  =      -548.56911326 eV

  energy without entropy =     -548.46264429  energy(sigma->0) =     -548.51587877


--------------------------------------------------------------------------------------------------------




--------------------------------------- Iteration      1(  14)  ---------------------------------------


    POTLOK:  cpu time    0.4361: real time    0.4361
    SETDIJ:  cpu time    0.4802: real time    0.4804
    TRIAL :  cpu time   14.2413: real time   14.2483
    CORREC:  cpu time    3.8489: real time    3.8500
    CHARGE:  cpu time    0.5983: real time    0.5986
    --------------------------------------------
      LOOP:  cpu time   19.6070: real time   19.6157

 eigenvalue-minimisations  :     0
 total energy-change (2. order) :-0.2596785E+01  (-0.1805353E+01)
 number of electron     828.0000057 magnetization     130.0000036
 augmentation part      284.8616068 magnetization      87.5819040

 Free energy of the ion-electron system (eV)
  ---------------------------------------------------
  alpha Z        PSCENC =      2332.72493728
  Ewald energy   TEWEN  =    -61288.67685613
  -Hartree energ DENC   =    -30727.70793573
  -exchange      EXHF   =         0.00000000
  -V(xc)+E(xc)   XCENC  =      3505.67143319
  PAW double counting   =     98252.58361215  -101322.97411789
  entropy T*S    EENTRO =        -0.14797310
  eigenvalues    EBANDS =    -12002.01964287
  atomic energy  EATOM  =    100699.33914061
  ---------------------------------------------------
  free energy    TOTEN  =      -551.16589837 eV

  energy without entropy =     -551.01792527  energy(sigma->0) =     -551.09191182


--------------------------------------------------------------------------------------------------------




--------------------------------------- Iteration      1(  15)  ---------------------------------------


    POTLOK:  cpu time    0.4353: real time    0.4353
    SETDIJ:  cpu time    0.4804: real time    0.4804
    TRIAL :  cpu time   14.2390: real time   14.2458
    CORREC:  cpu time    3.8719: real time    3.8730
    CHARGE:  cpu time    0.6028: real time    0.6028
    --------------------------------------------
      LOOP:  cpu time   19.6315: real time   19.6395

 eigenvalue-minimisations  :     0
 total energy-change (2. order) :-0.1654404E+01  (-0.8690702E+00)
 number of electron     828.0000058 magnetization     130.0000036
 augmentation part      285.4881921 magnetization      87.3059651

 Free energy of the ion-electron system (eV)
  ---------------------------------------------------
  alpha Z        PSCENC =      2332.72493728
  Ewald energy   TEWEN  =    -61288.67685613
  -Hartree energ DENC   =    -30873.03550588
  -exchange      EXHF   =         0.00000000
  -V(xc)+E(xc)   XCENC  =      3510.74595030
  PAW double counting   =     98214.17494524  -101311.87025207
  entropy T*S    EENTRO =        -0.15812605
  eigenvalues    EBANDS =    -11836.07468870
  atomic energy  EATOM  =    100699.33914061
  ---------------------------------------------------
  free energy    TOTEN  =      -552.82030246 eV

  energy without entropy =     -552.66217641  energy(sigma->0) =     -552.74123943


--------------------------------------------------------------------------------------------------------




--------------------------------------- Iteration      1(  16)  ---------------------------------------


    POTLOK:  cpu time    0.4383: real time    0.4394
    SETDIJ:  cpu time    0.4740: real time    0.4741
    TRIAL :  cpu time   14.2408: real time   14.2471
    CORREC:  cpu time    3.8706: real time    3.8718
    CHARGE:  cpu time    0.5960: real time    0.5963
    --------------------------------------------
      LOOP:  cpu time   19.6227: real time   19.6316

 eigenvalue-minimisations  :     0
 total energy-change (2. order) :-0.7313451E+00  (-0.6539455E+00)
 number of electron     828.0000058 magnetization     130.0000036
 augmentation part      285.7646693 magnetization      87.0841538

 Free energy of the ion-electron system (eV)
  ---------------------------------------------------
  alpha Z        PSCENC =      2332.72493728
  Ewald energy   TEWEN  =    -61288.67685613
  -Hartree energ DENC   =    -30968.56266878
  -exchange      EXHF   =         0.00000000
  -V(xc)+E(xc)   XCENC  =      3514.13847196
  PAW double counting   =     98102.66568849  -101219.60419049
  entropy T*S    EENTRO =        -0.14999790
  eigenvalues    EBANDS =    -11725.41804444
  atomic energy  EATOM  =    100699.33914061
  ---------------------------------------------------
  free energy    TOTEN  =      -553.55164754 eV

  energy without entropy =     -553.40164964  energy(sigma->0) =     -553.47664859


--------------------------------------------------------------------------------------------------------




--------------------------------------- Iteration      1(  17)  ---------------------------------------


    POTLOK:  cpu time    0.4390: real time    0.4390
    SETDIJ:  cpu time    0.4736: real time    0.4738
    TRIAL :  cpu time   14.2522: real time   14.2590
    CORREC:  cpu time    3.8699: real time    3.8712
    CHARGE:  cpu time    0.6088: real time    0.6088
    --------------------------------------------
      LOOP:  cpu time   19.6467: real time   19.6549

 eigenvalue-minimisations  :     0
 total energy-change (2. order) :-0.4334512E+00  (-0.4470369E+00)
 number of electron     828.0000058 magnetization     130.0000036
 augmentation part      285.7822899 magnetization      86.8863221

 Free energy of the ion-electron system (eV)
  ---------------------------------------------------
  alpha Z        PSCENC =      2332.72493728
  Ewald energy   TEWEN  =    -61288.67685613
  -Hartree energ DENC   =    -31007.59180497
  -exchange      EXHF   =         0.00000000
  -V(xc)+E(xc)   XCENC  =      3515.55083093
  PAW double counting   =     97916.11175670  -101042.29292830
  entropy T*S    EENTRO =        -0.13531411
  eigenvalues    EBANDS =    -11679.00017697
  atomic energy  EATOM  =    100699.33914061
  ---------------------------------------------------
  free energy    TOTEN  =      -553.98509875 eV

  energy without entropy =     -553.84978464  energy(sigma->0) =     -553.91744170


--------------------------------------------------------------------------------------------------------




--------------------------------------- Iteration      1(  18)  ---------------------------------------


    POTLOK:  cpu time    0.4340: real time    0.4344
    SETDIJ:  cpu time    0.4808: real time    0.4808
    TRIAL :  cpu time   14.2600: real time   14.2669
    CORREC:  cpu time    3.8527: real time    3.8537
    CHARGE:  cpu time    0.6012: real time    0.6015
    --------------------------------------------
      LOOP:  cpu time   19.6320: real time   19.6406

 eigenvalue-minimisations  :     0
 total energy-change (2. order) :-0.2298009E+00  (-0.4473883E+00)
 number of electron     828.0000058 magnetization     130.0000036
 augmentation part      285.5873455 magnetization      86.6754052

 Free energy of the ion-electron system (eV)
  ---------------------------------------------------
  alpha Z        PSCENC =      2332.72493728
  Ewald energy   TEWEN  =    -61288.67685613
  -Hartree energ DENC   =    -31006.54925038
  -exchange      EXHF   =         0.00000000
  -V(xc)+E(xc)   XCENC  =      3515.51150613
  PAW double counting   =     97656.50074851  -100784.42140260
  entropy T*S    EENTRO =        -0.11705226
  eigenvalues    EBANDS =    -11678.50840897
  atomic energy  EATOM  =    100699.33914061
  ---------------------------------------------------
  free energy    TOTEN  =      -554.21489968 eV

  energy without entropy =     -554.09784742  energy(sigma->0) =     -554.15637355


--------------------------------------------------------------------------------------------------------




--------------------------------------- Iteration      1(  19)  ---------------------------------------


    POTLOK:  cpu time    0.4339: real time    0.4344
    SETDIJ:  cpu time    0.4808: real time    0.4808
    TRIAL :  cpu time   14.2179: real time   14.2248
    CORREC:  cpu time    3.8688: real time    3.8705
    CHARGE:  cpu time    0.6000: real time    0.6004
    --------------------------------------------
      LOOP:  cpu time   19.6042: real time   19.6136

 eigenvalue-minimisations  :     0
 total energy-change (2. order) :-0.2748548E+00  (-0.5370612E+00)
 number of electron     828.0000057 magnetization     130.0000037
 augmentation part      285.1864045 magnetization      86.4645115

 Free energy of the ion-electron system (eV)
  ---------------------------------------------------
  alpha Z        PSCENC =      2332.72493728
  Ewald energy   TEWEN  =    -61288.67685613
  -Hartree energ DENC   =    -30973.20579693
  -exchange      EXHF   =         0.00000000
  -V(xc)+E(xc)   XCENC  =      3514.27670398
  PAW double counting   =     97297.83561304  -100421.37439601
  entropy T*S    EENTRO =        -0.10217795
  eigenvalues    EBANDS =    -11715.29204800
  atomic energy  EATOM  =    100699.33914061
  ---------------------------------------------------
  free energy    TOTEN  =      -554.48975444 eV

  energy without entropy =     -554.38757648  energy(sigma->0) =     -554.43866546


--------------------------------------------------------------------------------------------------------




--------------------------------------- Iteration      1(  20)  ---------------------------------------


    POTLOK:  cpu time    0.4387: real time    0.4387
    SETDIJ:  cpu time    0.4748: real time    0.4749
    TRIAL :  cpu time   14.2124: real time   14.2181
    CORREC:  cpu time    3.8408: real time    3.8419
    CHARGE:  cpu time    0.5939: real time    0.5940
    --------------------------------------------
      LOOP:  cpu time   19.5629: real time   19.5699

 eigenvalue-minimisations  :     0
 total energy-change (2. order) :-0.4369714E+00  (-0.5807819E+00)
 number of electron     828.0000057 magnetization     130.0000037
 augmentation part      284.6826064 magnetization      86.2918257

 Free energy of the ion-electron system (eV)
  ---------------------------------------------------
  alpha Z        PSCENC =      2332.72493728
  Ewald energy   TEWEN  =    -61288.67685613
  -Hartree energ DENC   =    -30909.20778185
  -exchange      EXHF   =         0.00000000
  -V(xc)+E(xc)   XCENC  =      3511.88803765
  PAW double counting   =     96861.23506212   -99974.35541903
  entropy T*S    EENTRO =        -0.08742182
  eigenvalues    EBANDS =    -11787.77166856
  atomic energy  EATOM  =    100699.33914061
  ---------------------------------------------------
  free energy    TOTEN  =      -554.92672586 eV

  energy without entropy =     -554.83930404  energy(sigma->0) =     -554.88301495


--------------------------------------------------------------------------------------------------------




--------------------------------------- Iteration      1(  21)  ---------------------------------------


    POTLOK:  cpu time    0.4372: real time    0.4378
    SETDIJ:  cpu time    0.4745: real time    0.4750
    TRIAL :  cpu time   14.2248: real time   14.2326
    CORREC:  cpu time    3.8541: real time    3.8552
    CHARGE:  cpu time    0.6005: real time    0.6008
    --------------------------------------------
      LOOP:  cpu time   19.5935: real time   19.6038

 eigenvalue-minimisations  :     0
 total energy-change (2. order) :-0.5064219E+00  (-0.4961075E+00)
 number of electron     828.0000057 magnetization     130.0000037
 augmentation part      284.3125277 magnetization      86.2196991

 Free energy of the ion-electron system (eV)
  ---------------------------------------------------
  alpha Z        PSCENC =      2332.72493728
  Ewald energy   TEWEN  =    -61288.67685613
[...]
      9.43041     -5.56854      1.99378         0.004543     -0.004546      0.003042
      5.58571      2.12767      1.94168         0.000981     -0.001016     -0.000498
      9.41065     -1.73383      1.97824         0.002508     -0.001051      0.001159
     13.26732     -1.72434      1.93240         0.001834     -0.001437     -0.002001
      7.47531     -7.51139      4.47308        -0.000185     -0.002249     -0.002014
      3.71026      0.16772      4.48804         0.018341     -0.021953     -0.000119
      7.44529     -3.72799      4.42668         0.021693      0.003541      0.013176
     11.38114     -3.65402      4.44025         0.005041     -0.001150     -0.001240
      7.47850     -7.50826      8.38332         0.000672     -0.001623      0.001965
      3.71366      0.17079      8.36201         0.017622     -0.021321      0.000441
      7.44848     -3.72466      8.42363         0.022673      0.003593     -0.012790
     11.38453     -3.65076      8.40339         0.004009     -0.001325      0.002016
      5.58634     -9.40811     10.91759         0.000717     -0.002127      0.001844
      1.74470     -1.71231     10.90220         0.001464     -0.001814      0.001143
      5.56584     -5.57383     10.91945         0.002663      0.000861     -0.000164
      9.43775     -5.56123     10.85617         0.005349     -0.003435     -0.003735
      9.42129      2.13444      1.92967         0.002214      0.000377      0.000418
      5.55849     -5.58121      1.93711         0.001569      0.000306      0.000177
      1.73723     -1.71965      1.95413         0.000815     -0.002960     -0.002130
      5.58199     -1.72760      1.96787         0.002022     -0.004776     -0.012551
      7.50407      0.21548      4.46046        -0.000781     -0.002045      0.000745
     11.32398      0.20425      4.45743         0.000576     -0.001664     -0.000015
      7.51003      4.05541      4.46657         0.003662     -0.001883     -0.001820
      3.63425     -3.66226      4.49500         0.009809      0.002779      0.000633
      7.50739      0.21865      8.38328        -0.000836     -0.003014     -0.000537
      3.63875     -7.48363      8.39268         0.000517     -0.002544     -0.000608
     -0.17516     -3.63255      8.38342         0.003220     -0.001532      0.000998
      3.63745     -3.65905      8.36147         0.010311      0.003374     -0.001288
      5.58939     -1.72031     10.88223         0.003257     -0.004161      0.012861
      9.41797     -1.72652     10.86553         0.001754     -0.001823     -0.001193
      5.59321      2.13503     10.90205         0.000092     -0.001573      0.002122
      1.74031     -5.54929     10.92039         0.001563     -0.000972      0.000077
 -----------------------------------------------------------------------------------
    total drift:                               -0.006986      0.003932      0.002247


--------------------------------------------------------------------------------------------------------



  FREE ENERGIE OF THE ION-ELECTRON SYSTEM (eV)
  ---------------------------------------------------
  free  energy   TOTEN  =      -585.13399090 eV

  energy  without entropy=     -585.10609752  energy(sigma->0) =     -585.12004421



--------------------------------------------------------------------------------------------------------


    POTLOK:  cpu time    0.8996: real time    0.9098


--------------------------------------------------------------------------------------------------------


 NEB: the previous image is higher in energy: T
 NEB: the next image is higher in energy    : F
 NEB: only prev energy greater

 NEB: Tangent
 ----------------------------------------------
      0.00240     -0.00328      0.00262
     -0.00229      0.00166     -0.00027
     -0.00940     -0.00408      0.01493
      0.00510     -0.00527     -0.00209
     -0.00594      0.02542      0.02094
      0.01102     -0.01600      0.00075
      0.00581     -0.09952      0.01429
      0.00329     -0.00129      0.00147
      0.00351     -0.00115     -0.00156
      0.00105     -0.00499     -0.00088
      0.01121     -0.00895     -0.00169
     -0.00558      0.02607     -0.02117
      0.00260     -0.00324     -0.00269
     -0.00226      0.00163      0.00027
     -0.00949     -0.00463     -0.01496
      0.00548     -0.00527      0.00212
      0.00700     -0.00756      0.00285
     -0.00346     -0.00907      0.00084
      0.00136     -0.00162      0.00059
      0.00185     -0.00621     -0.00246
     -0.00237     -0.01511      0.00028
      0.01111     -0.00868      0.00162
      0.00084     -0.00495      0.00089
     -0.05292     -0.00507     -0.04134
     -0.05265     -0.00533      0.04187
      0.00612     -0.09969     -0.01396
      0.01145     -0.01563     -0.00070
     -0.00241     -0.01509     -0.00034
      0.00729     -0.00735     -0.00289
     -0.00360     -0.00909     -0.00087
      0.00133     -0.00156     -0.00056
      0.00184     -0.00614      0.00240
      0.00215      0.00298      0.00254
      0.00066     -0.00568     -0.00744
      0.00068     -0.00560      0.00720
      0.00215      0.00302     -0.00243
      0.01406     -0.02150      0.00017
      0.03044     -0.01132      0.00025
     -0.61978      0.71866      0.00001
     -0.05529     -0.03590     -0.00010
      0.00453      0.00248     -0.00004
     -0.01596     -0.00410      0.00003
      0.02733      0.09663     -0.00018
      0.01129     -0.00985     -0.00006
      0.00486     -0.00087     -0.00267
      0.00722     -0.00189     -0.00000
     -0.00082     -0.00248     -0.00218
     -0.00033     -0.00575      0.00389
      0.00349     -0.00158      0.00108
      0.00263      0.00226     -0.00014
      0.00268      0.00236      0.00010
      0.00350     -0.00160     -0.00101
      0.03774     -0.00824      0.00004
      0.01582     -0.00357     -0.00010
      0.01016     -0.00439     -0.00005
      0.00350     -0.00378     -0.00006
      0.03209      0.01043      0.00006
      0.00767     -0.00624     -0.00021
      0.00145     -0.02330      0.00015
     -0.00045     -0.00580     -0.00406
     -0.00074     -0.00244      0.00226
      0.00712     -0.00189      0.00001
      0.00484     -0.00089      0.00267
      0.01111     -0.00917      0.00000
      0.00365     -0.00409      0.00286
      0.00234     -0.00146     -0.00215
      0.00638     -0.00591      0.00001
      0.00126     -0.00009     -0.00084
      0.11967     -0.04012      0.00008
      0.04485     -0.06159     -0.00002
      0.00126     -0.00008      0.00084
     -0.03969     -0.01321      0.00014
      0.00235     -0.00146      0.00214
      0.00369     -0.00406     -0.00290
      0.00416     -0.00841     -0.00003
      0.00451     -0.00561     -0.00402
     -0.00068     -0.00542     -0.00004
      0.00574     -0.00293     -0.00003
      0.00452     -0.00553      0.00398
      0.01075     -0.00740      0.01407
      0.00231     -0.00426      0.00211
      0.00478     -0.00386      0.00653
      0.00111     -0.00220      0.00072
     -0.00043     -0.00181      0.00015
      0.04121     -0.04790      0.00485
      0.04985      0.00726      0.03213
      0.01019     -0.00584      0.00145
     -0.00052     -0.00189     -0.00021
      0.04118     -0.04786     -0.00477
      0.04965      0.00709     -0.03219
      0.01024     -0.00577     -0.00147
      0.00110     -0.00224     -0.00075
      0.00528     -0.00402     -0.00085
      0.00381      0.00188     -0.00539
      0.01073     -0.00741     -0.01417
      0.00567     -0.00143      0.00252
      0.00381      0.00193      0.00536
      0.00529     -0.00402      0.00084
      0.00644     -0.00907     -0.02287
     -0.00277     -0.00820      0.00395
     -0.00162     -0.00643      0.00342
      0.00661     -0.00382      0.00027
      0.02243      0.00714      0.00574
     -0.00276     -0.00819     -0.00392
     -0.00160     -0.00640     -0.00345
      0.00658     -0.00382     -0.00028
      0.02234      0.00710     -0.00578
      0.00650     -0.00905      0.02304
      0.00480     -0.00390     -0.00648
      0.00232     -0.00423     -0.00209
      0.00565     -0.00145     -0.00257

 NEB: forces: par spring, perp REAL, dneb     0.005587    0.024126    0.000000
 NEB: distance to prev, next image, angle between     0.645185    0.644068  144.919891
 NEB: projections on to tangent (spring, REAL)    -0.005587    0.440922

 stress matrix after NEB project (eV)
    -11.74682      0.78262     -0.01088
      0.78279    -10.81679     -0.00061
     -0.01084     -0.00060    -16.13298
  FORCES: max atom, RMS     0.006551    0.002351
  FORCE total and by dimension    0.024764    0.006453
  Stress total and by dimension   22.726403   16.132983
 OPT: skip step - force has converged


--------------------------------------------------------------------------------------------------------


  
 reached required accuracy - stopping structural energy minimisation
 writing wavefunctions
     LOOP+:  cpu time 4004.1301: real time 4007.9283
    4ORBIT:  cpu time    0.0000: real time    0.0000



 total charge

# of ion       s       p       d       tot
------------------------------------------
    1        0.242   6.210   5.908  12.360
    2        0.241   6.209   5.907  12.356
    3        0.244   6.215   5.913  12.372
    4        0.243   6.213   5.911  12.367
    5        0.244   6.214   5.906  12.364
    6        0.241   6.212   5.907  12.359
    7        0.242   6.210   5.906  12.357
    8        0.240   6.210   5.908  12.359
    9        0.240   6.210   5.908  12.359
   10        0.240   6.210   5.908  12.358
   11        0.241   6.212   5.909  12.362
   12        0.244   6.214   5.906  12.365
   13        0.242   6.210   5.908  12.360
   14        0.241   6.209   5.907  12.356
   15        0.244   6.215   5.913  12.372
   16        0.243   6.213   5.911  12.367
   17        0.242   6.211   5.909  12.362
   18        0.242   6.211   5.909  12.363
   19        0.240   6.208   5.908  12.356
   20        0.239   6.207   5.906  12.353
   21        0.240   6.211   5.909  12.360
   22        0.241   6.212   5.909  12.362
   23        0.240   6.210   5.908  12.358
   24        0.243   6.214   5.906  12.362
   25        0.243   6.214   5.906  12.362
   26        0.242   6.210   5.906  12.357
   27        0.241   6.212   5.907  12.359
   28        0.240   6.211   5.909  12.360
   29        0.242   6.211   5.909  12.362
   30        0.242   6.211   5.909  12.363
   31        0.240   6.208   5.908  12.356
   32        0.239   6.207   5.906  12.353
   33        2.025   0.064   0.000   2.089
   34        2.025   0.064   0.000   2.089
   35        2.025   0.064   0.000   2.089
   36        2.025   0.064   0.000   2.089
   37        2.028   0.068   0.000   2.096
   38        2.022   0.059   0.000   2.082
   39        2.027   0.068   0.000   2.095
   40        2.027   0.067   0.000   2.094
   41        2.025   0.063   0.000   2.088
   42        2.026   0.065   0.000   2.091
   43        2.024   0.061   0.000   2.084
   44        2.025   0.062   0.000   2.087
   45        2.026   0.064   0.000   2.090
   46        2.025   0.064   0.000   2.090
   47        2.026   0.064   0.000   2.090
   48        2.025   0.064   0.000   2.089
   49        2.026   0.065   0.000   2.091
   50        2.025   0.064   0.000   2.089
   51        2.025   0.064   0.000   2.089
   52        2.026   0.065   0.000   2.091
   53        2.026   0.064   0.000   2.089
   54        2.026   0.066   0.000   2.092
   55        2.025   0.063   0.000   2.087
   56        2.027   0.066   0.000   2.093
   57        2.024   0.061   0.000   2.085
   58        2.027   0.067   0.000   2.094
   59        2.026   0.065   0.000   2.091
   60        2.025   0.064   0.000   2.089
   61        2.026   0.064   0.000   2.090
   62        2.025   0.064   0.000   2.090
   63        2.026   0.064   0.000   2.090
   64        1.549   3.503   0.000   5.052
   65        1.549   3.500   0.000   5.048
   66        1.549   3.501   0.000   5.050
   67        1.549   3.498   0.000   5.048
   68        1.549   3.500   0.000   5.048
   69        1.550   3.486   0.000   5.036
   70        1.551   3.493   0.000   5.044
   71        1.549   3.500   0.000   5.048
   72        1.550   3.499   0.000   5.049
   73        1.549   3.501   0.000   5.050
   74        1.549   3.500   0.000   5.049
   75        1.549   3.504   0.000   5.053
   76        1.549   3.502   0.000   5.051
   77        1.549   3.500   0.000   5.049
   78        1.549   3.507   0.000   5.056
   79        1.549   3.502   0.000   5.051
   80        1.320   2.420   0.000   3.740
   81        1.320   2.428   0.000   3.748
   82        1.320   2.422   0.000   3.742
   83        1.320   2.428   0.000   3.748
   84        1.321   2.423   0.000   3.744
   85        1.322   2.415   0.000   3.738
   86        1.320   2.436   0.000   3.756
   87        1.320   2.431   0.000   3.751
   88        1.321   2.423   0.000   3.744
   89        1.322   2.415   0.000   3.738
   90        1.320   2.436   0.000   3.756
   91        1.320   2.431   0.000   3.751
   92        1.320   2.428   0.000   3.748
   93        1.320   2.429   0.000   3.748
   94        1.320   2.429   0.000   3.749
   95        1.320   2.420   0.000   3.740
   96        1.320   2.429   0.000   3.748
   97        1.320   2.429   0.000   3.749
   98        1.320   2.429   0.000   3.749
   99        1.320   2.424   0.000   3.744
  100        1.322   2.417   0.000   3.739
  101        1.321   2.424   0.000   3.745
  102        1.320   2.426   0.000   3.746
  103        1.321   2.422   0.000   3.742
  104        1.322   2.417   0.000   3.739
  105        1.321   2.424   0.000   3.745
  106        1.320   2.426   0.000   3.746
  107        1.321   2.422   0.000   3.742
  108        1.320   2.424   0.000   3.744
  109        1.320   2.422   0.000   3.742
  110        1.320   2.428   0.000   3.748
  111        1.320   2.429   0.000   3.748
--------------------------------------------------
tot        137.564 334.349 189.061 660.975



 magnetization (x)

# of ion       s       p       d       tot
------------------------------------------
    1        0.041   0.030   3.569   3.639
    2        0.041   0.030   3.571   3.642
    3        0.041   0.030   3.562   3.633
    4        0.041   0.030   3.565   3.636
    5        0.042   0.032   3.545   3.618
    6        0.040   0.030   3.559   3.629
    7        0.043   0.030   3.552   3.625
    8        0.040   0.030   3.567   3.637
    9        0.040   0.030   3.567   3.637
   10        0.040   0.030   3.570   3.640
   11        0.039   0.030   3.566   3.635
   12        0.042   0.032   3.544   3.618
   13        0.041   0.030   3.569   3.639
   14        0.041   0.030   3.571   3.642
   15        0.041   0.030   3.562   3.633
   16        0.041   0.030   3.565   3.636
   17        0.041   0.030   3.566   3.637
   18        0.041   0.030   3.567   3.638
   19        0.040   0.030   3.573   3.642
   20        0.040   0.030   3.573   3.643
   21        0.039   0.030   3.569   3.638
   22        0.039   0.030   3.566   3.635
   23        0.040   0.030   3.570   3.640
   24        0.041   0.031   3.551   3.622
   25        0.041   0.031   3.551   3.622
   26        0.043   0.030   3.552   3.625
   27        0.040   0.030   3.559   3.628
   28        0.039   0.030   3.569   3.638
   29        0.041   0.030   3.567   3.637
   30        0.041   0.030   3.567   3.638
   31        0.040   0.030   3.573   3.642
   32        0.040   0.030   3.573   3.643
   33        0.000   0.001   0.000   0.001
   34       -0.000   0.001   0.000   0.001
   35       -0.000   0.001   0.000   0.001
   36        0.000   0.001   0.000   0.001
   37        0.000   0.001   0.000   0.001
   38       -0.000   0.001   0.000   0.000
   39        0.000   0.001   0.000   0.002
   40        0.000   0.001   0.000   0.001
   41       -0.000   0.001   0.000   0.001
   42        0.000   0.001   0.000   0.001
   43       -0.000   0.001   0.000   0.001
   44       -0.000   0.001   0.000   0.001
   45        0.000   0.001   0.000   0.001
   46        0.000   0.001   0.000   0.001
   47        0.000   0.001   0.000   0.001
   48        0.000   0.001   0.000   0.001
   49        0.000   0.001   0.000   0.001
   50        0.000   0.001   0.000   0.001
   51        0.000   0.001   0.000   0.001
   52        0.000   0.001   0.000   0.001
   53       -0.000   0.001   0.000   0.001
   54       -0.000   0.001   0.000   0.001
   55       -0.000   0.001   0.000   0.001
   56        0.000   0.001   0.000   0.001
   57        0.000   0.001   0.000   0.001
   58       -0.000   0.001   0.000   0.001
   59       -0.000   0.001   0.000   0.001
   60        0.000   0.001   0.000   0.001
   61        0.000   0.001   0.000   0.001
   62        0.000   0.001   0.000   0.001
   63        0.000   0.001   0.000   0.001
   64        0.009   0.099   0.000   0.108
   65        0.009   0.094   0.000   0.102
   66        0.009   0.094   0.000   0.102
   67        0.009   0.091   0.000   0.100
   68        0.009   0.095   0.000   0.104
   69        0.009   0.092   0.000   0.101
   70        0.008   0.097   0.000   0.105
   71        0.009   0.095   0.000   0.104
   72        0.008   0.098   0.000   0.106
   73        0.009   0.094   0.000   0.102
   74        0.009   0.094   0.000   0.102
   75        0.009   0.097   0.000   0.106
   76        0.009   0.095   0.000   0.103
   77        0.009   0.096   0.000   0.105
   78        0.009   0.098   0.000   0.107
   79        0.009   0.095   0.000   0.103
   80        0.015   0.054   0.000   0.069
   81        0.016   0.062   0.000   0.078
   82        0.015   0.056   0.000   0.071
   83        0.016   0.063   0.000   0.079
   84        0.015   0.059   0.000   0.074
   85        0.015   0.051   0.000   0.066
   86        0.015   0.049   0.000   0.065
   87        0.015   0.051   0.000   0.067
   88        0.015   0.059   0.000   0.074
   89        0.015   0.051   0.000   0.066
   90        0.015   0.049   0.000   0.065
   91        0.015   0.051   0.000   0.067
   92        0.016   0.063   0.000   0.079
   93        0.016   0.065   0.000   0.081
   94        0.016   0.065   0.000   0.081
   95        0.015   0.054   0.000   0.069
   96        0.016   0.064   0.000   0.080
   97        0.016   0.065   0.000   0.081
   98        0.016   0.065   0.000   0.081
   99        0.016   0.057   0.000   0.073
  100        0.015   0.052   0.000   0.067
  101        0.016   0.063   0.000   0.079
  102        0.016   0.066   0.000   0.082
  103        0.015   0.062   0.000   0.077
  104        0.015   0.052   0.000   0.067
  105        0.016   0.063   0.000   0.079
  106        0.016   0.066   0.000   0.082
  107        0.015   0.062   0.000   0.077
  108        0.016   0.057   0.000   0.073
  109        0.015   0.056   0.000   0.071
  110        0.016   0.062   0.000   0.078
  111        0.016   0.064   0.000   0.080
--------------------------------------------------
tot          1.936   4.387 114.052 120.375


 total amount of memory used by VASP MPI-rank0   753861. kBytes
=======================================================================

   base      :      30000. kBytes
   nonl-proj :      65627. kBytes
   fftplans  :      12748. kBytes
   grid      :      36360. kBytes
   one-center:        870. kBytes
   wavefun   :     608256. kBytes

  
  
 General timing and accounting informations for this job:
 ========================================================
  
                  Total CPU time used (sec):     4071.881
                            User time (sec):     4048.795
                          System time (sec):       23.086
                         Elapsed time (sec):     4089.026
  
                   Maximum memory used (kb):     1166092.
                   Average memory used (kb):          N/A
  
                          Minor page faults:      2677378
                          Major page faults:            2
                 Voluntary context switches:         4998
