 108 108   0   0
  0.1367340E+02  0.1151037E-08  0.1132740E-08  0.1132740E-08  0.5000000E-15
  1.000000000000000E-004
  CAR 
 unknown system                          
     17.82399490    -54.65581751  301      5.29102734      1.00000000
    -54.656  0.0000E+00  0.0000E+00  0.0000E+00  0.0000E+00
    -54.414  0.0000E+00  0.0000E+00  0.0000E+00  0.0000E+00
    -54.173  0.0000E+00  0.0000E+00  0.0000E+00  0.0000E+00
    -53.931  0.0000E+00  0.0000E+00  0.0000E+00  0.0000E+00
    -53.689  0.0000E+00  0.0000E+00  0.0000E+00  0.0000E+00
    -53.448  0.0000E+00  0.0000E+00  0.0000E+00  0.0000E+00
    -53.206  0.0000E+00  0.0000E+00  0.0000E+00  0.0000E+00
    -52.965  0.0000E+00  0.0000E+00  0.0000E+00  0.0000E+00
    -52.723  0.0000E+00  0.0000E+00  0.0000E+00  0.0000E+00
    -52.481  0.0000E+00  0.0000E+00  0.0000E+00  0.0000E+00
    -52.240  0.0000E+00  0.0000E+00  0.0000E+00  0.0000E+00
    -51.998  0.0000E+00  0.0000E+00  0.0000E+00  0.0000E+00
    -51.757  0.0000E+00  0.0000E+00  0.0000E+00  0.0000E+00
    -51.515  0.4767E-03  0.0000E+00  0.1152E-03  0.0000E+00
    -51.273  0.9853E+02  0.0000E+00  0.2380E+02  0.0000E+00
    -51.032  0.4365E+02  0.0000E+00  0.3435E+02  0.0000E+00
    -50.790  0.6832E+01  0.0000E+00  0.3600E+02  0.0000E+00
    -50.549  0.0000E+00  0.0000E+00  0.3600E+02  0.0000E+00
    -50.307  0.2246E-03  0.0000E+00  0.3600E+02  0.0000E+00
    -50.065  0.9810E+02  0.0000E+00  0.5970E+02  0.0000E+00
    -49.824  0.5215E+02  0.0000E+00  0.7230E+02  0.0000E+00
    -49.582  0.1230E+03  0.0000E+00  0.1020E+03  0.0000E+00
    -49.341  0.2479E+02  0.0000E+00  0.1080E+03  0.0000E+00
    -49.099  0.0000E+00  0.0000E+00  0.1080E+03  0.0000E+00
    -48.857  0.0000E+00  0.0000E+00  0.1080E+03  0.0000E+00
    -48.616  0.0000E+00  0.0000E+00  0.1080E+03  0.0000E+00
    -48.374  0.0000E+00  0.0000E+00  0.1080E+03  0.0000E+00
    -48.133  0.0000E+00  0.0000E+00  0.1080E+03  0.0000E+00
    -47.891  0.0000E+00  0.0000E+00  0.1080E+03  0.0000E+00
    -47.649  0.0000E+00  0.0000E+00  0.1080E+03  0.0000E+00
    -47.408  0.0000E+00  0.0000E+00  0.1080E+03  0.0000E+00
    -47.166  0.0000E+00  0.0000E+00  0.1080E+03  0.0000E+00
    -46.925  0.0000E+00  0.0000E+00  0.1080E+03  0.0000E+00
    -46.683  0.0000E+00  0.1551E+01  0.1080E+03  0.3748E+00
    -46.441  0.0000E+00  0.9782E+02  0.1080E+03  0.2401E+02
    -46.200  0.0000E+00  0.1769E+03  0.1080E+03  0.6675E+02
    -45.958  0.0000E+00  0.8273E+02  0.1080E+03  0.8674E+02
    -45.717  0.0000E+00  0.8800E+02  0.1080E+03  0.1080E+03
    -45.475  0.0000E+00  0.3121E-03  0.1080E+03  0.1080E+03
    -45.233  0.0000E+00  0.0000E+00  0.1080E+03  0.1080E+03
    -44.992  0.0000E+00  0.0000E+00  0.1080E+03  0.1080E+03
    -44.750  0.0000E+00  0.0000E+00  0.1080E+03  0.1080E+03
    -44.509  0.0000E+00  0.0000E+00  0.1080E+03  0.1080E+03
    -44.267  0.0000E+00  0.0000E+00  0.1080E+03  0.1080E+03
    -44.025  0.0000E+00  0.0000E+00  0.1080E+03  0.1080E+03
    -43.784  0.0000E+00  0.0000E+00  0.1080E+03  0.1080E+03
    -43.542  0.0000E+00  0.0000E+00  0.1080E+03  0.1080E+03
    -43.301  0.0000E+00  0.0000E+00  0.1080E+03  0.1080E+03
    -43.059  0.0000E+00  0.0000E+00  0.1080E+03  0.1080E+03
    -42.817  0.0000E+00  0.0000E+00  0.1080E+03  0.1080E+03
    -42.576  0.0000E+00  0.0000E+00  0.1080E+03  0.1080E+03
    -42.334  0.0000E+00  0.0000E+00  0.1080E+03  0.1080E+03
    -42.093  0.0000E+00  0.0000E+00  0.1080E+03  0.1080E+03
    -41.851  0.0000E+00  0.0000E+00  0.1080E+03  0.1080E+03
    -41.609  0.0000E+00  0.0000E+00  0.1080E+03  0.1080E+03
    -41.368  0.0000E+00  0.0000E+00  0.1080E+03  0.1080E+03
    -41.126  0.0000E+00  0.0000E+00  0.1080E+03  0.1080E+03
    -40.885  0.0000E+00  0.0000E+00  0.1080E+03  0.1080E+03
    -40.643  0.0000E+00  0.0000E+00  0.1080E+03  0.1080E+03
    -40.401  0.4643E-12  0.9032E-12  0.1080E+03  0.1080E+03
    -40.160  0.1787E+02  0.2017E+02  0.1123E+03  0.1129E+03
    -39.918  0.8147E+02  0.7917E+02  0.1320E+03  0.1320E+03
    -39.677  0.0000E+00  0.0000E+00  0.1320E+03  0.1320E+03
    -39.435  0.0000E+00  0.0000E+00  0.1320E+03  0.1320E+03
    -39.193  0.0000E+00  0.0000E+00  0.1320E+03  0.1320E+03
    -38.952  0.0000E+00  0.0000E+00  0.1320E+03  0.1320E+03
    -38.710  0.0000E+00  0.0000E+00  0.1320E+03  0.1320E+03
    -38.469  0.0000E+00  0.0000E+00  0.1320E+03  0.1320E+03
    -38.227  0.0000E+00  0.0000E+00  0.1320E+03  0.1320E+03
    -37.985  0.0000E+00  0.0000E+00  0.1320E+03  0.1320E+03
    -37.744  0.0000E+00  0.0000E+00  0.1320E+03  0.1320E+03
    -37.502  0.0000E+00  0.0000E+00  0.1320E+03  0.1320E+03
    -37.261  0.0000E+00  0.0000E+00  0.1320E+03  0.1320E+03
    -37.019  0.0000E+00  0.0000E+00  0.1320E+03  0.1320E+03
    -36.777  0.0000E+00  0.0000E+00  0.1320E+03  0.1320E+03
    -36.536  0.0000E+00  0.0000E+00  0.1320E+03  0.1320E+03
    -36.294  0.0000E+00  0.0000E+00  0.1320E+03  0.1320E+03
    -36.053  0.0000E+00  0.0000E+00  0.1320E+03  0.1320E+03
    -35.811  0.0000E+00  0.0000E+00  0.1320E+03  0.1320E+03
    -35.569  0.0000E+00  0.0000E+00  0.1320E+03  0.1320E+03
    -35.328  0.0000E+00  0.0000E+00  0.1320E+03  0.1320E+03
    -35.086  0.0000E+00  0.0000E+00  0.1320E+03  0.1320E+03
    -34.845  0.0000E+00  0.0000E+00  0.1320E+03  0.1320E+03
    -34.603  0.0000E+00  0.0000E+00  0.1320E+03  0.1320E+03
    -34.361  0.0000E+00  0.0000E+00  0.1320E+03  0.1320E+03
    -34.120  0.0000E+00  0.0000E+00  0.1320E+03  0.1320E+03
    -33.878  0.0000E+00  0.0000E+00  0.1320E+03  0.1320E+03
    -33.637  0.0000E+00  0.0000E+00  0.1320E+03  0.1320E+03
    -33.395  0.0000E+00  0.0000E+00  0.1320E+03  0.1320E+03
    -33.153  0.0000E+00  0.0000E+00  0.1320E+03  0.1320E+03
    -32.912  0.0000E+00  0.0000E+00  0.1320E+03  0.1320E+03
    -32.670  0.0000E+00  0.0000E+00  0.1320E+03  0.1320E+03
    -32.429  0.0000E+00  0.0000E+00  0.1320E+03  0.1320E+03
    -32.187  0.0000E+00  0.0000E+00  0.1320E+03  0.1320E+03
    -31.945  0.0000E+00  0.0000E+00  0.1320E+03  0.1320E+03
    -31.704  0.0000E+00  0.0000E+00  0.1320E+03  0.1320E+03
    -31.462  0.0000E+00  0.0000E+00  0.1320E+03  0.1320E+03
    -31.221  0.0000E+00  0.0000E+00  0.1320E+03  0.1320E+03
    -30.979  0.0000E+00  0.0000E+00  0.1320E+03  0.1320E+03
    -30.737  0.0000E+00  0.0000E+00  0.1320E+03  0.1320E+03
    -30.496  0.0000E+00  0.0000E+00  0.1320E+03  0.1320E+03
    -30.254  0.0000E+00  0.0000E+00  0.1320E+03  0.1320E+03
    -30.013  0.0000E+00  0.0000E+00  0.1320E+03  0.1320E+03
    -29.771  0.0000E+00  0.0000E+00  0.1320E+03  0.1320E+03
    -29.529  0.0000E+00  0.0000E+00  0.1320E+03  0.1320E+03
    -29.288  0.0000E+00  0.0000E+00  0.1320E+03  0.1320E+03
    -29.046  0.0000E+00  0.0000E+00  0.1320E+03  0.1320E+03
    -28.805  0.0000E+00  0.0000E+00  0.1320E+03  0.1320E+03
    -28.563  0.0000E+00  0.0000E+00  0.1320E+03  0.1320E+03
    -28.321  0.0000E+00  0.0000E+00  0.1320E+03  0.1320E+03
    -28.080  0.0000E+00  0.0000E+00  0.1320E+03  0.1320E+03
    -27.838  0.0000E+00  0.0000E+00  0.1320E+03  0.1320E+03
    -27.597  0.0000E+00  0.0000E+00  0.1320E+03  0.1320E+03
    -27.355  0.0000E+00  0.0000E+00  0.1320E+03  0.1320E+03
    -27.113  0.0000E+00  0.0000E+00  0.1320E+03  0.1320E+03
    -26.872  0.0000E+00  0.0000E+00  0.1320E+03  0.1320E+03
    -26.630  0.0000E+00  0.0000E+00  0.1320E+03  0.1320E+03
    -26.389  0.0000E+00  0.0000E+00  0.1320E+03  0.1320E+03
    -26.147  0.0000E+00  0.0000E+00  0.1320E+03  0.1320E+03
    -25.905  0.0000E+00  0.0000E+00  0.1320E+03  0.1320E+03
    -25.664  0.0000E+00  0.0000E+00  0.1320E+03  0.1320E+03
    -25.422  0.0000E+00  0.0000E+00  0.1320E+03  0.1320E+03
    -25.181  0.0000E+00  0.0000E+00  0.1320E+03  0.1320E+03
    -24.939  0.0000E+00  0.0000E+00  0.1320E+03  0.1320E+03
    -24.697  0.0000E+00  0.0000E+00  0.1320E+03  0.1320E+03
    -24.456  0.0000E+00  0.0000E+00  0.1320E+03  0.1320E+03
    -24.214  0.0000E+00  0.0000E+00  0.1320E+03  0.1320E+03
    -23.973  0.0000E+00  0.0000E+00  0.1320E+03  0.1320E+03
    -23.731  0.0000E+00  0.0000E+00  0.1320E+03  0.1320E+03
    -23.489  0.0000E+00  0.0000E+00  0.1320E+03  0.1320E+03
    -23.248  0.0000E+00  0.0000E+00  0.1320E+03  0.1320E+03
    -23.006  0.0000E+00  0.0000E+00  0.1320E+03  0.1320E+03
    -22.765  0.0000E+00  0.0000E+00  0.1320E+03  0.1320E+03
    -22.523  0.0000E+00  0.0000E+00  0.1320E+03  0.1320E+03
    -22.282  0.0000E+00  0.0000E+00  0.1320E+03  0.1320E+03
    -22.040  0.0000E+00  0.0000E+00  0.1320E+03  0.1320E+03
    -21.798  0.0000E+00  0.0000E+00  0.1320E+03  0.1320E+03
    -21.557  0.0000E+00  0.0000E+00  0.1320E+03  0.1320E+03
    -21.315  0.0000E+00  0.0000E+00  0.1320E+03  0.1320E+03
    -21.074  0.0000E+00  0.0000E+00  0.1320E+03  0.1320E+03
    -20.832  0.0000E+00  0.0000E+00  0.1320E+03  0.1320E+03
    -20.590  0.0000E+00  0.0000E+00  0.1320E+03  0.1320E+03
    -20.349  0.0000E+00  0.0000E+00  0.1320E+03  0.1320E+03
    -20.107  0.0000E+00  0.0000E+00  0.1320E+03  0.1320E+03
    -19.866  0.0000E+00  0.0000E+00  0.1320E+03  0.1320E+03
    -19.624  0.0000E+00  0.0000E+00  0.1320E+03  0.1320E+03
    -19.382  0.0000E+00  0.0000E+00  0.1320E+03  0.1320E+03
    -19.141  0.0000E+00  0.0000E+00  0.1320E+03  0.1320E+03
    -18.899  0.0000E+00  0.0000E+00  0.1320E+03  0.1320E+03
    -18.658  0.0000E+00  0.0000E+00  0.1320E+03  0.1320E+03
    -18.416  0.0000E+00  0.0000E+00  0.1320E+03  0.1320E+03
    -18.174  0.0000E+00  0.0000E+00  0.1320E+03  0.1320E+03
    -17.933  0.0000E+00  0.0000E+00  0.1320E+03  0.1320E+03
    -17.691  0.0000E+00  0.0000E+00  0.1320E+03  0.1320E+03
    -17.450  0.0000E+00  0.0000E+00  0.1320E+03  0.1320E+03
    -17.208  0.0000E+00  0.0000E+00  0.1320E+03  0.1320E+03
    -16.966  0.0000E+00  0.0000E+00  0.1320E+03  0.1320E+03
    -16.725  0.0000E+00  0.0000E+00  0.1320E+03  0.1320E+03
    -16.483  0.0000E+00  0.0000E+00  0.1320E+03  0.1320E+03
    -16.242  0.0000E+00  0.0000E+00  0.1320E+03  0.1320E+03
    -16.000  0.0000E+00  0.0000E+00  0.1320E+03  0.1320E+03
    -15.758  0.0000E+00  0.0000E+00  0.1320E+03  0.1320E+03
    -15.517  0.0000E+00  0.0000E+00  0.1320E+03  0.1320E+03
    -15.275  0.0000E+00  0.0000E+00  0.1320E+03  0.1320E+03
    -15.034  0.0000E+00  0.0000E+00  0.1320E+03  0.1320E+03
    -14.792  0.0000E+00  0.0000E+00  0.1320E+03  0.1320E+03
    -14.550  0.0000E+00  0.0000E+00  0.1320E+03  0.1320E+03
    -14.309  0.0000E+00  0.0000E+00  0.1320E+03  0.1320E+03
    -14.067  0.0000E+00  0.0000E+00  0.1320E+03  0.1320E+03
    -13.826  0.1606E-11  0.0000E+00  0.1320E+03  0.1320E+03
    -13.584  0.2361E+01  0.0000E+00  0.1326E+03  0.1320E+03
    -13.342  0.5802E+02  0.1780E-05  0.1466E+03  0.1320E+03
    -13.101  0.3882E+02  0.1909E+02  0.1560E+03  0.1366E+03
    -12.859  0.1359E+00  0.7624E+02  0.1560E+03  0.1550E+03
    -12.618  0.0000E+00  0.4011E+01  0.1560E+03  0.1560E+03
    -12.376  0.0000E+00  0.0000E+00  0.1560E+03  0.1560E+03
    -12.134  0.0000E+00  0.0000E+00  0.1560E+03  0.1560E+03
    -11.893  0.0000E+00  0.0000E+00  0.1560E+03  0.1560E+03
    -11.651  0.0000E+00  0.0000E+00  0.1560E+03  0.1560E+03
    -11.410  0.0000E+00  0.0000E+00  0.1560E+03  0.1560E+03
    -11.168  0.0000E+00  0.0000E+00  0.1560E+03  0.1560E+03
    -10.926  0.0000E+00  0.0000E+00  0.1560E+03  0.1560E+03
    -10.685  0.0000E+00  0.0000E+00  0.1560E+03  0.1560E+03
    -10.443  0.0000E+00  0.0000E+00  0.1560E+03  0.1560E+03
    -10.202  0.0000E+00  0.0000E+00  0.1560E+03  0.1560E+03
     -9.960  0.0000E+00  0.0000E+00  0.1560E+03  0.1560E+03
     -9.718  0.0000E+00  0.0000E+00  0.1560E+03  0.1560E+03
     -9.477  0.0000E+00  0.0000E+00  0.1560E+03  0.1560E+03
     -9.235  0.0000E+00  0.0000E+00  0.1560E+03  0.1560E+03
     -8.994  0.0000E+00  0.0000E+00  0.1560E+03  0.1560E+03
     -8.752  0.0000E+00  0.0000E+00  0.1560E+03  0.1560E+03
     -8.510  0.0000E+00  0.0000E+00  0.1560E+03  0.1560E+03
     -8.269  0.0000E+00  0.0000E+00  0.1560E+03  0.1560E+03
     -8.027  0.0000E+00  0.0000E+00  0.1560E+03  0.1560E+03
     -7.786  0.3381E-13  0.0000E+00  0.1560E+03  0.1560E+03
     -7.544  0.2244E+00  0.4255E-16  0.1561E+03  0.1560E+03
     -7.302  0.2240E+02  0.6779E-01  0.1615E+03  0.1560E+03
     -7.061  0.4721E+02  0.2454E+02  0.1729E+03  0.1619E+03
     -6.819  0.2926E+02  0.4657E+02  0.1799E+03  0.1732E+03
     -6.578  0.2437E+00  0.2667E+02  0.1800E+03  0.1796E+03
     -6.336  0.0000E+00  0.1490E+01  0.1800E+03  0.1800E+03
     -6.094  0.0000E+00  0.0000E+00  0.1800E+03  0.1800E+03
     -5.853  0.0000E+00  0.0000E+00  0.1800E+03  0.1800E+03
     -5.611  0.0000E+00  0.0000E+00  0.1800E+03  0.1800E+03
     -5.370  0.0000E+00  0.0000E+00  0.1800E+03  0.1800E+03
     -5.128  0.0000E+00  0.0000E+00  0.1800E+03  0.1800E+03
     -4.886  0.0000E+00  0.0000E+00  0.1800E+03  0.1800E+03
     -4.645  0.0000E+00  0.0000E+00  0.1800E+03  0.1800E+03
     -4.403  0.0000E+00  0.0000E+00  0.1800E+03  0.1800E+03
     -4.162  0.0000E+00  0.0000E+00  0.1800E+03  0.1800E+03
     -3.920  0.0000E+00  0.0000E+00  0.1800E+03  0.1800E+03
     -3.678  0.0000E+00  0.0000E+00  0.1800E+03  0.1800E+03
     -3.437  0.0000E+00  0.0000E+00  0.1800E+03  0.1800E+03
     -3.195  0.0000E+00  0.0000E+00  0.1800E+03  0.1800E+03
     -2.954  0.0000E+00  0.0000E+00  0.1800E+03  0.1800E+03
     -2.712  0.0000E+00  0.0000E+00  0.1800E+03  0.1800E+03
     -2.470  0.0000E+00  0.0000E+00  0.1800E+03  0.1800E+03
     -2.229  0.1454E-01  0.0000E+00  0.1800E+03  0.1800E+03
     -1.987  0.2725E+02  0.0000E+00  0.1866E+03  0.1800E+03
     -1.746  0.5013E+02  0.0000E+00  0.1987E+03  0.1800E+03
     -1.504  0.1582E+02  0.0000E+00  0.2025E+03  0.1800E+03
     -1.262  0.1903E+02  0.0000E+00  0.2071E+03  0.1800E+03
     -1.021  0.5915E+02  0.1583E-03  0.2214E+03  0.1800E+03
     -0.779  0.7329E+02  0.1907E+01  0.2391E+03  0.1805E+03
     -0.538  0.6481E+02  0.1001E+02  0.2548E+03  0.1829E+03
     -0.296  0.6331E+02  0.2039E+02  0.2701E+03  0.1878E+03
     -0.054  0.6206E+02  0.3415E+02  0.2851E+03  0.1961E+03
      0.187  0.5481E+02  0.2516E+02  0.2983E+03  0.2021E+03
      0.429  0.1067E+03  0.3706E+02  0.3241E+03  0.2111E+03
      0.670  0.5269E+02  0.3617E+02  0.3368E+03  0.2198E+03
      0.912  0.4681E+02  0.5714E+02  0.3481E+03  0.2336E+03
      1.154  0.5301E+02  0.5596E+02  0.3609E+03  0.2471E+03
      1.395  0.6426E+02  0.1980E+02  0.3764E+03  0.2519E+03
      1.637  0.5397E+02  0.2521E+02  0.3895E+03  0.2580E+03
      1.878  0.5844E+02  0.4735E+02  0.4036E+03  0.2695E+03
      2.120  0.4839E+02  0.3571E+02  0.4153E+03  0.2781E+03
      2.362  0.2754E+02  0.3019E+02  0.4219E+03  0.2854E+03
      2.603  0.3528E+02  0.3337E+02  0.4305E+03  0.2934E+03
      2.845  0.3375E+02  0.4466E+02  0.4386E+03  0.3042E+03
      3.086  0.3660E+02  0.3815E+02  0.4475E+03  0.3135E+03
      3.328  0.3371E+02  0.5961E+02  0.4556E+03  0.3279E+03
      3.570  0.2571E+02  0.2791E+02  0.4618E+03  0.3346E+03
      3.811  0.4117E+02  0.9318E+01  0.4718E+03  0.3368E+03
      4.053  0.4595E+02  0.1085E+02  0.4829E+03  0.3395E+03
      4.294  0.3576E+02  0.4077E+02  0.4915E+03  0.3493E+03
      4.536  0.3622E+02  0.2269E+02  0.5003E+03  0.3548E+03
      4.778  0.1544E+02  0.1992E+02  0.5040E+03  0.3596E+03
      5.019  0.1271E-01  0.1584E+01  0.5040E+03  0.3600E+03
      5.261  0.0000E+00  0.1870E-04  0.5040E+03  0.3600E+03
      5.502  0.0000E+00  0.0000E+00  0.5040E+03  0.3600E+03
      5.744  0.0000E+00  0.0000E+00  0.5040E+03  0.3600E+03
      5.986  0.0000E+00  0.2171E-07  0.5040E+03  0.3600E+03
      6.227  0.0000E+00  0.3153E+00  0.5040E+03  0.3601E+03
      6.469  0.0000E+00  0.3678E+01  0.5040E+03  0.3610E+03
      6.710  0.4621E-02  0.9752E+01  0.5040E+03  0.3633E+03
      6.952  0.1487E+00  0.3271E+02  0.5040E+03  0.3712E+03
      7.194  0.3160E+00  0.7773E+02  0.5041E+03  0.3900E+03
      7.435  0.7596E+00  0.6509E+02  0.5043E+03  0.4057E+03
      7.677  0.2529E+01  0.5154E+02  0.5049E+03  0.4182E+03
      7.918  0.2207E+01  0.8553E+02  0.5054E+03  0.4388E+03
      8.160  0.2118E+01  0.7832E+02  0.5060E+03  0.4578E+03
      8.402  0.5337E+01  0.5285E+02  0.5072E+03  0.4705E+03
      8.643  0.7896E+01  0.7292E+02  0.5092E+03  0.4882E+03
      8.885  0.1652E+02  0.4507E+02  0.5131E+03  0.4990E+03
      9.126  0.1348E+02  0.2216E+02  0.5164E+03  0.5044E+03
      9.368  0.1855E+02  0.4838E+01  0.5209E+03  0.5056E+03
      9.610  0.1986E+02  0.6634E+01  0.5257E+03  0.5072E+03
      9.851  0.1784E+02  0.1157E+02  0.5300E+03  0.5100E+03
     10.093  0.1801E+02  0.1442E+02  0.5343E+03  0.5134E+03
     10.334  0.1977E+02  0.1813E+02  0.5391E+03  0.5178E+03
     10.576  0.2425E+02  0.3197E+02  0.5450E+03  0.5255E+03
     10.818  0.2129E+02  0.2821E+02  0.5501E+03  0.5324E+03
     11.059  0.2851E+02  0.2192E+02  0.5570E+03  0.5377E+03
     11.301  0.2879E+02  0.2485E+02  0.5640E+03  0.5437E+03
     11.542  0.2220E+02  0.2208E+02  0.5693E+03  0.5490E+03
     11.784  0.2724E+02  0.2152E+02  0.5759E+03  0.5542E+03
     12.026  0.3937E+02  0.1858E+02  0.5854E+03  0.5587E+03
     12.267  0.3439E+02  0.3063E+02  0.5937E+03  0.5661E+03
     12.509  0.2812E+02  0.4273E+02  0.6005E+03  0.5764E+03
     12.750  0.2535E+02  0.3530E+02  0.6066E+03  0.5849E+03
     12.992  0.2862E+02  0.2852E+02  0.6136E+03  0.5918E+03
     13.234  0.2536E+02  0.2740E+02  0.6197E+03  0.5985E+03
     13.475  0.2166E+02  0.3663E+02  0.6249E+03  0.6073E+03
     13.717  0.1794E+02  0.2945E+02  0.6293E+03  0.6144E+03
     13.958  0.2926E+01  0.2309E+02  0.6300E+03  0.6200E+03
     14.200  0.1780E+00  0.2362E+02  0.6300E+03  0.6257E+03
     14.442  0.0000E+00  0.1641E+02  0.6300E+03  0.6297E+03
     14.683  0.0000E+00  0.1388E+01  0.6300E+03  0.6300E+03
     14.925  0.0000E+00  0.2101E-05  0.6300E+03  0.6300E+03
     15.166  0.0000E+00  0.0000E+00  0.6300E+03  0.6300E+03
     15.408  0.0000E+00  0.0000E+00  0.6300E+03  0.6300E+03
     15.650  0.0000E+00  0.0000E+00  0.6300E+03  0.6300E+03
     15.891  0.0000E+00  0.0000E+00  0.6300E+03  0.6300E+03
     16.133  0.0000E+00  0.0000E+00  0.6300E+03  0.6300E+03
     16.374  0.0000E+00  0.0000E+00  0.6300E+03  0.6300E+03
     16.616  0.0000E+00  0.0000E+00  0.6300E+03  0.6300E+03
     16.858  0.0000E+00  0.0000E+00  0.6300E+03  0.6300E+03
     17.099  0.0000E+00  0.0000E+00  0.6300E+03  0.6300E+03
     17.341  0.0000E+00  0.0000E+00  0.6300E+03  0.6300E+03
     17.582  0.0000E+00  0.0000E+00  0.6300E+03  0.6300E+03
     17.824  0.0000E+00  0.0000E+00  0.6300E+03  0.6300E+03
