 vasp.5.4.4.18Apr17-6-g9f103f2a35 (build Oct 25 2017 14:42:18) complex          
  
 executed on             LinuxIFC date 2021.06.17  05:51:30
 running on   48 total cores
 distrk:  each k-point on   24 cores,    2 groups
 distr:  one band on NCORES_PER_BAND=   6 cores,    4 groups


--------------------------------------------------------------------------------------------------------


 INCAR:
 POTCAR:    PAW_PBE Li_sv 10Sep2004               
 POTCAR:    PAW_PBE Fe_pv 02Aug2007               
 POTCAR:    PAW_PBE S 06Sep2000                   
 POTCAR:    PAW_PBE O 08Apr2002                   

 ----------------------------------------------------------------------------- 
|                                                                             |
|           W    W    AA    RRRRR   N    N  II  N    N   GGGG   !!!           |
|           W    W   A  A   R    R  NN   N  II  NN   N  G    G  !!!           |
|           W    W  A    A  R    R  N N  N  II  N N  N  G       !!!           |
|           W WW W  AAAAAA  RRRRR   N  N N  II  N  N N  G  GGG   !            |
|           WW  WW  A    A  R   R   N   NN  II  N   NN  G    G                |
|           W    W  A    A  R    R  N    N  II  N    N   GGGG   !!!           |
|                                                                             |
|      You have enabled k-point parallelism (KPAR>1).                         |
|      This developmental code was originally  written by Paul Kent at ORNL,  |
|      and carefully double checked in Vienna.                                |
|      GW as well as linear response parallelism added by Martijn Marsman     |
|      and Georg Kresse.                                                      |
|      Carefully verify results versus KPAR=1.                                |
|      Report problems to Paul Kent and Vienna.                               |
|                                                                             |
 ----------------------------------------------------------------------------- 

 POTCAR:    PAW_PBE Li_sv 10Sep2004               
  local pseudopotential read in
  atomic valenz-charges read in
  non local Contribution for L=           0  read in
    real space projection operators read in
  non local Contribution for L=           0  read in
    real space projection operators read in
  non local Contribution for L=           1  read in
    real space projection operators read in
    PAW grid and wavefunctions read in
 
   number of l-projection  operators is LMAX  =           3
   number of lm-projection operators is LMMAX =           5
 
 POTCAR:    PAW_PBE Fe_pv 02Aug2007               
  local pseudopotential read in
  partial core-charges read in
  partial kinetic energy density read in
  atomic valenz-charges read in
  non local Contribution for L=           1  read in
    real space projection operators read in
  non local Contribution for L=           1  read in
    real space projection operators read in
  non local Contribution for L=           2  read in
    real space projection operators read in
  non local Contribution for L=           2  read in
    real space projection operators read in
  non local Contribution for L=           0  read in
    real space projection operators read in
  non local Contribution for L=           0  read in
    real space projection operators read in
    PAW grid and wavefunctions read in
 
   number of l-projection  operators is LMAX  =           6
   number of lm-projection operators is LMMAX =          18
 
 POTCAR:    PAW_PBE S 06Sep2000                   
  local pseudopotential read in
  partial core-charges read in
  partial kinetic energy density read in
  atomic valenz-charges read in
  non local Contribution for L=           0  read in
    real space projection operators read in
  non local Contribution for L=           0  read in
    real space projection operators read in
  non local Contribution for L=           1  read in
    real space projection operators read in
  non local Contribution for L=           1  read in
    real space projection operators read in
    PAW grid and wavefunctions read in
 
   number of l-projection  operators is LMAX  =           4
   number of lm-projection operators is LMMAX =           8
 
 POTCAR:    PAW_PBE O 08Apr2002                   
  local pseudopotential read in
  partial core-charges read in
  partial kinetic energy density read in
  kinetic energy density of atom read in
  atomic valenz-charges read in
  non local Contribution for L=           0  read in
    real space projection operators read in
  non local Contribution for L=           0  read in
    real space projection operators read in
  non local Contribution for L=           1  read in
    real space projection operators read in
  non local Contribution for L=           1  read in
    real space projection operators read in
    PAW grid and wavefunctions read in
 
   number of l-projection  operators is LMAX  =           4
   number of lm-projection operators is LMMAX =           8
 

 ----------------------------------------------------------------------------- 
|                                                                             |
|  ADVICE TO THIS USER RUNNING 'VASP/VAMP'   (HEAR YOUR MASTER'S VOICE ...):  |
|                                                                             |
|      You have a (more or less) 'large supercell' and for larger cells       |
|      it might be more efficient to use real space projection opertators     |
|      So try LREAL= Auto  in the INCAR   file.                               |
|      Mind:          For very  accurate calculation you might also keep the  |
|      reciprocal projection scheme          (i.e. LREAL=.FALSE.)             |
|                                                                             |
 ----------------------------------------------------------------------------- 

  PAW_PBE Li_sv 10Sep2004               :
 energy of atom  1       EATOM= -202.7858
 kinetic energy error for atom=    0.0072 (will be added to EATOM!!)
  PAW_PBE Fe_pv 02Aug2007               :
 energy of atom  2       EATOM=-2457.4239
 kinetic energy error for atom=    0.0041 (will be added to EATOM!!)
  PAW_PBE S 06Sep2000                   :
 energy of atom  3       EATOM= -276.8230
 kinetic energy error for atom=    0.0008 (will be added to EATOM!!)
  PAW_PBE O 08Apr2002                   :
 energy of atom  4       EATOM= -432.3788
 kinetic energy error for atom=    0.0129 (will be added to EATOM!!)
 
 
 POSCAR: # Compound: Li64Fe32S32O32. Old comment:
  positions in direct lattice
  No initial velocities read in
 exchange correlation table for  LEXCH =        8
   RHO(1)=    0.500       N(1)  =     2000
   RHO(2)=  100.500       N(2)  =     4000
 


--------------------------------------------------------------------------------------------------------


 ion  position               nearest neighbor table
   1  0.125  0.276  0.475- 149 1.96 133 1.97  97 2.53 105 2.54
   2  0.625  0.276  0.475- 150 1.96 134 1.97  98 2.54 106 2.54
   3  0.125  0.776  0.475- 151 1.96 135 1.97  99 2.54 107 2.54
   4  0.625  0.776  0.475- 152 1.96 136 1.97 100 2.54 108 2.54
   5  0.125  0.276  0.975- 145 1.96 129 1.97 101 2.54 109 2.54
   6  0.625  0.276  0.975- 146 1.96 130 1.97 102 2.54 110 2.54
   7  0.125  0.776  0.975- 147 1.96 131 1.97 103 2.54 111 2.54
   8  0.625  0.776  0.975- 148 1.96 132 1.97 104 2.54 112 2.54
   9  0.125  0.474  0.275- 155 1.96 139 1.97 105 2.54  97 2.54
  10  0.625  0.474  0.275- 156 1.96 140 1.97 106 2.54  98 2.54
  11  0.125  0.974  0.275- 153 1.96 137 1.97 107 2.54  99 2.54
  12  0.625  0.974  0.275- 154 1.96 138 1.97 108 2.54 100 2.54
  13  0.125  0.474  0.775- 159 1.96 143 1.97 109 2.54 101 2.54
  14  0.625  0.474  0.775- 160 1.96 144 1.97 110 2.54 102 2.54
  15  0.125  0.974  0.775- 157 1.96 141 1.97 111 2.54 103 2.54
  16  0.625  0.974  0.775- 158 1.96 142 1.97 112 2.54 104 2.54
  17  0.375  0.224  0.025- 145 1.96 130 1.97 113 2.54 121 2.54
  18  0.875  0.224  0.025- 146 1.96 129 1.97 114 2.54 122 2.54
  19  0.375  0.724  0.025- 147 1.96 132 1.97 115 2.54 123 2.54
  20  0.875  0.724  0.025- 148 1.96 131 1.97 116 2.54 124 2.54
  21  0.375  0.224  0.525- 149 1.96 134 1.97 117 2.54 125 2.54
  22  0.875  0.224  0.525- 150 1.96 133 1.97 118 2.54 126 2.54
  23  0.375  0.724  0.525- 151 1.96 136 1.97 119 2.54 127 2.54
  24  0.875  0.724  0.525- 152 1.96 135 1.97 120 2.54 128 2.54
  25  0.375  0.026  0.225- 153 1.96 138 1.97 121 2.54 113 2.54
  26  0.875  0.026  0.225- 154 1.96 137 1.97 122 2.54 114 2.54
  27  0.375  0.526  0.225- 155 1.96 140 1.97 123 2.54 115 2.54
  28  0.875  0.526  0.225- 156 1.96 139 1.97 124 2.54 116 2.54
  29  0.375  0.026  0.725- 157 1.96 142 1.97 125 2.54 117 2.54
  30  0.875  0.026  0.725- 158 1.96 141 1.97 126 2.54 118 2.54
  31  0.375  0.526  0.725- 159 1.96 144 1.97 127 2.54 119 2.54
  32  0.875  0.526  0.725- 160 1.96 143 1.97 128 2.54 120 2.54
  33  0.276  0.375  0.375- 149 2.01 155 2.01 119 2.52 121 2.52
  34  0.776  0.375  0.375- 150 2.01 156 2.01 120 2.52 122 2.52
  35  0.276  0.875  0.375- 151 2.01 153 2.01 117 2.52 123 2.52
  36  0.776  0.875  0.375- 152 2.01 154 2.01 118 2.52 124 2.52
  37  0.276  0.375  0.875- 145 2.01 159 2.01 115 2.52 125 2.52
  38  0.776  0.375  0.875- 146 2.01 160 2.01 116 2.52 126 2.52
  39  0.276  0.875  0.875- 147 2.01 157 2.01 113 2.52 127 2.52
  40  0.776  0.875  0.875- 148 2.01 158 2.01 114 2.52 128 2.52
  41  0.224  0.125  0.125- 145 2.01 153 2.01 103 2.52 105 2.52
  42  0.724  0.125  0.125- 146 2.01 154 2.01 104 2.52 106 2.52
  43  0.224  0.625  0.125- 147 2.01 155 2.01 101 2.52 107 2.52
  44  0.724  0.625  0.125- 148 2.01 156 2.01 102 2.52 108 2.52
  45  0.224  0.125  0.625- 149 2.01 157 2.01  99 2.52 109 2.52
  46  0.724  0.125  0.625- 150 2.01 158 2.01 100 2.52 110 2.52
  47  0.224  0.625  0.625- 151 2.01 159 2.01  97 2.52 111 2.52
  48  0.724  0.625  0.625- 152 2.01 160 2.01  98 2.52 112 2.52
  49  0.500  0.375  0.125- 130 2.00 140 2.00
  50  1.000  0.375  0.125- 129 2.00 139 2.00
  51  0.500  0.875  0.125- 132 2.00 138 2.00
  52  1.000  0.875  0.125- 131 2.00 137 2.00
  53  0.500  0.375  0.625- 134 2.00 144 2.00
  54  1.000  0.375  0.625- 133 2.00 143 2.00
  55  0.500  0.875  0.625- 136 2.00 142 2.00
  56  1.000  0.875  0.625- 135 2.00 141 2.00
  57  0.000  0.125  0.375- 133 2.00 137 2.00
  58  0.500  0.125  0.375- 134 2.00 138 2.00
  59  0.000  0.625  0.375- 135 2.00 139 2.00
  60  0.500  0.625  0.375- 136 2.00 140 2.00
  61  0.000  0.125  0.875- 129 2.00 141 2.00
  62  0.500  0.125  0.875- 130 2.00 142 2.00
  63  0.000  0.625  0.875- 131 2.00 143 2.00
  64  0.500  0.625  0.875- 132 2.00 144 2.00
  65  0.479  0.375  0.375- 134 2.00 140 2.00 119 2.57 121 2.57
  66  0.979  0.375  0.375- 133 2.00 139 2.00 120 2.57 122 2.57
  67  0.479  0.875  0.375- 136 2.00 138 2.00 117 2.57 123 2.57
  68  0.979  0.875  0.375- 135 2.00 137 2.00 118 2.57 124 2.57
  69  0.479  0.375  0.875- 130 2.00 144 2.00 115 2.57 125 2.57
  70  0.979  0.375  0.875- 129 2.00 143 2.00 116 2.57 126 2.57
  71  0.479  0.875  0.875- 132 2.00 142 2.00 113 2.57 127 2.57
  72  0.979  0.875  0.875- 131 2.00 141 2.00 114 2.57 128 2.57
  73  0.021  0.125  0.125- 129 2.00 137 2.00 103 2.57 105 2.57
  74  0.521  0.125  0.125- 130 2.00 138 2.00 104 2.57 106 2.57
  75  0.021  0.625  0.125- 131 2.00 139 2.00 101 2.57 107 2.57
  76  0.521  0.625  0.125- 132 2.00 140 2.00 102 2.57 108 2.57
  77  0.021  0.125  0.625- 133 2.00 141 2.00  99 2.57 109 2.57
  78  0.521  0.125  0.625- 134 2.00 142 2.00 100 2.57 110 2.57
  79  0.021  0.625  0.625- 135 2.00 143 2.00  97 2.57 111 2.57
  80  0.521  0.625  0.625- 136 2.00 144 2.00  98 2.57 112 2.57
  81  0.250  0.375  0.125- 145 2.00 155 2.00 115 2.75 121 2.75 101 2.75 105 2.75
  82  0.750  0.375  0.125- 146 2.00 156 2.00 116 2.75 122 2.75 102 2.75 106 2.75
  83  0.250  0.875  0.125- 147 2.00 153 2.00 113 2.75 123 2.75 103 2.75 107 2.75
  84  0.750  0.875  0.125- 148 2.00 154 2.00 114 2.75 124 2.75 104 2.75 108 2.75
  85  0.250  0.375  0.625- 149 2.00 159 2.00 119 2.75 125 2.75  97 2.75 109 2.75
  86  0.750  0.375  0.625- 150 2.00 160 2.00 120 2.75 126 2.75  98 2.75 110 2.75
  87  0.250  0.875  0.625- 151 2.00 157 2.00 117 2.75 127 2.75  99 2.75 111 2.75
  88  0.750  0.875  0.625- 152 2.00 158 2.00 118 2.75 128 2.75 100 2.75 112 2.75
  89  0.250  0.125  0.375- 149 2.00 153 2.00  99 2.75 105 2.75 117 2.75 121 2.75
  90  0.750  0.125  0.375- 150 2.00 154 2.00 100 2.75 106 2.75 118 2.75 122 2.75
  91  0.250  0.625  0.375- 151 2.00 155 2.00  97 2.75 107 2.75 119 2.75 123 2.75
  92  0.750  0.625  0.375- 152 2.00 156 2.00  98 2.75 108 2.75 120 2.75 124 2.75
  93  0.250  0.125  0.875- 145 2.00 157 2.00 103 2.75 109 2.75 113 2.75 125 2.75
  94  0.750  0.125  0.875- 146 2.00 158 2.00 104 2.75 110 2.75 114 2.75 126 2.75
  95  0.250  0.625  0.875- 147 2.00 159 2.00 101 2.75 111 2.75 115 2.75 127 2.75
  96  0.750  0.625  0.875- 148 2.00 160 2.00 102 2.75 112 2.75 116 2.75 128 2.75
  97  0.125  0.500  0.500-  47 2.52   1 2.53   9 2.54  79 2.57  91 2.75  85 2.75
  98  0.625  0.500  0.500-  48 2.52   2 2.54  10 2.54  80 2.57  92 2.75  86 2.75
  99  0.125  1.000  0.500-  45 2.52   3 2.54  11 2.54  77 2.57  89 2.75  87 2.75
 100  0.625  1.000  0.500-  46 2.52   4 2.54  12 2.54  78 2.57  90 2.75  88 2.75
 101  0.125  0.500  1.000-  43 2.52   5 2.54  13 2.54  75 2.57  95 2.75  81 2.75
 102  0.625  0.500  1.000-  44 2.52   6 2.54  14 2.54  76 2.57  96 2.75  82 2.75
 103  0.125  1.000  1.000-  41 2.52   7 2.54  15 2.54  73 2.57  93 2.75  83 2.75
 104  0.625  1.000  1.000-  42 2.52   8 2.54  16 2.54  74 2.57  94 2.75  84 2.75
 105  0.125  0.250  0.250-  41 2.52   9 2.54   1 2.54  73 2.57  89 2.75  81 2.75
 106  0.625  0.250  0.250-  42 2.52  10 2.54   2 2.54  74 2.57  90 2.75  82 2.75
 107  0.125  0.750  0.250-  43 2.52  11 2.54   3 2.54  75 2.57  91 2.75  83 2.75
 108  0.625  0.750  0.250-  44 2.52  12 2.54   4 2.54  76 2.57  92 2.75  84 2.75
 109  0.125  0.250  0.750-  45 2.52  13 2.54   5 2.54  77 2.57  93 2.75  85 2.75
 110  0.625  0.250  0.750-  46 2.52  14 2.54   6 2.54  78 2.57  94 2.75  86 2.75
 111  0.125  0.750  0.750-  47 2.52  15 2.54   7 2.54  79 2.57  95 2.75  87 2.75
 112  0.625  0.750  0.750-  48 2.52  16 2.54   8 2.54  80 2.57  96 2.75  88 2.75
 113  0.375  0.000  0.000-  39 2.52  17 2.54  25 2.54  71 2.57  83 2.75  93 2.75
 114  0.875  0.000  0.000-  40 2.52  18 2.54  26 2.54  72 2.57  84 2.75  94 2.75
 115  0.375  0.500  0.000-  37 2.52  19 2.54  27 2.54  69 2.57  81 2.75  95 2.75
 116  0.875  0.500  0.000-  38 2.52  20 2.54  28 2.54  70 2.57  82 2.75  96 2.75
 117  0.375  0.000  0.500-  35 2.52  21 2.54  29 2.54  67 2.57  87 2.75  89 2.75
 118  0.875  0.000  0.500-  36 2.52  22 2.54  30 2.54  68 2.57  88 2.75  90 2.75
 119  0.375  0.500  0.500-  33 2.52  23 2.54  31 2.54  65 2.57  85 2.75  91 2.75
 120  0.875  0.500  0.500-  34 2.52  24 2.54  32 2.54  66 2.57  86 2.75  92 2.75
 121  0.375  0.250  0.250-  33 2.52  25 2.54  17 2.54  65 2.57  81 2.75  89 2.75
 122  0.875  0.250  0.250-  34 2.52  26 2.54  18 2.54  66 2.57  82 2.75  90 2.75
 123  0.375  0.750  0.250-  35 2.52  27 2.54  19 2.54  67 2.57  83 2.75  91 2.75
 124  0.875  0.750  0.250-  36 2.52  28 2.54  20 2.54  68 2.57  84 2.75  92 2.75
 125  0.375  0.250  0.750-  37 2.52  29 2.54  21 2.54  69 2.57  85 2.75  93 2.75
 126  0.875  0.250  0.750-  38 2.52  30 2.54  22 2.54  70 2.57  86 2.75  94 2.75
 127  0.375  0.750  0.750-  39 2.52  31 2.54  23 2.54  71 2.57  87 2.75  95 2.75
 128  0.875  0.750  0.750-  40 2.52  32 2.54  24 2.54  72 2.57  88 2.75  96 2.75
 129  0.000  0.250  0.000-   5 1.97  18 1.97  70 2.00  73 2.00  50 2.00  61 2.00
 130  0.500  0.250  0.000-   6 1.97  17 1.97  69 2.00  74 2.00  49 2.00  62 2.00
 131  0.000  0.750  0.000-   7 1.97  20 1.97  72 2.00  75 2.00  52 2.00  63 2.00
 132  0.500  0.750  0.000-   8 1.97  19 1.97  71 2.00  76 2.00  51 2.00  64 2.00
 133  0.000  0.250  0.500-  22 1.97   1 1.97  66 2.00  77 2.00  54 2.00  57 2.00
 134  0.500  0.250  0.500-   2 1.97  21 1.97  65 2.00  78 2.00  53 2.00  58 2.00
 135  0.000  0.750  0.500-   3 1.97  24 1.97  68 2.00  79 2.00  56 2.00  59 2.00
 136  0.500  0.750  0.500-   4 1.97  23 1.97  67 2.00  80 2.00  55 2.00  60 2.00
 137  0.000  0.000  0.250-  11 1.97  26 1.97  68 2.00  73 2.00  52 2.00  57 2.00
 138  0.500  0.000  0.250-  12 1.97  25 1.97  67 2.00  74 2.00  51 2.00  58 2.00
 139  0.000  0.500  0.250-   9 1.97  28 1.97  66 2.00  75 2.00  50 2.00  59 2.00
 140  0.500  0.500  0.250-  10 1.97  27 1.97  65 2.00  76 2.00  49 2.00  60 2.00
 141  0.000  0.000  0.750-  15 1.97  30 1.97  72 2.00  77 2.00  56 2.00  61 2.00
 142  0.500  0.000  0.750-  16 1.97  29 1.97  71 2.00  78 2.00  55 2.00  62 2.00
 143  0.000  0.500  0.750-  13 1.97  32 1.97  70 2.00  79 2.00  54 2.00  63 2.00
 144  0.500  0.500  0.750-  14 1.97  31 1.97  69 2.00  80 2.00  53 2.00  64 2.00
 145  0.250  0.250  0.000-   5 1.96  17 1.96  81 2.00  93 2.00  37 2.01  41 2.01
 146  0.750  0.250  0.000-   6 1.96  18 1.96  82 2.00  94 2.00  38 2.01  42 2.01
 147  0.250  0.750  0.000-   7 1.96  19 1.96  83 2.00  95 2.00  39 2.01  43 2.01
 148  0.750  0.750  0.000-   8 1.96  20 1.96  84 2.00  96 2.00  40 2.01  44 2.01
 149  0.250  0.250  0.500-  21 1.96   1 1.96  85 2.00  89 2.00  33 2.01  45 2.01
 150  0.750  0.250  0.500-   2 1.96  22 1.96  86 2.00  90 2.00  34 2.01  46 2.01
 151  0.250  0.750  0.500-   3 1.96  23 1.96  87 2.00  91 2.00  35 2.01  47 2.01
 152  0.750  0.750  0.500-   4 1.96  24 1.96  88 2.00  92 2.00  36 2.01  48 2.01
 153  0.250  0.000  0.250-  11 1.96  25 1.96  83 2.00  89 2.00  35 2.01  41 2.01
 154  0.750  0.000  0.250-  12 1.96  26 1.96  84 2.00  90 2.00  36 2.01  42 2.01
 155  0.250  0.500  0.250-   9 1.96  27 1.96  81 2.00  91 2.00  33 2.01  43 2.01
 156  0.750  0.500  0.250-  10 1.96  28 1.96  82 2.00  92 2.00  34 2.01  44 2.01
 157  0.250  0.000  0.750-  15 1.96  29 1.96  87 2.00  93 2.00  39 2.01  45 2.01
 158  0.750  0.000  0.750-  16 1.96  30 1.96  88 2.00  94 2.00  40 2.01  46 2.01
 159  0.250  0.500  0.750-  13 1.96  31 1.96  85 2.00  95 2.00  37 2.01  47 2.01
 160  0.750  0.500  0.750-  14 1.96  32 1.96  86 2.00  96 2.00  38 2.01  48 2.01
 
  LATTYP: Found a simple monoclinic cell.
 ALAT       =    16.0245724362
 B/A-ratio  =     0.9595037360
 C/A-ratio  =     1.5788311284
 COS(beta)  =    -0.9500776273
  
  Lattice vectors:
  
 A1 = (   0.0000000000, -11.3322995400, -11.3298680000)
 A2 = ( -15.3756371200,   0.0000000000,   0.0000000000)
 A3 = (   0.0000000000,  22.5798703800,  11.4124580600)


Analysis of symmetry for initial positions (statically):
=====================================================================
 Subroutine PRICEL returns:
 Original cell was already a primitive cell.
 

 Routine SETGRP: Setting up the symmetry group for a 
 simple monoclinic supercell.


 Subroutine GETGRP returns: Found  1 space group operations
 (whereof  1 operations were pure point group operations)
 out of a pool of  4 trial point group operations.


The static configuration has the point symmetry C_1 .


Analysis of symmetry for dynamics (positions and initial velocities):
=====================================================================
 Subroutine PRICEL returns:
 Original cell was already a primitive cell.
 

 Routine SETGRP: Setting up the symmetry group for a 
 simple monoclinic supercell.


 Subroutine GETGRP returns: Found  1 space group operations
 (whereof  1 operations were pure point group operations)
 out of a pool of  4 trial point group operations.


The dynamic configuration has the point symmetry C_1 .


Analysis of structural, dynamic, and magnetic symmetry:
=====================================================================
 Subroutine PRICEL returns:
 Original cell was already a primitive cell.
 

 Routine SETGRP: Setting up the symmetry group for a 
 simple monoclinic supercell.


 Subroutine GETGRP returns: Found  1 space group operations
 (whereof  1 operations were pure point group operations)
 out of a pool of  4 trial point group operations.


The magnetic configuration has the point symmetry C_1 .


 Subroutine INISYM returns: Found  1 space group operations
 (whereof  1 operations are pure point group operations),
 and found     1 'primitive' translations

 
 
 KPOINTS: # No comment                            

Automatic generation of k-mesh.
Space group operators:
 irot       det(A)        alpha          n_x          n_y          n_z        tau_x        tau_y        tau_z
    1     1.000000     0.000001     1.000000     0.000000     0.000000     0.000000     0.000000     0.000000
 
 Subroutine IBZKPT returns following result:
 ===========================================
 
 Found     10 irreducible k-points:
 
 Following reciprocal coordinates:
            Coordinates               Weight
  0.000000  0.000000  0.000000      1.000000
  0.500000  0.000000  0.000000      1.000000
  0.000000  0.333333 -0.000000      2.000000
  0.500000  0.333333 -0.000000      2.000000
  0.000000 -0.000000  0.333333      2.000000
  0.500000 -0.000000  0.333333      2.000000
  0.000000  0.333333  0.333333      2.000000
  0.500000  0.333333  0.333333      2.000000
  0.000000 -0.333333  0.333333      2.000000
  0.500000 -0.333333  0.333333      2.000000
 
 Following cartesian coordinates:
            Coordinates               Weight
  0.000000  0.000000  0.000000      1.000000
  0.032519  0.000000  0.000000      1.000000
  0.000000  0.029638 -0.000223      2.000000
  0.032519  0.029638 -0.000223      2.000000
  0.000000 -0.000218  0.029638      2.000000
  0.032519 -0.000218  0.029638      2.000000
  0.000000  0.029420  0.029415      2.000000
  0.032519  0.029420  0.029415      2.000000
  0.000000 -0.029855  0.029862      2.000000
  0.032519 -0.029855  0.029862      2.000000
 


--------------------------------------------------------------------------------------------------------




 Dimension of arrays:
   k-points           NKPTS =     10   k-points in BZ     NKDIM =     10   number of bands    NBANDS=    732
   number of dos      NEDOS =    301   number of ions     NIONS =    160
   non local maximal  LDIM  =      6   non local SUM 2l+1 LMDIM =     18
   total plane-waves  NPLWV = ******
   max r-space proj   IRMAX =      1   max aug-charges    IRDMAX= 153046
   dimension x,y,z NGX =   128 NGY =   96 NGZ =   96
   dimension x,y,z NGXF=   256 NGYF=  192 NGZF=  192
   support grid    NGXF=   512 NGYF=  384 NGZF=  384
   ions per type =              64  32  32  32
   NGX,Y,Z   is equivalent  to a cutoff of  13.84, 14.19, 14.19 a.u.
   NGXF,Y,Z  is equivalent  to a cutoff of  27.68, 28.38, 28.38 a.u.

 SYSTEM =  unknown system                          
 POSCAR =  # Compound: Li64Fe32S32O32. Old comment:

 Startparameter for this run:
   NWRITE =      1    write-flag & timer
   PREC   = accura    normal or accurate (medium, high low for compatibility)
   ISTART =      0    job   : 0-new  1-cont  2-samecut
   ICHARG =      1    charge: 1-file 2-atom 10-const
   ISPIN  =      2    spin polarized calculation?
   LNONCOLLINEAR =      F non collinear calculations
   LSORBIT =      F    spin-orbit coupling
   INIWAV =      1    electr: 0-lowe 1-rand  2-diag
   LASPH  =      T    aspherical Exc in radial PAW
   METAGGA=      F    non-selfconsistent MetaGGA calc.

 Electronic Relaxation 1
   ENCUT  =  650.0 eV  47.77 Ry    6.91 a.u.  31.96 23.38 23.38*2*pi/ulx,y,z
   ENINI  =  650.0     initial cutoff
   ENAUG  =  628.9 eV  augmentation charge cutoff
   NELM   =    200;   NELMIN=  8; NELMDL=  0     # of ELM steps 
   EDIFF  = 0.1E-07   stopping-criterion for ELM
   LREAL  =      F    real-space projection
   NLSPLINE    = F    spline interpolate recip. space projectors
   LCOMPAT=      F    compatible to vasp.4.4
   GGA_COMPAT  = T    GGA compatible to vasp.4.4-vasp.4.6
   LMAXPAW     = -100 max onsite density
   LMAXMIX     =    4 max onsite mixed and CHGCAR
   VOSKOWN=      0    Vosko Wilk Nusair interpolation
   ROPT   =    0.00000   0.00000   0.00000   0.00000
 Ionic relaxation
   EDIFFG = 0.1E-06   stopping-criterion for IOM
   NSW    =      0    number of steps for IOM
   NBLOCK =      1;   KBLOCK =      1    inner block; outer block 
   IBRION =     -1    ionic relax: 0-MD 1-quasi-New 2-CG
   NFREE  =      0    steps in history (QN), initial steepest desc. (CG)
   ISIF   =      2    stress and relaxation
   IWAVPR =     10    prediction:  0-non 1-charg 2-wave 3-comb
   ISYM   =      2    0-nonsym 1-usesym 2-fastsym
   LCORR  =      T    Harris-Foulkes like correction to forces

   POTIM  = 0.5000    time-step for ionic-motion
   TEIN   =    0.0    initial temperature
   TEBEG  =    0.0;   TEEND  =   0.0 temperature during run
   SMASS  =  -3.00    Nose mass-parameter (am)
   estimated Nose-frequenzy (Omega)   =  0.10E-29 period in steps =****** mass=  -0.540E-26a.u.
   SCALEE = 1.0000    scale energy and forces
   NPACO  =    256;   APACO  = 16.0  distance and # of slots for P.C.
   PSTRESS=    0.0 pullay stress

  Mass of Ions in am
   POMASS =   7.01 55.85 32.07 16.00
  Ionic Valenz
   ZVAL   =   3.00 14.00  6.00  6.00
  Atomic Wigner-Seitz radii
   RWIGS  =  -1.00 -1.00 -1.00 -1.00
  virtual crystal weights 
   VCA    =   1.00  1.00  1.00  1.00
   NELECT =    1024.0000    total number of electrons
   NUPDOWN=      -1.0000    fix difference up-down

 DOS related values:
   EMIN   =  10.00;   EMAX   =-10.00  energy-range for DOS
   EFERMI =   0.00
   ISMEAR =     0;   SIGMA  =   0.05  broadening in eV -4-tet -1-fermi 0-gaus

 Electronic relaxation 2 (details)
   IALGO  =     38    algorithm
   LDIAG  =      T    sub-space diagonalisation (order eigenvalues)
   LSUBROT=      F    optimize rotation matrix (better conditioning)
   TURBO    =      0    0=normal 1=particle mesh
   IRESTART =      0    0=no restart 2=restart with 2 vectors
   NREBOOT  =      0    no. of reboots
   NMIN     =      0    reboot dimension
   EREF     =   0.00    reference energy to select bands
   IMIX   =      4    mixing-type and parameters
     AMIX     =   0.40;   BMIX     =  1.00
     AMIX_MAG =   1.60;   BMIX_MAG =  1.00
     AMIN     =   0.10
     WC   =   100.;   INIMIX=   1;  MIXPRE=   1;  MAXMIX= -45

 Intra band minimization:
   WEIMIN = 0.0000     energy-eigenvalue tresh-hold
   EBREAK =  0.34E-11  absolut break condition
   DEPER  =   0.30     relativ break condition  

   TIME   =   0.40     timestep for ELM

  volume/ion in A,a.u.               =      12.16        82.03
  Fermi-wavevector in a.u.,A,eV,Ry     =   1.321914  2.498054 23.775576  1.747456
  Thomas-Fermi vector in A             =   2.451633
 
 Write flags
   LWAVE        =      F    write WAVECAR
   LDOWNSAMPLE  =      F    k-point downsampling of WAVECAR
   LCHARG       =      T    write CHGCAR
   LVTOT        =      F    write LOCPOT, total local potential
   LVHAR        =      F    write LOCPOT, Hartree potential only
   LELF         =      F    write electronic localiz. function (ELF)
   LORBIT       =      0    0 simple, 1 ext, 2 COOP (PROOUT), +10 PAW based schemes


 Dipole corrections
   LMONO  =      F    monopole corrections only (constant potential shift)
   LDIPOL =      F    correct potential (dipole corrections)
   IDIPOL =      0    1-x, 2-y, 3-z, 4-all directions 
   EPSILON=  1.0000000 bulk dielectric constant

 LDA+U is selected, type is set to LDAUTYPE =  2
   angular momentum for each species LDAUL =    -1    2   -1   -1
   U (eV)           for each species LDAUU =   0.0  4.0  0.0  0.0
   J (eV)           for each species LDAUJ =   0.0  0.0  0.0  0.0
 Exchange correlation treatment:
   GGA     =    PE    GGA type
   LEXCH   =     8    internal setting for exchange type
   VOSKOWN=      0    Vosko Wilk Nusair interpolation
   LHFCALC =     F    Hartree Fock is set to
   LHFONE  =     F    Hartree Fock one center treatment
   AEXX    =    0.0000 exact exchange contribution

 Linear response parameters
   LEPSILON=     F    determine dielectric tensor
   LRPA    =     F    only Hartree local field effects (RPA)
   LNABLA  =     F    use nabla operator in PAW spheres
   LVEL    =     F    velocity operator in full k-point grid
   LINTERFAST=   F  fast interpolation
   KINTER  =     0    interpolate to denser k-point grid
   CSHIFT  =0.1000    complex shift for real part using Kramers Kronig
   OMEGAMAX=  -1.0    maximum frequency
   DEG_THRESHOLD= 0.2000000E-02 threshold for treating states as degnerate
   RTIME   =   -0.100 relaxation time in fs
  (WPLASMAI=    0.000 imaginary part of plasma frequency in eV, 0.658/RTIME)
   DFIELD  = 0.0000000 0.0000000 0.0000000 field for delta impulse in time
 
 Orbital magnetization related:
   ORBITALMAG=     F  switch on orbital magnetization
   LCHIMAG   =     F  perturbation theory with respect to B field
   DQ        =  0.001000  dq finite difference perturbation B field
   LLRAUG    =     F  two centre corrections for induced B field



--------------------------------------------------------------------------------------------------------


 Static calculation
 charge density and potential will be updated during run
 spin polarized calculation
 Variant of blocked Davidson
 Davidson routine will perform the subspace rotation
 perform sub-space diagonalisation
    after iterative eigenvector-optimisation
 modified Broyden-mixing scheme, WC =      100.0
 initial mixing is a Kerker type mixing with AMIX =  0.4000 and BMIX =      1.0000
 Hartree-type preconditioning will be used
 using additional bands          220
 reciprocal scheme for non local part
 use partial core corrections
 calculate Harris-corrections to forces 
   (improved forces if not selfconsistent)
 use gradient corrections 
 use of overlap-Matrix (Vanderbilt PP)
 Gauss-broadening in eV      SIGMA  =   0.05


--------------------------------------------------------------------------------------------------------


  energy-cutoff  :      650.00
  volume of cell :     1944.98
      direct lattice vectors                 reciprocal lattice vectors
    15.375637120  0.000000000  0.000000000     0.065037955  0.000000000  0.000000000
     0.000000000 11.247570840  0.082590060     0.000000000  0.088913005 -0.000669805
     0.000000000  0.084728700 11.247277940     0.000000000 -0.000652898  0.088915320

  length of vectors
    15.375637120 11.247874062 11.247597077     0.065037955  0.088915528  0.088917717


 
 k-points in units of 2pi/SCALE and weight: # No comment                            
   0.00000000  0.00000000  0.00000000       0.056
   0.03251898  0.00000000  0.00000000       0.056
   0.00000000  0.02963767 -0.00022327       0.111
   0.03251898  0.02963767 -0.00022327       0.111
   0.00000000 -0.00021763  0.02963844       0.111
   0.03251898 -0.00021763  0.02963844       0.111
   0.00000000  0.02942004  0.02941517       0.111
   0.03251898  0.02942004  0.02941517       0.111
   0.00000000 -0.02985530  0.02986171       0.111
   0.03251898 -0.02985530  0.02986171       0.111
 
 k-points in reciprocal lattice and weights: # No comment                            
   0.00000000  0.00000000  0.00000000       0.056
   0.50000000  0.00000000  0.00000000       0.056
   0.00000000  0.33333333 -0.00000000       0.111
   0.50000000  0.33333333 -0.00000000       0.111
   0.00000000 -0.00000000  0.33333333       0.111
   0.50000000 -0.00000000  0.33333333       0.111
   0.00000000  0.33333333  0.33333333       0.111
   0.50000000  0.33333333  0.33333333       0.111
   0.00000000 -0.33333333  0.33333333       0.111
   0.50000000 -0.33333333  0.33333333       0.111
 
 position of ions in fractional coordinates (direct lattice) 
   0.12525680  0.27642494  0.47453981
   0.62525680  0.27553588  0.47453981
   0.12525680  0.77553588  0.47453981
   0.62525680  0.77553588  0.47453981
   0.12525680  0.27553588  0.97453981
   0.62525680  0.27553588  0.97453981
   0.12525680  0.77553588  0.97453981
   0.62525680  0.77553588  0.97453981
   0.12525680  0.47446412  0.27546019
   0.62525680  0.47446412  0.27546019
   0.12525680  0.97446412  0.27546019
   0.62525680  0.97446412  0.27546019
   0.12525680  0.47446412  0.77546019
   0.62525680  0.47446412  0.77546019
   0.12525680  0.97446412  0.77546019
   0.62525680  0.97446412  0.77546019
   0.37474320  0.22446412  0.02546019
   0.87474320  0.22446412  0.02546019
   0.37474320  0.72446412  0.02546019
   0.87474320  0.72446412  0.02546019
   0.37474320  0.22446412  0.52546019
   0.87474320  0.22446412  0.52546019
   0.37474320  0.72446412  0.52546019
   0.87474320  0.72446412  0.52546019
   0.37474320  0.02553588  0.22453981
   0.87474320  0.02553588  0.22453981
   0.37474320  0.52553588  0.22453981
   0.87474320  0.52553588  0.22453981
   0.37474320  0.02553588  0.72453981
   0.87474320  0.02553588  0.72453981
   0.37474320  0.52553588  0.72453981
   0.87474320  0.52553588  0.72453981
   0.27600236  0.37500000  0.37500000
   0.77600236  0.37500000  0.37500000
   0.27600236  0.87500000  0.37500000
   0.77600236  0.87500000  0.37500000
   0.27600236  0.37500000  0.87500000
   0.77600236  0.37500000  0.87500000
   0.27600236  0.87500000  0.87500000
   0.77600236  0.87500000  0.87500000
   0.22399764  0.12500000  0.12500000
   0.72399764  0.12500000  0.12500000
   0.22399764  0.62500000  0.12500000
   0.72399764  0.62500000  0.12500000
   0.22399764  0.12500000  0.62500000
   0.72399764  0.12500000  0.62500000
   0.22399764  0.62500000  0.62500000
   0.72399764  0.62500000  0.62500000
   0.49994073  0.37500000  0.12500000
   0.99994073  0.37500000  0.12500000
   0.49994073  0.87500000  0.12500000
   0.99994073  0.87500000  0.12500000
   0.49994073  0.37500000  0.62500000
   0.99994073  0.37500000  0.62500000
   0.49994073  0.87500000  0.62500000
   0.99994073  0.87500000  0.62500000
   0.00005927  0.12500000  0.37500000
   0.50005927  0.12500000  0.37500000
   0.00005927  0.62500000  0.37500000
   0.50005927  0.62500000  0.37500000
   0.00005927  0.12500000  0.87500000
   0.50005927  0.12500000  0.87500000
   0.00005927  0.62500000  0.87500000
   0.50005927  0.62500000  0.87500000
   0.47912905  0.37500000  0.37500000
   0.97912905  0.37500000  0.37500000
   0.47912905  0.87500000  0.37500000
   0.97912905  0.87500000  0.37500000
   0.47912905  0.37500000  0.87500000
   0.97912905  0.37500000  0.87500000
   0.47912905  0.87500000  0.87500000
   0.97912905  0.87500000  0.87500000
   0.02087095  0.12500000  0.12500000
   0.52087095  0.12500000  0.12500000
   0.02087095  0.62500000  0.12500000
   0.52087095  0.62500000  0.12500000
   0.02087095  0.12500000  0.62500000
   0.52087095  0.12500000  0.62500000
   0.02087095  0.62500000  0.62500000
   0.52087095  0.62500000  0.62500000
   0.25003487  0.37500000  0.12500000
   0.75003487  0.37500000  0.12500000
   0.25003487  0.87500000  0.12500000
   0.75003487  0.87500000  0.12500000
   0.25003487  0.37500000  0.62500000
   0.75003487  0.37500000  0.62500000
   0.25003487  0.87500000  0.62500000
   0.75003487  0.87500000  0.62500000
   0.24996513  0.12500000  0.37500000
   0.74996513  0.12500000  0.37500000
   0.24996513  0.62500000  0.37500000
   0.74996513  0.62500000  0.37500000
   0.24996513  0.12500000  0.87500000
   0.74996513  0.12500000  0.87500000
   0.24996513  0.62500000  0.87500000
   0.74996513  0.62500000  0.87500000
   0.12546906  0.49959881  0.49958956
   0.62546906  0.49959881  0.49958956
   0.12546906  0.99959881  0.49958956
   0.62546906  0.99959881  0.49958956
   0.12546906  0.49959881  0.99958956
   0.62546906  0.49959881  0.99958956
   0.12546906  0.99959881  0.99958956
   0.62546906  0.99959881  0.99958956
   0.12546906  0.25040119  0.25041044
   0.62546906  0.25040119  0.25041044
   0.12546906  0.75040119  0.25041044
   0.62546906  0.75040119  0.25041044
   0.12546906  0.25040119  0.75041044
   0.62546906  0.25040119  0.75041044
   0.12546906  0.75040119  0.75041044
   0.62546906  0.75040119  0.75041044
   0.37453094  0.00040119  0.00041044
   0.87453094  0.00040119  0.00041044
   0.37453094  0.50040119  0.00041044
   0.87453094  0.50040119  0.00041044
   0.37453094  0.00040119  0.50041044
   0.87453094  0.00040119  0.50041044
   0.37453094  0.50040119  0.50041044
   0.87453094  0.50040119  0.50041044
   0.37453094  0.24959881  0.24958956
   0.87453094  0.24959881  0.24958956
   0.37453094  0.74959881  0.24958956
   0.87453094  0.74959881  0.24958956
   0.37453094  0.24959881  0.74958956
   0.87453094  0.24959881  0.74958956
   0.37453094  0.74959881  0.74958956
   0.87453094  0.74959881  0.74958956
   0.00000000  0.25000000  0.00000000
   0.50000000  0.25000000  0.00000000
   0.00000000  0.75000000  0.00000000
   0.50000000  0.75000000  0.00000000
   0.00000000  0.25000000  0.50000000
   0.50000000  0.25000000  0.50000000
   0.00000000  0.75000000  0.50000000
   0.50000000  0.75000000  0.50000000
   0.00000000  0.00000000  0.25000000
   0.50000000  0.00000000  0.25000000
   0.00000000  0.50000000  0.25000000
   0.50000000  0.50000000  0.25000000
   0.00000000  0.00000000  0.75000000
   0.50000000  0.00000000  0.75000000
   0.00000000  0.50000000  0.75000000
   0.50000000  0.50000000  0.75000000
   0.25000000  0.25000000  0.00000000
   0.75000000  0.25000000  0.00000000
   0.25000000  0.75000000  0.00000000
   0.75000000  0.75000000  0.00000000
   0.25000000  0.25000000  0.50000000
   0.75000000  0.25000000  0.50000000
   0.25000000  0.75000000  0.50000000
   0.75000000  0.75000000  0.50000000
   0.25000000  0.00000000  0.25000000
   0.75000000  0.00000000  0.25000000
   0.25000000  0.50000000  0.25000000
   0.75000000  0.50000000  0.25000000
   0.25000000  0.00000000  0.75000000
   0.75000000  0.00000000  0.75000000
   0.25000000  0.50000000  0.75000000
   0.75000000  0.50000000  0.75000000
 
 position of ions in cartesian coordinates  (Angst):
   1.92590310  3.14931620  5.36011109
   9.61372166  3.13931647  5.36003766
   1.92590310  8.76310189  5.40133269
   9.61372166  8.76310189  5.40133269
   1.92590310  3.18168082 10.98367663
   9.61372166  3.18168082 10.98367663
   1.92590310  8.80546624 11.02497166
   9.61372166  8.80546624 11.02497166
   1.92590310  5.35990818  3.13736334
   9.61372166  5.35990818  3.13736334
   1.92590310 10.98369360  3.17865837
   9.61372166 10.98369360  3.17865837
   1.92590310  5.40227253  8.76100231
   9.61372166  5.40227253  8.76100231
   1.92590310 11.02605795  8.80229734
   9.61372166 11.02605795  8.80229734
   5.76191546  2.52683330  0.30489634
  13.44973402  2.52683330  0.30489634
   5.76191546  8.15061872  0.34619137
  13.44973402  8.15061872  0.34619137
   5.76191546  2.56919765  5.92853531
  13.44973402  2.56919765  5.92853531
   5.76191546  8.19298307  5.96983034
  13.44973402  8.19298307  5.96983034
   5.76191546  0.30624159  2.52757066
  13.44973402  0.30624159  2.52757066
   5.76191546  5.93002701  2.56886569
  13.44973402  5.93002701  2.56886569
   5.76191546  0.34860594  8.15120963
  13.44973402  0.34860594  8.15120963
   5.76191546  5.97239136  8.19250466
  13.44973402  5.97239136  8.19250466
   4.24371213  4.24961233  4.24870050
  11.93153069  4.24961233  4.24870050
   4.24371213  9.87339775  4.28999553
  11.93153069  9.87339775  4.28999553
   4.24371213  4.29197668  9.87233947
  11.93153069  4.29197668  9.87233947
   4.24371213  9.91576210  9.91363450
  11.93153069  9.91576210  9.91363450
   3.44410643  1.41653744  1.41623350
  11.13192499  1.41653744  1.41623350
   3.44410643  7.04032286  1.45752853
  11.13192499  7.04032286  1.45752853
   3.44410643  1.45890179  7.03987247
  11.13192499  1.45890179  7.03987247
   3.44410643  7.08268721  7.08116750
  11.13192499  7.08268721  7.08116750
   7.68690717  4.22843015  1.43688101
  15.37472573  4.22843015  1.43688101
   7.68690717  9.85221557  1.47817605
  15.37472573  9.85221557  1.47817605
   7.68690717  4.27079450  7.06051999
  15.37472573  4.27079450  7.06051999
   7.68690717  9.89457992  7.10181502
  15.37472573  9.89457992  7.10181502
   0.00091139  1.43771962  4.22805298
   7.68872995  1.43771962  4.22805298
   0.00091139  7.06150504  4.26934801
   7.68872995  7.06150504  4.26934801
   0.00091139  1.48008397  9.85169195
   7.68872995  1.48008397  9.85169195
   0.00091139  7.10386939  9.89298699
   7.68872995  7.10386939  9.89298699
   7.36691433  4.24961233  4.24870050
  15.05473289  4.24961233  4.24870050
   7.36691433  9.87339775  4.28999553
  15.05473289  9.87339775  4.28999553
   7.36691433  4.29197668  9.87233947
  15.05473289  4.29197668  9.87233947
   7.36691433  9.91576210  9.91363450
  15.05473289  9.91576210  9.91363450
   0.32090423  1.41653744  1.41623350
   8.00872279  1.41653744  1.41623350
   0.32090423  7.04032286  1.45752853
   8.00872279  7.04032286  1.45752853
   0.32090423  1.45890179  7.03987247
   8.00872279  1.45890179  7.03987247
   0.32090423  7.08268721  7.08116750
   8.00872279  7.08268721  7.08116750
   3.84444535  4.22843015  1.43688101
  11.53226391  4.22843015  1.43688101
   3.84444535  9.85221557  1.47817605
  11.53226391  9.85221557  1.47817605
   3.84444535  4.27079450  7.06051999
  11.53226391  4.27079450  7.06051999
   3.84444535  9.89457992  7.10181502
  11.53226391  9.89457992  7.10181502
   3.84337321  1.43771962  4.22805298
  11.53119177  1.43771962  4.22805298
   3.84337321  7.06150504  4.26934801
  11.53119177  7.06150504  4.26934801
   3.84337321  1.48008397  9.85169195
  11.53119177  1.48008397  9.85169195
   3.84337321  7.10386939  9.89298699
  11.53119177  7.10386939  9.89298699
   1.92916681  5.66160258  5.66028448
   9.61698537  5.66160258  5.66028448
   1.92916681 11.28538800  5.70157951
   9.61698537 11.28538800  5.70157951
   1.92916681  5.70396693 11.28392345
   9.61698537  5.70396693 11.28392345
   1.92916681 11.32775235 11.32521848
   9.61698537 11.32775235 11.32521848
   1.92916681  2.83762207  2.83711652
   9.61698537  2.83762207  2.83711652
   1.92916681  8.46140749  2.87841155
   9.61698537  8.46140749  2.87841155
   1.92916681  2.87998642  8.46075549
   9.61698537  2.87998642  8.46075549
   1.92916681  8.50377184  8.50205052
   9.61698537  8.50377184  8.50205052
   5.75865175  0.00454719  0.00464952
  13.44647031  0.00454719  0.00464952
   5.75865175  5.62833261  0.04594455
  13.44647031  5.62833261  0.04594455
   5.75865175  0.04691154  5.62828849
  13.44647031  0.04691154  5.62828849
   5.75865175  5.67069696  5.66958352
  13.44647031  5.67069696  5.66958352
   5.75865175  2.82852770  2.82781748
  13.44647031  2.82852770  2.82781748
   5.75865175  8.45231312  2.86911251
  13.44647031  8.45231312  2.86911251
   5.75865175  2.87089205  8.45145645
  13.44647031  2.87089205  8.45145645
   5.75865175  8.49467747  8.49275148
  13.44647031  8.49467747  8.49275148
   0.00000000  2.81189271  0.02064752
   7.68781856  2.81189271  0.02064752
   0.00000000  8.43567813  0.06194255
   7.68781856  8.43567813  0.06194255
   0.00000000  2.85425706  5.64428649
   7.68781856  2.85425706  5.64428649
   0.00000000  8.47804248  5.68558151
   7.68781856  8.47804248  5.68558151
   0.00000000  0.02118218  2.81181949
   7.68781856  0.02118218  2.81181949
   0.00000000  5.64496759  2.85311452
   7.68781856  5.64496759  2.85311452
   0.00000000  0.06354653  8.43545845
   7.68781856  0.06354653  8.43545845
   0.00000000  5.68733194  8.47675348
   7.68781856  5.68733194  8.47675348
   3.84390928  2.81189271  0.02064752
  11.53172784  2.81189271  0.02064752
   3.84390928  8.43567813  0.06194255
  11.53172784  8.43567813  0.06194255
   3.84390928  2.85425706  5.64428649
  11.53172784  2.85425706  5.64428649
   3.84390928  8.47804248  5.68558151
  11.53172784  8.47804248  5.68558151
   3.84390928  0.02118218  2.81181949
  11.53172784  0.02118218  2.81181949
   3.84390928  5.64496759  2.85311452
  11.53172784  5.64496759  2.85311452
   3.84390928  0.06354653  8.43545845
  11.53172784  0.06354653  8.43545845
   3.84390928  5.68733194  8.47675348
  11.53172784  5.68733194  8.47675348
 


--------------------------------------------------------------------------------------------------------


 k-point  1 :   0.0000 0.0000 0.0000  plane waves:   73163
 k-point  2 :   0.5000 0.0000 0.0000  plane waves:   73208
 k-point  3 :   0.0000 0.3333-0.0000  plane waves:   73197
 k-point  4 :   0.5000 0.3333-0.0000  plane waves:   73182
 k-point  5 :   0.0000-0.0000 0.3333  plane waves:   73195
 k-point  6 :   0.5000-0.0000 0.3333  plane waves:   73178
 k-point  7 :   0.0000 0.3333 0.3333  plane waves:   73141
 k-point  8 :   0.5000 0.3333 0.3333  plane waves:   73198
 k-point  9 :   0.0000-0.3333 0.3333  plane waves:   73095
 k-point 10 :   0.5000-0.3333 0.3333  plane waves:   73224

 maximum and minimum number of plane-waves per node :     12268    12150

 maximum number of plane-waves:     73224
 maximum index in each direction: 
   IXMAX=   31   IYMAX=   23   IZMAX=   23
   IXMIN=  -32   IYMIN=  -23   IZMIN=  -23


 parallel 3D FFT for wavefunctions:
    minimum data exchange during FFTs selected (reduces bandwidth)
 parallel 3D FFT for charge:
    minimum data exchange during FFTs selected (reduces bandwidth)


 total amount of memory used by VASP MPI-rank0   985864. kBytes
=======================================================================

   base      :      30000. kBytes
   nonl-proj :     102069. kBytes
   fftplans  :      64934. kBytes
   grid      :      55554. kBytes
   one-center:        839. kBytes
   wavefun   :     732468. kBytes
 
     INWAV:  cpu time    0.0001: real time    0.0002
 Broyden mixing: mesh for mixing (old mesh)
   NGX = 63   NGY = 47   NGZ = 47
  (NGX  =256   NGY  =192   NGZ  =192)
  gives a total of 139167 points

 initial charge density was supplied:
 number of electron    1024.0000024 magnetization     128.0000040
 keeping initial charge density in first step


--------------------------------------------------------------------------------------------------------


 Maximum index for augmentation-charges         8015 (set IRDMAX)


--------------------------------------------------------------------------------------------------------


 First call to EWALD:  gamma=   0.142
 Maximum number of real-space cells 2x 3x 3
 Maximum number of reciprocal cells 3x 3x 3

    FEWALD:  cpu time    0.0118: real time    0.0136


--------------------------------------- Iteration      1(   1)  ---------------------------------------


    POTLOK:  cpu time    0.6582: real time    0.6821
    SETDIJ:  cpu time    1.6732: real time    1.6901
     EDDAV:  cpu time  349.1773: real time  354.8007
       DOS:  cpu time    0.0044: real time    0.0046
    --------------------------------------------
      LOOP:  cpu time  351.5131: real time  357.1775

 eigenvalue-minimisations  : 30712
 total energy-change (2. order) : 0.1347182E+05  (-0.5518313E+05)
 number of electron    1024.0000024 magnetization     128.0000040
 augmentation part     1024.0000024 magnetization     128.0000040

 Free energy of the ion-electron system (eV)
  ---------------------------------------------------
  alpha Z        PSCENC =      2580.95227926
  Ewald energy   TEWEN  =    -67508.80406270
  -Hartree energ DENC   =    -35943.85439469
  -exchange      EXHF   =         0.00000000
  -V(xc)+E(xc)   XCENC  =      4397.38224666
  PAW double counting   =    108731.45464712  -112348.03830957
  entropy T*S    EENTRO =        -0.03772262
  eigenvalues    EBANDS =      -746.51535806
  atomic energy  EATOM  =    114309.28505226
  Solvation  Ediel_sol  =         0.00000000
  ---------------------------------------------------
  free energy    TOTEN  =     13471.82437766 eV

  energy without entropy =    13471.86210028  energy(sigma->0) =    13471.84323897


--------------------------------------------------------------------------------------------------------




--------------------------------------- Iteration      1(   2)  ---------------------------------------


     EDDAV:  cpu time  338.0947: real time  343.4279
       DOS:  cpu time    0.0044: real time    0.0044
    --------------------------------------------
      LOOP:  cpu time  338.0991: real time  343.4323

 eigenvalue-minimisations  : 29280
 total energy-change (2. order) :-0.1205990E+05  (-0.1121274E+05)
 number of electron    1024.0000024 magnetization     128.0000040
 augmentation part     1024.0000024 magnetization     128.0000040

 Free energy of the ion-electron system (eV)
  ---------------------------------------------------
  alpha Z        PSCENC =      2580.95227926
  Ewald energy   TEWEN  =    -67508.80406270
  -Hartree energ DENC   =    -35943.85439469
  -exchange      EXHF   =         0.00000000
  -V(xc)+E(xc)   XCENC  =      4397.38224666
  PAW double counting   =    108731.45464712  -112348.03830957
  entropy T*S    EENTRO =        -0.06535320
  eigenvalues    EBANDS =    -12806.38725102
  atomic energy  EATOM  =    114309.28505226
  Solvation  Ediel_sol  =         0.00000000
  ---------------------------------------------------
  free energy    TOTEN  =      1411.92485412 eV

  energy without entropy =     1411.99020732  energy(sigma->0) =     1411.95753072


--------------------------------------------------------------------------------------------------------




--------------------------------------- Iteration      1(   3)  ---------------------------------------


     EDDAV:  cpu time  369.8775: real time  375.2515
       DOS:  cpu time    0.0023: real time    0.0023
    --------------------------------------------
      LOOP:  cpu time  369.8798: real time  375.2538

 eigenvalue-minimisations  : 32888
 total energy-change (2. order) :-0.1937295E+04  (-0.1738691E+04)
 number of electron    1024.0000024 magnetization     128.0000040
 augmentation part     1024.0000024 magnetization     128.0000040

 Free energy of the ion-electron system (eV)
  ---------------------------------------------------
  alpha Z        PSCENC =      2580.95227926
  Ewald energy   TEWEN  =    -67508.80406270
  -Hartree energ DENC   =    -35943.85439469
  -exchange      EXHF   =         0.00000000
  -V(xc)+E(xc)   XCENC  =      4397.38224666
  PAW double counting   =    108731.45464712  -112348.03830957
  entropy T*S    EENTRO =        -0.00000000
  eigenvalues    EBANDS =    -14743.74746022
  atomic energy  EATOM  =    114309.28505226
  Solvation  Ediel_sol  =         0.00000000
  ---------------------------------------------------
  free energy    TOTEN  =      -525.37000188 eV

  energy without entropy =     -525.37000188  energy(sigma->0) =     -525.37000188


--------------------------------------------------------------------------------------------------------




--------------------------------------- Iteration      1(   4)  ---------------------------------------


     EDDAV:  cpu time  428.1368: real time  434.7503
       DOS:  cpu time    0.0018: real time    0.0018
    --------------------------------------------
      LOOP:  cpu time  428.1386: real time  434.7521

 eigenvalue-minimisations  : 39336
 total energy-change (2. order) :-0.2634975E+03  (-0.2606210E+03)
 number of electron    1024.0000024 magnetization     128.0000040
 augmentation part     1024.0000024 magnetization     128.0000040

 Free energy of the ion-electron system (eV)
  ---------------------------------------------------
  alpha Z        PSCENC =      2580.95227926
  Ewald energy   TEWEN  =    -67508.80406270
  -Hartree energ DENC   =    -35943.85439469
  -exchange      EXHF   =         0.00000000
  -V(xc)+E(xc)   XCENC  =      4397.38224666
  PAW double counting   =    108731.45464712  -112348.03830957
  entropy T*S    EENTRO =        -0.00000000
  eigenvalues    EBANDS =    -15007.24491838
  atomic energy  EATOM  =    114309.28505226
  Solvation  Ediel_sol  =         0.00000000
  ---------------------------------------------------
  free energy    TOTEN  =      -788.86746003 eV

  energy without entropy =     -788.86746003  energy(sigma->0) =     -788.86746003


--------------------------------------------------------------------------------------------------------




--------------------------------------- Iteration      1(   5)  ---------------------------------------


     EDDAV:  cpu time  531.6279: real time  539.5150
       DOS:  cpu time    0.0019: real time    0.0019
    CHARGE:  cpu time    8.6870: real time    8.7270
    MIXING:  cpu time    0.0263: real time    0.0265
    --------------------------------------------
      LOOP:  cpu time  540.3431: real time  548.2705

 eigenvalue-minimisations  : 51336
 total energy-change (2. order) :-0.3168132E+02  (-0.3142772E+02)
 number of electron    1024.0000024 magnetization     128.0000033
 augmentation part      329.1981143 magnetization      84.1931093

 Broyden mixing:
  rms(total) = 0.31792E+00    rms(broyden)= 0.31757E+00
  rms(prec ) = 0.32145E+00
  weight for this iteration     100.00

 Free energy of the ion-electron system (eV)
  ---------------------------------------------------
  alpha Z        PSCENC =      2580.95227926
  Ewald energy   TEWEN  =    -67508.80406270
  -Hartree energ DENC   =    -35943.85439469
  -exchange      EXHF   =         0.00000000
  -V(xc)+E(xc)   XCENC  =      4397.38224666
  PAW double counting   =    108731.45464712  -112348.03830957
  entropy T*S    EENTRO =        -0.00000000
  eigenvalues    EBANDS =    -15038.92623514
  atomic energy  EATOM  =    114309.28505226
  Solvation  Ediel_sol  =         0.00000000
  ---------------------------------------------------
  free energy    TOTEN  =      -820.54877680 eV

  energy without entropy =     -820.54877680  energy(sigma->0) =     -820.54877680


--------------------------------------------------------------------------------------------------------




--------------------------------------- Iteration      1(   6)  ---------------------------------------


    POTLOK:  cpu time    0.6665: real time    0.6740
    SETDIJ:  cpu time    1.6888: real time    1.6957
     EDDAV:  cpu time  438.5148: real time  445.6344
       DOS:  cpu time    0.0020: real time    0.0035
    CHARGE:  cpu time    8.3815: real time    8.5366
    MIXING:  cpu time    0.0287: real time    0.0297
    --------------------------------------------
      LOOP:  cpu time  449.2823: real time  456.5739

 eigenvalue-minimisations  : 40624
 total energy-change (2. order) :-0.1445283E+01  (-0.1492810E+01)
 number of electron    1024.0000024 magnetization     128.0000028
 augmentation part      327.4413705 magnetization      84.3728685

 Broyden mixing:
  rms(total) = 0.13478E+00    rms(broyden)= 0.13446E+00
  rms(prec ) = 0.13546E+00
  weight for this iteration     100.00

 eigenvalues of (default mixing * dielectric matrix)
  average eigenvalue GAMMA=   0.6587
  0.6587

 Free energy of the ion-electron system (eV)
  ---------------------------------------------------
  alpha Z        PSCENC =      2580.95227926
  Ewald energy   TEWEN  =    -67508.80406270
  -Hartree energ DENC   =    -35935.44062139
  -exchange      EXHF   =         0.00000000
  -V(xc)+E(xc)   XCENC  =      4396.13073662
  PAW double counting   =    108542.75734351  -112153.72457276
  entropy T*S    EENTRO =        -0.00000000
  eigenvalues    EBANDS =    -15053.15021452
  atomic energy  EATOM  =    114309.28505226
  Solvation  Ediel_sol  =         0.00000000
  ---------------------------------------------------
  free energy    TOTEN  =      -821.99405973 eV

  energy without entropy =     -821.99405973  energy(sigma->0) =     -821.99405973


--------------------------------------------------------------------------------------------------------




--------------------------------------- Iteration      1(   7)  ---------------------------------------


    POTLOK:  cpu time    0.6671: real time    0.6797
    SETDIJ:  cpu time    1.6665: real time    1.6890
     EDDAV:  cpu time  496.6083: real time  503.8626
       DOS:  cpu time    0.0018: real time    0.0018
    CHARGE:  cpu time    8.3599: real time    8.5283
    MIXING:  cpu time    0.0288: real time    0.0293
    --------------------------------------------
      LOOP:  cpu time  507.3324: real time  514.7907

 eigenvalue-minimisations  : 47296
 total energy-change (2. order) :-0.7315875E-01  (-0.7242551E-01)
 number of electron    1024.0000024 magnetization     128.0000026
 augmentation part      327.1430576 magnetization      84.3019153

 Broyden mixing:
  rms(total) = 0.97815E-01    rms(broyden)= 0.97692E-01
  rms(prec ) = 0.99193E-01
  weight for this iteration     100.00

 eigenvalues of (default mixing * dielectric matrix)
  average eigenvalue GAMMA=   0.6017
  0.6017  0.6017

 Free energy of the ion-electron system (eV)
  ---------------------------------------------------
  alpha Z        PSCENC =      2580.95227926
  Ewald energy   TEWEN  =    -67508.80406270
  -Hartree energ DENC   =    -35938.07650955
  -exchange      EXHF   =         0.00000000
  -V(xc)+E(xc)   XCENC  =      4396.47410142
  PAW double counting   =    108586.11610235  -112198.53115846
  entropy T*S    EENTRO =        -0.00000000
  eigenvalues    EBANDS =    -15049.48302306
  atomic energy  EATOM  =    114309.28505226
  Solvation  Ediel_sol  =         0.00000000
  ---------------------------------------------------
  free energy    TOTEN  =      -822.06721848 eV

  energy without entropy =     -822.06721848  energy(sigma->0) =     -822.06721848


--------------------------------------------------------------------------------------------------------




--------------------------------------- Iteration      1(   8)  ---------------------------------------


    POTLOK:  cpu time    0.6570: real time    0.6815
    SETDIJ:  cpu time    1.6599: real time    1.6876
     EDDAV:  cpu time  472.1369: real time  479.5441
       DOS:  cpu time    0.0023: real time    0.0023
    CHARGE:  cpu time    8.4553: real time    8.6016
    MIXING:  cpu time    0.0274: real time    0.0277
    --------------------------------------------
      LOOP:  cpu time  482.9388: real time  490.5450

 eigenvalue-minimisations  : 44576
 total energy-change (2. order) :-0.8714778E-05  (-0.2812069E-02)
 number of electron    1024.0000024 magnetization     128.0000026
 augmentation part      327.0905827 magnetization      84.2873543

 Broyden mixing:
  rms(total) = 0.84939E-01    rms(broyden)= 0.84928E-01
  rms(prec ) = 0.86275E-01
  weight for this iteration     100.00

 eigenvalues of (default mixing * dielectric matrix)
  average eigenvalue GAMMA=   0.5417
  0.6208  0.6208  0.3833

 Free energy of the ion-electron system (eV)
  ---------------------------------------------------
  alpha Z        PSCENC =      2580.95227926
  Ewald energy   TEWEN  =    -67508.80406270
  -Hartree energ DENC   =    -35938.94677466
  -exchange      EXHF   =         0.00000000
  -V(xc)+E(xc)   XCENC  =      4396.62055151
  PAW double counting   =    108612.43707335  -112225.59732439
  entropy T*S    EENTRO =        -0.00000000
  eigenvalues    EBANDS =    -15048.01402182
  atomic energy  EATOM  =    114309.28505226
  Solvation  Ediel_sol  =         0.00000000
  ---------------------------------------------------
  free energy    TOTEN  =      -822.06722720 eV

  energy without entropy =     -822.06722720  energy(sigma->0) =     -822.06722720


--------------------------------------------------------------------------------------------------------




--------------------------------------- Iteration      1(   9)  ---------------------------------------


    POTLOK:  cpu time    0.6655: real time    0.6766
    SETDIJ:  cpu time    1.6619: real time    1.6920
     EDDAV:  cpu time  496.3718: real time  504.3072
       DOS:  cpu time    0.0024: real time    0.0031
    CHARGE:  cpu time    8.2920: real time    8.5684
    MIXING:  cpu time    0.0374: real time    0.0445
    --------------------------------------------
      LOOP:  cpu time  507.0311: real time  515.2922

 eigenvalue-minimisations  : 47512
 total energy-change (2. order) : 0.9358011E-03  (-0.1761909E-03)
 number of electron    1024.0000024 magnetization     128.0000025
 augmentation part      327.0997508 magnetization      84.2821366

 Broyden mixing:
  rms(total) = 0.78168E-01    rms(broyden)= 0.78168E-01
  rms(prec ) = 0.79386E-01
  weight for this iteration     100.00

 eigenvalues of (default mixing * dielectric matrix)
  average eigenvalue GAMMA=   0.5189
  0.6394  0.6394  0.3983  0.3983

 Free energy of the ion-electron system (eV)
  ---------------------------------------------------
  alpha Z        PSCENC =      2580.95227926
  Ewald energy   TEWEN  =    -67508.80406270
  -Hartree energ DENC   =    -35939.20214547
  -exchange      EXHF   =         0.00000000
  -V(xc)+E(xc)   XCENC  =      4396.67922932
  PAW double counting   =    108620.05281796  -112233.47189296
  entropy T*S    EENTRO =        -0.00000000
  eigenvalues    EBANDS =    -15047.55756905
  atomic energy  EATOM  =    114309.28505226
  Solvation  Ediel_sol  =         0.00000000
  ---------------------------------------------------
  free energy    TOTEN  =      -822.06629139 eV

  energy without entropy =     -822.06629139  energy(sigma->0) =     -822.06629139


--------------------------------------------------------------------------------------------------------




--------------------------------------- Iteration      1(  10)  ---------------------------------------


    POTLOK:  cpu time    0.6762: real time    0.6867
    SETDIJ:  cpu time    1.6591: real time    1.6946
     EDDAV:  cpu time  494.8771: real time  502.2621
       DOS:  cpu time    0.0018: real time    0.0018
    CHARGE:  cpu time    8.3406: real time    8.5585
    MIXING:  cpu time    0.0371: real time    0.0381
    --------------------------------------------
      LOOP:  cpu time  505.5920: real time  513.2416

 eigenvalue-minimisations  : 47232
 total energy-change (2. order) : 0.3450196E-03  (-0.1647421E-04)
 number of electron    1024.0000024 magnetization     128.0000021
 augmentation part      327.1052893 magnetization      84.2813147

 Broyden mixing:
  rms(total) = 0.75467E-01    rms(broyden)= 0.75467E-01
  rms(prec ) = 0.76623E-01
  weight for this iteration     100.00

 eigenvalues of (default mixing * dielectric matrix)
  average eigenvalue GAMMA=   0.7410
  1.0803  1.0803  0.5566  0.5566  0.4311

 Free energy of the ion-electron system (eV)
  ---------------------------------------------------
  alpha Z        PSCENC =      2580.95227926
  Ewald energy   TEWEN  =    -67508.80406270
  -Hartree energ DENC   =    -35939.36302679
  -exchange      EXHF   =         0.00000000
  -V(xc)+E(xc)   XCENC  =      4396.70506288
  PAW double counting   =    108623.19777560  -112236.72672404
  entropy T*S    EENTRO =        -0.00000000
  eigenvalues    EBANDS =    -15047.31230285
  atomic energy  EATOM  =    114309.28505226
  Solvation  Ediel_sol  =         0.00000000
  ---------------------------------------------------
  free energy    TOTEN  =      -822.06594637 eV

  energy without entropy =     -822.06594637  energy(sigma->0) =     -822.06594637


--------------------------------------------------------------------------------------------------------




--------------------------------------- Iteration      1(  11)  ---------------------------------------


    POTLOK:  cpu time    0.6847: real time    0.6966
    SETDIJ:  cpu time    1.6577: real time    1.6754
     EDDAV:  cpu time  531.8935: real time  540.1615
       DOS:  cpu time    0.0018: real time    0.0018
    CHARGE:  cpu time    8.5296: real time    8.6080
    MIXING:  cpu time    0.0336: real time    0.0361
    --------------------------------------------
      LOOP:  cpu time  542.8009: real time  551.1793

 eigenvalue-minimisations  : 51176
 total energy-change (2. order) : 0.2960653E-02  (-0.1146948E-03)
 number of electron    1024.0000024 magnetization     128.0000020
 augmentation part      327.1304388 magnetization      84.2807313

 Broyden mixing:
  rms(total) = 0.45213E-01    rms(broyden)= 0.45212E-01
  rms(prec ) = 0.45816E-01
  weight for this iteration     100.00

 eigenvalues of (default mixing * dielectric matrix)
  average eigenvalue GAMMA=   0.6927
  1.1211  1.1211  0.5822  0.5822  0.3748  0.3748

 Free energy of the ion-electron system (eV)
  ---------------------------------------------------
  alpha Z        PSCENC =      2580.95227926
  Ewald energy   TEWEN  =    -67508.80406270
  -Hartree energ DENC   =    -35941.16206285
  -exchange      EXHF   =         0.00000000
  -V(xc)+E(xc)   XCENC  =      4397.00214748
  PAW double counting   =    108664.46979640  -112279.37580053
  entropy T*S    EENTRO =        -0.00000000
  eigenvalues    EBANDS =    -15044.43033503
  atomic energy  EATOM  =    114309.28505226
  Solvation  Ediel_sol  =         0.00000000
  ---------------------------------------------------
  free energy    TOTEN  =      -822.06298572 eV

  energy without entropy =     -822.06298572  energy(sigma->0) =     -822.06298572


--------------------------------------------------------------------------------------------------------




--------------------------------------- Iteration      1(  12)  ---------------------------------------


    POTLOK:  cpu time    0.6630: real time    0.6758
    SETDIJ:  cpu time    1.6647: real time    1.6879
     EDDAV:  cpu time  415.8309: real time  422.7716
       DOS:  cpu time    0.0030: real time    0.0033
    CHARGE:  cpu time    8.4484: real time    8.5482
    MIXING:  cpu time    0.0328: real time    0.0328
    --------------------------------------------
      LOOP:  cpu time  426.6426: real time  433.7195

 eigenvalue-minimisations  : 38192
 total energy-change (2. order) : 0.5785735E-04  (-0.5002839E-04)
 number of electron    1024.0000024 magnetization     128.0000018
 augmentation part      327.1403929 magnetization      84.2797225

 Broyden mixing:
  rms(total) = 0.42312E-01    rms(broyden)= 0.42312E-01
  rms(prec ) = 0.42858E-01
  weight for this iteration     100.00

 eigenvalues of (default mixing * dielectric matrix)
  average eigenvalue GAMMA=   0.7839
  1.3724  1.3724  0.6785  0.6785  0.4870  0.4870  0.4117

 Free energy of the ion-electron system (eV)
  ---------------------------------------------------
  alpha Z        PSCENC =      2580.95227926
  Ewald energy   TEWEN  =    -67508.80406270
  -Hartree energ DENC   =    -35941.33953885
  -exchange      EXHF   =         0.00000000
  -V(xc)+E(xc)   XCENC  =      4397.02315659
  PAW double counting   =    108667.97911359  -112282.97304382
  entropy T*S    EENTRO =        -0.00000000
  eigenvalues    EBANDS =    -15044.18588420
  atomic energy  EATOM  =    114309.28505226
  Solvation  Ediel_sol  =         0.00000000
  ---------------------------------------------------
  free energy    TOTEN  =      -822.06292786 eV

  energy without entropy =     -822.06292786  energy(sigma->0) =     -822.06292786


--------------------------------------------------------------------------------------------------------




--------------------------------------- Iteration      1(  13)  ---------------------------------------


    POTLOK:  cpu time    0.6842: real time    0.6847
    SETDIJ:  cpu time    1.6815: real time    1.6823
     EDDAV:  cpu time  519.0706: real time  527.3722
       DOS:  cpu time    0.0017: real time    0.0017
    CHARGE:  cpu time    8.3704: real time    8.5434
    MIXING:  cpu time    0.0336: real time    0.0364
    --------------------------------------------
      LOOP:  cpu time  529.8419: real time  538.3207

 eigenvalue-minimisations  : 49584
 total energy-change (2. order) : 0.5484826E-03  (-0.1676709E-04)
 number of electron    1024.0000024 magnetization     128.0000016
 augmentation part      327.1492936 magnetization      84.2800663

 Broyden mixing:
  rms(total) = 0.30929E-01    rms(broyden)= 0.30929E-01
  rms(prec ) = 0.31296E-01
  weight for this iteration     100.00

 eigenvalues of (default mixing * dielectric matrix)
  average eigenvalue GAMMA=   0.8047
  1.5492  1.5492  0.7512  0.7512  0.5130  0.5130  0.4053  0.4053

 Free energy of the ion-electron system (eV)
  ---------------------------------------------------
  alpha Z        PSCENC =      2580.95227926
  Ewald energy   TEWEN  =    -67508.80406270
  -Hartree energ DENC   =    -35942.05515175
  -exchange      EXHF   =         0.00000000
  -V(xc)+E(xc)   XCENC  =      4397.13061936
  PAW double counting   =    108684.04722606  -112299.49842644
  entropy T*S    EENTRO =        -0.00000000
  eigenvalues    EBANDS =    -15043.11991543
  atomic energy  EATOM  =    114309.28505226
  Solvation  Ediel_sol  =         0.00000000
  ---------------------------------------------------
  free energy    TOTEN  =      -822.06237938 eV

  energy without entropy =     -822.06237938  energy(sigma->0) =     -822.06237938


--------------------------------------------------------------------------------------------------------




--------------------------------------- Iteration      1(  14)  ---------------------------------------


    POTLOK:  cpu time    0.6702: real time    0.6875
    SETDIJ:  cpu time    1.6664: real time    1.6896
     EDDAV:  cpu time  426.5121: real time  433.2908
       DOS:  cpu time    0.0030: real time    0.0033
    CHARGE:  cpu time    8.3944: real time    8.5894
    MIXING:  cpu time    0.0356: real time    0.0390
    --------------------------------------------
      LOOP:  cpu time  437.2817: real time  444.2996

 eigenvalue-minimisations  : 39528
 total energy-change (2. order) : 0.1285462E-03  (-0.9944970E-05)
 number of electron    1024.0000024 magnetization     128.0000012
 augmentation part      327.1538847 magnetization      84.2794824

 Broyden mixing:
  rms(total) = 0.26185E-01    rms(broyden)= 0.26185E-01
  rms(prec ) = 0.26490E-01
  weight for this iteration     100.00

 eigenvalues of (default mixing * dielectric matrix)
  average eigenvalue GAMMA=   0.9533
  2.0481  2.0481  0.9521  0.9521  0.6079  0.6079  0.4801  0.4801  0.4031

 Free energy of the ion-electron system (eV)
  ---------------------------------------------------
  alpha Z        PSCENC =      2580.95227926
  Ewald energy   TEWEN  =    -67508.80406270
  -Hartree energ DENC   =    -35942.36367718
  -exchange      EXHF   =         0.00000000
  -V(xc)+E(xc)   XCENC  =      4397.17046992
  PAW double counting   =    108691.14076445  -112306.74736990
  entropy T*S    EENTRO =        -0.00000000
  eigenvalues    EBANDS =    -15042.69570694
  atomic energy  EATOM  =    114309.28505226
  Solvation  Ediel_sol  =         0.00000000
  ---------------------------------------------------
  free energy    TOTEN  =      -822.06225084 eV

  energy without entropy =     -822.06225084  energy(sigma->0) =     -822.06225084


--------------------------------------------------------------------------------------------------------




--------------------------------------- Iteration      1(  15)  ---------------------------------------


    POTLOK:  cpu time    0.6662: real time    0.6809
    SETDIJ:  cpu time    1.6585: real time    1.6888
     EDDAV:  cpu time  528.3647: real time  537.1788
       DOS:  cpu time    0.0019: real time    0.0019
    CHARGE:  cpu time    8.5884: real time    8.6277
    MIXING:  cpu time    0.0375: real time    0.0375
    --------------------------------------------
      LOOP:  cpu time  539.3171: real time  548.2155

 eigenvalue-minimisations  : 50944
 total energy-change (2. order) : 0.3099418E-03  (-0.1754420E-04)
 number of electron    1024.0000024 magnetization     128.0000010
 augmentation part      327.1629290 magnetization      84.2799477

 Broyden mixing:
  rms(total) = 0.12168E-01    rms(broyden)= 0.12168E-01
  rms(prec ) = 0.12296E-01
  weight for this iteration     100.00

 eigenvalues of (default mixing * dielectric matrix)
  average eigenvalue GAMMA=   1.0205
  2.4371  2.4371  1.0544  1.0544  0.6783  0.6783  0.5096  0.5096  0.4093  0.4369

 Free energy of the ion-electron system (eV)
  ---------------------------------------------------
  alpha Z        PSCENC =      2580.95227926
  Ewald energy   TEWEN  =    -67508.80406270
  -Hartree energ DENC   =    -35943.19991065
  -exchange      EXHF   =         0.00000000
  -V(xc)+E(xc)   XCENC  =      4397.29077448
  PAW double counting   =    108711.83296081  -112327.93825409
  entropy T*S    EENTRO =        -0.00000000
  eigenvalues    EBANDS =    -15041.48078026
  atomic energy  EATOM  =    114309.28505226
  Solvation  Ediel_sol  =         0.00000000
  ---------------------------------------------------
  free energy    TOTEN  =      -822.06194089 eV

  energy without entropy =     -822.06194089  energy(sigma->0) =     -822.06194089


--------------------------------------------------------------------------------------------------------




--------------------------------------- Iteration      1(  16)  ---------------------------------------


    POTLOK:  cpu time    0.6582: real time    0.6611
    SETDIJ:  cpu time    1.6713: real time    1.6798
     EDDAV:  cpu time  404.2870: real time  410.7246
       DOS:  cpu time    0.0028: real time    0.0028
    CHARGE:  cpu time    8.4433: real time    8.5837
    MIXING:  cpu time    0.0334: real time    0.0392
    --------------------------------------------
      LOOP:  cpu time  415.0958: real time  421.6910

 eigenvalue-minimisations  : 36384
 total energy-change (2. order) : 0.5061497E-04  (-0.1428406E-04)
 number of electron    1024.0000024 magnetization     128.0000010
 augmentation part      327.1690461 magnetization      84.2791563

 Broyden mixing:
  rms(total) = 0.60874E-02    rms(broyden)= 0.60867E-02
  rms(prec ) = 0.61386E-02
  weight for this iteration     100.00

 eigenvalues of (default mixing * dielectric matrix)
  average eigenvalue GAMMA=   1.0266
  2.6031  2.6031  1.1192  1.1192  0.7295  0.7295  0.5375  0.5375  0.4629  0.4629
  0.3880

 Free energy of the ion-electron system (eV)
  ---------------------------------------------------
  alpha Z        PSCENC =      2580.95227926
  Ewald energy   TEWEN  =    -67508.80406270
  -Hartree energ DENC   =    -35943.57445650
  -exchange      EXHF   =         0.00000000
  -V(xc)+E(xc)   XCENC  =      4397.34147969
  PAW double counting   =    108721.24174343  -112337.56767090
  entropy T*S    EENTRO =        -0.00000000
  eigenvalues    EBANDS =    -15040.93625481
  atomic energy  EATOM  =    114309.28505226
  Solvation  Ediel_sol  =         0.00000000
  ---------------------------------------------------
  free energy    TOTEN  =      -822.06189028 eV

  energy without entropy =     -822.06189028  energy(sigma->0) =     -822.06189028


--------------------------------------------------------------------------------------------------------




--------------------------------------- Iteration      1(  17)  ---------------------------------------


    POTLOK:  cpu time    0.6701: real time    0.6705
    SETDIJ:  cpu time    1.6929: real time    1.6931
     EDDAV:  cpu time  466.4497: real time  473.4586
       DOS:  cpu time    0.0018: real time    0.0019
    CHARGE:  cpu time    8.5432: real time    8.6511
    MIXING:  cpu time    0.0336: real time    0.0336
    --------------------------------------------
      LOOP:  cpu time  477.3912: real time  484.5089

 eigenvalue-minimisations  : 43976
 total energy-change (2. order) : 0.1928842E-05  (-0.2593085E-05)
 number of electron    1024.0000024 magnetization     128.0000010
 augmentation part      327.1716362 magnetization      84.2795729

 Broyden mixing:
  rms(total) = 0.51478E-02    rms(broyden)= 0.51473E-02
  rms(prec ) = 0.51839E-02
  weight for this iteration     100.00

 eigenvalues of (default mixing * dielectric matrix)
  average eigenvalue GAMMA=   0.9457
  2.5832  2.5832  1.1151  1.1151  0.7278  0.7278  0.5389  0.5389  0.4636  0.4636
  0.3887  0.1027

 Free energy of the ion-electron system (eV)
  ---------------------------------------------------
  alpha Z        PSCENC =      2580.95227926
  Ewald energy   TEWEN  =    -67508.80406270
  -Hartree energ DENC   =    -35943.61962010
  -exchange      EXHF   =         0.00000000
  -V(xc)+E(xc)   XCENC  =      4397.34826881
  PAW double counting   =    108722.86671494  -112339.23040478
  entropy T*S    EENTRO =        -0.00000000
  eigenvalues    EBANDS =    -15040.86011603
  atomic energy  EATOM  =    114309.28505226
  Solvation  Ediel_sol  =         0.00000000
  ---------------------------------------------------
  free energy    TOTEN  =      -822.06188835 eV

  energy without entropy =     -822.06188835  energy(sigma->0) =     -822.06188835


--------------------------------------------------------------------------------------------------------




--------------------------------------- Iteration      1(  18)  ---------------------------------------


    POTLOK:  cpu time    0.6746: real time    0.6753
    SETDIJ:  cpu time    1.6830: real time    1.6831
     EDDAV:  cpu time  451.0124: real time  458.1923
       DOS:  cpu time    0.0020: real time    0.0020
    CHARGE:  cpu time    8.4258: real time    8.6164
    MIXING:  cpu time    0.0408: real time    0.0436
    --------------------------------------------
      LOOP:  cpu time  461.8387: real time  469.2127

 eigenvalue-minimisations  : 42256
 total energy-change (2. order) : 0.2101006E-06  (-0.1881643E-06)
 number of electron    1024.0000024 magnetization     128.0000010
 augmentation part      327.1724150 magnetization      84.2794736

 Broyden mixing:
  rms(total) = 0.50588E-02    rms(broyden)= 0.50584E-02
  rms(prec ) = 0.50924E-02
  weight for this iteration     100.00

 eigenvalues of (default mixing * dielectric matrix)
  average eigenvalue GAMMA=   0.9306
  2.5529  2.5529  1.0985  1.0985  0.7139  0.7139  0.5356  0.5356  0.4624  0.4624
  0.3908  0.4900  0.4900

 Free energy of the ion-electron system (eV)
  ---------------------------------------------------
  alpha Z        PSCENC =      2580.95227926
  Ewald energy   TEWEN  =    -67508.80406270
  -Hartree energ DENC   =    -35943.62463849
  -exchange      EXHF   =         0.00000000
  -V(xc)+E(xc)   XCENC  =      4397.34885492
  PAW double counting   =    108722.86975592  -112339.23426554
  entropy T*S    EENTRO =        -0.00000000
  eigenvalues    EBANDS =    -15040.85486377
  atomic energy  EATOM  =    114309.28505226
  Solvation  Ediel_sol  =         0.00000000
  ---------------------------------------------------
  free energy    TOTEN  =      -822.06188814 eV

  energy without entropy =     -822.06188814  energy(sigma->0) =     -822.06188814


--------------------------------------------------------------------------------------------------------




--------------------------------------- Iteration      1(  19)  ---------------------------------------


    POTLOK:  cpu time    0.6686: real time    0.6825
    SETDIJ:  cpu time    1.6569: real time    1.6981
     EDDAV:  cpu time  367.2879: real time  372.8391
       DOS:  cpu time    0.0019: real time    0.0019
    CHARGE:  cpu time    8.4742: real time    8.5654
    MIXING:  cpu time    0.0460: real time    0.0462
    --------------------------------------------
      LOOP:  cpu time  378.1355: real time  383.8330

 eigenvalue-minimisations  : 31656
 total energy-change (2. order) : 0.7780473E-06  (-0.8841756E-08)
 number of electron    1024.0000024 magnetization     128.0000010
 augmentation part      327.1725201 magnetization      84.2794870

 Broyden mixing:
  rms(total) = 0.49825E-02    rms(broyden)= 0.49821E-02
  rms(prec ) = 0.50144E-02
  weight for this iteration     100.00

 eigenvalues of (default mixing * dielectric matrix)
  average eigenvalue GAMMA=   0.9947
  2.5414  2.5414  1.5820  1.1428  1.1428  0.7410  0.7410  0.5484  0.5484  0.5348
  0.5348  0.4666  0.4666  0.3942

 Free energy of the ion-electron system (eV)
  ---------------------------------------------------
  alpha Z        PSCENC =      2580.95227926
  Ewald energy   TEWEN  =    -67508.80406270
  -Hartree energ DENC   =    -35943.62872957
  -exchange      EXHF   =         0.00000000
  -V(xc)+E(xc)   XCENC  =      4397.34975951
  PAW double counting   =    108722.99083030  -112339.36013098
  entropy T*S    EENTRO =        -0.00000000
[...]
   0.325E-03 0.426E-02 -.645E-04   -.437E-03 -.435E-02 0.179E-03   0.147E-03 0.144E-03 -.186E-03   -.398E-06 0.232E-07 -.800E-07
   0.674E-03 -.125E-01 0.742E-03   -.716E-03 0.126E-01 -.772E-03   0.696E-04 -.235E-03 0.104E-03   0.890E-06 0.357E-07 -.279E-06
   -.380E-03 -.403E-02 0.904E-04   0.377E-03 0.412E-02 -.153E-03   0.717E-05 -.143E-03 0.109E-03   0.398E-06 0.372E-06 0.293E-06
   -.132E+00 0.282E+00 0.198E-01   0.146E+00 -.310E+00 -.239E-01   -.113E-01 0.351E-01 0.295E-02   0.103E-05 -.413E-06 0.489E-07
   0.152E-02 0.909E-02 0.490E-04   -.164E-02 -.953E-02 -.129E-03   0.145E-03 0.638E-03 0.677E-04   0.104E-05 0.411E-06 0.133E-06
   0.328E-02 -.401E-01 -.877E-03   -.407E-02 0.451E-01 0.874E-03   0.123E-02 -.753E-02 0.580E-03   0.758E-06 0.379E-06 0.553E-07
   -.104E-02 -.741E-02 -.544E-04   0.104E-02 0.783E-02 0.868E-04   0.214E-04 -.622E-03 0.320E-05   -.695E-06 -.174E-06 0.130E-08
   -.235E-01 -.227E-01 -.292E-01   0.244E-01 0.233E-01 0.309E-01   -.123E-02 -.674E-03 -.235E-02   -.142E-06 -.167E-06 0.115E-06
   0.492E-02 -.145E-02 -.202E-02   -.507E-02 0.160E-02 0.215E-02   0.193E-03 -.201E-03 -.179E-03   -.627E-07 -.268E-06 0.335E-07
   0.321E-01 -.143E-01 0.400E-01   -.336E-01 0.141E-01 -.426E-01   0.189E-02 0.142E-04 0.371E-02   0.212E-06 0.109E-06 0.125E-06
   -.530E-02 0.552E-03 0.211E-02   0.539E-02 -.699E-03 -.229E-02   -.122E-03 0.193E-03 0.260E-03   0.257E-06 -.165E-07 0.263E-06
   -.158E-01 -.144E-01 0.240E-01   0.172E-01 0.147E-01 -.255E-01   -.191E-02 -.692E-03 0.231E-02   -.121E-06 -.256E-06 -.101E-06
   0.414E-02 -.123E-02 0.192E-02   -.428E-02 0.124E-02 -.208E-02   0.181E-03 -.277E-04 0.232E-03   -.883E-06 0.113E-06 -.218E-06
   0.192E-01 -.744E-02 -.287E-01   -.206E-01 0.712E-02 0.312E-01   0.207E-02 0.819E-03 -.368E-02   0.437E-08 0.656E-07 -.289E-06
   -.434E-02 0.517E-03 -.197E-02   0.446E-02 -.540E-03 0.217E-02   -.152E-03 0.503E-04 -.308E-03   -.544E-06 -.196E-06 -.520E-06
   0.542E-03 0.155E-01 -.995E-03   -.109E-02 -.155E-01 0.133E-02   0.752E-03 -.180E-04 -.462E-03   0.134E-06 0.160E-06 -.440E-06
   -.378E-03 0.424E-02 -.248E-03   0.435E-03 -.434E-02 0.178E-03   -.796E-04 0.153E-03 0.124E-03   0.993E-06 0.270E-06 -.419E-06
   -.584E-03 -.125E-01 0.809E-03   0.715E-03 0.126E-01 -.774E-03   -.178E-03 -.220E-03 -.108E-03   -.126E-05 0.112E-06 -.393E-06
   0.329E-03 -.401E-02 0.205E-03   -.376E-03 0.411E-02 -.152E-03   0.650E-04 -.161E-03 -.965E-04   -.320E-06 -.813E-06 0.728E-06
   0.134E+00 0.285E+00 0.235E-01   -.148E+00 -.314E+00 -.244E-01   0.108E-01 0.354E-01 0.134E-02   -.252E-05 -.416E-06 -.309E-07
   -.159E-02 0.904E-02 0.166E-03   0.163E-02 -.949E-02 -.128E-03   -.392E-04 0.663E-03 -.454E-05   -.426E-06 -.500E-06 0.577E-06
   -.321E-02 -.402E-01 -.894E-03   0.406E-02 0.452E-01 0.877E-03   -.119E-02 -.749E-02 -.504E-03   -.820E-06 -.578E-06 0.629E-06
   0.971E-03 -.737E-02 -.115E-03   -.103E-02 0.780E-02 0.863E-04   0.772E-04 -.637E-03 -.764E-05   0.658E-06 0.267E-06 -.465E-06
   0.229E-01 -.228E-01 -.293E-01   -.244E-01 0.234E-01 0.310E-01   0.217E-02 -.126E-02 -.275E-02   0.189E-05 0.271E-06 -.490E-06
   -.495E-02 -.157E-02 -.200E-02   0.504E-02 0.159E-02 0.214E-02   -.115E-03 -.404E-04 -.206E-03   -.451E-06 -.713E-06 0.481E-06
   -.322E-01 -.144E-01 0.401E-01   0.336E-01 0.142E-01 -.428E-01   -.187E-02 0.590E-03 0.391E-02   0.133E-06 0.509E-07 0.170E-06
   0.520E-02 0.649E-03 0.207E-02   -.536E-02 -.699E-03 -.228E-02   0.232E-03 0.942E-04 0.316E-03   -.883E-06 0.645E-06 -.564E-06
   0.162E-01 -.144E-01 0.239E-01   -.172E-01 0.147E-01 -.256E-01   0.126E-02 -.377E-03 0.232E-02   0.392E-06 0.137E-06 0.562E-07
   -.416E-02 -.111E-02 0.193E-02   0.426E-02 0.123E-02 -.206E-02   -.125E-03 -.171E-03 0.178E-03   0.430E-06 0.102E-05 -.699E-06
   -.188E-01 -.744E-02 -.289E-01   0.206E-01 0.717E-02 0.313E-01   -.246E-02 0.137E-03 -.348E-02   -.250E-06 0.312E-06 0.149E-06
   0.427E-02 0.422E-03 -.194E-02   -.443E-02 -.540E-03 0.216E-02   0.223E-03 0.154E-03 -.308E-03   0.484E-06 -.286E-06 0.541E-06
 -----------------------------------------------------------------------------------------------
   -.517E-02 -.300E-01 -.111E-03   -.407E-12 0.116E-14 -.239E-12   0.517E-02 0.300E-01 0.112E-03   0.104E-06 0.967E-06 -.557E-06
 
 
 POSITION                                       TOTAL-FORCE (eV/Angst)
 -----------------------------------------------------------------------------------
      1.92590      3.14932      5.36011         0.001252     -0.024046      0.000342
      9.61372      3.13932      5.36004        -0.000003     -0.000099     -0.000066
      1.92590      8.76310      5.40133         0.000041      0.002251      0.000011
      9.61372      8.76310      5.40133        -0.000003     -0.000023     -0.000061
      1.92590      3.18168     10.98368         0.000032      0.000009      0.000029
      9.61372      3.18168     10.98368         0.000001     -0.000076     -0.000061
      1.92590      8.80547     11.02497        -0.000007     -0.000089     -0.000028
      9.61372      8.80547     11.02497        -0.000001     -0.000044     -0.000061
      1.92590      5.35991      3.13736        -0.000065      0.000567     -0.002246
      9.61372      5.35991      3.13736         0.000001      0.000045      0.000044
      1.92590     10.98369      3.17866         0.000134      0.000485      0.001027
      9.61372     10.98369      3.17866        -0.000000      0.000075      0.000074
      1.92590      5.40227      8.76100        -0.000004     -0.000166      0.001041
      9.61372      5.40227      8.76100         0.000002      0.000047      0.000074
      1.92590     11.02606      8.80230        -0.000049      0.000303     -0.000581
      9.61372     11.02606      8.80230         0.000003      0.000074      0.000058
      5.76192      2.52683      0.30490        -0.000047      0.000052      0.000107
     13.44973      2.52683      0.30490         0.000031      0.000039      0.000033
      5.76192      8.15062      0.34619         0.000006      0.000087      0.000041
     13.44973      8.15062      0.34619        -0.000018      0.000091      0.000074
      5.76192      2.56920      5.92854        -0.000174     -0.000091     -0.000124
     13.44973      2.56920      5.92854         0.000264     -0.000072      0.000174
      5.76192      8.19298      5.96983         0.000062      0.000206      0.000106
     13.44973      8.19298      5.96983        -0.000123      0.000213      0.000031
      5.76192      0.30624      2.52757        -0.000079     -0.000065     -0.000090
     13.44973      0.30624      2.52757         0.000092     -0.000081     -0.000024
      5.76192      5.93003      2.56887         0.000132     -0.000087     -0.000120
     13.44973      5.93003      2.56887        -0.000121     -0.000061     -0.000091
      5.76192      0.34861      8.15121        -0.000100     -0.000086     -0.000120
     13.44973      0.34861      8.15121         0.000051     -0.000061     -0.000090
      5.76192      5.97239      8.19250         0.000096     -0.000067     -0.000018
     13.44973      5.97239      8.19250        -0.000166     -0.000082      0.000021
      4.24371      4.24961      4.24870         0.002834     -0.000370     -0.001126
     11.93153      4.24961      4.24870        -0.000022     -0.000106     -0.000085
      4.24371      9.87340      4.29000        -0.000364      0.000478      0.000196
     11.93153      9.87340      4.29000         0.000106      0.000091      0.000055
      4.24371      4.29198      9.87234        -0.000020     -0.000198      0.000108
     11.93153      4.29198      9.87234         0.000073     -0.000073     -0.000019
      4.24371      9.91576      9.91363         0.000115      0.000130     -0.000043
     11.93153      9.91576      9.91363         0.000050      0.000061      0.000026
      3.44411      1.41654      1.41623         0.000005      0.000033      0.000142
     11.13192      1.41654      1.41623        -0.000065     -0.000016     -0.000009
      3.44411      7.04032      1.45753        -0.000098      0.000073     -0.000127
     11.13192      7.04032      1.45753        -0.000071      0.000019     -0.000001
      3.44411      1.45890      7.03987        -0.002624      0.001094     -0.002478
     11.13192      1.45890      7.03987        -0.000022     -0.000040     -0.000020
      3.44411      7.08269      7.08117         0.000888      0.000745      0.000753
     11.13192      7.08269      7.08117        -0.000119      0.000058      0.000037
      7.68691      4.22843      1.43688         0.000036     -0.000071      0.000027
     15.37473      4.22843      1.43688         0.000334     -0.000286     -0.000056
      7.68691      9.85222      1.47818         0.000079      0.000054     -0.000022
     15.37473      9.85222      1.47818         0.000015      0.000135      0.000033
      7.68691      4.27079      7.06052         0.000121     -0.000096      0.000057
     15.37473      4.27079      7.06052        -0.002334     -0.000497      0.001670
      7.68691      9.89458      7.10182         0.000015      0.000084     -0.000051
     15.37473      9.89458      7.10182         0.000662      0.000582     -0.000361
      0.00091      1.43772      4.22805         0.003272      0.001343      0.001834
      7.68873      1.43772      4.22805        -0.000151     -0.000036      0.000028
      0.00091      7.06151      4.26935        -0.000896      0.000620     -0.000584
      7.68873      7.06151      4.26935        -0.000018      0.000065     -0.000047
      0.00091      1.48008      9.85169        -0.000098     -0.000036     -0.000083
      7.68873      1.48008      9.85169        -0.000080     -0.000021      0.000014
      0.00091      7.10387      9.89299        -0.000033      0.000085      0.000144
      7.68873      7.10387      9.89299        -0.000078      0.000023     -0.000001
      7.36691      4.24961      4.24870         0.000077     -0.000247     -0.000147
     15.05473      4.24961      4.24870        -0.005043     -0.001134     -0.002078
      7.36691      9.87340      4.29000         0.000019      0.000180      0.000100
     15.05473      9.87340      4.29000         0.000831      0.001002      0.000264
      7.36691      4.29198      9.87234         0.000072     -0.000094      0.000022
     15.05473      4.29198      9.87234         0.000156     -0.000538      0.000324
      7.36691      9.91576      9.91363         0.000045      0.000081      0.000003
     15.05473      9.91576      9.91363         0.000053      0.000365     -0.000197
      0.32090      1.41654      1.41623        -0.000081      0.000118      0.000318
      8.00872      1.41654      1.41623        -0.000132      0.000002      0.000027
      0.32090      7.04032      1.45753         0.000011      0.000253     -0.000352
      8.00872      7.04032      1.45753        -0.000046      0.000024     -0.000028
      0.32090      1.45890      7.03987         0.004653      0.001338     -0.003988
      8.00872      1.45890      7.03987        -0.000146     -0.000112     -0.000076
      0.32090      7.08269      7.08117        -0.001949      0.001327      0.001232
      8.00872      7.08269      7.08117        -0.000010      0.000134      0.000074
      3.84445      4.22843      1.43688        -0.000441     -0.000679     -0.000258
     11.53226      4.22843      1.43688        -0.000068     -0.000103     -0.000009
      3.84445      9.85222      1.47818         0.000037      0.000428      0.000252
     11.53226      9.85222      1.47818        -0.000054      0.000083     -0.000003
      3.84445      4.27079      7.06052         0.004502     -0.001439      0.002813
     11.53226      4.27079      7.06052        -0.000119     -0.000228      0.000137
      3.84445      9.89458      7.10182        -0.001123      0.001108     -0.000569
     11.53226      9.89458      7.10182        -0.000025      0.000179     -0.000092
      3.84337      1.43772      4.22805        -0.006336      0.002159      0.003295
     11.53119      1.43772      4.22805         0.000109     -0.000128      0.000081
      3.84337      7.06151      4.26935         0.001618      0.001211     -0.000991
     11.53119      7.06151      4.26935        -0.000019      0.000155     -0.000096
      3.84337      1.48008      9.85169         0.000040     -0.000032     -0.000150
     11.53119      1.48008      9.85169         0.000104     -0.000001     -0.000017
      3.84337      7.10387      9.89299         0.000054      0.000249      0.000318
     11.53119      7.10387      9.89299         0.000014      0.000030      0.000032
      1.92917      5.66160      5.66028         0.000171      0.005319      0.000038
      9.61699      5.66160      5.66028         0.000006      0.000021     -0.000016
      1.92917     11.28539      5.70158         0.000146     -0.004379      0.000323
      9.61699     11.28539      5.70158         0.000007      0.000006     -0.000012
      1.92917      5.70397     11.28392        -0.000047      0.000302     -0.000112
      9.61699      5.70397     11.28392        -0.000001      0.000030     -0.000017
      1.92917     11.32775     11.32522        -0.000036     -0.000030      0.000014
      9.61699     11.32775     11.32522        -0.000002     -0.000004     -0.000014
      1.92917      2.83762      2.83712         0.000215      0.002433      0.000481
      9.61699      2.83762      2.83712         0.000021      0.000032      0.000022
      1.92917      8.46141      2.87841         0.000005     -0.000892      0.000230
      9.61699      8.46141      2.87841        -0.000008     -0.000060      0.000020
      1.92917      2.87999      8.46076         0.000044      0.001476      0.000560
      9.61699      2.87999      8.46076        -0.000015      0.000041      0.000005
      1.92917      8.50377      8.50205        -0.000145     -0.001074     -0.000262
      9.61699      8.50377      8.50205         0.000007     -0.000065      0.000010
      5.75865      0.00455      0.00465         0.000107     -0.000074     -0.000003
     13.44647      0.00455      0.00465        -0.000072     -0.000068      0.000022
      5.75865      5.62833      0.04594        -0.000061      0.000058     -0.000007
     13.44647      5.62833      0.04594         0.000112      0.000039      0.000006
      5.75865      0.04691      5.62829         0.000436     -0.000144      0.000075
     13.44647      0.04691      5.62829        -0.000392     -0.000161     -0.000028
      5.75865      5.67070      5.66958        -0.000513      0.000177      0.000003
     13.44647      5.67070      5.66958         0.000595      0.000218      0.000040
      5.75865      2.82853      2.82782         0.000235      0.000255     -0.000122
     13.44647      2.82853      2.82782        -0.000025      0.000254     -0.000060
      5.75865      8.45231      2.86911        -0.000092     -0.000233      0.000042
     13.44647      8.45231      2.86911         0.000035     -0.000187     -0.000002
      5.75865      2.87089      8.45146         0.000032      0.000226     -0.000005
     13.44647      2.87089      8.45146        -0.000156      0.000233      0.000113
      5.75865      8.49468      8.49275         0.000015     -0.000188     -0.000005
     13.44647      8.49468      8.49275         0.000139     -0.000214     -0.000090
      0.00000      2.81189      0.02065        -0.000222      0.000044     -0.000160
      7.68782      2.81189      0.02065         0.000034      0.000057     -0.000072
      0.00000      8.43568      0.06194         0.000028     -0.000097      0.000074
      7.68782      8.43568      0.06194         0.000005     -0.000052      0.000047
      0.00000      2.85426      5.64429         0.002343      0.006685     -0.001156
      7.68782      2.85426      5.64429         0.000026      0.000197     -0.000013
      0.00000      8.47804      5.68558         0.000436     -0.002461      0.000577
      7.68782      8.47804      5.68558         0.000017     -0.000199      0.000036
      0.00000      0.02118      2.81182        -0.000297     -0.000111     -0.000664
      7.68782      0.02118      2.81182         0.000050     -0.000052     -0.000048
      0.00000      5.64497      2.85311         0.000427     -0.000199      0.001179
      7.68782      5.64497      2.85311        -0.000030      0.000047      0.000072
      0.00000      0.06355      8.43546        -0.000600     -0.000367      0.000793
      7.68782      0.06355      8.43546         0.000043     -0.000016      0.000075
      0.00000      5.68733      8.47675         0.000607      0.000492     -0.001216
      7.68782      5.68733      8.47675        -0.000034      0.000028     -0.000100
      3.84391      2.81189      0.02065         0.000207     -0.000021     -0.000124
     11.53173      2.81189      0.02065        -0.000022      0.000058      0.000053
      3.84391      8.43568      0.06194        -0.000048     -0.000091     -0.000073
     11.53173      8.43568      0.06194         0.000018     -0.000058     -0.000043
      3.84391      2.85426      5.64429        -0.002836      0.006661      0.000447
     11.53173      2.85426      5.64429        -0.000004      0.000212      0.000033
      3.84391      8.47804      5.68558        -0.000339     -0.002427     -0.000520
     11.53173      8.47804      5.68558         0.000016     -0.000203     -0.000037
      3.84391      0.02118      2.81182         0.000617     -0.000603     -0.001005
     11.53173      0.02118      2.81182        -0.000029     -0.000021     -0.000067
      3.84391      5.64497      2.85311        -0.000464      0.000392      0.001233
     11.53173      5.64497      2.85311         0.000062      0.000046      0.000106
      3.84391      0.06355      8.43546         0.000328     -0.000006      0.000689
     11.53173      0.06355      8.43546        -0.000030     -0.000048      0.000046
      3.84391      5.68733      8.47675        -0.000679     -0.000137     -0.001081
     11.53173      5.68733      8.47675         0.000054      0.000036     -0.000087
 -----------------------------------------------------------------------------------
    total drift:                                0.000003     -0.000069      0.000000


--------------------------------------------------------------------------------------------------------



  FREE ENERGIE OF THE ION-ELECTRON SYSTEM (eV)
  ---------------------------------------------------
  free  energy   TOTEN  =      -822.06188366 eV

  energy  without entropy=     -822.06188366  energy(sigma->0) =     -822.06188366
 


--------------------------------------------------------------------------------------------------------


    POTLOK:  cpu time    2.3479: real time    2.3917


--------------------------------------------------------------------------------------------------------


     LOOP+:  cpu time16587.0834: real time16843.4933
    4ORBIT:  cpu time    0.0000: real time    0.0000

 total amount of memory used by VASP MPI-rank0   985864. kBytes
=======================================================================

   base      :      30000. kBytes
   nonl-proj :     102069. kBytes
   fftplans  :      64934. kBytes
   grid      :      55554. kBytes
   one-center:        839. kBytes
   wavefun   :     732468. kBytes
 
  
  
 General timing and accounting informations for this job:
 ========================================================
  
                  Total CPU time used (sec):    16728.916
                            User time (sec):    16629.117
                          System time (sec):       99.800
                         Elapsed time (sec):    16987.073
  
                   Maximum memory used (kb):     1181432.
                   Average memory used (kb):           0.
  
                          Minor page faults:       641508
                          Major page faults:           22
                 Voluntary context switches:       100575
