 224 224   0   0
  0.1357572E+02  0.1537960E-08  0.1537962E-08  0.1395899E-08  0.5000000E-15
  1.000000000000000E-004
  CAR 
 unknown system                          
     17.69816931    -54.42221359  301      5.25740326      1.00000000
    -54.422  0.0000E+00  0.0000E+00  0.0000E+00  0.0000E+00
    -54.182  0.0000E+00  0.0000E+00  0.0000E+00  0.0000E+00
    -53.941  0.0000E+00  0.0000E+00  0.0000E+00  0.0000E+00
    -53.701  0.0000E+00  0.0000E+00  0.0000E+00  0.0000E+00
    -53.461  0.0000E+00  0.0000E+00  0.0000E+00  0.0000E+00
    -53.220  0.0000E+00  0.0000E+00  0.0000E+00  0.0000E+00
    -52.980  0.0000E+00  0.0000E+00  0.0000E+00  0.0000E+00
    -52.739  0.0000E+00  0.0000E+00  0.0000E+00  0.0000E+00
    -52.499  0.0000E+00  0.0000E+00  0.0000E+00  0.0000E+00
    -52.259  0.0000E+00  0.0000E+00  0.0000E+00  0.0000E+00
    -52.018  0.0000E+00  0.0000E+00  0.0000E+00  0.0000E+00
    -51.778  0.0000E+00  0.0000E+00  0.0000E+00  0.0000E+00
    -51.537  0.0000E+00  0.0000E+00  0.0000E+00  0.0000E+00
    -51.297  0.1270E-02  0.0000E+00  0.3052E-03  0.0000E+00
    -51.057  0.2638E+03  0.0000E+00  0.6343E+02  0.0000E+00
    -50.816  0.2380E+01  0.0000E+00  0.6400E+02  0.0000E+00
    -50.576  0.0000E+00  0.0000E+00  0.6400E+02  0.0000E+00
    -50.335  0.0000E+00  0.0000E+00  0.6400E+02  0.0000E+00
    -50.095  0.0000E+00  0.0000E+00  0.6400E+02  0.0000E+00
    -49.855  0.9469E-06  0.0000E+00  0.6400E+02  0.0000E+00
    -49.614  0.4330E+03  0.0000E+00  0.1681E+03  0.0000E+00
    -49.374  0.9946E+02  0.0000E+00  0.1920E+03  0.0000E+00
    -49.133  0.0000E+00  0.0000E+00  0.1920E+03  0.0000E+00
    -48.893  0.0000E+00  0.0000E+00  0.1920E+03  0.0000E+00
    -48.653  0.0000E+00  0.0000E+00  0.1920E+03  0.0000E+00
    -48.412  0.0000E+00  0.0000E+00  0.1920E+03  0.0000E+00
    -48.172  0.0000E+00  0.0000E+00  0.1920E+03  0.0000E+00
    -47.931  0.0000E+00  0.0000E+00  0.1920E+03  0.0000E+00
    -47.691  0.0000E+00  0.0000E+00  0.1920E+03  0.0000E+00
    -47.451  0.0000E+00  0.0000E+00  0.1920E+03  0.0000E+00
    -47.210  0.0000E+00  0.0000E+00  0.1920E+03  0.0000E+00
    -46.970  0.0000E+00  0.0000E+00  0.1920E+03  0.0000E+00
    -46.729  0.0000E+00  0.0000E+00  0.1920E+03  0.0000E+00
    -46.489  0.0000E+00  0.6443E+00  0.1920E+03  0.1549E+00
    -46.249  0.0000E+00  0.2656E+03  0.1920E+03  0.6400E+02
    -46.008  0.0000E+00  0.5927E+01  0.1920E+03  0.6542E+02
    -45.768  0.0000E+00  0.5265E+03  0.1920E+03  0.1920E+03
    -45.527  0.0000E+00  0.1074E-02  0.1920E+03  0.1920E+03
    -45.287  0.0000E+00  0.0000E+00  0.1920E+03  0.1920E+03
    -45.047  0.0000E+00  0.0000E+00  0.1920E+03  0.1920E+03
    -44.806  0.0000E+00  0.0000E+00  0.1920E+03  0.1920E+03
    -44.566  0.0000E+00  0.0000E+00  0.1920E+03  0.1920E+03
    -44.325  0.0000E+00  0.0000E+00  0.1920E+03  0.1920E+03
    -44.085  0.0000E+00  0.0000E+00  0.1920E+03  0.1920E+03
    -43.845  0.0000E+00  0.0000E+00  0.1920E+03  0.1920E+03
    -43.604  0.0000E+00  0.0000E+00  0.1920E+03  0.1920E+03
    -43.364  0.0000E+00  0.0000E+00  0.1920E+03  0.1920E+03
    -43.123  0.0000E+00  0.0000E+00  0.1920E+03  0.1920E+03
    -42.883  0.0000E+00  0.0000E+00  0.1920E+03  0.1920E+03
    -42.643  0.0000E+00  0.0000E+00  0.1920E+03  0.1920E+03
    -42.402  0.0000E+00  0.0000E+00  0.1920E+03  0.1920E+03
    -42.162  0.0000E+00  0.0000E+00  0.1920E+03  0.1920E+03
    -41.921  0.0000E+00  0.0000E+00  0.1920E+03  0.1920E+03
    -41.681  0.0000E+00  0.0000E+00  0.1920E+03  0.1920E+03
    -41.441  0.0000E+00  0.0000E+00  0.1920E+03  0.1920E+03
    -41.200  0.0000E+00  0.0000E+00  0.1920E+03  0.1920E+03
    -40.960  0.0000E+00  0.0000E+00  0.1920E+03  0.1920E+03
    -40.719  0.0000E+00  0.0000E+00  0.1920E+03  0.1920E+03
    -40.479  0.0000E+00  0.0000E+00  0.1920E+03  0.1920E+03
    -40.239  0.0000E+00  0.0000E+00  0.1920E+03  0.1920E+03
    -39.998  0.0000E+00  0.0000E+00  0.1920E+03  0.1920E+03
    -39.758  0.1863E-01  0.1697E-01  0.1920E+03  0.1920E+03
    -39.517  0.2651E+03  0.2650E+03  0.2557E+03  0.2557E+03
    -39.277  0.1117E+01  0.1184E+01  0.2560E+03  0.2560E+03
    -39.037  0.0000E+00  0.0000E+00  0.2560E+03  0.2560E+03
    -38.796  0.0000E+00  0.0000E+00  0.2560E+03  0.2560E+03
    -38.556  0.0000E+00  0.0000E+00  0.2560E+03  0.2560E+03
    -38.315  0.0000E+00  0.0000E+00  0.2560E+03  0.2560E+03
    -38.075  0.0000E+00  0.0000E+00  0.2560E+03  0.2560E+03
    -37.835  0.0000E+00  0.0000E+00  0.2560E+03  0.2560E+03
    -37.594  0.0000E+00  0.0000E+00  0.2560E+03  0.2560E+03
    -37.354  0.0000E+00  0.0000E+00  0.2560E+03  0.2560E+03
    -37.113  0.0000E+00  0.0000E+00  0.2560E+03  0.2560E+03
    -36.873  0.0000E+00  0.0000E+00  0.2560E+03  0.2560E+03
    -36.633  0.0000E+00  0.0000E+00  0.2560E+03  0.2560E+03
    -36.392  0.0000E+00  0.0000E+00  0.2560E+03  0.2560E+03
    -36.152  0.0000E+00  0.0000E+00  0.2560E+03  0.2560E+03
    -35.911  0.0000E+00  0.0000E+00  0.2560E+03  0.2560E+03
    -35.671  0.0000E+00  0.0000E+00  0.2560E+03  0.2560E+03
    -35.431  0.0000E+00  0.0000E+00  0.2560E+03  0.2560E+03
    -35.190  0.0000E+00  0.0000E+00  0.2560E+03  0.2560E+03
    -34.950  0.0000E+00  0.0000E+00  0.2560E+03  0.2560E+03
    -34.709  0.0000E+00  0.0000E+00  0.2560E+03  0.2560E+03
    -34.469  0.0000E+00  0.0000E+00  0.2560E+03  0.2560E+03
    -34.229  0.0000E+00  0.0000E+00  0.2560E+03  0.2560E+03
    -33.988  0.0000E+00  0.0000E+00  0.2560E+03  0.2560E+03
    -33.748  0.0000E+00  0.0000E+00  0.2560E+03  0.2560E+03
    -33.507  0.0000E+00  0.0000E+00  0.2560E+03  0.2560E+03
    -33.267  0.0000E+00  0.0000E+00  0.2560E+03  0.2560E+03
    -33.026  0.0000E+00  0.0000E+00  0.2560E+03  0.2560E+03
    -32.786  0.0000E+00  0.0000E+00  0.2560E+03  0.2560E+03
    -32.546  0.0000E+00  0.0000E+00  0.2560E+03  0.2560E+03
    -32.305  0.0000E+00  0.0000E+00  0.2560E+03  0.2560E+03
    -32.065  0.0000E+00  0.0000E+00  0.2560E+03  0.2560E+03
    -31.824  0.0000E+00  0.0000E+00  0.2560E+03  0.2560E+03
    -31.584  0.0000E+00  0.0000E+00  0.2560E+03  0.2560E+03
    -31.344  0.0000E+00  0.0000E+00  0.2560E+03  0.2560E+03
    -31.103  0.0000E+00  0.0000E+00  0.2560E+03  0.2560E+03
    -30.863  0.0000E+00  0.0000E+00  0.2560E+03  0.2560E+03
    -30.622  0.0000E+00  0.0000E+00  0.2560E+03  0.2560E+03
    -30.382  0.0000E+00  0.0000E+00  0.2560E+03  0.2560E+03
    -30.142  0.0000E+00  0.0000E+00  0.2560E+03  0.2560E+03
    -29.901  0.0000E+00  0.0000E+00  0.2560E+03  0.2560E+03
    -29.661  0.0000E+00  0.0000E+00  0.2560E+03  0.2560E+03
    -29.420  0.0000E+00  0.0000E+00  0.2560E+03  0.2560E+03
    -29.180  0.0000E+00  0.0000E+00  0.2560E+03  0.2560E+03
    -28.940  0.0000E+00  0.0000E+00  0.2560E+03  0.2560E+03
    -28.699  0.0000E+00  0.0000E+00  0.2560E+03  0.2560E+03
    -28.459  0.0000E+00  0.0000E+00  0.2560E+03  0.2560E+03
    -28.218  0.0000E+00  0.0000E+00  0.2560E+03  0.2560E+03
    -27.978  0.0000E+00  0.0000E+00  0.2560E+03  0.2560E+03
    -27.738  0.0000E+00  0.0000E+00  0.2560E+03  0.2560E+03
    -27.497  0.0000E+00  0.0000E+00  0.2560E+03  0.2560E+03
    -27.257  0.0000E+00  0.0000E+00  0.2560E+03  0.2560E+03
    -27.016  0.0000E+00  0.0000E+00  0.2560E+03  0.2560E+03
    -26.776  0.0000E+00  0.0000E+00  0.2560E+03  0.2560E+03
    -26.536  0.0000E+00  0.0000E+00  0.2560E+03  0.2560E+03
    -26.295  0.0000E+00  0.0000E+00  0.2560E+03  0.2560E+03
    -26.055  0.0000E+00  0.0000E+00  0.2560E+03  0.2560E+03
    -25.814  0.0000E+00  0.0000E+00  0.2560E+03  0.2560E+03
    -25.574  0.0000E+00  0.0000E+00  0.2560E+03  0.2560E+03
    -25.334  0.0000E+00  0.0000E+00  0.2560E+03  0.2560E+03
    -25.093  0.0000E+00  0.0000E+00  0.2560E+03  0.2560E+03
    -24.853  0.0000E+00  0.0000E+00  0.2560E+03  0.2560E+03
    -24.612  0.0000E+00  0.0000E+00  0.2560E+03  0.2560E+03
    -24.372  0.0000E+00  0.0000E+00  0.2560E+03  0.2560E+03
    -24.132  0.0000E+00  0.0000E+00  0.2560E+03  0.2560E+03
    -23.891  0.0000E+00  0.0000E+00  0.2560E+03  0.2560E+03
    -23.651  0.0000E+00  0.0000E+00  0.2560E+03  0.2560E+03
    -23.410  0.0000E+00  0.0000E+00  0.2560E+03  0.2560E+03
    -23.170  0.0000E+00  0.0000E+00  0.2560E+03  0.2560E+03
    -22.930  0.0000E+00  0.0000E+00  0.2560E+03  0.2560E+03
    -22.689  0.0000E+00  0.0000E+00  0.2560E+03  0.2560E+03
    -22.449  0.0000E+00  0.0000E+00  0.2560E+03  0.2560E+03
    -22.208  0.0000E+00  0.0000E+00  0.2560E+03  0.2560E+03
    -21.968  0.0000E+00  0.0000E+00  0.2560E+03  0.2560E+03
    -21.728  0.0000E+00  0.0000E+00  0.2560E+03  0.2560E+03
    -21.487  0.0000E+00  0.0000E+00  0.2560E+03  0.2560E+03
    -21.247  0.0000E+00  0.0000E+00  0.2560E+03  0.2560E+03
    -21.006  0.0000E+00  0.0000E+00  0.2560E+03  0.2560E+03
    -20.766  0.0000E+00  0.0000E+00  0.2560E+03  0.2560E+03
    -20.526  0.0000E+00  0.0000E+00  0.2560E+03  0.2560E+03
    -20.285  0.0000E+00  0.0000E+00  0.2560E+03  0.2560E+03
    -20.045  0.0000E+00  0.0000E+00  0.2560E+03  0.2560E+03
    -19.804  0.0000E+00  0.0000E+00  0.2560E+03  0.2560E+03
    -19.564  0.0000E+00  0.0000E+00  0.2560E+03  0.2560E+03
    -19.324  0.0000E+00  0.0000E+00  0.2560E+03  0.2560E+03
    -19.083  0.0000E+00  0.0000E+00  0.2560E+03  0.2560E+03
    -18.843  0.0000E+00  0.0000E+00  0.2560E+03  0.2560E+03
    -18.602  0.0000E+00  0.0000E+00  0.2560E+03  0.2560E+03
    -18.362  0.0000E+00  0.0000E+00  0.2560E+03  0.2560E+03
    -18.122  0.0000E+00  0.0000E+00  0.2560E+03  0.2560E+03
    -17.881  0.0000E+00  0.0000E+00  0.2560E+03  0.2560E+03
    -17.641  0.0000E+00  0.0000E+00  0.2560E+03  0.2560E+03
    -17.400  0.0000E+00  0.0000E+00  0.2560E+03  0.2560E+03
    -17.160  0.0000E+00  0.0000E+00  0.2560E+03  0.2560E+03
    -16.920  0.0000E+00  0.0000E+00  0.2560E+03  0.2560E+03
    -16.679  0.0000E+00  0.0000E+00  0.2560E+03  0.2560E+03
    -16.439  0.0000E+00  0.0000E+00  0.2560E+03  0.2560E+03
    -16.198  0.0000E+00  0.0000E+00  0.2560E+03  0.2560E+03
    -15.958  0.0000E+00  0.0000E+00  0.2560E+03  0.2560E+03
    -15.718  0.0000E+00  0.0000E+00  0.2560E+03  0.2560E+03
    -15.477  0.0000E+00  0.0000E+00  0.2560E+03  0.2560E+03
    -15.237  0.0000E+00  0.0000E+00  0.2560E+03  0.2560E+03
    -14.996  0.0000E+00  0.0000E+00  0.2560E+03  0.2560E+03
    -14.756  0.0000E+00  0.0000E+00  0.2560E+03  0.2560E+03
    -14.516  0.0000E+00  0.0000E+00  0.2560E+03  0.2560E+03
    -14.275  0.0000E+00  0.0000E+00  0.2560E+03  0.2560E+03
    -14.035  0.0000E+00  0.0000E+00  0.2560E+03  0.2560E+03
    -13.794  0.0000E+00  0.0000E+00  0.2560E+03  0.2560E+03
    -13.554  0.0000E+00  0.0000E+00  0.2560E+03  0.2560E+03
    -13.314  0.0000E+00  0.0000E+00  0.2560E+03  0.2560E+03
    -13.073  0.0000E+00  0.0000E+00  0.2560E+03  0.2560E+03
    -12.833  0.7699E-01  0.0000E+00  0.2560E+03  0.2560E+03
    -12.592  0.1319E+03  0.1505E-02  0.2877E+03  0.2560E+03
    -12.352  0.1147E+01  0.1233E+03  0.2880E+03  0.2856E+03
    -12.112  0.0000E+00  0.9827E+01  0.2880E+03  0.2880E+03
    -11.871  0.0000E+00  0.0000E+00  0.2880E+03  0.2880E+03
    -11.631  0.0000E+00  0.0000E+00  0.2880E+03  0.2880E+03
    -11.390  0.0000E+00  0.0000E+00  0.2880E+03  0.2880E+03
    -11.150  0.0000E+00  0.0000E+00  0.2880E+03  0.2880E+03
    -10.910  0.0000E+00  0.0000E+00  0.2880E+03  0.2880E+03
    -10.669  0.0000E+00  0.0000E+00  0.2880E+03  0.2880E+03
    -10.429  0.0000E+00  0.0000E+00  0.2880E+03  0.2880E+03
    -10.188  0.0000E+00  0.0000E+00  0.2880E+03  0.2880E+03
     -9.948  0.0000E+00  0.0000E+00  0.2880E+03  0.2880E+03
     -9.708  0.0000E+00  0.0000E+00  0.2880E+03  0.2880E+03
     -9.467  0.0000E+00  0.0000E+00  0.2880E+03  0.2880E+03
     -9.227  0.0000E+00  0.0000E+00  0.2880E+03  0.2880E+03
     -8.986  0.0000E+00  0.0000E+00  0.2880E+03  0.2880E+03
     -8.746  0.0000E+00  0.0000E+00  0.2880E+03  0.2880E+03
     -8.506  0.0000E+00  0.0000E+00  0.2880E+03  0.2880E+03
     -8.265  0.0000E+00  0.0000E+00  0.2880E+03  0.2880E+03
     -8.025  0.5668E-10  0.0000E+00  0.2880E+03  0.2880E+03
     -7.784  0.9489E+00  0.4450E-07  0.2882E+03  0.2880E+03
     -7.544  0.1881E+02  0.2895E+01  0.2928E+03  0.2887E+03
     -7.304  0.2821E+02  0.2240E+02  0.2995E+03  0.2941E+03
     -7.063  0.5392E+02  0.3108E+02  0.3125E+03  0.3016E+03
     -6.823  0.1469E+03  0.4890E+02  0.3478E+03  0.3133E+03
     -6.582  0.1743E+02  0.1390E+03  0.3520E+03  0.3467E+03
     -6.342  0.0000E+00  0.2200E+02  0.3520E+03  0.3520E+03
     -6.102  0.0000E+00  0.1067E-04  0.3520E+03  0.3520E+03
     -5.861  0.0000E+00  0.0000E+00  0.3520E+03  0.3520E+03
     -5.621  0.0000E+00  0.0000E+00  0.3520E+03  0.3520E+03
     -5.380  0.0000E+00  0.0000E+00  0.3520E+03  0.3520E+03
     -5.140  0.0000E+00  0.0000E+00  0.3520E+03  0.3520E+03
     -4.900  0.0000E+00  0.0000E+00  0.3520E+03  0.3520E+03
     -4.659  0.0000E+00  0.0000E+00  0.3520E+03  0.3520E+03
     -4.419  0.0000E+00  0.0000E+00  0.3520E+03  0.3520E+03
     -4.178  0.0000E+00  0.0000E+00  0.3520E+03  0.3520E+03
     -3.938  0.0000E+00  0.0000E+00  0.3520E+03  0.3520E+03
     -3.698  0.0000E+00  0.0000E+00  0.3520E+03  0.3520E+03
     -3.457  0.0000E+00  0.0000E+00  0.3520E+03  0.3520E+03
     -3.217  0.0000E+00  0.0000E+00  0.3520E+03  0.3520E+03
     -2.976  0.0000E+00  0.0000E+00  0.3520E+03  0.3520E+03
     -2.736  0.0000E+00  0.0000E+00  0.3520E+03  0.3520E+03
     -2.496  0.0000E+00  0.0000E+00  0.3520E+03  0.3520E+03
     -2.255  0.0000E+00  0.0000E+00  0.3520E+03  0.3520E+03
     -2.015  0.0000E+00  0.0000E+00  0.3520E+03  0.3520E+03
     -1.774  0.5069E-12  0.0000E+00  0.3520E+03  0.3520E+03
     -1.534  0.1251E+01  0.0000E+00  0.3523E+03  0.3520E+03
     -1.294  0.9992E+02  0.0000E+00  0.3763E+03  0.3520E+03
     -1.053  0.3194E+02  0.0000E+00  0.3840E+03  0.3520E+03
     -0.813  0.1252E+02  0.0000E+00  0.3870E+03  0.3520E+03
     -0.572  0.8960E+02  0.8213E-05  0.4085E+03  0.3520E+03
     -0.332  0.2240E+03  0.4087E+01  0.4624E+03  0.3530E+03
     -0.092  0.2018E+03  0.2466E+02  0.5109E+03  0.3589E+03
      0.149  0.1765E+03  0.4106E+02  0.5534E+03  0.3688E+03
      0.389  0.1517E+03  0.4238E+02  0.5898E+03  0.3790E+03
      0.630  0.1196E+03  0.7205E+02  0.6186E+03  0.3963E+03
      0.870  0.5434E+02  0.6039E+02  0.6316E+03  0.4108E+03
      1.110  0.6982E+02  0.6537E+02  0.6484E+03  0.4265E+03
      1.351  0.7334E+02  0.6772E+02  0.6660E+03  0.4428E+03
      1.591  0.6801E+02  0.7765E+02  0.6824E+03  0.4615E+03
      1.832  0.1108E+03  0.1110E+03  0.7090E+03  0.4882E+03
      2.072  0.2135E+03  0.6207E+02  0.7604E+03  0.5031E+03
      2.312  0.1397E+03  0.3791E+02  0.7940E+03  0.5122E+03
      2.553  0.8448E+02  0.7756E+02  0.8143E+03  0.5308E+03
      2.793  0.6866E+02  0.1040E+03  0.8308E+03  0.5558E+03
      3.034  0.3526E+02  0.7079E+02  0.8392E+03  0.5728E+03
      3.274  0.4048E+02  0.1314E+03  0.8490E+03  0.6044E+03
      3.514  0.5190E+02  0.1171E+03  0.8615E+03  0.6326E+03
      3.755  0.6738E+02  0.2513E+02  0.8777E+03  0.6386E+03
      3.995  0.7989E+02  0.4406E+02  0.8969E+03  0.6492E+03
      4.236  0.8004E+02  0.1786E+03  0.9161E+03  0.6922E+03
      4.476  0.7573E+02  0.4764E+02  0.9343E+03  0.7036E+03
      4.717  0.2868E+02  0.1650E+01  0.9412E+03  0.7040E+03
      4.957  0.6457E+02  0.0000E+00  0.9567E+03  0.7040E+03
      5.197  0.1363E+02  0.0000E+00  0.9600E+03  0.7040E+03
      5.438  0.0000E+00  0.0000E+00  0.9600E+03  0.7040E+03
      5.678  0.0000E+00  0.0000E+00  0.9600E+03  0.7040E+03
      5.919  0.0000E+00  0.0000E+00  0.9600E+03  0.7040E+03
      6.159  0.0000E+00  0.9612E-07  0.9600E+03  0.7040E+03
      6.399  0.0000E+00  0.1035E+01  0.9600E+03  0.7042E+03
      6.640  0.0000E+00  0.1015E+02  0.9600E+03  0.7067E+03
      6.880  0.0000E+00  0.2662E+02  0.9600E+03  0.7131E+03
      7.121  0.2886E-16  0.6597E+02  0.9600E+03  0.7289E+03
      7.361  0.6013E-01  0.1114E+03  0.9600E+03  0.7557E+03
      7.601  0.1500E+01  0.1393E+03  0.9604E+03  0.7892E+03
      7.842  0.5163E+01  0.1182E+03  0.9616E+03  0.8176E+03
      8.082  0.7087E+01  0.1787E+03  0.9633E+03  0.8606E+03
      8.323  0.9295E+01  0.1456E+03  0.9656E+03  0.8956E+03
      8.563  0.1253E+02  0.6211E+02  0.9686E+03  0.9105E+03
      8.803  0.1452E+02  0.8251E+02  0.9721E+03  0.9304E+03
      9.044  0.2713E+02  0.7290E+02  0.9786E+03  0.9479E+03
      9.284  0.3347E+02  0.5733E+02  0.9866E+03  0.9617E+03
      9.525  0.3543E+02  0.2310E+02  0.9951E+03  0.9672E+03
      9.765  0.5317E+02  0.3405E+02  0.1008E+04  0.9754E+03
     10.005  0.5115E+02  0.2268E+02  0.1020E+04  0.9809E+03
     10.246  0.3383E+02  0.3880E+02  0.1028E+04  0.9902E+03
     10.486  0.2158E+02  0.4336E+02  0.1034E+04  0.1001E+04
     10.727  0.4557E+02  0.6116E+02  0.1044E+04  0.1015E+04
     10.967  0.3308E+02  0.4341E+02  0.1052E+04  0.1026E+04
     11.207  0.4366E+02  0.4019E+02  0.1063E+04  0.1035E+04
     11.448  0.7797E+02  0.3452E+02  0.1082E+04  0.1044E+04
     11.688  0.4279E+02  0.4376E+02  0.1092E+04  0.1054E+04
     11.929  0.6451E+02  0.5199E+02  0.1107E+04  0.1067E+04
     12.169  0.6672E+02  0.5742E+02  0.1124E+04  0.1081E+04
     12.409  0.6927E+02  0.5323E+02  0.1140E+04  0.1093E+04
     12.650  0.6096E+02  0.6698E+02  0.1155E+04  0.1109E+04
     12.890  0.5278E+02  0.7975E+02  0.1168E+04  0.1129E+04
     13.131  0.5853E+02  0.6456E+02  0.1182E+04  0.1144E+04
     13.371  0.4841E+02  0.6633E+02  0.1193E+04  0.1160E+04
     13.611  0.4011E+02  0.6464E+02  0.1203E+04  0.1176E+04
     13.852  0.1885E+02  0.5722E+02  0.1207E+04  0.1189E+04
     14.092  0.2478E+01  0.5301E+02  0.1208E+04  0.1202E+04
     14.333  0.0000E+00  0.2155E+02  0.1208E+04  0.1207E+04
     14.573  0.0000E+00  0.2980E+01  0.1208E+04  0.1208E+04
     14.813  0.0000E+00  0.3930E-05  0.1208E+04  0.1208E+04
     15.054  0.0000E+00  0.0000E+00  0.1208E+04  0.1208E+04
     15.294  0.0000E+00  0.0000E+00  0.1208E+04  0.1208E+04
     15.535  0.0000E+00  0.0000E+00  0.1208E+04  0.1208E+04
     15.775  0.0000E+00  0.0000E+00  0.1208E+04  0.1208E+04
     16.015  0.0000E+00  0.0000E+00  0.1208E+04  0.1208E+04
     16.256  0.0000E+00  0.0000E+00  0.1208E+04  0.1208E+04
     16.496  0.0000E+00  0.0000E+00  0.1208E+04  0.1208E+04
     16.737  0.0000E+00  0.0000E+00  0.1208E+04  0.1208E+04
     16.977  0.0000E+00  0.0000E+00  0.1208E+04  0.1208E+04
     17.217  0.0000E+00  0.0000E+00  0.1208E+04  0.1208E+04
     17.458  0.0000E+00  0.0000E+00  0.1208E+04  0.1208E+04
     17.698  0.0000E+00  0.0000E+00  0.1208E+04  0.1208E+04
