  224  224    1    2
  0.1357572E+02  0.1537960E-08  0.1537962E-08  0.1395899E-08  0.5000000E-15
  1.000000000000000E-004
  CAR 
 unknown system                          
   1664      8   1208
 
  0.0000000E+00  0.0000000E+00  0.0000000E+00  0.1250000E+00
    1      -51.144011    -46.393106   1.000000   1.000000
    2      -51.143191    -46.392217   1.000000   1.000000
    3      -51.142233    -46.391416   1.000000   1.000000
    4      -51.142163    -46.391354   1.000000   1.000000
    5      -51.141697    -46.390995   1.000000   1.000000
    6      -51.141576    -46.390811   1.000000   1.000000
    7      -51.141476    -46.390755   1.000000   1.000000
    8      -51.141411    -46.390564   1.000000   1.000000
    9      -51.141276    -46.390526   1.000000   1.000000
   10      -51.141263    -46.390441   1.000000   1.000000
   11      -51.141226    -46.390365   1.000000   1.000000
   12      -51.141135    -46.390231   1.000000   1.000000
   13      -51.141090    -46.390191   1.000000   1.000000
   14      -51.141021    -46.390115   1.000000   1.000000
   15      -51.141019    -46.390090   1.000000   1.000000
   16      -51.140960    -46.390055   1.000000   1.000000
   17      -51.140935    -46.390012   1.000000   1.000000
   18      -51.140855    -46.389951   1.000000   1.000000
   19      -51.140818    -46.389868   1.000000   1.000000
   20      -51.140745    -46.389849   1.000000   1.000000
   21      -51.140738    -46.389752   1.000000   1.000000
   22      -51.140677    -46.389721   1.000000   1.000000
   23      -51.140663    -46.389668   1.000000   1.000000
   24      -51.140635    -46.389653   1.000000   1.000000
   25      -51.140629    -46.389643   1.000000   1.000000
   26      -51.140619    -46.389619   1.000000   1.000000
   27      -51.140606    -46.389594   1.000000   1.000000
   28      -51.140572    -46.389581   1.000000   1.000000
   29      -51.140550    -46.389557   1.000000   1.000000
   30      -51.140536    -46.389528   1.000000   1.000000
   31      -51.140523    -46.389398   1.000000   1.000000
   32      -51.140367    -46.389351   1.000000   1.000000
   33      -51.140350    -46.389223   1.000000   1.000000
   34      -51.140304    -46.389195   1.000000   1.000000
   35      -51.140254    -46.389111   1.000000   1.000000
   36      -51.140175    -46.389044   1.000000   1.000000
   37      -51.140119    -46.388909   1.000000   1.000000
   38      -51.140091    -46.388890   1.000000   1.000000
   39      -51.140083    -46.388845   1.000000   1.000000
   40      -51.140064    -46.388821   1.000000   1.000000
   41      -51.140056    -46.388805   1.000000   1.000000
   42      -51.140036    -46.388785   1.000000   1.000000
   43      -51.139989    -46.388736   1.000000   1.000000
   44      -51.139961    -46.388705   1.000000   1.000000
   45      -51.139923    -46.388661   1.000000   1.000000
   46      -51.139895    -46.388632   1.000000   1.000000
   47      -51.139888    -46.388622   1.000000   1.000000
   48      -51.139824    -46.388573   1.000000   1.000000
   49      -51.139816    -46.388544   1.000000   1.000000
   50      -51.139779    -46.388529   1.000000   1.000000
   51      -51.139752    -46.388478   1.000000   1.000000
   52      -51.139706    -46.388444   1.000000   1.000000
   53      -51.139695    -46.388367   1.000000   1.000000
   54      -51.139656    -46.388349   1.000000   1.000000
   55      -51.139607    -46.388317   1.000000   1.000000
   56      -51.139484    -46.388138   1.000000   1.000000
   57      -51.139441    -46.388042   1.000000   1.000000
   58      -51.139366    -46.387976   1.000000   1.000000
   59      -51.139338    -46.387896   1.000000   1.000000
   60      -51.139258    -46.387869   1.000000   1.000000
   61      -51.139164    -46.387742   1.000000   1.000000
   62      -51.139036    -46.387700   1.000000   1.000000
   63      -51.138961    -46.387445   1.000000   1.000000
   64      -51.133637    -46.383007   1.000000   1.000000
   65      -49.649501    -45.931186   1.000000   1.000000
   66      -49.649161    -45.930724   1.000000   1.000000
   67      -49.648960    -45.930112   1.000000   1.000000
   68      -49.648646    -45.930046   1.000000   1.000000
   69      -49.648250    -45.929672   1.000000   1.000000
   70      -49.647807    -45.929499   1.000000   1.000000
   71      -49.647737    -45.929430   1.000000   1.000000
   72      -49.647715    -45.929179   1.000000   1.000000
   73      -49.647682    -45.929148   1.000000   1.000000
   74      -49.647570    -45.929066   1.000000   1.000000
   75      -49.647542    -45.929042   1.000000   1.000000
   76      -49.647537    -45.929019   1.000000   1.000000
   77      -49.647498    -45.928947   1.000000   1.000000
   78      -49.647444    -45.928870   1.000000   1.000000
   79      -49.647414    -45.928757   1.000000   1.000000
   80      -49.647391    -45.928712   1.000000   1.000000
   81      -49.647312    -45.928699   1.000000   1.000000
   82      -49.647284    -45.928638   1.000000   1.000000
   83      -49.647237    -45.928597   1.000000   1.000000
   84      -49.647232    -45.928587   1.000000   1.000000
   85      -49.647178    -45.928577   1.000000   1.000000
   86      -49.647154    -45.928562   1.000000   1.000000
   87      -49.647103    -45.928528   1.000000   1.000000
   88      -49.647094    -45.928520   1.000000   1.000000
   89      -49.647042    -45.928495   1.000000   1.000000
   90      -49.647016    -45.928451   1.000000   1.000000
   91      -49.646974    -45.928398   1.000000   1.000000
   92      -49.646955    -45.928342   1.000000   1.000000
   93      -49.646914    -45.928323   1.000000   1.000000
   94      -49.646907    -45.928305   1.000000   1.000000
   95      -49.646898    -45.928242   1.000000   1.000000
   96      -49.646882    -45.928225   1.000000   1.000000
   97      -49.646805    -45.928184   1.000000   1.000000
   98      -49.646791    -45.928163   1.000000   1.000000
   99      -49.646748    -45.928127   1.000000   1.000000
  100      -49.646726    -45.928121   1.000000   1.000000
  101      -49.646701    -45.928079   1.000000   1.000000
  102      -49.646643    -45.928070   1.000000   1.000000
  103      -49.646620    -45.928027   1.000000   1.000000
  104      -49.646539    -45.927997   1.000000   1.000000
  105      -49.646530    -45.927953   1.000000   1.000000
  106      -49.646497    -45.927931   1.000000   1.000000
  107      -49.646427    -45.927900   1.000000   1.000000
  108      -49.646403    -45.927869   1.000000   1.000000
  109      -49.646382    -45.927818   1.000000   1.000000
  110      -49.646356    -45.927773   1.000000   1.000000
  111      -49.646283    -45.927750   1.000000   1.000000
  112      -49.646251    -45.927742   1.000000   1.000000
  113      -49.646229    -45.927691   1.000000   1.000000
  114      -49.646188    -45.927624   1.000000   1.000000
  115      -49.646156    -45.927610   1.000000   1.000000
  116      -49.646110    -45.927546   1.000000   1.000000
  117      -49.646074    -45.927528   1.000000   1.000000
  118      -49.646039    -45.927475   1.000000   1.000000
  119      -49.645999    -45.927459   1.000000   1.000000
  120      -49.645959    -45.927423   1.000000   1.000000
  121      -49.645922    -45.927377   1.000000   1.000000
  122      -49.645827    -45.927350   1.000000   1.000000
  123      -49.645807    -45.927321   1.000000   1.000000
  124      -49.645803    -45.927283   1.000000   1.000000
  125      -49.645776    -45.927256   1.000000   1.000000
  126      -49.645699    -45.927240   1.000000   1.000000
  127      -49.645686    -45.927219   1.000000   1.000000
  128      -49.645652    -45.927201   1.000000   1.000000
  129      -49.645600    -45.927191   1.000000   1.000000
  130      -49.645585    -45.927145   1.000000   1.000000
  131      -49.645544    -45.927135   1.000000   1.000000
  132      -49.645540    -45.927087   1.000000   1.000000
  133      -49.645517    -45.927083   1.000000   1.000000
  134      -49.645492    -45.927035   1.000000   1.000000
  135      -49.645483    -45.926998   1.000000   1.000000
  136      -49.645410    -45.926985   1.000000   1.000000
  137      -49.645387    -45.926949   1.000000   1.000000
  138      -49.645333    -45.926924   1.000000   1.000000
  139      -49.645323    -45.926897   1.000000   1.000000
  140      -49.645277    -45.926869   1.000000   1.000000
  141      -49.645269    -45.926839   1.000000   1.000000
  142      -49.645229    -45.926814   1.000000   1.000000
  143      -49.645212    -45.926807   1.000000   1.000000
  144      -49.645177    -45.926791   1.000000   1.000000
  145      -49.645153    -45.926780   1.000000   1.000000
  146      -49.645117    -45.926745   1.000000   1.000000
  147      -49.645056    -45.926730   1.000000   1.000000
  148      -49.645021    -45.926703   1.000000   1.000000
  149      -49.645011    -45.926685   1.000000   1.000000
  150      -49.644984    -45.926657   1.000000   1.000000
  151      -49.644975    -45.926640   1.000000   1.000000
  152      -49.644940    -45.926608   1.000000   1.000000
  153      -49.644931    -45.926592   1.000000   1.000000
  154      -49.644896    -45.926574   1.000000   1.000000
  155      -49.644859    -45.926542   1.000000   1.000000
  156      -49.644819    -45.926529   1.000000   1.000000
  157      -49.644807    -45.926481   1.000000   1.000000
  158      -49.644770    -45.926456   1.000000   1.000000
  159      -49.644744    -45.926414   1.000000   1.000000
  160      -49.644704    -45.926375   1.000000   1.000000
  161      -49.644668    -45.926357   1.000000   1.000000
  162      -49.644656    -45.926332   1.000000   1.000000
  163      -49.644571    -45.926329   1.000000   1.000000
  164      -49.644528    -45.926290   1.000000   1.000000
  165      -49.644504    -45.926278   1.000000   1.000000
  166      -49.644464    -45.926227   1.000000   1.000000
  167      -49.644412    -45.926180   1.000000   1.000000
  168      -49.644405    -45.926175   1.000000   1.000000
  169      -49.644370    -45.926142   1.000000   1.000000
  170      -49.644348    -45.926131   1.000000   1.000000
  171      -49.644300    -45.926102   1.000000   1.000000
  172      -49.644224    -45.926049   1.000000   1.000000
  173      -49.644163    -45.926032   1.000000   1.000000
  174      -49.644151    -45.926021   1.000000   1.000000
  175      -49.644135    -45.926000   1.000000   1.000000
  176      -49.644046    -45.925972   1.000000   1.000000
  177      -49.643991    -45.925960   1.000000   1.000000
  178      -49.643966    -45.925904   1.000000   1.000000
  179      -49.643897    -45.925828   1.000000   1.000000
  180      -49.643832    -45.925820   1.000000   1.000000
  181      -49.643778    -45.925804   1.000000   1.000000
  182      -49.643741    -45.925773   1.000000   1.000000
  183      -49.643729    -45.925632   1.000000   1.000000
  184      -49.643666    -45.925609   1.000000   1.000000
  185      -49.643642    -45.925541   1.000000   1.000000
  186      -49.643578    -45.925455   1.000000   1.000000
  187      -49.643428    -45.925419   1.000000   1.000000
  188      -49.643325    -45.925362   1.000000   1.000000
  189      -49.643239    -45.925194   1.000000   1.000000
  190      -49.643125    -45.925166   1.000000   1.000000
  191      -49.640301    -45.921948   1.000000   1.000000
  192      -49.639333    -45.921182   1.000000   1.000000
  193      -39.641632    -39.640713   1.000000   1.000000
  194      -39.640426    -39.639509   1.000000   1.000000
  195      -39.634521    -39.633645   1.000000   1.000000
  196      -39.633881    -39.633007   1.000000   1.000000
  197      -39.633745    -39.632872   1.000000   1.000000
  198      -39.633555    -39.632682   1.000000   1.000000
  199      -39.633247    -39.632375   1.000000   1.000000
  200      -39.633051    -39.632178   1.000000   1.000000
  201      -39.632992    -39.632119   1.000000   1.000000
  202      -39.631599    -39.630729   1.000000   1.000000
  203      -39.628411    -39.627571   1.000000   1.000000
  204      -39.628316    -39.627476   1.000000   1.000000
  205      -39.628164    -39.627326   1.000000   1.000000
  206      -39.628015    -39.627177   1.000000   1.000000
  207      -39.627654    -39.626815   1.000000   1.000000
  208      -39.627017    -39.626180   1.000000   1.000000
  209      -39.627016    -39.626178   1.000000   1.000000
  210      -39.625445    -39.624602   1.000000   1.000000
  211      -39.617289    -39.616509   1.000000   1.000000
  212      -39.616880    -39.616101   1.000000   1.000000
  213      -39.616569    -39.615792   1.000000   1.000000
  214      -39.616429    -39.615655   1.000000   1.000000
  215      -39.615883    -39.615108   1.000000   1.000000
  216      -39.615772    -39.614996   1.000000   1.000000
  217      -39.615731    -39.614956   1.000000   1.000000
  218      -39.615696    -39.614923   1.000000   1.000000
  219      -39.615491    -39.614722   1.000000   1.000000
  220      -39.615399    -39.614631   1.000000   1.000000
  221      -39.615342    -39.614566   1.000000   1.000000
  222      -39.615260    -39.614484   1.000000   1.000000
  223      -39.615225    -39.614457   1.000000   1.000000
  224      -39.615193    -39.614424   1.000000   1.000000
  225      -39.615189    -39.614420   1.000000   1.000000
  226      -39.615173    -39.614404   1.000000   1.000000
  227      -39.615108    -39.614339   1.000000   1.000000
  228      -39.615072    -39.614304   1.000000   1.000000
  229      -39.614860    -39.614091   1.000000   1.000000
  230      -39.614825    -39.614057   1.000000   1.000000
  231      -39.614555    -39.613795   1.000000   1.000000
  232      -39.614511    -39.613751   1.000000   1.000000
  233      -39.614474    -39.613714   1.000000   1.000000
  234      -39.614439    -39.613679   1.000000   1.000000
  235      -39.613831    -39.613059   1.000000   1.000000
  236      -39.612842    -39.612064   1.000000   1.000000
  237      -39.610883    -39.610115   1.000000   1.000000
  238      -39.610791    -39.610021   1.000000   1.000000
  239      -39.604665    -39.603943   1.000000   1.000000
  240      -39.604366    -39.603644   1.000000   1.000000
  241      -39.604199    -39.603480   1.000000   1.000000
  242      -39.604055    -39.603335   1.000000   1.000000
  243      -39.603714    -39.602994   1.000000   1.000000
  244      -39.602801    -39.602083   1.000000   1.000000
  245      -39.602573    -39.601851   1.000000   1.000000
  246      -39.602558    -39.601836   1.000000   1.000000
  247      -39.600439    -39.599731   1.000000   1.000000
  248      -39.599938    -39.599231   1.000000   1.000000
  249      -39.599821    -39.599115   1.000000   1.000000
  250      -39.599708    -39.599002   1.000000   1.000000
  251      -39.599358    -39.598652   1.000000   1.000000
  252      -39.598650    -39.597941   1.000000   1.000000
  253      -39.598553    -39.597842   1.000000   1.000000
  254      -39.596678    -39.595971   1.000000   1.000000
  255      -39.593684    -39.593001   1.000000   1.000000
  256      -39.591270    -39.590576   1.000000   1.000000
  257      -12.747651    -12.468186   1.000000   1.000000
  258      -12.745913    -12.466486   1.000000   1.000000
  259      -12.720130    -12.440379   1.000000   1.000000
  260      -12.719851    -12.440099   1.000000   1.000000
  261      -12.719717    -12.439975   1.000000   1.000000
  262      -12.719404    -12.439661   1.000000   1.000000
  263      -12.719236    -12.439474   1.000000   1.000000
  264      -12.719194    -12.439426   1.000000   1.000000
  265      -12.719069    -12.439306   1.000000   1.000000
  266      -12.714718    -12.435165   1.000000   1.000000
  267      -12.697293    -12.417127   1.000000   1.000000
  268      -12.696957    -12.416868   1.000000   1.000000
  269      -12.695219    -12.415614   1.000000   1.000000
  270      -12.695196    -12.415593   1.000000   1.000000
  271      -12.694441    -12.414820   1.000000   1.000000
  272      -12.693742    -12.414280   1.000000   1.000000
  273      -12.692492    -12.413372   1.000000   1.000000
  274      -12.692042    -12.412526   1.000000   1.000000
  275      -12.691667    -12.411641   1.000000   1.000000
  276      -12.691584    -12.411608   1.000000   1.000000
  277      -12.690926    -12.410883   1.000000   1.000000
  278      -12.684776    -12.405404   1.000000   1.000000
  279      -12.672921    -12.392919   1.000000   1.000000
  280      -12.672810    -12.392798   1.000000   1.000000
  281      -12.672671    -12.392656   1.000000   1.000000
  282      -12.671068    -12.391513   1.000000   1.000000
  283      -12.667791    -12.388887   1.000000   1.000000
  284      -12.667689    -12.388783   1.000000   1.000000
  285      -12.667599    -12.388708   1.000000   1.000000
  286      -12.659991    -12.381257   1.000000   1.000000
  287      -12.651928    -12.372709   1.000000   1.000000
  288      -12.641233    -12.363742   1.000000   1.000000
  289       -7.800256     -7.599242   1.000000   1.000000
  290       -7.748438     -7.551707   1.000000   1.000000
  291       -7.506797     -7.320206   1.000000   1.000000
  292       -7.505415     -7.319157   1.000000   1.000000
  293       -7.505344     -7.319072   1.000000   1.000000
  294       -7.505281     -7.319008   1.000000   1.000000
  295       -7.501498     -7.309558   1.000000   1.000000
  296       -7.500984     -7.308843   1.000000   1.000000
  297       -7.500876     -7.308747   1.000000   1.000000
  298       -7.500766     -7.308648   1.000000   1.000000
  299       -7.315646     -7.118138   1.000000   1.000000
  300       -7.315150     -7.117696   1.000000   1.000000
  301       -7.298044     -7.094686   1.000000   1.000000
  302       -7.297124     -7.093834   1.000000   1.000000
  303       -7.296512     -7.093230   1.000000   1.000000
  304       -7.296441     -7.093168   1.000000   1.000000
  305       -7.269657     -7.062326   1.000000   1.000000
  306       -7.269235     -7.061936   1.000000   1.000000
  307       -7.088944     -6.894908   1.000000   1.000000
  308       -7.085743     -6.894082   1.000000   1.000000
  309       -7.084885     -6.893588   1.000000   1.000000
  310       -7.084396     -6.893567   1.000000   1.000000
  311       -7.084371     -6.796923   1.000000   1.000000
  312       -7.046775     -6.783991   1.000000   1.000000
  313       -7.002546     -6.770058   1.000000   1.000000
  314       -7.000027     -6.768154   1.000000   1.000000
  315       -6.999996     -6.767861   1.000000   1.000000
  316       -6.999867     -6.767675   1.000000   1.000000
  317       -6.999819     -6.767284   1.000000   1.000000
  318       -6.999725     -6.766291   1.000000   1.000000
  319       -6.999487     -6.766184   1.000000   1.000000
  320       -6.998876     -6.766124   1.000000   1.000000
  321       -6.994821     -6.766118   1.000000   1.000000
  322       -6.994225     -6.766036   1.000000   1.000000
  323       -6.994117     -6.765769   1.000000   1.000000
  324       -6.993949     -6.765136   1.000000   1.000000
  325       -6.956970     -6.745606   1.000000   1.000000
  326       -6.955991     -6.744926   1.000000   1.000000
  327       -6.955551     -6.744817   1.000000   1.000000
  328       -6.955504     -6.744692   1.000000   1.000000
  329       -6.948690     -6.697890   1.000000   1.000000
  330       -6.948304     -6.697438   1.000000   1.000000
  331       -6.929436     -6.689756   1.000000   1.000000
  332       -6.928661     -6.689115   1.000000   1.000000
  333       -6.928558     -6.689006   1.000000   1.000000
  334       -6.928516     -6.688949   1.000000   1.000000
  335       -6.911980     -6.641944   1.000000   1.000000
  336       -6.911048     -6.639484   1.000000   1.000000
  337       -6.886984     -6.639240   1.000000   1.000000
  338       -6.885964     -6.639120   1.000000   1.000000
  339       -6.885329     -6.639114   1.000000   1.000000
  340       -6.885305     -6.638980   1.000000   1.000000
  341       -6.878783     -6.638787   1.000000   1.000000
  342       -6.877036     -6.638748   1.000000   1.000000
  343       -6.877016     -6.638640   1.000000   1.000000
  344       -6.876908     -6.638182   1.000000   1.000000
  345       -6.876846     -6.638014   1.000000   1.000000
  346       -6.876772     -6.637686   1.000000   1.000000
  347       -6.876546     -6.628590   1.000000   1.000000
  348       -6.875862     -6.627762   1.000000   1.000000
  349       -6.832964     -6.586952   1.000000   1.000000
  350       -6.832585     -6.586620   1.000000   1.000000
  351       -6.794901     -6.499703   1.000000   1.000000
  352       -6.794011     -6.498830   1.000000   1.000000
  353       -1.525123     -0.414905   1.000000   1.000000
  354       -1.467769     -0.414770   1.000000   1.000000
  355       -1.467739     -0.414325   1.000000   1.000000
  356       -1.467654     -0.413357   1.000000   1.000000
  357       -1.466290      0.026112   1.000000   1.000000
  358       -1.460447      0.026274   1.000000   1.000000
  359       -1.460313      0.026372   1.000000   1.000000
  360       -1.460168      0.027633   1.000000   1.000000
  361       -1.458258      0.037419   1.000000   1.000000
  362       -1.421418      0.037568   1.000000   1.000000
  363       -1.420403      0.037694   1.000000   1.000000
  364       -1.383015      0.037973   1.000000   1.000000
  365       -1.382984      0.038095   1.000000   1.000000
  366       -1.382631      0.038223   1.000000   1.000000
  367       -1.380701      0.038425   1.000000   1.000000
  368       -1.333006      0.041495   1.000000   1.000000
  369       -1.332833      0.102803   1.000000   1.000000
  370       -1.332632      0.103861   1.000000   1.000000
  371       -1.332508      0.207210   1.000000   1.000000
  372       -1.332477      0.207233   1.000000   1.000000
  373       -1.332436      0.207750   1.000000   1.000000
  374       -1.332313      0.209559   1.000000   1.000000
  375       -1.327902      0.304670   1.000000   1.000000
  376       -1.292587      0.392349   1.000000   1.000000
  377       -1.292548      0.392502   1.000000   1.000000
  378       -1.292471      0.392588   1.000000   1.000000
  379       -1.289912      0.394880   1.000000   1.000000
  380       -1.257080      0.490786   1.000000   1.000000
  381       -1.255256      0.492103   1.000000   1.000000
  382       -1.232222      0.497060   1.000000   1.000000
  383       -1.230812      0.497615   1.000000   1.000000
  384       -1.219596      0.498142   1.000000   1.000000
  385       -0.822828      0.498194   1.000000   1.000000
  386       -0.822742      0.510753   1.000000   1.000000
  387       -0.822688      0.510786   1.000000   1.000000
  388       -0.822166      0.530760   1.000000   1.000000
  389       -0.722807      0.530847   1.000000   1.000000
  390       -0.722341      0.531386   1.000000   1.000000
  391       -0.699407      0.531484   1.000000   1.000000
  392       -0.699024      0.573629   1.000000   1.000000
  393       -0.698618      0.573652   1.000000   1.000000
  394       -0.698584      0.574235   1.000000   1.000000
  395       -0.688874      0.574284   1.000000   1.000000
  396       -0.688601      0.574414   1.000000   1.000000
  397       -0.688302      0.574489   1.000000   1.000000
  398       -0.687987      0.575171   1.000000   1.000000
  399       -0.666769      0.575331   1.000000   1.000000
  400       -0.666511      0.639196   1.000000   1.000000
  401       -0.666345      0.666035   1.000000   1.000000
  402       -0.665995      0.666606   1.000000   1.000000
  403       -0.652116      0.732692   1.000000   1.000000
  404       -0.651805      0.734954   1.000000   1.000000
  405       -0.651629      0.931680   1.000000   1.000000
  406       -0.651405      0.932699   1.000000   1.000000
  407       -0.589593      0.935609   1.000000   1.000000
  408       -0.589045      0.936135   1.000000   1.000000
  409       -0.576770      0.948754   1.000000   1.000000
  410       -0.576697      0.948883   1.000000   1.000000
  411       -0.576392      0.949295   1.000000   1.000000
  412       -0.575890      0.949721   1.000000   1.000000
  413       -0.553551      0.985801   1.000000   1.000000
  414       -0.553191      0.985880   1.000000   1.000000
  415       -0.552886      0.986491   1.000000   1.000000
  416       -0.552524      0.987435   1.000000   1.000000
  417       -0.497431      0.992613   1.000000   1.000000
  418       -0.496679      0.992808   1.000000   1.000000
  419       -0.472702      1.008756   1.000000   1.000000
  420       -0.472479      1.008971   1.000000   1.000000
  421       -0.461704      1.009670   1.000000   1.000000
  422       -0.461405      1.009720   1.000000   1.000000
  423       -0.461360      1.018299   1.000000   1.000000
  424       -0.461032      1.048761   1.000000   1.000000
  425       -0.459861      1.049256   1.000000   1.000000
  426       -0.459509      1.051475   1.000000   1.000000
  427       -0.459238      1.051647   1.000000   1.000000
  428       -0.458780      1.052055   1.000000   1.000000
  429       -0.410070      1.053173   1.000000   1.000000
  430       -0.409730      1.078485   1.000000   1.000000
  431       -0.407851      1.078734   1.000000   1.000000
  432       -0.407759      1.078932   1.000000   1.000000
  433       -0.407532      1.079461   1.000000   1.000000
  434       -0.407211      1.079582   1.000000   1.000000
  435       -0.406931      1.079688   1.000000   1.000000
  436       -0.406218      1.080112   1.000000   1.000000
  437       -0.383377      1.081594   1.000000   1.000000
  438       -0.383189      1.192854   1.000000   1.000000
  439       -0.378296      1.193708   1.000000   1.000000
  440       -0.369207      1.376920   1.000000   1.000000
  441       -0.369145      1.390838   1.000000   1.000000
  442       -0.368913      1.391018   1.000000   1.000000
  443       -0.368813      1.391193   1.000000   1.000000
  444       -0.368724      1.391254   1.000000   1.000000
  445       -0.368684      1.391493   1.000000   1.000000
  446       -0.368430      1.437784   1.000000   1.000000
  447       -0.368390      1.450689   1.000000   1.000000
  448       -0.353798      1.526217   1.000000   1.000000
  449       -0.353615      1.526264   1.000000   1.000000
  450       -0.348839      1.526713   1.000000   1.000000
  451       -0.341591      1.526881   1.000000   1.000000
  452       -0.336048      1.528814   1.000000   1.000000
  453       -0.335625      1.528927   1.000000   1.000000
  454       -0.335340      1.530716   1.000000   1.000000
  455       -0.335038      1.530967   1.000000   1.000000
  456       -0.334593      1.557715   1.000000   1.000000
  457       -0.334228      1.558091   1.000000   1.000000
  458       -0.334015      1.558485   1.000000   1.000000
  459       -0.333836      1.559048   1.000000   1.000000
  460       -0.324320      1.566326   1.000000   1.000000
  461       -0.323958      1.566757   1.000000   1.000000
  462       -0.323908      1.566849   1.000000   1.000000
  463       -0.323602      1.567108   1.000000   1.000000
  464       -0.321697      1.567979   1.000000   1.000000
  465       -0.321247      1.568375   1.000000   1.000000
  466       -0.320853      1.568466   1.000000   1.000000
  467       -0.320424      1.571423   1.000000   1.000000
  468       -0.303516      1.586376   1.000000   1.000000
  469       -0.295593      1.586544   1.000000   1.000000
  470       -0.288329      1.695568   1.000000   1.000000
  471       -0.287942      1.695706   1.000000   1.000000
  472       -0.287860      1.740676   1.000000   1.000000
  473       -0.287829      1.741056   1.000000   1.000000
  474       -0.280644      1.741187   1.000000   1.000000
  475       -0.280384      1.741533   1.000000   1.000000
  476       -0.275528      1.746396   1.000000   1.000000
  477       -0.275017      1.746461   1.000000   1.000000
  478       -0.275005      1.748632   1.000000   1.000000
  479       -0.274763      1.748722   1.000000   1.000000
  480       -0.242105      1.779035   1.000000   1.000000
  481       -0.241872      1.780626   1.000000   1.000000
  482       -0.241786      1.780915   1.000000   1.000000
  483       -0.241624      1.836562   1.000000   1.000000
  484       -0.241479      1.837041   1.000000   1.000000
  485       -0.241404      1.837064   1.000000   1.000000
  486       -0.241318      1.837415   1.000000   1.000000
  487       -0.241220      1.837534   1.000000   1.000000
  488       -0.207515      1.838210   1.000000   1.000000
  489       -0.207511      1.838325   1.000000   1.000000
  490       -0.200232      1.840894   1.000000   1.000000
  491       -0.199683      1.865556   1.000000   1.000000
  492       -0.199516      1.866586   1.000000   1.000000
  493       -0.199438      1.913202   1.000000   1.000000
  494       -0.194167      1.913272   1.000000   1.000000
  495       -0.194056      1.913363   1.000000   1.000000
  496       -0.164157      1.913468   1.000000   1.000000
  497       -0.163997      1.913514   1.000000   1.000000
  498       -0.163931      1.913642   1.000000   1.000000
  499       -0.163694      1.915064   1.000000   1.000000
  500       -0.156905      1.915605   1.000000   1.000000
  501       -0.156710      1.926799   1.000000   1.000000
  502       -0.156444      1.926824   1.000000   1.000000
  503       -0.156218      1.927174   1.000000   1.000000
  504       -0.139344      1.927447   1.000000   1.000000
  505       -0.139142      2.133290   1.000000   1.000000
  506       -0.138982      2.133543   1.000000   1.000000
  507       -0.138773      2.191165   1.000000   1.000000
  508       -0.091119      2.193094   1.000000   1.000000
  509       -0.091015      2.300527   1.000000   1.000000
  510       -0.082395      2.300942   1.000000   1.000000
  511       -0.082286      2.301204   1.000000   1.000000
  512       -0.082206      2.301256   1.000000   1.000000