  88  88   0   0
  0.1431748E+02  0.1111223E-08  0.1111745E-08  0.1056954E-08  0.5000000E-15
  1.000000000000000E-004
  CAR 
 unknown system                          
     17.91756226    -54.34028884  301      5.21222344      1.00000000
    -54.340  0.0000E+00  0.0000E+00  0.0000E+00  0.0000E+00
    -54.099  0.0000E+00  0.0000E+00  0.0000E+00  0.0000E+00
    -53.859  0.0000E+00  0.0000E+00  0.0000E+00  0.0000E+00
    -53.618  0.0000E+00  0.0000E+00  0.0000E+00  0.0000E+00
    -53.377  0.0000E+00  0.0000E+00  0.0000E+00  0.0000E+00
    -53.136  0.0000E+00  0.0000E+00  0.0000E+00  0.0000E+00
    -52.895  0.0000E+00  0.0000E+00  0.0000E+00  0.0000E+00
    -52.654  0.0000E+00  0.0000E+00  0.0000E+00  0.0000E+00
    -52.413  0.0000E+00  0.0000E+00  0.0000E+00  0.0000E+00
    -52.173  0.0000E+00  0.0000E+00  0.0000E+00  0.0000E+00
    -51.932  0.0000E+00  0.0000E+00  0.0000E+00  0.0000E+00
    -51.691  0.0000E+00  0.0000E+00  0.0000E+00  0.0000E+00
    -51.450  0.0000E+00  0.0000E+00  0.0000E+00  0.0000E+00
    -51.209  0.4215E-03  0.0000E+00  0.1015E-03  0.0000E+00
    -50.968  0.1310E+03  0.0000E+00  0.3156E+02  0.0000E+00
    -50.727  0.1823E+01  0.0000E+00  0.3200E+02  0.0000E+00
    -50.487  0.0000E+00  0.0000E+00  0.3200E+02  0.0000E+00
    -50.246  0.0000E+00  0.0000E+00  0.3200E+02  0.0000E+00
    -50.005  0.0000E+00  0.0000E+00  0.3200E+02  0.0000E+00
    -49.764  0.2075E+01  0.0000E+00  0.3250E+02  0.0000E+00
    -49.523  0.2375E+03  0.0000E+00  0.8971E+02  0.0000E+00
    -49.282  0.2612E+02  0.0000E+00  0.9600E+02  0.0000E+00
    -49.041  0.0000E+00  0.0000E+00  0.9600E+02  0.0000E+00
    -48.801  0.0000E+00  0.0000E+00  0.9600E+02  0.0000E+00
    -48.560  0.0000E+00  0.0000E+00  0.9600E+02  0.0000E+00
    -48.319  0.0000E+00  0.0000E+00  0.9600E+02  0.0000E+00
    -48.078  0.0000E+00  0.0000E+00  0.9600E+02  0.0000E+00
    -47.837  0.0000E+00  0.0000E+00  0.9600E+02  0.0000E+00
    -47.596  0.0000E+00  0.0000E+00  0.9600E+02  0.0000E+00
    -47.355  0.0000E+00  0.0000E+00  0.9600E+02  0.0000E+00
    -47.115  0.0000E+00  0.0000E+00  0.9600E+02  0.0000E+00
    -46.874  0.0000E+00  0.0000E+00  0.9600E+02  0.0000E+00
    -46.633  0.0000E+00  0.0000E+00  0.9600E+02  0.0000E+00
    -46.392  0.0000E+00  0.4219E+00  0.9600E+02  0.1016E+00
    -46.151  0.0000E+00  0.1324E+03  0.9600E+02  0.3199E+02
    -45.910  0.0000E+00  0.6227E+02  0.9600E+02  0.4699E+02
    -45.669  0.0000E+00  0.2035E+03  0.9600E+02  0.9600E+02
    -45.428  0.0000E+00  0.0000E+00  0.9600E+02  0.9600E+02
    -45.188  0.0000E+00  0.0000E+00  0.9600E+02  0.9600E+02
    -44.947  0.0000E+00  0.0000E+00  0.9600E+02  0.9600E+02
    -44.706  0.0000E+00  0.0000E+00  0.9600E+02  0.9600E+02
    -44.465  0.0000E+00  0.0000E+00  0.9600E+02  0.9600E+02
    -44.224  0.0000E+00  0.0000E+00  0.9600E+02  0.9600E+02
    -43.983  0.0000E+00  0.0000E+00  0.9600E+02  0.9600E+02
    -43.742  0.0000E+00  0.0000E+00  0.9600E+02  0.9600E+02
    -43.502  0.0000E+00  0.0000E+00  0.9600E+02  0.9600E+02
    -43.261  0.0000E+00  0.0000E+00  0.9600E+02  0.9600E+02
    -43.020  0.0000E+00  0.0000E+00  0.9600E+02  0.9600E+02
    -42.779  0.0000E+00  0.0000E+00  0.9600E+02  0.9600E+02
    -42.538  0.0000E+00  0.0000E+00  0.9600E+02  0.9600E+02
    -42.297  0.0000E+00  0.0000E+00  0.9600E+02  0.9600E+02
    -42.056  0.0000E+00  0.0000E+00  0.9600E+02  0.9600E+02
    -41.816  0.0000E+00  0.0000E+00  0.9600E+02  0.9600E+02
    -41.575  0.0000E+00  0.0000E+00  0.9600E+02  0.9600E+02
    -41.334  0.0000E+00  0.0000E+00  0.9600E+02  0.9600E+02
    -41.093  0.0000E+00  0.0000E+00  0.9600E+02  0.9600E+02
    -40.852  0.0000E+00  0.0000E+00  0.9600E+02  0.9600E+02
    -40.611  0.0000E+00  0.0000E+00  0.9600E+02  0.9600E+02
    -40.370  0.0000E+00  0.0000E+00  0.9600E+02  0.9600E+02
    -40.130  0.2528E-11  0.1619E-11  0.9600E+02  0.9600E+02
    -39.889  0.1679E+02  0.1557E+02  0.1000E+03  0.9975E+02
    -39.648  0.4964E+02  0.5086E+02  0.1120E+03  0.1120E+03
    -39.407  0.0000E+00  0.0000E+00  0.1120E+03  0.1120E+03
    -39.166  0.0000E+00  0.0000E+00  0.1120E+03  0.1120E+03
    -38.925  0.0000E+00  0.0000E+00  0.1120E+03  0.1120E+03
    -38.684  0.0000E+00  0.0000E+00  0.1120E+03  0.1120E+03
    -38.444  0.0000E+00  0.0000E+00  0.1120E+03  0.1120E+03
    -38.203  0.0000E+00  0.0000E+00  0.1120E+03  0.1120E+03
    -37.962  0.0000E+00  0.0000E+00  0.1120E+03  0.1120E+03
    -37.721  0.0000E+00  0.0000E+00  0.1120E+03  0.1120E+03
    -37.480  0.0000E+00  0.0000E+00  0.1120E+03  0.1120E+03
    -37.239  0.0000E+00  0.0000E+00  0.1120E+03  0.1120E+03
    -36.998  0.0000E+00  0.0000E+00  0.1120E+03  0.1120E+03
    -36.758  0.0000E+00  0.0000E+00  0.1120E+03  0.1120E+03
    -36.517  0.0000E+00  0.0000E+00  0.1120E+03  0.1120E+03
    -36.276  0.0000E+00  0.0000E+00  0.1120E+03  0.1120E+03
    -36.035  0.0000E+00  0.0000E+00  0.1120E+03  0.1120E+03
    -35.794  0.0000E+00  0.0000E+00  0.1120E+03  0.1120E+03
    -35.553  0.0000E+00  0.0000E+00  0.1120E+03  0.1120E+03
    -35.312  0.0000E+00  0.0000E+00  0.1120E+03  0.1120E+03
    -35.072  0.0000E+00  0.0000E+00  0.1120E+03  0.1120E+03
    -34.831  0.0000E+00  0.0000E+00  0.1120E+03  0.1120E+03
    -34.590  0.0000E+00  0.0000E+00  0.1120E+03  0.1120E+03
    -34.349  0.0000E+00  0.0000E+00  0.1120E+03  0.1120E+03
    -34.108  0.0000E+00  0.0000E+00  0.1120E+03  0.1120E+03
    -33.867  0.0000E+00  0.0000E+00  0.1120E+03  0.1120E+03
    -33.626  0.0000E+00  0.0000E+00  0.1120E+03  0.1120E+03
    -33.386  0.0000E+00  0.0000E+00  0.1120E+03  0.1120E+03
    -33.145  0.0000E+00  0.0000E+00  0.1120E+03  0.1120E+03
    -32.904  0.0000E+00  0.0000E+00  0.1120E+03  0.1120E+03
    -32.663  0.0000E+00  0.0000E+00  0.1120E+03  0.1120E+03
    -32.422  0.0000E+00  0.0000E+00  0.1120E+03  0.1120E+03
    -32.181  0.0000E+00  0.0000E+00  0.1120E+03  0.1120E+03
    -31.940  0.0000E+00  0.0000E+00  0.1120E+03  0.1120E+03
    -31.699  0.0000E+00  0.0000E+00  0.1120E+03  0.1120E+03
    -31.459  0.0000E+00  0.0000E+00  0.1120E+03  0.1120E+03
    -31.218  0.0000E+00  0.0000E+00  0.1120E+03  0.1120E+03
    -30.977  0.0000E+00  0.0000E+00  0.1120E+03  0.1120E+03
    -30.736  0.0000E+00  0.0000E+00  0.1120E+03  0.1120E+03
    -30.495  0.0000E+00  0.0000E+00  0.1120E+03  0.1120E+03
    -30.254  0.0000E+00  0.0000E+00  0.1120E+03  0.1120E+03
    -30.013  0.0000E+00  0.0000E+00  0.1120E+03  0.1120E+03
    -29.773  0.0000E+00  0.0000E+00  0.1120E+03  0.1120E+03
    -29.532  0.0000E+00  0.0000E+00  0.1120E+03  0.1120E+03
    -29.291  0.0000E+00  0.0000E+00  0.1120E+03  0.1120E+03
    -29.050  0.0000E+00  0.0000E+00  0.1120E+03  0.1120E+03
    -28.809  0.0000E+00  0.0000E+00  0.1120E+03  0.1120E+03
    -28.568  0.0000E+00  0.0000E+00  0.1120E+03  0.1120E+03
    -28.327  0.0000E+00  0.0000E+00  0.1120E+03  0.1120E+03
    -28.087  0.0000E+00  0.0000E+00  0.1120E+03  0.1120E+03
    -27.846  0.0000E+00  0.0000E+00  0.1120E+03  0.1120E+03
    -27.605  0.0000E+00  0.0000E+00  0.1120E+03  0.1120E+03
    -27.364  0.0000E+00  0.0000E+00  0.1120E+03  0.1120E+03
    -27.123  0.0000E+00  0.0000E+00  0.1120E+03  0.1120E+03
    -26.882  0.0000E+00  0.0000E+00  0.1120E+03  0.1120E+03
    -26.641  0.0000E+00  0.0000E+00  0.1120E+03  0.1120E+03
    -26.401  0.0000E+00  0.0000E+00  0.1120E+03  0.1120E+03
    -26.160  0.0000E+00  0.0000E+00  0.1120E+03  0.1120E+03
    -25.919  0.0000E+00  0.0000E+00  0.1120E+03  0.1120E+03
    -25.678  0.0000E+00  0.0000E+00  0.1120E+03  0.1120E+03
    -25.437  0.0000E+00  0.0000E+00  0.1120E+03  0.1120E+03
    -25.196  0.0000E+00  0.0000E+00  0.1120E+03  0.1120E+03
    -24.955  0.0000E+00  0.0000E+00  0.1120E+03  0.1120E+03
    -24.715  0.0000E+00  0.0000E+00  0.1120E+03  0.1120E+03
    -24.474  0.0000E+00  0.0000E+00  0.1120E+03  0.1120E+03
    -24.233  0.0000E+00  0.0000E+00  0.1120E+03  0.1120E+03
    -23.992  0.0000E+00  0.0000E+00  0.1120E+03  0.1120E+03
    -23.751  0.0000E+00  0.0000E+00  0.1120E+03  0.1120E+03
    -23.510  0.0000E+00  0.0000E+00  0.1120E+03  0.1120E+03
    -23.269  0.0000E+00  0.0000E+00  0.1120E+03  0.1120E+03
    -23.029  0.0000E+00  0.0000E+00  0.1120E+03  0.1120E+03
    -22.788  0.0000E+00  0.0000E+00  0.1120E+03  0.1120E+03
    -22.547  0.0000E+00  0.0000E+00  0.1120E+03  0.1120E+03
    -22.306  0.0000E+00  0.0000E+00  0.1120E+03  0.1120E+03
    -22.065  0.0000E+00  0.0000E+00  0.1120E+03  0.1120E+03
    -21.824  0.0000E+00  0.0000E+00  0.1120E+03  0.1120E+03
    -21.583  0.0000E+00  0.0000E+00  0.1120E+03  0.1120E+03
    -21.343  0.0000E+00  0.0000E+00  0.1120E+03  0.1120E+03
    -21.102  0.0000E+00  0.0000E+00  0.1120E+03  0.1120E+03
    -20.861  0.0000E+00  0.0000E+00  0.1120E+03  0.1120E+03
    -20.620  0.0000E+00  0.0000E+00  0.1120E+03  0.1120E+03
    -20.379  0.0000E+00  0.0000E+00  0.1120E+03  0.1120E+03
    -20.138  0.0000E+00  0.0000E+00  0.1120E+03  0.1120E+03
    -19.897  0.0000E+00  0.0000E+00  0.1120E+03  0.1120E+03
    -19.657  0.0000E+00  0.0000E+00  0.1120E+03  0.1120E+03
    -19.416  0.0000E+00  0.0000E+00  0.1120E+03  0.1120E+03
    -19.175  0.0000E+00  0.0000E+00  0.1120E+03  0.1120E+03
    -18.934  0.0000E+00  0.0000E+00  0.1120E+03  0.1120E+03
    -18.693  0.0000E+00  0.0000E+00  0.1120E+03  0.1120E+03
    -18.452  0.0000E+00  0.0000E+00  0.1120E+03  0.1120E+03
    -18.211  0.0000E+00  0.0000E+00  0.1120E+03  0.1120E+03
    -17.971  0.0000E+00  0.0000E+00  0.1120E+03  0.1120E+03
    -17.730  0.0000E+00  0.0000E+00  0.1120E+03  0.1120E+03
    -17.489  0.0000E+00  0.0000E+00  0.1120E+03  0.1120E+03
    -17.248  0.0000E+00  0.0000E+00  0.1120E+03  0.1120E+03
    -17.007  0.0000E+00  0.0000E+00  0.1120E+03  0.1120E+03
    -16.766  0.0000E+00  0.0000E+00  0.1120E+03  0.1120E+03
    -16.525  0.0000E+00  0.0000E+00  0.1120E+03  0.1120E+03
    -16.284  0.0000E+00  0.0000E+00  0.1120E+03  0.1120E+03
    -16.044  0.0000E+00  0.0000E+00  0.1120E+03  0.1120E+03
    -15.803  0.0000E+00  0.0000E+00  0.1120E+03  0.1120E+03
    -15.562  0.0000E+00  0.0000E+00  0.1120E+03  0.1120E+03
    -15.321  0.0000E+00  0.0000E+00  0.1120E+03  0.1120E+03
    -15.080  0.0000E+00  0.0000E+00  0.1120E+03  0.1120E+03
    -14.839  0.0000E+00  0.0000E+00  0.1120E+03  0.1120E+03
    -14.598  0.0000E+00  0.0000E+00  0.1120E+03  0.1120E+03
    -14.358  0.0000E+00  0.0000E+00  0.1120E+03  0.1120E+03
    -14.117  0.0000E+00  0.0000E+00  0.1120E+03  0.1120E+03
    -13.876  0.0000E+00  0.0000E+00  0.1120E+03  0.1120E+03
    -13.635  0.0000E+00  0.0000E+00  0.1120E+03  0.1120E+03
    -13.394  0.1724E-05  0.0000E+00  0.1120E+03  0.1120E+03
    -13.153  0.2057E+02  0.0000E+00  0.1170E+03  0.1120E+03
    -12.912  0.4487E+02  0.1500E-01  0.1278E+03  0.1120E+03
    -12.672  0.9887E+00  0.4425E+02  0.1280E+03  0.1227E+03
    -12.431  0.0000E+00  0.2217E+02  0.1280E+03  0.1280E+03
    -12.190  0.0000E+00  0.0000E+00  0.1280E+03  0.1280E+03
    -11.949  0.0000E+00  0.0000E+00  0.1280E+03  0.1280E+03
    -11.708  0.0000E+00  0.0000E+00  0.1280E+03  0.1280E+03
    -11.467  0.0000E+00  0.0000E+00  0.1280E+03  0.1280E+03
    -11.226  0.0000E+00  0.0000E+00  0.1280E+03  0.1280E+03
    -10.986  0.0000E+00  0.0000E+00  0.1280E+03  0.1280E+03
    -10.745  0.0000E+00  0.0000E+00  0.1280E+03  0.1280E+03
    -10.504  0.0000E+00  0.0000E+00  0.1280E+03  0.1280E+03
    -10.263  0.0000E+00  0.0000E+00  0.1280E+03  0.1280E+03
    -10.022  0.0000E+00  0.0000E+00  0.1280E+03  0.1280E+03
     -9.781  0.0000E+00  0.0000E+00  0.1280E+03  0.1280E+03
     -9.540  0.0000E+00  0.0000E+00  0.1280E+03  0.1280E+03
     -9.300  0.0000E+00  0.0000E+00  0.1280E+03  0.1280E+03
     -9.059  0.0000E+00  0.0000E+00  0.1280E+03  0.1280E+03
     -8.818  0.0000E+00  0.0000E+00  0.1280E+03  0.1280E+03
     -8.577  0.0000E+00  0.0000E+00  0.1280E+03  0.1280E+03
     -8.336  0.0000E+00  0.0000E+00  0.1280E+03  0.1280E+03
     -8.095  0.0000E+00  0.0000E+00  0.1280E+03  0.1280E+03
     -7.854  0.2727E-09  0.0000E+00  0.1280E+03  0.1280E+03
     -7.614  0.7190E+00  0.5231E-10  0.1282E+03  0.1280E+03
     -7.373  0.1325E+02  0.6461E+00  0.1314E+03  0.1282E+03
     -7.132  0.3024E+02  0.1457E+02  0.1386E+03  0.1317E+03
     -6.891  0.3525E+02  0.2935E+02  0.1471E+03  0.1387E+03
     -6.650  0.2018E+02  0.2701E+02  0.1520E+03  0.1452E+03
     -6.409  0.7846E-05  0.2803E+02  0.1520E+03  0.1520E+03
     -6.168  0.0000E+00  0.3312E-01  0.1520E+03  0.1520E+03
     -5.928  0.0000E+00  0.0000E+00  0.1520E+03  0.1520E+03
     -5.687  0.0000E+00  0.0000E+00  0.1520E+03  0.1520E+03
     -5.446  0.0000E+00  0.0000E+00  0.1520E+03  0.1520E+03
     -5.205  0.0000E+00  0.0000E+00  0.1520E+03  0.1520E+03
     -4.964  0.0000E+00  0.0000E+00  0.1520E+03  0.1520E+03
     -4.723  0.0000E+00  0.0000E+00  0.1520E+03  0.1520E+03
     -4.482  0.0000E+00  0.0000E+00  0.1520E+03  0.1520E+03
     -4.242  0.0000E+00  0.0000E+00  0.1520E+03  0.1520E+03
     -4.001  0.0000E+00  0.0000E+00  0.1520E+03  0.1520E+03
     -3.760  0.0000E+00  0.0000E+00  0.1520E+03  0.1520E+03
     -3.519  0.0000E+00  0.0000E+00  0.1520E+03  0.1520E+03
     -3.278  0.0000E+00  0.0000E+00  0.1520E+03  0.1520E+03
     -3.037  0.0000E+00  0.0000E+00  0.1520E+03  0.1520E+03
     -2.796  0.0000E+00  0.0000E+00  0.1520E+03  0.1520E+03
     -2.555  0.0000E+00  0.0000E+00  0.1520E+03  0.1520E+03
     -2.315  0.0000E+00  0.0000E+00  0.1520E+03  0.1520E+03
     -2.074  0.6743E-04  0.0000E+00  0.1520E+03  0.1520E+03
     -1.833  0.1691E+02  0.0000E+00  0.1561E+03  0.1520E+03
     -1.592  0.1922E+02  0.0000E+00  0.1607E+03  0.1520E+03
     -1.351  0.1453E+02  0.0000E+00  0.1642E+03  0.1520E+03
     -1.110  0.1742E+02  0.0000E+00  0.1684E+03  0.1520E+03
     -0.869  0.4692E+02  0.0000E+00  0.1797E+03  0.1520E+03
     -0.629  0.5918E+02  0.2825E-05  0.1939E+03  0.1520E+03
     -0.388  0.3879E+02  0.4794E+01  0.2033E+03  0.1532E+03
     -0.147  0.6875E+02  0.2027E+02  0.2199E+03  0.1580E+03
      0.094  0.7332E+02  0.1229E+02  0.2375E+03  0.1610E+03
      0.335  0.7767E+02  0.1892E+02  0.2562E+03  0.1656E+03
      0.576  0.7018E+02  0.2973E+02  0.2731E+03  0.1727E+03
      0.817  0.5412E+02  0.3951E+02  0.2862E+03  0.1822E+03
      1.057  0.3622E+02  0.3727E+02  0.2949E+03  0.1912E+03
      1.298  0.3086E+02  0.3063E+02  0.3023E+03  0.1986E+03
      1.539  0.4498E+02  0.2090E+02  0.3132E+03  0.2036E+03
      1.780  0.4326E+02  0.2872E+02  0.3236E+03  0.2105E+03
      2.021  0.6926E+02  0.3755E+02  0.3403E+03  0.2196E+03
      2.262  0.5615E+02  0.2677E+02  0.3538E+03  0.2260E+03
      2.503  0.2719E+02  0.2714E+02  0.3603E+03  0.2326E+03
      2.743  0.4288E+02  0.3167E+02  0.3707E+03  0.2402E+03
      2.984  0.2881E+02  0.4476E+02  0.3776E+03  0.2510E+03
      3.225  0.8794E+01  0.4538E+02  0.3797E+03  0.2619E+03
      3.466  0.2883E+02  0.3093E+02  0.3867E+03  0.2694E+03
      3.707  0.2665E+02  0.1199E+02  0.3931E+03  0.2722E+03
      3.948  0.3126E+02  0.1876E+02  0.4006E+03  0.2768E+03
      4.189  0.3589E+02  0.5185E+02  0.4092E+03  0.2892E+03
      4.429  0.3642E+02  0.4558E+02  0.4180E+03  0.3002E+03
      4.670  0.2995E+02  0.1566E+02  0.4252E+03  0.3040E+03
      4.911  0.2552E+02  0.2225E-02  0.4314E+03  0.3040E+03
      5.152  0.2587E+01  0.0000E+00  0.4320E+03  0.3040E+03
      5.393  0.0000E+00  0.0000E+00  0.4320E+03  0.3040E+03
      5.634  0.0000E+00  0.0000E+00  0.4320E+03  0.3040E+03
      5.875  0.0000E+00  0.0000E+00  0.4320E+03  0.3040E+03
      6.115  0.0000E+00  0.1736E-08  0.4320E+03  0.3040E+03
      6.356  0.0000E+00  0.4585E+00  0.4320E+03  0.3041E+03
      6.597  0.0000E+00  0.4221E+01  0.4320E+03  0.3051E+03
      6.838  0.0000E+00  0.8093E+01  0.4320E+03  0.3071E+03
      7.079  0.5480E-14  0.2021E+02  0.4320E+03  0.3119E+03
      7.320  0.3852E-01  0.4478E+02  0.4320E+03  0.3227E+03
      7.561  0.1153E+00  0.5413E+02  0.4320E+03  0.3358E+03
      7.801  0.3044E+00  0.6287E+02  0.4321E+03  0.3509E+03
      8.042  0.6977E+00  0.6639E+02  0.4323E+03  0.3669E+03
      8.283  0.2278E+01  0.7060E+02  0.4328E+03  0.3839E+03
      8.524  0.2668E+01  0.5837E+02  0.4335E+03  0.3980E+03
      8.765  0.9011E+01  0.5888E+02  0.4356E+03  0.4121E+03
      9.006  0.1271E+02  0.4671E+02  0.4387E+03  0.4234E+03
      9.247  0.1321E+02  0.2894E+02  0.4419E+03  0.4304E+03
      9.487  0.1816E+02  0.8508E+01  0.4463E+03  0.4324E+03
      9.728  0.1606E+02  0.3230E+01  0.4501E+03  0.4332E+03
      9.969  0.1575E+02  0.8522E+01  0.4539E+03  0.4352E+03
     10.210  0.2249E+02  0.1890E+02  0.4593E+03  0.4398E+03
     10.451  0.1487E+02  0.1798E+02  0.4629E+03  0.4441E+03
     10.692  0.1519E+02  0.1741E+02  0.4666E+03  0.4483E+03
     10.933  0.1341E+02  0.2748E+02  0.4698E+03  0.4549E+03
     11.173  0.2072E+02  0.1896E+02  0.4748E+03  0.4595E+03
     11.414  0.2518E+02  0.2411E+02  0.4809E+03  0.4653E+03
     11.655  0.2687E+02  0.1432E+02  0.4873E+03  0.4688E+03
     11.896  0.2515E+02  0.1394E+02  0.4934E+03  0.4721E+03
     12.137  0.3296E+02  0.1644E+02  0.5013E+03  0.4761E+03
     12.378  0.1980E+02  0.3742E+02  0.5061E+03  0.4851E+03
     12.619  0.2309E+02  0.3240E+02  0.5117E+03  0.4929E+03
     12.860  0.2161E+02  0.2916E+02  0.5169E+03  0.4999E+03
     13.100  0.1987E+02  0.2018E+02  0.5217E+03  0.5048E+03
     13.341  0.2465E+02  0.2263E+02  0.5276E+03  0.5102E+03
     13.582  0.2365E+02  0.2730E+02  0.5333E+03  0.5168E+03
     13.823  0.1329E+02  0.2373E+02  0.5365E+03  0.5225E+03
     14.064  0.6284E+01  0.2609E+02  0.5380E+03  0.5288E+03
     14.305  0.1320E-02  0.1901E+02  0.5380E+03  0.5334E+03
     14.546  0.0000E+00  0.1633E+02  0.5380E+03  0.5373E+03
     14.786  0.0000E+00  0.2803E+01  0.5380E+03  0.5380E+03
     15.027  0.0000E+00  0.2239E-05  0.5380E+03  0.5380E+03
     15.268  0.0000E+00  0.0000E+00  0.5380E+03  0.5380E+03
     15.509  0.0000E+00  0.0000E+00  0.5380E+03  0.5380E+03
     15.750  0.0000E+00  0.0000E+00  0.5380E+03  0.5380E+03
     15.991  0.0000E+00  0.0000E+00  0.5380E+03  0.5380E+03
     16.232  0.0000E+00  0.0000E+00  0.5380E+03  0.5380E+03
     16.472  0.0000E+00  0.0000E+00  0.5380E+03  0.5380E+03
     16.713  0.0000E+00  0.0000E+00  0.5380E+03  0.5380E+03
     16.954  0.0000E+00  0.0000E+00  0.5380E+03  0.5380E+03
     17.195  0.0000E+00  0.0000E+00  0.5380E+03  0.5380E+03
     17.436  0.0000E+00  0.0000E+00  0.5380E+03  0.5380E+03
     17.677  0.0000E+00  0.0000E+00  0.5380E+03  0.5380E+03
     17.918  0.0000E+00  0.0000E+00  0.5380E+03  0.5380E+03
