<?xml version="1.0" encoding="ISO-8859-1"?>
<modeling>
 <generator>
  <i name="program" type="string">vasp </i>
  <i name="version" type="string">5.4.4.18Apr17-6-g9f103f2a35  </i>
  <i name="subversion" type="string">(build Oct 25 2017 14:42:18) complex            parallel </i>
  <i name="platform" type="string">LinuxIFC </i>
  <i name="date" type="string">2021 06 02 </i>
  <i name="time" type="string">18:03:11 </i>
 </generator>
 <incar>
  <i type="string" name="PREC">accurate</i>
  <i type="string" name="ALGO"> normal</i>
  <i type="logical" name="ADDGRID"> T  </i>
  <i type="int" name="ISPIN">     2</i>
  <i type="int" name="ICHARG">     1</i>
  <i type="int" name="NELM">   200</i>
  <i type="int" name="NELMIN">     8</i>
  <i name="EDIFF">      0.00000100</i>
  <i type="int" name="ISYM">     0</i>
  <i name="ENCUT">    650.00000000</i>
  <v name="MAGMOM">      0.60000000      0.60000000      0.60000000      0.60000000      0.60000000      0.60000000      0.60000000      0.60000000      0.60000000      0.60000000      0.60000000      0.60000000      0.60000000      0.60000000      0.60000000      0.60000000      0.60000000      0.60000000      0.60000000      0.60000000
      0.60000000      0.60000000      0.60000000      0.60000000      0.60000000      0.60000000      0.60000000      0.60000000      0.60000000      0.60000000      0.60000000      0.60000000      0.60000000      0.60000000      0.60000000      0.60000000      0.60000000      0.60000000      0.60000000      0.60000000
      0.60000000      0.60000000      0.60000000      0.60000000      0.60000000      0.60000000      0.60000000      0.60000000      0.60000000      0.60000000      0.60000000      0.60000000      0.60000000      0.60000000      0.60000000      0.60000000      5.00000000      5.00000000      5.00000000      5.00000000
      5.00000000      5.00000000      5.00000000      5.00000000      5.00000000      5.00000000      5.00000000      5.00000000      5.00000000      5.00000000      5.00000000      5.00000000      5.00000000      5.00000000      5.00000000      5.00000000      5.00000000      5.00000000      5.00000000      5.00000000
      5.00000000      5.00000000      5.00000000      5.00000000      5.00000000      5.00000000      5.00000000      5.00000000</v>
  <i type="logical" name="LREAL"> F  </i>
  <i type="int" name="ISMEAR">     0</i>
  <i name="SIGMA">      0.05000000</i>
  <i type="int" name="NWRITE">     1</i>
  <i type="int" name="LMAXMIX">     4</i>
  <i type="logical" name="LWAVE"> F  </i>
  <i type="logical" name="LASPH"> T  </i>
  <v type="int" name="KPOINT_BSE">    -1     0     0     0</v>
  <i type="int" name="NELM">   200</i>
  <i type="string" name="GGA"> pe</i>
  <i type="logical" name="LDAU"> T  </i>
  <v type="int" name="LDAUTYPE">     2</v>
  <v type="int" name="LDAUL">    -1    -1    -1     2</v>
  <v name="LDAUU">      0.00000000      0.00000000      0.00000000      4.00000000</v>
  <v name="LDAUJ">      0.00000000      0.00000000      0.00000000      0.00000000</v>
  <i type="logical" name="LASPH"> T  </i>
 </incar>
 <structure name="primitive_cell" >
  <crystal>
   <varray name="basis" >
    <v>      11.11223374       0.00000000      -0.00029034 </v>
    <v>       0.00000000      11.11745194       0.00000000 </v>
    <v>      -2.77510898       0.00000000      10.19872221 </v>
   </varray>
   <i name="volume">   1259.93837498 </i>
   <varray name="rec_basis" >
    <v>       0.08999155       0.00000000       0.02448702 </v>
    <v>       0.00000000       0.08994867       0.00000000 </v>
    <v>       0.00000256       0.00000000       0.09805220 </v>
   </varray>
  </crystal>
  <varray name="positions" >
   <v>       0.28894970       0.46933910       0.15583616 </v>
   <v>       0.17529533      -0.40661825       0.19749617 </v>
   <v>       0.42345029       0.34530995       0.19749407 </v>
   <v>       0.37560721      -0.40565694      -0.00000412 </v>
   <v>       0.12439279       0.34434306       0.00000412 </v>
   <v>      -0.46151602       0.46936404       0.15397331 </v>
   <v>       0.03848398       0.46936404       0.15397331 </v>
   <v>       0.28861657       0.21935690       0.15447525 </v>
   <v>       0.28861657      -0.28064310       0.15447525 </v>
   <v>       0.21868463       0.34523395       0.37102476 </v>
   <v>       0.46681660      -0.40655103       0.37102399 </v>
   <v>       0.23507288      -0.41767349       0.39367237 </v>
   <v>       0.46175575       0.35634799       0.39367694 </v>
   <v>       0.21138343       0.46935690      -0.15447525 </v>
   <v>       0.04646972       0.21934976       0.18586770 </v>
   <v>       0.04646972      -0.28065024       0.18586770 </v>
   <v>      -0.45353028       0.21934976       0.18586770 </v>
   <v>      -0.45353028      -0.28065024       0.18586770 </v>
   <v>       0.32470467       0.34338175      -0.19749617 </v>
   <v>       0.07654971      -0.40469005      -0.19749407 </v>
   <v>       0.21105030       0.21933910      -0.15583616 </v>
   <v>       0.21105030      -0.28066090      -0.15583616 </v>
   <v>      -0.07654971       0.34530995       0.19749407 </v>
   <v>      -0.32470467      -0.40661825       0.19749617 </v>
   <v>       0.17529533       0.09338175       0.19749617 </v>
   <v>       0.42345029      -0.15469005       0.19749407 </v>
   <v>       0.45353028       0.46934976      -0.18586770 </v>
   <v>      -0.04646972       0.46934976      -0.18586770 </v>
   <v>      -0.37560721       0.34434306       0.00000412 </v>
   <v>      -0.12439279      -0.40565694      -0.00000412 </v>
   <v>       0.37560721       0.09434306      -0.00000412 </v>
   <v>       0.12439279      -0.15565694       0.00000412 </v>
   <v>      -0.03318340      -0.40655103       0.37102399 </v>
   <v>      -0.28131537       0.34523395       0.37102476 </v>
   <v>       0.21868463      -0.15476605       0.37102476 </v>
   <v>       0.46681660       0.09344897       0.37102399 </v>
   <v>       0.46151602       0.21936404      -0.15397331 </v>
   <v>       0.46151602      -0.28063596      -0.15397331 </v>
   <v>      -0.03848398       0.21936404      -0.15397331 </v>
   <v>      -0.03848398      -0.28063596      -0.15397331 </v>
   <v>       0.26492712       0.33232651      -0.39367237 </v>
   <v>      -0.46175575      -0.39365201      -0.39367694 </v>
   <v>      -0.03824425       0.35634799       0.39367694 </v>
   <v>      -0.26492712      -0.41767349       0.39367237 </v>
   <v>       0.23507288       0.08232651       0.39367237 </v>
   <v>       0.46175575      -0.14365201       0.39367694 </v>
   <v>       0.28131537      -0.40476605      -0.37102476 </v>
   <v>      -0.46681660       0.34344897      -0.37102399 </v>
   <v>      -0.21105030       0.46933910       0.15583616 </v>
   <v>       0.28894970      -0.03066090       0.15583616 </v>
   <v>       0.32470467      -0.15661825      -0.19749617 </v>
   <v>       0.07654971       0.09530995      -0.19749407 </v>
   <v>      -0.42345029      -0.40469005      -0.19749407 </v>
   <v>      -0.17529533       0.34338175      -0.19749617 </v>
   <v>       0.03318340       0.34344897      -0.37102399 </v>
   <v>      -0.07654971      -0.15469005       0.19749407 </v>
   <v>      -0.32470467       0.09338175       0.19749617 </v>
   <v>       0.03824425      -0.39365201      -0.39367694 </v>
   <v>      -0.37560721      -0.15565694       0.00000412 </v>
   <v>      -0.12439279       0.09434306      -0.00000412 </v>
   <v>      -0.21138343       0.21935690       0.15447525 </v>
   <v>      -0.21138343      -0.28064310       0.15447525 </v>
   <v>      -0.46151602      -0.03063596       0.15397331 </v>
   <v>       0.03848398      -0.03063596       0.15397331 </v>
   <v>       0.26492712      -0.16767349      -0.39367237 </v>
   <v>      -0.46175575       0.10634799      -0.39367694 </v>
   <v>      -0.03318340       0.09344897       0.37102399 </v>
   <v>      -0.28131537      -0.15476605       0.37102476 </v>
   <v>      -0.23507288       0.33232651      -0.39367237 </v>
   <v>      -0.28861657       0.46935690      -0.15447525 </v>
   <v>       0.21138343      -0.03064310      -0.15447525 </v>
   <v>      -0.21868463      -0.40476605      -0.37102476 </v>
   <v>       0.28131537       0.09523395      -0.37102476 </v>
   <v>      -0.46681660      -0.15655103      -0.37102399 </v>
   <v>      -0.03824425      -0.14365201       0.39367694 </v>
   <v>      -0.26492712       0.08232651       0.39367237 </v>
   <v>      -0.42345029       0.09530995      -0.19749407 </v>
   <v>      -0.17529533      -0.15661825      -0.19749617 </v>
   <v>       0.03318340      -0.15655103      -0.37102399 </v>
   <v>      -0.28894970       0.21933910      -0.15583616 </v>
   <v>      -0.28894970      -0.28066090      -0.15583616 </v>
   <v>       0.03824425       0.10724748      -0.39367694 </v>
   <v>       0.45353028      -0.03065024      -0.18586770 </v>
   <v>      -0.04646972      -0.03065024      -0.18586770 </v>
   <v>      -0.23507288      -0.16767349      -0.39367237 </v>
   <v>      -0.21868463       0.09523395      -0.37102476 </v>
   <v>      -0.21105030      -0.03066090       0.15583616 </v>
   <v>      -0.28861657      -0.03064310      -0.15447525 </v>
  </varray>
 </structure>
 <varray name="primitive_index" >
  <v type="int" >        1 </v>
  <v type="int" >       27 </v>
  <v type="int" >       29 </v>
  <v type="int" >       55 </v>
  <v type="int" >       49 </v>
  <v type="int" >       74 </v>
  <v type="int" >       73 </v>
  <v type="int" >       77 </v>
  <v type="int" >       79 </v>
  <v type="int" >       33 </v>
  <v type="int" >       39 </v>
  <v type="int" >       67 </v>
  <v type="int" >       69 </v>
  <v type="int" >       81 </v>
  <v type="int" >        5 </v>
  <v type="int" >        7 </v>
  <v type="int" >        6 </v>
  <v type="int" >        8 </v>
  <v type="int" >       21 </v>
  <v type="int" >       19 </v>
  <v type="int" >       13 </v>
  <v type="int" >       15 </v>
  <v type="int" >       30 </v>
  <v type="int" >       28 </v>
  <v type="int" >       25 </v>
  <v type="int" >       31 </v>
  <v type="int" >        9 </v>
  <v type="int" >       10 </v>
  <v type="int" >       50 </v>
  <v type="int" >       56 </v>
  <v type="int" >       53 </v>
  <v type="int" >       51 </v>
  <v type="int" >       40 </v>
  <v type="int" >       34 </v>
  <v type="int" >       35 </v>
  <v type="int" >       37 </v>
  <v type="int" >       85 </v>
  <v type="int" >       87 </v>
  <v type="int" >       86 </v>
  <v type="int" >       88 </v>
  <v type="int" >       61 </v>
  <v type="int" >       60 </v>
  <v type="int" >       70 </v>
  <v type="int" >       68 </v>
  <v type="int" >       65 </v>
  <v type="int" >       71 </v>
  <v type="int" >       47 </v>
  <v type="int" >       42 </v>
  <v type="int" >        2 </v>
  <v type="int" >        3 </v>
  <v type="int" >       23 </v>
  <v type="int" >       17 </v>
  <v type="int" >       20 </v>
  <v type="int" >       22 </v>
  <v type="int" >       41 </v>
  <v type="int" >       32 </v>
  <v type="int" >       26 </v>
  <v type="int" >       59 </v>
  <v type="int" >       52 </v>
  <v type="int" >       54 </v>
  <v type="int" >       78 </v>
  <v type="int" >       80 </v>
  <v type="int" >       76 </v>
  <v type="int" >       75 </v>
  <v type="int" >       63 </v>
  <v type="int" >       58 </v>
  <v type="int" >       38 </v>
  <v type="int" >       36 </v>
  <v type="int" >       62 </v>
  <v type="int" >       82 </v>
  <v type="int" >       83 </v>
  <v type="int" >       48 </v>
  <v type="int" >       45 </v>
  <v type="int" >       44 </v>
  <v type="int" >       72 </v>
  <v type="int" >       66 </v>
  <v type="int" >       18 </v>
  <v type="int" >       24 </v>
  <v type="int" >       43 </v>
  <v type="int" >       14 </v>
  <v type="int" >       16 </v>
  <v type="int" >       57 </v>
  <v type="int" >       11 </v>
  <v type="int" >       12 </v>
  <v type="int" >       64 </v>
  <v type="int" >       46 </v>
  <v type="int" >        4 </v>
  <v type="int" >       84 </v>
 </varray>
 <kpoints>
  <generation param="Gamma">
   <v type="int" name="divisions">       3        3        3 </v>
   <v name="usershift">      0.00000000       0.00000000       0.00000000 </v>
   <v name="genvec1">      0.33333333       0.00000000       0.00000000 </v>
   <v name="genvec2">      0.00000000       0.33333333       0.00000000 </v>
   <v name="genvec3">      0.00000000       0.00000000       0.33333333 </v>
   <v name="shift">      0.00000000       0.00000000       0.00000000 </v>
  </generation>
  <varray name="kpointlist" >
   <v>       0.00000000       0.00000000       0.00000000 </v>
   <v>       0.33333333       0.00000000       0.00000000 </v>
   <v>       0.00000000       0.33333333       0.00000000 </v>
   <v>       0.33333333       0.33333333       0.00000000 </v>
   <v>      -0.33333333       0.33333333      -0.00000000 </v>
   <v>       0.00000000       0.00000000       0.33333333 </v>
   <v>       0.33333333       0.00000000       0.33333333 </v>
   <v>      -0.33333333       0.00000000       0.33333333 </v>
   <v>       0.00000000       0.33333333       0.33333333 </v>
   <v>       0.33333333       0.33333333       0.33333333 </v>
   <v>      -0.33333333       0.33333333       0.33333333 </v>
   <v>       0.00000000      -0.33333333       0.33333333 </v>
   <v>       0.33333333      -0.33333333       0.33333333 </v>
   <v>      -0.33333333      -0.33333333       0.33333333 </v>
  </varray>
  <varray name="weights" >
   <v>       0.03703704 </v>
   <v>       0.07407407 </v>
   <v>       0.07407407 </v>
   <v>       0.07407407 </v>
   <v>       0.07407407 </v>
   <v>       0.07407407 </v>
   <v>       0.07407407 </v>
   <v>       0.07407407 </v>
   <v>       0.07407407 </v>
   <v>       0.07407407 </v>
   <v>       0.07407407 </v>
   <v>       0.07407407 </v>
   <v>       0.07407407 </v>
   <v>       0.07407407 </v>
  </varray>
 </kpoints>
 <parameters>
  <separator name="general" >
   <i type="string" name="SYSTEM">unknown system</i>
   <i type="logical" name="LCOMPAT"> F  </i>
  </separator>
  <separator name="electronic" >
   <i type="string" name="PREC">accura</i>
   <i name="ENMAX">    650.00000000</i>
   <i name="ENAUG">    628.94500000</i>
   <i name="EDIFF">      0.00000100</i>
   <i type="int" name="IALGO">    38</i>
   <i type="int" name="IWAVPR">    10</i>
   <i type="int" name="NBANDS">   538</i>
   <i name="NELECT">    736.00000000</i>
   <i type="int" name="TURBO">     0</i>
   <i type="int" name="IRESTART">     0</i>
   <i type="int" name="NREBOOT">     0</i>
   <i type="int" name="NMIN">     0</i>
   <i name="EREF">      0.00000000</i>
   <separator name="electronic smearing" >
    <i type="int" name="ISMEAR">     0</i>
    <i name="SIGMA">      0.05000000</i>
    <i name="KSPACING">      0.50000000</i>
    <i type="logical" name="KGAMMA"> T  </i>
   </separator>
   <separator name="electronic projectors" >
    <i type="logical" name="LREAL"> F  </i>
    <v name="ROPT">      0.00000000      0.00000000      0.00000000      0.00000000</v>
    <i type="int" name="LMAXPAW">  -100</i>
    <i type="int" name="LMAXMIX">     4</i>
    <i type="logical" name="NLSPLINE"> F  </i>
   </separator>
   <separator name="electronic startup" >
    <i type="int" name="ISTART">     0</i>
    <i type="int" name="ICHARG">     1</i>
    <i type="int" name="INIWAV">     1</i>
   </separator>
   <separator name="electronic spin" >
    <i type="int" name="ISPIN">     2</i>
    <i type="logical" name="LNONCOLLINEAR"> F  </i>
    <v name="MAGMOM">      0.60000000      0.60000000      0.60000000      0.60000000      0.60000000      0.60000000      0.60000000      0.60000000      0.60000000      0.60000000      0.60000000      0.60000000      0.60000000      0.60000000      0.60000000      0.60000000      0.60000000      0.60000000      0.60000000      0.60000000
      0.60000000      0.60000000      0.60000000      0.60000000      0.60000000      0.60000000      0.60000000      0.60000000      0.60000000      0.60000000      0.60000000      0.60000000      0.60000000      0.60000000      0.60000000      0.60000000      0.60000000      0.60000000      0.60000000      0.60000000
      0.60000000      0.60000000      0.60000000      0.60000000      0.60000000      0.60000000      0.60000000      0.60000000      0.60000000      0.60000000      0.60000000      0.60000000      0.60000000      0.60000000      0.60000000      0.60000000      5.00000000      5.00000000      5.00000000      5.00000000
      5.00000000      5.00000000      5.00000000      5.00000000      5.00000000      5.00000000      5.00000000      5.00000000      5.00000000      5.00000000      5.00000000      5.00000000      5.00000000      5.00000000      5.00000000      5.00000000      5.00000000      5.00000000      5.00000000      5.00000000
      5.00000000      5.00000000      5.00000000      5.00000000      5.00000000      5.00000000      5.00000000      5.00000000</v>
    <i name="NUPDOWN">     -1.00000000</i>
    <i type="logical" name="LSORBIT"> F  </i>
    <v name="SAXIS">      0.00000000      0.00000000      1.00000000</v>
    <i type="logical" name="LSPIRAL"> F  </i>
    <v name="QSPIRAL">      0.00000000      0.00000000      0.00000000</v>
    <i type="logical" name="LZEROZ"> F  </i>
   </separator>
   <separator name="electronic exchange-correlation" >
    <i type="logical" name="LASPH"> T  </i>
    <i type="logical" name="LMETAGGA"> F  </i>
   </separator>
   <separator name="electronic convergence" >
    <i type="int" name="NELM">   200</i>
    <i type="int" name="NELMDL">     0</i>
    <i type="int" name="NELMIN">     8</i>
    <i name="ENINI">    650.00000000</i>
    <separator name="electronic convergence detail" >
     <i type="logical" name="LDIAG"> T  </i>
     <i type="logical" name="LSUBROT"> F  </i>
     <i name="WEIMIN">      0.00000000</i>
     <i name="EBREAK">      0.00000000</i>
     <i name="DEPER">      0.30000000</i>
     <i type="int" name="NRMM">     4</i>
     <i name="TIME">      0.40000000</i>
    </separator>
   </separator>
   <separator name="electronic mixer" >
    <i name="AMIX">      0.40000000</i>
    <i name="BMIX">      1.00000000</i>
    <i name="AMIN">      0.10000000</i>
    <i name="AMIX_MAG">      1.60000000</i>
    <i name="BMIX_MAG">      1.00000000</i>
    <separator name="electronic mixer details" >
     <i type="int" name="IMIX">     4</i>
     <i type="logical" name="MIXFIRST"> F  </i>
     <i type="int" name="MAXMIX">   -45</i>
     <i name="WC">    100.00000000</i>
     <i type="int" name="INIMIX">     1</i>
     <i type="int" name="MIXPRE">     1</i>
     <i type="int" name="MREMOVE">     5</i>
    </separator>
   </separator>
   <separator name="electronic dipolcorrection" >
    <i type="logical" name="LDIPOL"> F  </i>
    <i type="logical" name="LMONO"> F  </i>
    <i type="int" name="IDIPOL">     0</i>
    <i name="EPSILON">      1.00000000</i>
    <v name="DIPOL">   -100.00000000   -100.00000000   -100.00000000</v>
    <i name="EFIELD">      0.00000000</i>
   </separator>
  </separator>
  <separator name="grids" >
   <i type="int" name="NGX">    96</i>
   <i type="int" name="NGY">    96</i>
   <i type="int" name="NGZ">    90</i>
   <i type="int" name="NGXF">   192</i>
   <i type="int" name="NGYF">   192</i>
   <i type="int" name="NGZF">   180</i>
   <i type="logical" name="ADDGRID"> T  </i>
  </separator>
  <separator name="ionic" >
   <i type="int" name="NSW">     0</i>
   <i type="int" name="IBRION">    -1</i>
   <i type="int" name="MDALGO">     0</i>
   <i type="int" name="ISIF">     2</i>
   <i name="PSTRESS">      0.00000000</i>
   <i name="EDIFFG">      0.00001000</i>
   <i type="int" name="NFREE">     0</i>
   <i name="POTIM">      0.50000000</i>
   <i name="SMASS">     -3.00000000</i>
   <i name="SCALEE">      1.00000000</i>
  </separator>
  <separator name="ionic md" >
   <i name="TEBEG">      0.00010000</i>
   <i name="TEEND">      0.00010000</i>
   <i type="int" name="NBLOCK">     1</i>
   <i type="int" name="KBLOCK">     1</i>
   <i type="int" name="NPACO">   256</i>
   <i name="APACO">     16.00000000</i>
  </separator>
  <separator name="symmetry" >
   <i type="int" name="ISYM">     0</i>
   <i name="SYMPREC">      0.00001000</i>
  </separator>
  <separator name="dos" >
   <i type="int" name="LORBIT">     0</i>
   <v name="RWIGS">     -1.00000000     -1.00000000     -1.00000000     -1.00000000</v>
   <i type="int" name="NEDOS">   301</i>
   <i name="EMIN">     10.00000000</i>
   <i name="EMAX">    -10.00000000</i>
   <i name="EFERMI">      0.00000000</i>
  </separator>
  <separator name="writing" >
   <i type="int" name="NWRITE">     1</i>
   <i type="logical" name="LWAVE"> F  </i>
   <i type="logical" name="LDOWNSAMPLE"> F  </i>
   <i type="logical" name="LCHARG"> T  </i>
   <i type="logical" name="LPARD"> F  </i>
   <i type="logical" name="LVTOT"> F  </i>
   <i type="logical" name="LVHAR"> F  </i>
   <i type="logical" name="LELF"> F  </i>
   <i type="logical" name="LOPTICS"> F  </i>
   <v name="STM">      0.00000000      0.00000000      0.00000000      0.00000000      0.00000000      0.00000000      0.00000000</v>
  </separator>
  <separator name="performance" >
   <i type="int" name="NPAR">     2</i>
   <i type="int" name="NSIM">     4</i>
   <i type="int" name="NBLK">    -1</i>
   <i type="logical" name="LPLANE"> T  </i>
   <i type="logical" name="LSCALAPACK"> T  </i>
   <i type="logical" name="LSCAAWARE"> F  </i>
   <i type="logical" name="LSCALU"> F  </i>
   <i type="logical" name="LASYNC"> F  </i>
   <i type="logical" name="LORBITALREAL"> F  </i>
  </separator>
  <separator name="miscellaneous" >
   <i type="int" name="IDIOT">     3</i>
   <i type="int" name="ISPECIAL">     0</i>
   <i type="logical" name="LMUSIC"> F  </i>
   <v name="POMASS">      7.01000000     16.00000000     32.06600000     55.84700000</v>
   <v name="DARWINR">      0.00000000      0.00000000      0.00000000      0.00000000</v>
   <v name="DARWINV">      1.00000000      1.00000000      1.00000000      1.00000000</v>
   <i type="logical" name="LCORR"> T  </i>
  </separator>
  <i type="logical" name="GGA_COMPAT"> T  </i>
  <i type="logical" name="LBERRY"> F  </i>
  <i type="int" name="ICORELEVEL">     0</i>
  <i type="logical" name="LDAU"> T  </i>
  <v type="int" name="LDAUTYPE">     2</v>
  <v type="int" name="LDAUL">    -1</v>
  <v name="LDAUU">      0.00000000</v>
  <v name="LDAUJ">      0.00000000</v>
  <i type="int" name="LDAUPRINT">     0</i>
  <i type="int" name="I_CONSTRAINED_M">     0</i>
  <separator name="electronic exchange-correlation" >
   <i type="string" name="GGA">PE</i>
   <i type="int" name="VOSKOWN">     0</i>
   <i type="logical" name="LHFCALC"> F  </i>
   <i type="string" name="PRECFOCK"></i>
   <i type="logical" name="LSYMGRAD"> F  </i>
   <i type="logical" name="LHFONE"> F  </i>
   <i type="logical" name="LRHFCALC"> F  </i>
   <i type="logical" name="LTHOMAS"> F  </i>
   <i type="logical" name="LMODELHF"> F  </i>
   <i name="ENCUT4O">     -1.00000000</i>
   <i type="int" name="EXXOEP">     0</i>
   <i type="int" name="FOURORBIT">     0</i>
   <i name="AEXX">      0.00000000</i>
   <i name="HFALPHA">      0.00000000</i>
   <i name="MCALPHA">      0.00000000</i>
   <i name="ALDAX">      1.00000000</i>
   <i name="AGGAX">      1.00000000</i>
   <i name="ALDAC">      1.00000000</i>
   <i name="AGGAC">      1.00000000</i>
   <i type="int" name="NKREDX">     1</i>
   <i type="int" name="NKREDY">     1</i>
   <i type="int" name="NKREDZ">     1</i>
   <i type="logical" name="SHIFTRED"> F  </i>
   <i type="logical" name="ODDONLY"> F  </i>
   <i type="logical" name="EVENONLY"> F  </i>
   <i type="int" name="LMAXFOCK">     0</i>
   <i type="int" name="NMAXFOCKAE">     0</i>
   <i type="logical" name="LFOCKAEDFT"> F  </i>
   <i name="HFSCREEN">      0.00000000</i>
   <i name="HFSCREENC">      0.00000000</i>
   <i type="int" name="NBANDSGWLOW">     0</i>
  </separator>
  <separator name="vdW DFT" >
   <i type="logical" name="LUSE_VDW"> F  </i>
   <i name="Zab_VDW">     -0.84910000</i>
   <i name="PARAM1">      0.12340000</i>
   <i name="PARAM2">      1.00000000</i>
   <i name="PARAM3">      0.00000000</i>
  </separator>
  <separator name="model GW" >
   <i type="int" name="MODEL_GW">     0</i>
   <i name="MODEL_EPS0">      8.59048892</i>
   <i name="MODEL_ALPHA">      1.00000000</i>
  </separator>
  <separator name="linear response parameters" >
   <i type="logical" name="LEPSILON"> F  </i>
   <i type="logical" name="LRPA"> F  </i>
   <i type="logical" name="LNABLA"> F  </i>
   <i type="logical" name="LVEL"> F  </i>
   <i type="int" name="KINTER">     0</i>
   <i name="CSHIFT">      0.10000000</i>
   <i name="OMEGAMAX">     -1.00000000</i>
   <i name="DEG_THRESHOLD">      0.00200000</i>
   <i name="RTIME">     -0.10000000</i>
   <i name="WPLASMAI">      0.00000000</i>
   <v name="DFIELD">      0.00000000      0.00000000      0.00000000</v>
   <v name="WPLASMA">      0.00000000      0.00000000      0.00000000      0.00000000      0.00000000      0.00000000      0.00000000      0.00000000      0.00000000</v>
  </separator>
  <separator name="orbital magnetization" >
   <i type="logical" name="NUCIND"> F  </i>
   <v name="MAGPOS">      0.00000000      0.00000000      0.00000000</v>
   <i type="logical" name="LNICSALL"> T  </i>
   <i type="logical" name="ORBITALMAG"> F  </i>
   <i type="logical" name="LMAGBLOCH"> F  </i>
   <i type="logical" name="LCHIMAG"> F  </i>
   <i type="logical" name="LGAUGE"> T  </i>
   <i type="int" name="MAGATOM">     0</i>
   <v name="MAGDIPOL">      0.00000000      0.00000000      0.00000000</v>
   <v name="AVECCONST">      0.00000000      0.00000000      0.00000000</v>
  </separator>
  <separator name="response functions" >
   <i type="logical" name="LADDER"> F  </i>
   <i type="logical" name="LRPAFORCE"> F  </i>
   <i type="logical" name="LFXC"> F  </i>
   <i type="logical" name="LHARTREE"> T  </i>
   <i type="int" name="IBSE">     0</i>
   <v type="int" name="KPOINT">    -1     0     0     0</v>
   <i type="logical" name="LTCTE"> F  </i>
   <i type="logical" name="LTETE"> F  </i>
   <i type="logical" name="LTRIPLET"> F  </i>
   <i type="logical" name="LFXCEPS"> F  </i>
   <i type="logical" name="LFXHEG"> F  </i>
   <i type="int" name="NATURALO">     2</i>
   <i type="logical" name="L2ORDER"> F  </i>
   <i type="logical" name="LMP2LT"> F  </i>
   <i type="logical" name="LUSEW"> F  </i>
   <i name="ENCUTGW">     -2.00000000</i>
   <i name="ENCUTGWSOFT">     -2.00000000</i>
   <i name="ENCUTLF">     -1.00000000</i>
   <i type="int" name="LMAXMP2">    -1</i>
   <i name="SCISSOR">      0.00000000</i>
   <i type="int" name="NOMEGA">     0</i>
   <i type="int" name="NOMEGAR">     0</i>
   <i type="int" name="NBANDSGW">    -1</i>
   <i type="int" name="NBANDSO">    -1</i>
   <i type="int" name="NBANDSV">    -1</i>
   <i type="int" name="NELM">   200</i>
   <i type="int" name="NELMHF">     1</i>
   <i type="int" name="DIM">     3</i>
   <i type="int" name="ANTIRES">     0</i>
   <i name="OMEGAMAX">    -30.00000000</i>
   <i name="OMEGAMIN">    -30.00000000</i>
   <i name="OMEGATL">   -200.00000000</i>
   <i type="int" name="OMEGAGRID">   140</i>
   <i name="CSHIFT">     -0.10000000</i>
   <i type="logical" name="SELFENERGY"> F  </i>
   <i type="logical" name="LSPECTRAL"> F  </i>
   <i type="logical" name="LSPECTRALGW"> F  </i>
   <i type="logical" name="LSINGLES"> F  </i>
   <i type="logical" name="LFERMIGW"> F  </i>
   <i type="logical" name="ODDONLYGW"> F  </i>
   <i type="logical" name="EVENONLYGW"> F  </i>
   <i type="int" name="NKREDLFX">     1</i>
   <i type="int" name="NKREDLFY">     1</i>
   <i type="int" name="NKREDLFZ">     1</i>
   <i type="int" name="MAXMEM">  2800</i>
   <i type="int" name="TELESCOPE">     0</i>
   <i type="int" name="TAUPAR">     1</i>
   <i type="int" name="OMEGAPAR">    -1</i>
   <i name="LAMBDA">      1.00000000</i>
  </separator>
  <separator name="External order field" >
   <i name="OFIELD_KAPPA">      0.00000000</i>
   <v name="OFIELD_K">      0.00000000      0.00000000      0.00000000</v>
   <i name="OFIELD_Q6_NEAR">      0.00000000</i>
   <i name="OFIELD_Q6_FAR">      0.00000000</i>
   <i name="OFIELD_A">      0.00000000</i>
  </separator>
 </parameters>
 <atominfo>
  <atoms>      88 </atoms>
  <types>       4 </types>
  <array name="atoms" >
   <dimension dim="1">ion</dimension>
   <field type="string">element</field>
   <field type="int">atomtype</field>
   <set>
    <rc><c>Li</c><c>   1</c></rc>
    <rc><c>Li</c><c>   1</c></rc>
    <rc><c>Li</c><c>   1</c></rc>
    <rc><c>Li</c><c>   1</c></rc>
    <rc><c>Li</c><c>   1</c></rc>
    <rc><c>Li</c><c>   1</c></rc>
    <rc><c>Li</c><c>   1</c></rc>
    <rc><c>Li</c><c>   1</c></rc>
    <rc><c>Li</c><c>   1</c></rc>
    <rc><c>Li</c><c>   1</c></rc>
    <rc><c>Li</c><c>   1</c></rc>
    <rc><c>Li</c><c>   1</c></rc>
    <rc><c>Li</c><c>   1</c></rc>
    <rc><c>Li</c><c>   1</c></rc>
    <rc><c>Li</c><c>   1</c></rc>
    <rc><c>Li</c><c>   1</c></rc>
    <rc><c>O </c><c>   2</c></rc>
    <rc><c>O </c><c>   2</c></rc>
    <rc><c>O </c><c>   2</c></rc>
    <rc><c>O </c><c>   2</c></rc>
    <rc><c>O </c><c>   2</c></rc>
    <rc><c>O </c><c>   2</c></rc>
    <rc><c>O </c><c>   2</c></rc>
    <rc><c>O </c><c>   2</c></rc>
    <rc><c>O </c><c>   2</c></rc>
    <rc><c>O </c><c>   2</c></rc>
    <rc><c>O </c><c>   2</c></rc>
    <rc><c>O </c><c>   2</c></rc>
    <rc><c>O </c><c>   2</c></rc>
    <rc><c>O </c><c>   2</c></rc>
    <rc><c>O </c><c>   2</c></rc>
    <rc><c>O </c><c>   2</c></rc>
    <rc><c>S </c><c>   3</c></rc>
    <rc><c>S </c><c>   3</c></rc>
    <rc><c>S </c><c>   3</c></rc>
    <rc><c>S </c><c>   3</c></rc>
    <rc><c>S </c><c>   3</c></rc>
    <rc><c>S </c><c>   3</c></rc>
    <rc><c>S </c><c>   3</c></rc>
    <rc><c>S </c><c>   3</c></rc>
    <rc><c>S </c><c>   3</c></rc>
    <rc><c>S </c><c>   3</c></rc>
    <rc><c>S </c><c>   3</c></rc>
    <rc><c>S </c><c>   3</c></rc>
    <rc><c>S </c><c>   3</c></rc>
    <rc><c>S </c><c>   3</c></rc>
    <rc><c>S </c><c>   3</c></rc>
    <rc><c>S </c><c>   3</c></rc>
    <rc><c>S </c><c>   3</c></rc>
    <rc><c>S </c><c>   3</c></rc>
    <rc><c>S </c><c>   3</c></rc>
    <rc><c>S </c><c>   3</c></rc>
    <rc><c>S </c><c>   3</c></rc>
    <rc><c>S </c><c>   3</c></rc>
    <rc><c>S </c><c>   3</c></rc>
    <rc><c>S </c><c>   3</c></rc>
    <rc><c>Fe</c><c>   4</c></rc>
    <rc><c>Fe</c><c>   4</c></rc>
    <rc><c>Fe</c><c>   4</c></rc>
    <rc><c>Fe</c><c>   4</c></rc>
    <rc><c>Fe</c><c>   4</c></rc>
    <rc><c>Fe</c><c>   4</c></rc>
    <rc><c>Fe</c><c>   4</c></rc>
    <rc><c>Fe</c><c>   4</c></rc>
    <rc><c>Fe</c><c>   4</c></rc>
    <rc><c>Fe</c><c>   4</c></rc>
    <rc><c>Fe</c><c>   4</c></rc>
    <rc><c>Fe</c><c>   4</c></rc>
    <rc><c>Fe</c><c>   4</c></rc>
    <rc><c>Fe</c><c>   4</c></rc>
    <rc><c>Fe</c><c>   4</c></rc>
    <rc><c>Fe</c><c>   4</c></rc>
    <rc><c>Fe</c><c>   4</c></rc>
    <rc><c>Fe</c><c>   4</c></rc>
    <rc><c>Fe</c><c>   4</c></rc>
    <rc><c>Fe</c><c>   4</c></rc>
    <rc><c>Fe</c><c>   4</c></rc>
    <rc><c>Fe</c><c>   4</c></rc>
    <rc><c>Fe</c><c>   4</c></rc>
    <rc><c>Fe</c><c>   4</c></rc>
    <rc><c>Fe</c><c>   4</c></rc>
    <rc><c>Fe</c><c>   4</c></rc>
    <rc><c>Fe</c><c>   4</c></rc>
    <rc><c>Fe</c><c>   4</c></rc>
    <rc><c>Fe</c><c>   4</c></rc>
    <rc><c>Fe</c><c>   4</c></rc>
    <rc><c>Fe</c><c>   4</c></rc>
    <rc><c>Fe</c><c>   4</c></rc>
   </set>
  </array>
  <array name="atomtypes" >
   <dimension dim="1">type</dimension>
   <field type="int">atomspertype</field>
   <field type="string">element</field>
   <field>mass</field>
   <field>valence</field>
   <field type="string">pseudopotential</field>
   <set>
    <rc><c>  16</c><c>Li</c><c>      7.01000000</c><c>      3.00000000</c><c>  PAW_PBE Li_sv 10Sep2004               </c></rc>
    <rc><c>  16</c><c>O </c><c>     16.00000000</c><c>      6.00000000</c><c>  PAW_PBE O 08Apr2002                   </c></rc>
    <rc><c>  24</c><c>S </c><c>     32.06600000</c><c>      6.00000000</c><c>  PAW_PBE S 06Sep2000                   </c></rc>
    <rc><c>  32</c><c>Fe</c><c>     55.84700000</c><c>     14.00000000</c><c>  PAW_PBE Fe_pv 02Aug2007               </c></rc>
   </set>
  </array>
 </atominfo>
 <structure name="initialpos" >
  <crystal>
   <varray name="basis" >
    <v>      11.11223374       0.00000000      -0.00029034 </v>
    <v>       0.00000000      11.11745194       0.00000000 </v>
    <v>      -2.77510898       0.00000000      10.19872221 </v>
   </varray>
   <i name="volume">   1259.93837498 </i>
   <varray name="rec_basis" >
    <v>       0.08999155       0.00000000       0.02448702 </v>
    <v>       0.00000000       0.08994867       0.00000000 </v>
    <v>       0.00000256       0.00000000       0.09805220 </v>
   </varray>
  </crystal>
  <varray name="positions" >
   <v>       0.28894969       0.46933910       0.15583616 </v>
   <v>       0.78894969       0.46933910       0.15583616 </v>
   <v>       0.28894969       0.96933910       0.15583616 </v>
   <v>       0.78894969       0.96933910       0.15583616 </v>
   <v>       0.04646972       0.21934976       0.18586770 </v>
   <v>       0.54646972       0.21934976       0.18586770 </v>
   <v>       0.04646972       0.71934976       0.18586770 </v>
   <v>       0.54646972       0.71934976       0.18586770 </v>
   <v>       0.45353028       0.46934976       0.81413230 </v>
   <v>       0.95353028       0.46934976       0.81413230 </v>
   <v>       0.45353028       0.96934976       0.81413230 </v>
   <v>       0.95353028       0.96934976       0.81413230 </v>
   <v>       0.21105031       0.21933910       0.84416384 </v>
   <v>       0.71105031       0.21933910       0.84416384 </v>
   <v>       0.21105031       0.71933910       0.84416384 </v>
   <v>       0.71105031       0.71933910       0.84416384 </v>
   <v>       0.07654971       0.09530995       0.80250593 </v>
   <v>       0.57654971       0.09530995       0.80250593 </v>
   <v>       0.07654971       0.59530995       0.80250593 </v>
   <v>       0.57654971       0.59530995       0.80250593 </v>
   <v>       0.32470466       0.34338175       0.80250383 </v>
   <v>       0.82470466       0.34338175       0.80250383 </v>
   <v>       0.32470466       0.84338175       0.80250383 </v>
   <v>       0.82470466       0.84338175       0.80250383 </v>
   <v>       0.17529534       0.09338175       0.19749617 </v>
   <v>       0.67529534       0.09338175       0.19749617 </v>
   <v>       0.17529534       0.59338175       0.19749617 </v>
   <v>       0.67529534       0.59338175       0.19749617 </v>
   <v>       0.42345029       0.34530995       0.19749407 </v>
   <v>       0.92345029       0.34530995       0.19749407 </v>
   <v>       0.42345029       0.84530995       0.19749407 </v>
   <v>       0.92345029       0.84530995       0.19749407 </v>
   <v>       0.21868463       0.34523395       0.37102476 </v>
   <v>       0.71868463       0.34523395       0.37102476 </v>
   <v>       0.21868463       0.84523395       0.37102476 </v>
   <v>       0.71868463       0.84523395       0.37102476 </v>
   <v>       0.46681660       0.09344897       0.37102399 </v>
   <v>       0.96681660       0.09344897       0.37102399 </v>
   <v>       0.46681660       0.59344897       0.37102399 </v>
   <v>       0.96681660       0.59344897       0.37102399 </v>
   <v>       0.03318340       0.34344897       0.62897601 </v>
   <v>       0.53318340       0.34344897       0.62897601 </v>
   <v>       0.03318340       0.84344897       0.62897601 </v>
   <v>       0.53318340       0.84344897       0.62897601 </v>
   <v>       0.28131537       0.09523395       0.62897524 </v>
   <v>       0.78131537       0.09523395       0.62897524 </v>
   <v>       0.28131537       0.59523395       0.62897524 </v>
   <v>       0.78131537       0.59523395       0.62897524 </v>
   <v>       0.12439279       0.34434306       0.00000412 </v>
   <v>       0.62439279       0.34434306       0.00000412 </v>
   <v>       0.12439279       0.84434306       0.00000412 </v>
   <v>       0.62439279       0.84434306       0.00000412 </v>
   <v>       0.37560721       0.09434306       0.99999588 </v>
   <v>       0.87560721       0.09434306       0.99999588 </v>
   <v>       0.37560721       0.59434306       0.99999588 </v>
   <v>       0.87560721       0.59434306       0.99999588 </v>
   <v>       0.03824426       0.10724748       0.60632306 </v>
   <v>       0.53824426       0.10634799       0.60632306 </v>
   <v>       0.03824426       0.60634799       0.60632306 </v>
   <v>       0.53824426       0.60634799       0.60632306 </v>
   <v>       0.26492712       0.33232651       0.60632763 </v>
   <v>       0.76492712       0.33232651       0.60632763 </v>
   <v>       0.26492712       0.83232651       0.60632763 </v>
   <v>       0.76492712       0.83232651       0.60632763 </v>
   <v>       0.23507288       0.08232651       0.39367237 </v>
   <v>       0.73507288       0.08232651       0.39367237 </v>
   <v>       0.23507288       0.58232651       0.39367237 </v>
   <v>       0.73507288       0.58232651       0.39367237 </v>
   <v>       0.46175574       0.35634799       0.39367694 </v>
   <v>       0.96175574       0.35634799       0.39367694 </v>
   <v>       0.46175574       0.85634799       0.39367694 </v>
   <v>       0.96175574       0.85634799       0.39367694 </v>
   <v>       0.03848398       0.46936404       0.15397331 </v>
   <v>       0.53848398       0.46936404       0.15397331 </v>
   <v>       0.03848398       0.96936404       0.15397331 </v>
   <v>       0.53848398       0.96936404       0.15397331 </v>
   <v>       0.28861657       0.21935690       0.15447525 </v>
   <v>       0.78861657       0.21935690       0.15447525 </v>
   <v>       0.28861657       0.71935690       0.15447525 </v>
   <v>       0.78861657       0.71935690       0.15447525 </v>
   <v>       0.21138343       0.46935690       0.84552475 </v>
   <v>       0.71138343       0.46935690       0.84552475 </v>
   <v>       0.21138343       0.96935690       0.84552475 </v>
   <v>       0.71138343       0.96935690       0.84552475 </v>
   <v>       0.46151602       0.21936404       0.84602669 </v>
   <v>       0.96151602       0.21936404       0.84602669 </v>
   <v>       0.46151602       0.71936404       0.84602669 </v>
   <v>       0.96151602       0.71936404       0.84602669 </v>
  </varray>
 </structure>
 <calculation>
  <scstep>
   <time name="dav">  318.81  323.01</time>
   <time name="total">  322.16  326.39</time>
   <energy>
    <i name="alphaZ">   2314.49656628 </i>
    <i name="ewald"> -57722.84955385 </i>
    <i name="hartreedc"> -30349.07993312 </i>
    <i name="XCdc">   3229.30214515 </i>
    <i name="pawpsdc">  92679.89207989 </i>
    <i name="pawaedc"> -95535.38516353 </i>
    <i name="eentropy">     -0.01730848 </i>
    <i name="bandstr">    349.84381863 </i>
    <i name="atom">  95443.47970955 </i>
    <i name="e_fr_energy">  10409.68236051 </i>
    <i name="e_wo_entrp">  10409.69966899 </i>
    <i name="e_0_energy">  10409.69101475 </i>
   </energy>
  </scstep>
  <scstep>
   <time name="dav">  312.22  315.82</time>
   <time name="total">  312.23  315.83</time>
   <energy>
    <i name="e_fr_energy">   1177.49087212 </i>
    <i name="e_wo_entrp">   1177.55672426 </i>
    <i name="e_0_energy">   1177.52379819 </i>
   </energy>
  </scstep>
  <scstep>
   <time name="dav">  331.16  334.75</time>
   <time name="total">  331.16  334.75</time>
   <energy>
    <i name="e_fr_energy">   -308.21306070 </i>
    <i name="e_wo_entrp">   -308.21306070 </i>
    <i name="e_0_energy">   -308.21306070 </i>
   </energy>
  </scstep>
  <scstep>
   <time name="dav">  352.20  356.08</time>
   <time name="total">  352.20  356.08</time>
   <energy>
    <i name="e_fr_energy">   -476.30317929 </i>
    <i name="e_wo_entrp">   -476.30317929 </i>
    <i name="e_0_energy">   -476.30317929 </i>
   </energy>
  </scstep>
  <scstep>
   <time name="dav">  467.82  472.71</time>
   <time name="total">  477.11  482.10</time>
   <energy>
    <i name="e_fr_energy">   -488.73017011 </i>
    <i name="e_wo_entrp">   -488.73017011 </i>
    <i name="e_0_energy">   -488.73017011 </i>
   </energy>
  </scstep>
  <scstep>
   <time name="dav">  410.48  415.01</time>
   <time name="total">  423.06  427.79</time>
   <energy>
    <i name="e_fr_energy">   -489.19992360 </i>
    <i name="e_wo_entrp">   -489.19992360 </i>
    <i name="e_0_energy">   -489.19992360 </i>
   </energy>
  </scstep>
  <scstep>
   <time name="dav">  434.65  439.37</time>
   <time name="total">  447.38  452.20</time>
   <energy>
    <i name="e_fr_energy">   -489.21732339 </i>
    <i name="e_wo_entrp">   -489.21732339 </i>
    <i name="e_0_energy">   -489.21732339 </i>
   </energy>
  </scstep>
  <scstep>
   <time name="dav">  413.31  418.12</time>
   <time name="total">  425.82  430.92</time>
   <energy>
    <i name="e_fr_energy">   -489.21688786 </i>
    <i name="e_wo_entrp">   -489.21688786 </i>
    <i name="e_0_energy">   -489.21688786 </i>
   </energy>
  </scstep>
  <scstep>
   <time name="dav">  451.31  456.32</time>
   <time name="total">  464.00  469.21</time>
   <energy>
    <i name="e_fr_energy">   -489.21617313 </i>
    <i name="e_wo_entrp">   -489.21617313 </i>
    <i name="e_0_energy">   -489.21617313 </i>
   </energy>
  </scstep>
  <scstep>
   <time name="dav">  461.44  466.38</time>
   <time name="total">  474.22  479.30</time>
   <energy>
    <i name="e_fr_energy">   -489.21526691 </i>
    <i name="e_wo_entrp">   -489.21526691 </i>
    <i name="e_0_energy">   -489.21526691 </i>
   </energy>
  </scstep>
  <scstep>
   <time name="dav">  379.98  384.44</time>
   <time name="total">  392.68  397.29</time>
   <energy>
    <i name="e_fr_energy">   -489.21535467 </i>
    <i name="e_wo_entrp">   -489.21535467 </i>
    <i name="e_0_energy">   -489.21535467 </i>
   </energy>
  </scstep>
  <scstep>
   <time name="dav">  397.43  401.77</time>
   <time name="total">  410.27  414.63</time>
   <energy>
    <i name="e_fr_energy">   -489.21533746 </i>
    <i name="e_wo_entrp">   -489.21533746 </i>
    <i name="e_0_energy">   -489.21533746 </i>
   </energy>
  </scstep>
  <scstep>
   <time name="dav">  369.81  374.42</time>
   <time name="total">  382.39  387.18</time>
   <energy>
    <i name="e_fr_energy">   -489.21532130 </i>
    <i name="e_wo_entrp">   -489.21532130 </i>
    <i name="e_0_energy">   -489.21532130 </i>
   </energy>
  </scstep>
  <scstep>
   <time name="dav">  331.60  335.38</time>
   <time name="total">  344.14  348.08</time>
   <energy>
    <i name="e_fr_energy">   -489.21532683 </i>
    <i name="e_wo_entrp">   -489.21532683 </i>
    <i name="e_0_energy">   -489.21532683 </i>
   </energy>
  </scstep>
  <scstep>
   <time name="dav">  311.63  314.90</time>
   <time name="total">  324.27  327.69</time>
   <energy>
    <i name="e_fr_energy">   -489.21532533 </i>
    <i name="e_wo_entrp">   -489.21532533 </i>
    <i name="e_0_energy">   -489.21532533 </i>
   </energy>
  </scstep>
  <scstep>
   <time name="dav">  220.19  222.76</time>
   <time name="total">  223.50  226.16</time>
   <energy>
    <i name="alphaZ">   2314.49656628 </i>
    <i name="ewald"> -57722.84955385 </i>
    <i name="hartreedc"> -30349.06755359 </i>
    <i name="XCdc">   3229.30031442 </i>
    <i name="pawpsdc">  92680.02517036 </i>
    <i name="pawaedc"> -95535.51360347 </i>
    <i name="eentropy">     -0.00000000 </i>
    <i name="bandstr"> -10549.08637570 </i>
    <i name="atom">  95443.47970955 </i>
    <i name="e_fr_energy">   -489.21532601 </i>
    <i name="e_wo_entrp">   -489.21532601 </i>
    <i name="e_0_energy">   -489.21532601 </i>
   </energy>
  </scstep>
  <structure>
   <crystal>
    <varray name="basis" >
     <v>      11.11223374       0.00000000      -0.00029034 </v>
     <v>       0.00000000      11.11745194       0.00000000 </v>
     <v>      -2.77510898       0.00000000      10.19872221 </v>
    </varray>
    <i name="volume">   1259.93837498 </i>
    <varray name="rec_basis" >
     <v>       0.08999155       0.00000000       0.02448702 </v>
     <v>       0.00000000       0.08994867       0.00000000 </v>
     <v>       0.00000256       0.00000000       0.09805220 </v>
    </varray>
   </crystal>
   <varray name="positions" >
    <v>       0.28894969       0.46933910       0.15583616 </v>
    <v>       0.78894969       0.46933910       0.15583616 </v>
    <v>       0.28894969       0.96933910       0.15583616 </v>
    <v>       0.78894969       0.96933910       0.15583616 </v>
    <v>       0.04646972       0.21934976       0.18586770 </v>
    <v>       0.54646972       0.21934976       0.18586770 </v>
    <v>       0.04646972       0.71934976       0.18586770 </v>
    <v>       0.54646972       0.71934976       0.18586770 </v>
    <v>       0.45353028       0.46934976       0.81413230 </v>
    <v>       0.95353028       0.46934976       0.81413230 </v>
    <v>       0.45353028       0.96934976       0.81413230 </v>
    <v>       0.95353028       0.96934976       0.81413230 </v>
    <v>       0.21105031       0.21933910       0.84416384 </v>
    <v>       0.71105031       0.21933910       0.84416384 </v>
    <v>       0.21105031       0.71933910       0.84416384 </v>
    <v>       0.71105031       0.71933910       0.84416384 </v>
    <v>       0.07654971       0.09530995       0.80250593 </v>
    <v>       0.57654971       0.09530995       0.80250593 </v>
    <v>       0.07654971       0.59530995       0.80250593 </v>
    <v>       0.57654971       0.59530995       0.80250593 </v>
    <v>       0.32470466       0.34338175       0.80250383 </v>
    <v>       0.82470466       0.34338175       0.80250383 </v>
    <v>       0.32470466       0.84338175       0.80250383 </v>
    <v>       0.82470466       0.84338175       0.80250383 </v>
    <v>       0.17529534       0.09338175       0.19749617 </v>
    <v>       0.67529534       0.09338175       0.19749617 </v>
    <v>       0.17529534       0.59338175       0.19749617 </v>
    <v>       0.67529534       0.59338175       0.19749617 </v>
    <v>       0.42345029       0.34530995       0.19749407 </v>
    <v>       0.92345029       0.34530995       0.19749407 </v>
    <v>       0.42345029       0.84530995       0.19749407 </v>
    <v>       0.92345029       0.84530995       0.19749407 </v>
    <v>       0.21868463       0.34523395       0.37102476 </v>
    <v>       0.71868463       0.34523395       0.37102476 </v>
    <v>       0.21868463       0.84523395       0.37102476 </v>
    <v>       0.71868463       0.84523395       0.37102476 </v>
    <v>       0.46681660       0.09344897       0.37102399 </v>
    <v>       0.96681660       0.09344897       0.37102399 </v>
    <v>       0.46681660       0.59344897       0.37102399 </v>
    <v>       0.96681660       0.59344897       0.37102399 </v>
    <v>       0.03318340       0.34344897       0.62897601 </v>
    <v>       0.53318340       0.34344897       0.62897601 </v>
    <v>       0.03318340       0.84344897       0.62897601 </v>
    <v>       0.53318340       0.84344897       0.62897601 </v>
    <v>       0.28131537       0.09523395       0.62897524 </v>
    <v>       0.78131537       0.09523395       0.62897524 </v>
    <v>       0.28131537       0.59523395       0.62897524 </v>
    <v>       0.78131537       0.59523395       0.62897524 </v>
    <v>       0.12439279       0.34434306       0.00000412 </v>
    <v>       0.62439279       0.34434306       0.00000412 </v>
    <v>       0.12439279       0.84434306       0.00000412 </v>
    <v>       0.62439279       0.84434306       0.00000412 </v>
    <v>       0.37560721       0.09434306       0.99999588 </v>
    <v>       0.87560721       0.09434306       0.99999588 </v>
    <v>       0.37560721       0.59434306       0.99999588 </v>
    <v>       0.87560721       0.59434306       0.99999588 </v>
    <v>       0.03824426       0.10724748       0.60632306 </v>
    <v>       0.53824426       0.10634799       0.60632306 </v>
    <v>       0.03824426       0.60634799       0.60632306 </v>
    <v>       0.53824426       0.60634799       0.60632306 </v>
    <v>       0.26492712       0.33232651       0.60632763 </v>
    <v>       0.76492712       0.33232651       0.60632763 </v>
    <v>       0.26492712       0.83232651       0.60632763 </v>
    <v>       0.76492712       0.83232651       0.60632763 </v>
    <v>       0.23507288       0.08232651       0.39367237 </v>
    <v>       0.73507288       0.08232651       0.39367237 </v>
    <v>       0.23507288       0.58232651       0.39367237 </v>
    <v>       0.73507288       0.58232651       0.39367237 </v>
    <v>       0.46175574       0.35634799       0.39367694 </v>
    <v>       0.96175574       0.35634799       0.39367694 </v>
    <v>       0.46175574       0.85634799       0.39367694 </v>
    <v>       0.96175574       0.85634799       0.39367694 </v>
    <v>       0.03848398       0.46936404       0.15397331 </v>
    <v>       0.53848398       0.46936404       0.15397331 </v>
    <v>       0.03848398       0.96936404       0.15397331 </v>
    <v>       0.53848398       0.96936404       0.15397331 </v>
    <v>       0.28861657       0.21935690       0.15447525 </v>
    <v>       0.78861657       0.21935690       0.15447525 </v>
    <v>       0.28861657       0.71935690       0.15447525 </v>
    <v>       0.78861657       0.71935690       0.15447525 </v>
    <v>       0.21138343       0.46935690       0.84552475 </v>
    <v>       0.71138343       0.46935690       0.84552475 </v>
    <v>       0.21138343       0.96935690       0.84552475 </v>
    <v>       0.71138343       0.96935690       0.84552475 </v>
    <v>       0.46151602       0.21936404       0.84602669 </v>
    <v>       0.96151602       0.21936404       0.84602669 </v>
    <v>       0.46151602       0.71936404       0.84602669 </v>
    <v>       0.96151602       0.71936404       0.84602669 </v>
   </varray>
  </structure>
  <varray name="forces" >
   <v>       0.00018820       0.00027469      -0.00005636 </v>
   <v>       0.00010698       0.00014903      -0.00009486 </v>
   <v>      -0.00002161      -0.00014139      -0.00008029 </v>
   <v>      -0.00013814      -0.00005849      -0.00010269 </v>
   <v>      -0.00051832      -0.00050923       0.00028135 </v>
   <v>      -0.00009860      -0.00028186      -0.00013745 </v>
   <v>       0.00012745       0.00027542      -0.00008389 </v>
   <v>       0.00000077       0.00023695       0.00009938 </v>
   <v>       0.00021946       0.00022636      -0.00004682 </v>
   <v>      -0.00093338       0.00102125       0.00128604 </v>
   <v>      -0.00006253      -0.00014682       0.00020204 </v>
   <v>       0.00236991       0.00050259      -0.00336024 </v>
   <v>       0.00157904      -0.00050734       0.00344817 </v>
   <v>      -0.00021448      -0.00028200      -0.00003881 </v>
   <v>      -0.00053672       0.00079256      -0.00082483 </v>
   <v>       0.00001924       0.00021439       0.00004904 </v>
   <v>      -0.00004382       0.00753115      -0.00377531 </v>
   <v>       0.00010502       0.00008200       0.00008806 </v>
   <v>       0.00073830      -0.00480249      -0.00029545 </v>
   <v>       0.00027287      -0.00023740      -0.00006937 </v>
   <v>      -0.00195155       0.00028672      -0.00101716 </v>
   <v>       0.00149741      -0.00027936      -0.00079977 </v>
   <v>       0.00133860      -0.00049672       0.00050233 </v>
   <v>      -0.00133721       0.00007404       0.00043395 </v>
   <v>       0.00041901       0.00055461      -0.00002165 </v>
   <v>       0.00001588       0.00026139       0.00001675 </v>
   <v>      -0.00000057      -0.00054225       0.00012907 </v>
   <v>       0.00008545      -0.00030080       0.00009275 </v>
   <v>      -0.00030332       0.00004091       0.00027191 </v>
   <v>       0.00010856       0.00063855       0.00079628 </v>
   <v>      -0.00009169      -0.00009939      -0.00004252 </v>
   <v>      -0.00027480       0.00021237      -0.00024931 </v>
   <v>      -0.00091581      -0.00003822       0.00080228 </v>
   <v>       0.00076950      -0.00001008       0.00087435 </v>
   <v>       0.00056175      -0.00023240      -0.00038240 </v>
   <v>      -0.00068373      -0.00024976      -0.00050047 </v>
   <v>       0.00005641       0.00041917       0.00010222 </v>
   <v>      -0.00011223       0.00293079       0.00229414 </v>
   <v>       0.00005503      -0.00017732       0.00016005 </v>
   <v>       0.00016304      -0.00224408       0.00043476 </v>
   <v>      -0.00112444       0.00584918       0.00119895 </v>
   <v>      -0.00006371       0.00043657      -0.00022535 </v>
   <v>       0.00005161      -0.00661972      -0.00065099 </v>
   <v>      -0.00012287       0.00022179      -0.00018945 </v>
   <v>      -0.00031167       0.00199359       0.00023354 </v>
   <v>      -0.00074045       0.00188468      -0.00019377 </v>
   <v>       0.00004949      -0.00167855      -0.00006045 </v>
   <v>       0.00001971      -0.00135045      -0.00009196 </v>
   <v>       0.00002516       0.00017202      -0.00061127 </v>
   <v>      -0.00002440       0.00007101       0.00003523 </v>
   <v>      -0.00004473      -0.00008298       0.00070022 </v>
   <v>       0.00003932      -0.00009687       0.00011554 </v>
   <v>       0.00006577       0.00039465       0.00010505 </v>
   <v>       0.00001662       0.00024323      -0.00034557 </v>
   <v>      -0.00005764      -0.00042288      -0.00017701 </v>
   <v>      -0.00002994      -0.00033821       0.00001047 </v>
   <v>       0.00109169      -0.02308257       0.00047114 </v>
   <v>      -0.00019142       0.00060810       0.00022892 </v>
   <v>      -0.00018762       0.00920326       0.00021557 </v>
   <v>      -0.00025982      -0.00004917       0.00010895 </v>
   <v>       0.00436830       0.00129980      -0.00011406 </v>
   <v>      -0.00282097       0.00052770      -0.00013046 </v>
   <v>      -0.00276860       0.00094393       0.00032484 </v>
   <v>       0.00240313       0.00046986       0.00022609 </v>
   <v>      -0.00068963      -0.00085126       0.00004529 </v>
   <v>       0.00044582      -0.00081626       0.00009080 </v>
   <v>      -0.00014955       0.00048596      -0.00012512 </v>
   <v>      -0.00034489       0.00045095      -0.00010624 </v>
   <v>       0.00041791       0.00002654       0.00012682 </v>
   <v>      -0.00040437       0.00197240      -0.00726465 </v>
   <v>       0.00019211       0.00001436      -0.00023867 </v>
   <v>       0.00072658       0.00196643       0.00583205 </v>
   <v>      -0.00023874       0.00047658       0.00005605 </v>
   <v>      -0.00002136       0.00029261      -0.00010958 </v>
   <v>       0.00041281      -0.00033937      -0.00027475 </v>
   <v>      -0.00002300      -0.00016271       0.00016195 </v>
   <v>       0.00024901      -0.00074935      -0.00019317 </v>
   <v>       0.00050038      -0.00086583       0.00048456 </v>
   <v>      -0.00008439       0.00051832      -0.00001631 </v>
   <v>      -0.00006495       0.00031793      -0.00015941 </v>
   <v>       0.00111348       0.00170516       0.00199254 </v>
   <v>      -0.00044247       0.00049392       0.00010707 </v>
   <v>      -0.00262364       0.00027624      -0.00490130 </v>
   <v>       0.00020457      -0.00033122       0.00008154 </v>
   <v>       0.00048107      -0.00087793      -0.00022073 </v>
   <v>      -0.00210212      -0.00167923       0.00468524 </v>
   <v>      -0.00026072       0.00053452      -0.00009229 </v>
   <v>       0.00076421       0.00145575      -0.00153113 </v>
  </varray>
  <varray name="stress" >
   <v>       2.10114219       0.00036325      -0.09215834 </v>
   <v>       0.00038442       1.88078787       0.00075284 </v>
   <v>      -0.09245534       0.00073820       0.45700176 </v>
  </varray>
  <energy>
   <i name="e_fr_energy">   -489.21532601 </i>
   <i name="e_wo_entrp">   -489.21532601 </i>
   <i name="e_0_energy">     -0.00000000 </i>
  </energy>
  <time name="totalsc"> 6645.46 6719.20</time>
  <eigenvalues>
   <array>
    <dimension dim="1">band</dimension>
    <dimension dim="2">kpoint</dimension>
    <dimension dim="3">spin</dimension>
    <field>eigene</field>
    <field>occ</field>
    <set>
     <set comment="spin 1">
      <set comment="kpoint 1">
       <r>  -51.0558    1.0000 </r>
       <r>  -51.0553    1.0000 </r>
       <r>  -51.0549    1.0000 </r>
       <r>  -51.0546    1.0000 </r>
       <r>  -51.0540    1.0000 </r>
       <r>  -51.0537    1.0000 </r>
       <r>  -51.0536    1.0000 </r>
       <r>  -51.0535    1.0000 </r>
       <r>  -51.0527    1.0000 </r>
       <r>  -51.0526    1.0000 </r>
       <r>  -51.0524    1.0000 </r>
       <r>  -51.0523    1.0000 </r>
       <r>  -51.0520    1.0000 </r>
       <r>  -51.0510    1.0000 </r>
       <r>  -51.0510    1.0000 </r>
       <r>  -51.0500    1.0000 </r>
       <r>  -51.0449    1.0000 </r>
       <r>  -51.0443    1.0000 </r>
       <r>  -51.0443    1.0000 </r>
       <r>  -51.0441    1.0000 </r>
       <r>  -51.0437    1.0000 </r>
       <r>  -51.0437    1.0000 </r>
       <r>  -51.0436    1.0000 </r>
       <r>  -51.0429    1.0000 </r>
       <r>  -51.0401    1.0000 </r>
       <r>  -51.0397    1.0000 </r>
       <r>  -51.0396    1.0000 </r>
       <r>  -51.0395    1.0000 </r>
       <r>  -51.0391    1.0000 </r>
       <r>  -51.0391    1.0000 </r>
       <r>  -51.0390    1.0000 </r>
       <r>  -51.0387    1.0000 </r>
       <r>  -49.7027    1.0000 </r>
       <r>  -49.7018    1.0000 </r>
       <r>  -49.7018    1.0000 </r>
       <r>  -49.7015    1.0000 </r>
       <r>  -49.7014    1.0000 </r>
       <r>  -49.7013    1.0000 </r>
       <r>  -49.7013    1.0000 </r>
       <r>  -49.6994    1.0000 </r>
       <r>  -49.6957    1.0000 </r>
       <r>  -49.6943    1.0000 </r>
       <r>  -49.6942    1.0000 </r>
       <r>  -49.6939    1.0000 </r>
       <r>  -49.6938    1.0000 </r>
       <r>  -49.6938    1.0000 </r>
       <r>  -49.6937    1.0000 </r>
       <r>  -49.6931    1.0000 </r>
       <r>  -49.5996    1.0000 </r>
       <r>  -49.5988    1.0000 </r>
       <r>  -49.5984    1.0000 </r>
       <r>  -49.5979    1.0000 </r>
       <r>  -49.5974    1.0000 </r>
       <r>  -49.5971    1.0000 </r>
       <r>  -49.5970    1.0000 </r>
       <r>  -49.5969    1.0000 </r>
       <r>  -49.5966    1.0000 </r>
       <r>  -49.5963    1.0000 </r>
       <r>  -49.5960    1.0000 </r>
       <r>  -49.5960    1.0000 </r>
       <r>  -49.5958    1.0000 </r>
       <r>  -49.5955    1.0000 </r>
       <r>  -49.5954    1.0000 </r>
       <r>  -49.5947    1.0000 </r>
       <r>  -49.5680    1.0000 </r>
       <r>  -49.5671    1.0000 </r>
       <r>  -49.5668    1.0000 </r>
       <r>  -49.5662    1.0000 </r>
       <r>  -49.5660    1.0000 </r>
       <r>  -49.5655    1.0000 </r>
       <r>  -49.5653    1.0000 </r>
       <r>  -49.5650    1.0000 </r>
       <r>  -49.5646    1.0000 </r>
       <r>  -49.5643    1.0000 </r>
       <r>  -49.5642    1.0000 </r>
       <r>  -49.5640    1.0000 </r>
       <r>  -49.5637    1.0000 </r>
       <r>  -49.5634    1.0000 </r>
       <r>  -49.5631    1.0000 </r>
       <r>  -49.5629    1.0000 </r>
       <r>  -49.5552    1.0000 </r>
       <r>  -49.5543    1.0000 </r>
       <r>  -49.5543    1.0000 </r>
       <r>  -49.5540    1.0000 </r>
       <r>  -49.5539    1.0000 </r>
       <r>  -49.5538    1.0000 </r>
       <r>  -49.5538    1.0000 </r>
       <r>  -49.5528    1.0000 </r>
       <r>  -49.5403    1.0000 </r>
       <r>  -49.5397    1.0000 </r>
       <r>  -49.5396    1.0000 </r>
       <r>  -49.5394    1.0000 </r>
       <r>  -49.5392    1.0000 </r>
       <r>  -49.5392    1.0000 </r>
       <r>  -49.5391    1.0000 </r>
       <r>  -49.5387    1.0000 </r>
       <r>  -39.8668    1.0000 </r>
       <r>  -39.8665    1.0000 </r>
       <r>  -39.8659    1.0000 </r>
       <r>  -39.8655    1.0000 </r>
       <r>  -39.8654    1.0000 </r>
       <r>  -39.8653    1.0000 </r>
       <r>  -39.8653    1.0000 </r>
       <r>  -39.8651    1.0000 </r>
       <r>  -39.8651    1.0000 </r>
       <r>  -39.8649    1.0000 </r>
       <r>  -39.8649    1.0000 </r>
       <r>  -39.8648    1.0000 </r>
       <r>  -39.8647    1.0000 </r>
       <r>  -39.8644    1.0000 </r>
       <r>  -39.8644    1.0000 </r>
       <r>  -39.8636    1.0000 </r>
       <r>  -13.2248    1.0000 </r>
       <r>  -13.2246    1.0000 </r>
       <r>  -13.2103    1.0000 </r>
       <r>  -13.1834    1.0000 </r>
       <r>  -13.1010    1.0000 </r>
       <r>  -13.0990    1.0000 </r>
       <r>  -13.0987    1.0000 </r>
       <r>  -13.0929    1.0000 </r>
       <r>  -13.0860    1.0000 </r>
       <r>  -13.0801    1.0000 </r>
       <r>  -13.0798    1.0000 </r>
       <r>  -13.0776    1.0000 </r>
       <r>  -12.9880    1.0000 </r>
       <r>  -12.9773    1.0000 </r>
       <r>  -12.9418    1.0000 </r>
       <r>  -12.9416    1.0000 </r>
       <r>   -7.6454    1.0000 </r>
       <r>   -7.4068    1.0000 </r>
       <r>   -7.3264    1.0000 </r>
       <r>   -7.3260    1.0000 </r>
       <r>   -7.3100    1.0000 </r>
       <r>   -7.3092    1.0000 </r>
       <r>   -7.3082    1.0000 </r>
       <r>   -7.3072    1.0000 </r>
       <r>   -7.1699    1.0000 </r>
       <r>   -7.1572    1.0000 </r>
       <r>   -7.1241    1.0000 </r>
       <r>   -7.1236    1.0000 </r>
       <r>   -7.0366    1.0000 </r>
       <r>   -7.0222    1.0000 </r>
       <r>   -7.0024    1.0000 </r>
       <r>   -7.0019    1.0000 </r>
       <r>   -6.9413    1.0000 </r>
       <r>   -6.9407    1.0000 </r>
       <r>   -6.8880    1.0000 </r>
       <r>   -6.8870    1.0000 </r>
       <r>   -6.8655    1.0000 </r>
       <r>   -6.8616    1.0000 </r>
       <r>   -6.8345    1.0000 </r>
       <r>   -6.8038    1.0000 </r>
       <r>   -1.9355    1.0000 </r>
       <r>   -1.9353    1.0000 </r>
       <r>   -1.9104    1.0000 </r>
       <r>   -1.8935    1.0000 </r>
       <r>   -1.6665    1.0000 </r>
       <r>   -1.6662    1.0000 </r>
       <r>   -1.6585    1.0000 </r>
       <r>   -1.6572    1.0000 </r>
       <r>   -1.5995    1.0000 </r>
       <r>   -1.5979    1.0000 </r>
       <r>   -1.5863    1.0000 </r>
       <r>   -1.5859    1.0000 </r>
       <r>   -1.2982    1.0000 </r>
       <r>   -1.1748    1.0000 </r>
       <r>   -1.1743    1.0000 </r>
       <r>   -1.1134    1.0000 </r>
       <r>   -1.1131    1.0000 </r>
       <r>   -1.1071    1.0000 </r>
       <r>   -1.0492    1.0000 </r>
       <r>   -0.9811    1.0000 </r>
       <r>   -0.9646    1.0000 </r>
       <r>   -0.9594    1.0000 </r>
       <r>   -0.9578    1.0000 </r>
       <r>   -0.9574    1.0000 </r>
       <r>   -0.9469    1.0000 </r>
       <r>   -0.9453    1.0000 </r>
       <r>   -0.9225    1.0000 </r>
       <r>   -0.8712    1.0000 </r>
       <r>   -0.8711    1.0000 </r>
       <r>   -0.8035    1.0000 </r>
       <r>   -0.8026    1.0000 </r>
       <r>   -0.8025    1.0000 </r>
       <r>   -0.7749    1.0000 </r>
       <r>   -0.7741    1.0000 </r>
       <r>   -0.7739    1.0000 </r>
       <r>   -0.7609    1.0000 </r>
       <r>   -0.7167    1.0000 </r>
       <r>   -0.7165    1.0000 </r>
       <r>   -0.7064    1.0000 </r>
       <r>   -0.7050    1.0000 </r>
       <r>   -0.6992    1.0000 </r>
       <r>   -0.6990    1.0000 </r>
       <r>   -0.6089    1.0000 </r>
       <r>   -0.6085    1.0000 </r>
       <r>   -0.5617    1.0000 </r>
       <r>   -0.5612    1.0000 </r>
       <r>   -0.5495    1.0000 </r>
       <r>   -0.5480    1.0000 </r>
       <r>   -0.4082    1.0000 </r>
       <r>   -0.4081    1.0000 </r>
       <r>   -0.3573    1.0000 </r>
       <r>   -0.3479    1.0000 </r>
       <r>   -0.3298    1.0000 </r>
       <r>   -0.3291    1.0000 </r>
       <r>   -0.2990    1.0000 </r>
       <r>   -0.2987    1.0000 </r>
       <r>   -0.2816    1.0000 </r>
       <r>   -0.2692    1.0000 </r>
       <r>   -0.2629    1.0000 </r>
       <r>   -0.2557    1.0000 </r>
       <r>   -0.2549    1.0000 </r>
       <r>   -0.2089    1.0000 </r>
       <r>   -0.2087    1.0000 </r>
       <r>   -0.1888    1.0000 </r>
       <r>   -0.1867    1.0000 </r>
       <r>   -0.1866    1.0000 </r>
       <r>   -0.1759    1.0000 </r>
       <r>   -0.1580    1.0000 </r>
       <r>   -0.1256    1.0000 </r>
       <r>   -0.1253    1.0000 </r>
       <r>   -0.1093    1.0000 </r>
       <r>   -0.0709    1.0000 </r>
       <r>   -0.0701    1.0000 </r>
       <r>   -0.0605    1.0000 </r>
       <r>   -0.0432    1.0000 </r>
       <r>   -0.0175    1.0000 </r>
       <r>   -0.0172    1.0000 </r>
       <r>   -0.0115    1.0000 </r>
       <r>    0.0016    1.0000 </r>
       <r>    0.0018    1.0000 </r>
       <r>    0.0463    1.0000 </r>
       <r>    0.0493    1.0000 </r>
       <r>    0.0496    1.0000 </r>
       <r>    0.0914    1.0000 </r>
       <r>    0.0933    1.0000 </r>
       <r>    0.1185    1.0000 </r>
       <r>    0.1187    1.0000 </r>
       <r>    0.1578    1.0000 </r>
       <r>    0.1627    1.0000 </r>
       <r>    0.1769    1.0000 </r>
       <r>    0.1795    1.0000 </r>
       <r>    0.1819    1.0000 </r>
       <r>    0.1822    1.0000 </r>
       <r>    0.1854    1.0000 </r>
       <r>    0.1893    1.0000 </r>
       <r>    0.1933    1.0000 </r>
       <r>    0.1943    1.0000 </r>
       <r>    0.2008    1.0000 </r>
       <r>    0.2011    1.0000 </r>
       <r>    0.2388    1.0000 </r>
       <r>    0.2511    1.0000 </r>
       <r>    0.2571    1.0000 </r>
       <r>    0.2572    1.0000 </r>
       <r>    0.2768    1.0000 </r>
       <r>    0.3370    1.0000 </r>
       <r>    0.3475    1.0000 </r>
       <r>    0.3590    1.0000 </r>
       <r>    0.3590    1.0000 </r>
       <r>    0.3604    1.0000 </r>
       <r>    0.3606    1.0000 </r>
       <r>    0.3883    1.0000 </r>
       <r>    0.4017    1.0000 </r>
       <r>    0.4524    1.0000 </r>
       <r>    0.4525    1.0000 </r>
       <r>    0.5789    1.0000 </r>
       <r>    0.5791    1.0000 </r>
       <r>    0.5843    1.0000 </r>
       <r>    0.6019    1.0000 </r>
       <r>    0.6021    1.0000 </r>
       <r>    0.6064    1.0000 </r>
       <r>    0.6079    1.0000 </r>
       <r>    0.6402    1.0000 </r>
       <r>    0.6512    1.0000 </r>
       <r>    0.6513    1.0000 </r>
       <r>    0.6619    1.0000 </r>
       <r>    0.6622    1.0000 </r>
       <r>    0.6655    1.0000 </r>
       <r>    0.6731    1.0000 </r>
       <r>    0.6745    1.0000 </r>
       <r>    0.6751    1.0000 </r>
       <r>    0.6966    1.0000 </r>
       <r>    0.7231    1.0000 </r>
       <r>    0.7833    1.0000 </r>
       <r>    0.8195    1.0000 </r>
       <r>    0.8295    1.0000 </r>
       <r>    0.8319    1.0000 </r>
       <r>    0.8322    1.0000 </r>
       <r>    0.8610    1.0000 </r>
       <r>    0.8613    1.0000 </r>
       <r>    0.9090    1.0000 </r>
       <r>    0.9403    1.0000 </r>
       <r>    0.9483    1.0000 </r>
       <r>    0.9484    1.0000 </r>
       <r>    0.9831    1.0000 </r>
       <r>    1.0258    1.0000 </r>
       <r>    1.0703    1.0000 </r>
       <r>    1.2693    1.0000 </r>
       <r>    1.2981    1.0000 </r>
       <r>    1.2982    1.0000 </r>
       <r>    1.3114    1.0000 </r>
       <r>    1.3324    1.0000 </r>
       <r>    1.3336    1.0000 </r>
       <r>    1.3380    1.0000 </r>
       <r>    1.3838    1.0000 </r>
       <r>    1.4049    1.0000 </r>
       <r>    1.4280    1.0000 </r>
       <r>    1.4669    1.0000 </r>
       <r>    1.4677    1.0000 </r>
       <r>    1.4683    1.0000 </r>
       <r>    1.4813    1.0000 </r>
       <r>    1.5109    1.0000 </r>
       <r>    1.5112    1.0000 </r>
       <r>    1.5409    1.0000 </r>
       <r>    1.5611    1.0000 </r>
       <r>    1.5769    1.0000 </r>
       <r>    1.6462    1.0000 </r>
       <r>    1.6554    1.0000 </r>
       <r>    1.7558    1.0000 </r>
       <r>    1.7564    1.0000 </r>
       <r>    1.7632    1.0000 </r>
       <r>    1.7787    1.0000 </r>
       <r>    1.8028    1.0000 </r>
       <r>    1.8032    1.0000 </r>
       <r>    1.8109    1.0000 </r>
       <r>    1.8232    1.0000 </r>
       <r>    1.8366    1.0000 </r>
       <r>    1.8368    1.0000 </r>
       <r>    1.8461    1.0000 </r>
       <r>    1.8466    1.0000 </r>
       <r>    1.8784    1.0000 </r>
       <r>    1.8899    1.0000 </r>
       <r>    1.9471    1.0000 </r>
       <r>    1.9935    1.0000 </r>
       <r>    1.9940    1.0000 </r>
       <r>    2.0061    1.0000 </r>
       <r>    2.0068    1.0000 </r>
       <r>    2.0099    1.0000 </r>
       <r>    2.0188    1.0000 </r>
       <r>    2.0200    1.0000 </r>
       <r>    2.0207    1.0000 </r>
       <r>    2.0397    1.0000 </r>
       <r>    2.0466    1.0000 </r>
       <r>    2.0468    1.0000 </r>
       <r>    2.0573    1.0000 </r>
       <r>    2.0685    1.0000 </r>
       <r>    2.0692    1.0000 </r>
       <r>    2.0916    1.0000 </r>
       <r>    2.1128    1.0000 </r>
       <r>    2.1908    1.0000 </r>
       <r>    2.1908    1.0000 </r>
       <r>    2.2471    1.0000 </r>
       <r>    2.2471    1.0000 </r>
       <r>    2.2707    1.0000 </r>
       <r>    2.2730    1.0000 </r>
       <r>    2.2843    1.0000 </r>
       <r>    2.4278    1.0000 </r>
       <r>    2.4664    1.0000 </r>
       <r>    2.4668    1.0000 </r>
       <r>    2.4777    1.0000 </r>
       <r>    2.5037    1.0000 </r>
       <r>    2.5275    1.0000 </r>
       <r>    2.5543    1.0000 </r>
       <r>    2.5923    1.0000 </r>
       <r>    2.6267    1.0000 </r>
       <r>    2.6269    1.0000 </r>
       <r>    2.6564    1.0000 </r>
       <r>    2.7385    1.0000 </r>
       <r>    2.7387    1.0000 </r>
       <r>    2.7608    1.0000 </r>
       <r>    2.7614    1.0000 </r>
       <r>    2.8339    1.0000 </r>
       <r>    2.8719    1.0000 </r>
       <r>    2.9261    1.0000 </r>
       <r>    2.9345    1.0000 </r>
       <r>    2.9350    1.0000 </r>
       <r>    2.9694    1.0000 </r>
       <r>    3.0272    1.0000 </r>
       <r>    3.0277    1.0000 </r>
       <r>    3.0613    1.0000 </r>
       <r>    3.0981    1.0000 </r>
       <r>    3.3079    1.0000 </r>
       <r>    3.3107    1.0000 </r>
       <r>    3.3482    1.0000 </r>
       <r>    3.3762    1.0000 </r>
       <r>    3.4215    1.0000 </r>
       <r>    3.4220    1.0000 </r>
       <r>    3.4406    1.0000 </r>
       <r>    3.4585    1.0000 </r>
       <r>    3.4590    1.0000 </r>
       <r>    3.5319    1.0000 </r>
       <r>    3.7480    1.0000 </r>
       <r>    3.8084    1.0000 </r>
       <r>    3.8091    1.0000 </r>
       <r>    3.8152    1.0000 </r>
       <r>    3.8153    1.0000 </r>
       <r>    3.8826    1.0000 </r>
       <r>    3.8827    1.0000 </r>
       <r>    3.9323    1.0000 </r>
       <r>    3.9350    1.0000 </r>
       <r>    3.9405    1.0000 </r>
       <r>    3.9406    1.0000 </r>
       <r>    4.0390    1.0000 </r>
       <r>    4.0394    1.0000 </r>
       <r>    4.0702    1.0000 </r>
       <r>    4.1389    1.0000 </r>
       <r>    4.1493    1.0000 </r>
       <r>    4.1516    1.0000 </r>
       <r>    4.3150    1.0000 </r>
       <r>    4.3180    1.0000 </r>
       <r>    4.3380    1.0000 </r>
       <r>    4.3586    1.0000 </r>
       <r>    4.3586    1.0000 </r>
       <r>    4.4289    1.0000 </r>
       <r>    4.4446    1.0000 </r>
       <r>    4.4462    1.0000 </r>
       <r>    4.4539    1.0000 </r>
       <r>    4.4558    1.0000 </r>
       <r>    4.4569    1.0000 </r>
       <r>    4.6361    1.0000 </r>
       <r>    4.6364    1.0000 </r>
       <r>    4.7321    1.0000 </r>
       <r>    4.7326    1.0000 </r>
       <r>    4.7639    1.0000 </r>
       <r>    4.7640    1.0000 </r>
       <r>    4.7693    1.0000 </r>
       <r>    4.7694    1.0000 </r>
       <r>    4.8103    1.0000 </r>
       <r>    4.8529    1.0000 </r>
       <r>    4.8533    1.0000 </r>
       <r>    4.8574    1.0000 </r>
       <r>    7.3435    0.0000 </r>
       <r>    8.1285    0.0000 </r>
       <r>    8.4450    0.0000 </r>
       <r>    8.6425    0.0000 </r>
       <r>    8.6428    0.0000 </r>
       <r>    8.8580    0.0000 </r>
       <r>    9.0843    0.0000 </r>
       <r>    9.0847    0.0000 </r>
       <r>    9.2611    0.0000 </r>
       <r>    9.2735    0.0000 </r>
       <r>    9.2888    0.0000 </r>
       <r>    9.2895    0.0000 </r>
       <r>    9.7266    0.0000 </r>
       <r>    9.7719    0.0000 </r>
       <r>    9.7721    0.0000 </r>
       <r>    9.7901    0.0000 </r>
       <r>    9.8546    0.0000 </r>
       <r>    9.8548    0.0000 </r>
       <r>    9.8590    0.0000 </r>
       <r>    9.8789    0.0000 </r>
       <r>    9.8893    0.0000 </r>
       <r>   10.0605    0.0000 </r>
       <r>   10.0830    0.0000 </r>
       <r>   10.1359    0.0000 </r>
       <r>   10.1362    0.0000 </r>
       <r>   10.3061    0.0000 </r>
       <r>   10.3062    0.0000 </r>
       <r>   10.4162    0.0000 </r>
       <r>   10.5266    0.0000 </r>
       <r>   10.5707    0.0000 </r>
       <r>   10.5718    0.0000 </r>
       <r>   10.5719    0.0000 </r>
       <r>   10.5781    0.0000 </r>
       <r>   10.5791    0.0000 </r>
       <r>   10.6758    0.0000 </r>
       <r>   10.9757    0.0000 </r>
       <r>   11.0190    0.0000 </r>
       <r>   11.0193    0.0000 </r>
       <r>   11.0403    0.0000 </r>
       <r>   11.0411    0.0000 </r>
       <r>   11.0772    0.0000 </r>
       <r>   11.1283    0.0000 </r>
       <r>   11.1782    0.0000 </r>
       <r>   11.1887    0.0000 </r>
       <r>   11.2288    0.0000 </r>
       <r>   11.2494    0.0000 </r>
       <r>   11.2497    0.0000 </r>
       <r>   11.2905    0.0000 </r>
       <r>   11.3064    0.0000 </r>
       <r>   11.4175    0.0000 </r>
       <r>   11.4184    0.0000 </r>
       <r>   11.4586    0.0000 </r>
       <r>   11.5210    0.0000 </r>
       <r>   11.5218    0.0000 </r>
       <r>   11.5305    0.0000 </r>
       <r>   11.5771    0.0000 </r>
       <r>   11.6802    0.0000 </r>
       <r>   11.6804    0.0000 </r>
       <r>   11.7969    0.0000 </r>
       <r>   11.7976    0.0000 </r>
       <r>   11.8156    0.0000 </r>
       <r>   11.8157    0.0000 </r>
       <r>   11.8824    0.0000 </r>
       <r>   11.9412    0.0000 </r>
       <r>   11.9763    0.0000 </r>
       <r>   11.9764    0.0000 </r>
       <r>   11.9818    0.0000 </r>
       <r>   12.0281    0.0000 </r>
       <r>   12.0282    0.0000 </r>
       <r>   12.0580    0.0000 </r>
       <r>   12.1620    0.0000 </r>
       <r>   12.2422    0.0000 </r>
       <r>   12.2572    0.0000 </r>
       <r>   12.2575    0.0000 </r>
       <r>   12.3152    0.0000 </r>
       <r>   12.3158    0.0000 </r>
       <r>   12.3216    0.0000 </r>
       <r>   12.3479    0.0000 </r>
       <r>   12.4615    0.0000 </r>
       <r>   12.4803    0.0000 </r>
       <r>   12.5168    0.0000 </r>
       <r>   12.5171    0.0000 </r>
       <r>   12.6141    0.0000 </r>
       <r>   12.6144    0.0000 </r>
       <r>   12.6609    0.0000 </r>
       <r>   12.6631    0.0000 </r>
       <r>   12.6632    0.0000 </r>
       <r>   12.6900    0.0000 </r>
       <r>   12.7468    0.0000 </r>
       <r>   12.8313    0.0000 </r>
       <r>   12.8723    0.0000 </r>
       <r>   12.8728    0.0000 </r>
       <r>   12.8728    0.0000 </r>
       <r>   13.1202    0.0000 </r>
       <r>   13.1205    0.0000 </r>
       <r>   13.2009    0.0000 </r>
       <r>   13.3815    0.0000 </r>
       <r>   13.4098    0.0000 </r>
       <r>   13.4113    0.0000 </r>
       <r>   13.4333    0.0000 </r>
       <r>   13.4382    0.0000 </r>
       <r>   13.4518    0.0000 </r>
       <r>   13.4869    0.0000 </r>
       <r>   13.5112    0.0000 </r>
       <r>   13.5450    0.0000 </r>
       <r>   13.5492    0.0000 </r>
      </set>
      <set comment="kpoint 2">
       <r>  -51.0558    1.0000 </r>
       <r>  -51.0552    1.0000 </r>
       <r>  -51.0548    1.0000 </r>
       <r>  -51.0545    1.0000 </r>
       <r>  -51.0541    1.0000 </r>
       <r>  -51.0539    1.0000 </r>
       <r>  -51.0538    1.0000 </r>
       <r>  -51.0536    1.0000 </r>
       <r>  -51.0529    1.0000 </r>
       <r>  -51.0526    1.0000 </r>
       <r>  -51.0521    1.0000 </r>
       <r>  -51.0518    1.0000 </r>
       <r>  -51.0518    1.0000 </r>
       <r>  -51.0512    1.0000 </r>
       <r>  -51.0509    1.0000 </r>
       <r>  -51.0503    1.0000 </r>
       <r>  -51.0448    1.0000 </r>
       <r>  -51.0443    1.0000 </r>
       <r>  -51.0442    1.0000 </r>
       <r>  -51.0440    1.0000 </r>
       <r>  -51.0438    1.0000 </r>
       <r>  -51.0437    1.0000 </r>
       <r>  -51.0436    1.0000 </r>
       <r>  -51.0429    1.0000 </r>
       <r>  -51.0401    1.0000 </r>
       <r>  -51.0397    1.0000 </r>
       <r>  -51.0396    1.0000 </r>
       <r>  -51.0395    1.0000 </r>
       <r>  -51.0391    1.0000 </r>
       <r>  -51.0391    1.0000 </r>
       <r>  -51.0390    1.0000 </r>
       <r>  -51.0387    1.0000 </r>
       <r>  -49.7027    1.0000 </r>
       <r>  -49.7018    1.0000 </r>
       <r>  -49.7018    1.0000 </r>
       <r>  -49.7015    1.0000 </r>
       <r>  -49.7014    1.0000 </r>
       <r>  -49.7013    1.0000 </r>
       <r>  -49.7013    1.0000 </r>
       <r>  -49.6994    1.0000 </r>
       <r>  -49.6957    1.0000 </r>
       <r>  -49.6943    1.0000 </r>
       <r>  -49.6942    1.0000 </r>
       <r>  -49.6939    1.0000 </r>
       <r>  -49.6938    1.0000 </r>
       <r>  -49.6938    1.0000 </r>
       <r>  -49.6937    1.0000 </r>
       <r>  -49.6931    1.0000 </r>
       <r>  -49.5996    1.0000 </r>
       <r>  -49.5988    1.0000 </r>
       <r>  -49.5983    1.0000 </r>
       <r>  -49.5980    1.0000 </r>
       <r>  -49.5973    1.0000 </r>
       <r>  -49.5972    1.0000 </r>
       <r>  -49.5970    1.0000 </r>
       <r>  -49.5969    1.0000 </r>
       <r>  -49.5965    1.0000 </r>
       <r>  -49.5963    1.0000 </r>
       <r>  -49.5961    1.0000 </r>
       <r>  -49.5959    1.0000 </r>
       <r>  -49.5958    1.0000 </r>
       <r>  -49.5955    1.0000 </r>
       <r>  -49.5953    1.0000 </r>
       <r>  -49.5947    1.0000 </r>
       <r>  -49.5679    1.0000 </r>
       <r>  -49.5672    1.0000 </r>
       <r>  -49.5666    1.0000 </r>
       <r>  -49.5662    1.0000 </r>
       <r>  -49.5660    1.0000 </r>
       <r>  -49.5657    1.0000 </r>
       <r>  -49.5653    1.0000 </r>
       <r>  -49.5650    1.0000 </r>
       <r>  -49.5646    1.0000 </r>
       <r>  -49.5643    1.0000 </r>
       <r>  -49.5642    1.0000 </r>
       <r>  -49.5640    1.0000 </r>
       <r>  -49.5637    1.0000 </r>
       <r>  -49.5634    1.0000 </r>
       <r>  -49.5631    1.0000 </r>
       <r>  -49.5629    1.0000 </r>
       <r>  -49.5552    1.0000 </r>
       <r>  -49.5543    1.0000 </r>
       <r>  -49.5543    1.0000 </r>
       <r>  -49.5540    1.0000 </r>
       <r>  -49.5539    1.0000 </r>
       <r>  -49.5538    1.0000 </r>
       <r>  -49.5538    1.0000 </r>
       <r>  -49.5528    1.0000 </r>
       <r>  -49.5403    1.0000 </r>
       <r>  -49.5397    1.0000 </r>
       <r>  -49.5396    1.0000 </r>
       <r>  -49.5394    1.0000 </r>
       <r>  -49.5392    1.0000 </r>
       <r>  -49.5392    1.0000 </r>
       <r>  -49.5391    1.0000 </r>
       <r>  -49.5387    1.0000 </r>
       <r>  -39.8668    1.0000 </r>
       <r>  -39.8665    1.0000 </r>
       <r>  -39.8658    1.0000 </r>
       <r>  -39.8656    1.0000 </r>
       <r>  -39.8655    1.0000 </r>
       <r>  -39.8654    1.0000 </r>
       <r>  -39.8653    1.0000 </r>
       <r>  -39.8652    1.0000 </r>
       <r>  -39.8650    1.0000 </r>
       <r>  -39.8649    1.0000 </r>
       <r>  -39.8648    1.0000 </r>
       <r>  -39.8648    1.0000 </r>
       <r>  -39.8647    1.0000 </r>
       <r>  -39.8645    1.0000 </r>
       <r>  -39.8644    1.0000 </r>
       <r>  -39.8636    1.0000 </r>
       <r>  -13.2074    1.0000 </r>
       <r>  -13.2072    1.0000 </r>
       <r>  -13.1950    1.0000 </r>
       <r>  -13.1700    1.0000 </r>
       <r>  -13.1590    1.0000 </r>
[...]
       <r>   -49.2822     0.0000     0.0000 </r>
       <r>   -49.0414     0.0000     0.0000 </r>
       <r>   -48.8005     0.0000     0.0000 </r>
       <r>   -48.5597     0.0000     0.0000 </r>
       <r>   -48.3188     0.0000     0.0000 </r>
       <r>   -48.0779     0.0000     0.0000 </r>
       <r>   -47.8371     0.0000     0.0000 </r>
       <r>   -47.5962     0.0000     0.0000 </r>
       <r>   -47.3554     0.0000     0.0000 </r>
       <r>   -47.1145     0.0000     0.0000 </r>
       <r>   -46.8736     0.0000     0.0000 </r>
       <r>   -46.6328     0.0000     0.0000 </r>
       <r>   -46.3919     0.4219     0.1016 </r>
       <r>   -46.1511   132.3986    31.9911 </r>
       <r>   -45.9102    62.2657    46.9884 </r>
       <r>   -45.6693   203.4864    96.0000 </r>
       <r>   -45.4285     0.0000    96.0000 </r>
       <r>   -45.1876     0.0000    96.0000 </r>
       <r>   -44.9468     0.0000    96.0000 </r>
       <r>   -44.7059     0.0000    96.0000 </r>
       <r>   -44.4650     0.0000    96.0000 </r>
       <r>   -44.2242     0.0000    96.0000 </r>
       <r>   -43.9833     0.0000    96.0000 </r>
       <r>   -43.7425     0.0000    96.0000 </r>
       <r>   -43.5016     0.0000    96.0000 </r>
       <r>   -43.2608     0.0000    96.0000 </r>
       <r>   -43.0199     0.0000    96.0000 </r>
       <r>   -42.7790     0.0000    96.0000 </r>
       <r>   -42.5382     0.0000    96.0000 </r>
       <r>   -42.2973     0.0000    96.0000 </r>
       <r>   -42.0565     0.0000    96.0000 </r>
       <r>   -41.8156     0.0000    96.0000 </r>
       <r>   -41.5747     0.0000    96.0000 </r>
       <r>   -41.3339     0.0000    96.0000 </r>
       <r>   -41.0930     0.0000    96.0000 </r>
       <r>   -40.8522     0.0000    96.0000 </r>
       <r>   -40.6113     0.0000    96.0000 </r>
       <r>   -40.3704     0.0000    96.0000 </r>
       <r>   -40.1296     0.0000    96.0000 </r>
       <r>   -39.8887    15.5657    99.7491 </r>
       <r>   -39.6479    50.8631   112.0000 </r>
       <r>   -39.4070     0.0000   112.0000 </r>
       <r>   -39.1661     0.0000   112.0000 </r>
       <r>   -38.9253     0.0000   112.0000 </r>
       <r>   -38.6844     0.0000   112.0000 </r>
       <r>   -38.4436     0.0000   112.0000 </r>
       <r>   -38.2027     0.0000   112.0000 </r>
       <r>   -37.9618     0.0000   112.0000 </r>
       <r>   -37.7210     0.0000   112.0000 </r>
       <r>   -37.4801     0.0000   112.0000 </r>
       <r>   -37.2393     0.0000   112.0000 </r>
       <r>   -36.9984     0.0000   112.0000 </r>
       <r>   -36.7575     0.0000   112.0000 </r>
       <r>   -36.5167     0.0000   112.0000 </r>
       <r>   -36.2758     0.0000   112.0000 </r>
       <r>   -36.0350     0.0000   112.0000 </r>
       <r>   -35.7941     0.0000   112.0000 </r>
       <r>   -35.5532     0.0000   112.0000 </r>
       <r>   -35.3124     0.0000   112.0000 </r>
       <r>   -35.0715     0.0000   112.0000 </r>
       <r>   -34.8307     0.0000   112.0000 </r>
       <r>   -34.5898     0.0000   112.0000 </r>
       <r>   -34.3490     0.0000   112.0000 </r>
       <r>   -34.1081     0.0000   112.0000 </r>
       <r>   -33.8672     0.0000   112.0000 </r>
       <r>   -33.6264     0.0000   112.0000 </r>
       <r>   -33.3855     0.0000   112.0000 </r>
       <r>   -33.1447     0.0000   112.0000 </r>
       <r>   -32.9038     0.0000   112.0000 </r>
       <r>   -32.6629     0.0000   112.0000 </r>
       <r>   -32.4221     0.0000   112.0000 </r>
       <r>   -32.1812     0.0000   112.0000 </r>
       <r>   -31.9404     0.0000   112.0000 </r>
       <r>   -31.6995     0.0000   112.0000 </r>
       <r>   -31.4586     0.0000   112.0000 </r>
       <r>   -31.2178     0.0000   112.0000 </r>
       <r>   -30.9769     0.0000   112.0000 </r>
       <r>   -30.7361     0.0000   112.0000 </r>
       <r>   -30.4952     0.0000   112.0000 </r>
       <r>   -30.2543     0.0000   112.0000 </r>
       <r>   -30.0135     0.0000   112.0000 </r>
       <r>   -29.7726     0.0000   112.0000 </r>
       <r>   -29.5318     0.0000   112.0000 </r>
       <r>   -29.2909     0.0000   112.0000 </r>
       <r>   -29.0500     0.0000   112.0000 </r>
       <r>   -28.8092     0.0000   112.0000 </r>
       <r>   -28.5683     0.0000   112.0000 </r>
       <r>   -28.3275     0.0000   112.0000 </r>
       <r>   -28.0866     0.0000   112.0000 </r>
       <r>   -27.8457     0.0000   112.0000 </r>
       <r>   -27.6049     0.0000   112.0000 </r>
       <r>   -27.3640     0.0000   112.0000 </r>
       <r>   -27.1232     0.0000   112.0000 </r>
       <r>   -26.8823     0.0000   112.0000 </r>
       <r>   -26.6414     0.0000   112.0000 </r>
       <r>   -26.4006     0.0000   112.0000 </r>
       <r>   -26.1597     0.0000   112.0000 </r>
       <r>   -25.9189     0.0000   112.0000 </r>
       <r>   -25.6780     0.0000   112.0000 </r>
       <r>   -25.4371     0.0000   112.0000 </r>
       <r>   -25.1963     0.0000   112.0000 </r>
       <r>   -24.9554     0.0000   112.0000 </r>
       <r>   -24.7146     0.0000   112.0000 </r>
       <r>   -24.4737     0.0000   112.0000 </r>
       <r>   -24.2329     0.0000   112.0000 </r>
       <r>   -23.9920     0.0000   112.0000 </r>
       <r>   -23.7511     0.0000   112.0000 </r>
       <r>   -23.5103     0.0000   112.0000 </r>
       <r>   -23.2694     0.0000   112.0000 </r>
       <r>   -23.0286     0.0000   112.0000 </r>
       <r>   -22.7877     0.0000   112.0000 </r>
       <r>   -22.5468     0.0000   112.0000 </r>
       <r>   -22.3060     0.0000   112.0000 </r>
       <r>   -22.0651     0.0000   112.0000 </r>
       <r>   -21.8243     0.0000   112.0000 </r>
       <r>   -21.5834     0.0000   112.0000 </r>
       <r>   -21.3425     0.0000   112.0000 </r>
       <r>   -21.1017     0.0000   112.0000 </r>
       <r>   -20.8608     0.0000   112.0000 </r>
       <r>   -20.6200     0.0000   112.0000 </r>
       <r>   -20.3791     0.0000   112.0000 </r>
       <r>   -20.1382     0.0000   112.0000 </r>
       <r>   -19.8974     0.0000   112.0000 </r>
       <r>   -19.6565     0.0000   112.0000 </r>
       <r>   -19.4157     0.0000   112.0000 </r>
       <r>   -19.1748     0.0000   112.0000 </r>
       <r>   -18.9339     0.0000   112.0000 </r>
       <r>   -18.6931     0.0000   112.0000 </r>
       <r>   -18.4522     0.0000   112.0000 </r>
       <r>   -18.2114     0.0000   112.0000 </r>
       <r>   -17.9705     0.0000   112.0000 </r>
       <r>   -17.7296     0.0000   112.0000 </r>
       <r>   -17.4888     0.0000   112.0000 </r>
       <r>   -17.2479     0.0000   112.0000 </r>
       <r>   -17.0071     0.0000   112.0000 </r>
       <r>   -16.7662     0.0000   112.0000 </r>
       <r>   -16.5253     0.0000   112.0000 </r>
       <r>   -16.2845     0.0000   112.0000 </r>
       <r>   -16.0436     0.0000   112.0000 </r>
       <r>   -15.8028     0.0000   112.0000 </r>
       <r>   -15.5619     0.0000   112.0000 </r>
       <r>   -15.3210     0.0000   112.0000 </r>
       <r>   -15.0802     0.0000   112.0000 </r>
       <r>   -14.8393     0.0000   112.0000 </r>
       <r>   -14.5985     0.0000   112.0000 </r>
       <r>   -14.3576     0.0000   112.0000 </r>
       <r>   -14.1168     0.0000   112.0000 </r>
       <r>   -13.8759     0.0000   112.0000 </r>
       <r>   -13.6350     0.0000   112.0000 </r>
       <r>   -13.3942     0.0000   112.0000 </r>
       <r>   -13.1533     0.0000   112.0000 </r>
       <r>   -12.9125     0.0150   112.0036 </r>
       <r>   -12.6716    44.2474   122.6610 </r>
       <r>   -12.4307    22.1663   128.0000 </r>
       <r>   -12.1899     0.0000   128.0000 </r>
       <r>   -11.9490     0.0000   128.0000 </r>
       <r>   -11.7082     0.0000   128.0000 </r>
       <r>   -11.4673     0.0000   128.0000 </r>
       <r>   -11.2264     0.0000   128.0000 </r>
       <r>   -10.9856     0.0000   128.0000 </r>
       <r>   -10.7447     0.0000   128.0000 </r>
       <r>   -10.5039     0.0000   128.0000 </r>
       <r>   -10.2630     0.0000   128.0000 </r>
       <r>   -10.0221     0.0000   128.0000 </r>
       <r>    -9.7813     0.0000   128.0000 </r>
       <r>    -9.5404     0.0000   128.0000 </r>
       <r>    -9.2996     0.0000   128.0000 </r>
       <r>    -9.0587     0.0000   128.0000 </r>
       <r>    -8.8178     0.0000   128.0000 </r>
       <r>    -8.5770     0.0000   128.0000 </r>
       <r>    -8.3361     0.0000   128.0000 </r>
       <r>    -8.0953     0.0000   128.0000 </r>
       <r>    -7.8544     0.0000   128.0000 </r>
       <r>    -7.6135     0.0000   128.0000 </r>
       <r>    -7.3727     0.6461   128.1556 </r>
       <r>    -7.1318    14.5680   131.6645 </r>
       <r>    -6.8910    29.3528   138.7344 </r>
       <r>    -6.6501    27.0148   145.2411 </r>
       <r>    -6.4092    28.0283   151.9920 </r>
       <r>    -6.1684     0.0331   152.0000 </r>
       <r>    -5.9275     0.0000   152.0000 </r>
       <r>    -5.6867     0.0000   152.0000 </r>
       <r>    -5.4458     0.0000   152.0000 </r>
       <r>    -5.2050     0.0000   152.0000 </r>
       <r>    -4.9641     0.0000   152.0000 </r>
       <r>    -4.7232     0.0000   152.0000 </r>
       <r>    -4.4824     0.0000   152.0000 </r>
       <r>    -4.2415     0.0000   152.0000 </r>
       <r>    -4.0007     0.0000   152.0000 </r>
       <r>    -3.7598     0.0000   152.0000 </r>
       <r>    -3.5189     0.0000   152.0000 </r>
       <r>    -3.2781     0.0000   152.0000 </r>
       <r>    -3.0372     0.0000   152.0000 </r>
       <r>    -2.7964     0.0000   152.0000 </r>
       <r>    -2.5555     0.0000   152.0000 </r>
       <r>    -2.3146     0.0000   152.0000 </r>
       <r>    -2.0738     0.0000   152.0000 </r>
       <r>    -1.8329     0.0000   152.0000 </r>
       <r>    -1.5921     0.0000   152.0000 </r>
       <r>    -1.3512     0.0000   152.0000 </r>
       <r>    -1.1103     0.0000   152.0000 </r>
       <r>    -0.8695     0.0000   152.0000 </r>
       <r>    -0.6286     0.0000   152.0000 </r>
       <r>    -0.3878     4.7935   153.1546 </r>
       <r>    -0.1469    20.2747   158.0379 </r>
       <r>     0.0940    12.2880   160.9976 </r>
       <r>     0.3348    18.9163   165.5538 </r>
       <r>     0.5757    29.7345   172.7156 </r>
       <r>     0.8165    39.5053   182.2308 </r>
       <r>     1.0574    37.2687   191.2074 </r>
       <r>     1.2983    30.6254   198.5838 </r>
       <r>     1.5391    20.9030   203.6184 </r>
       <r>     1.7800    28.7216   210.5363 </r>
       <r>     2.0208    37.5484   219.5802 </r>
       <r>     2.2617    26.7668   226.0272 </r>
       <r>     2.5026    27.1380   232.5637 </r>
       <r>     2.7434    31.6663   240.1908 </r>
       <r>     2.9843    44.7641   250.9727 </r>
       <r>     3.2251    45.3833   261.9037 </r>
       <r>     3.4660    30.9335   269.3543 </r>
       <r>     3.7069    11.9935   272.2430 </r>
       <r>     3.9477    18.7601   276.7616 </r>
       <r>     4.1886    51.8491   289.2499 </r>
       <r>     4.4294    45.5797   300.2282 </r>
       <r>     4.6703    15.6574   303.9995 </r>
       <r>     4.9111     0.0022   304.0000 </r>
       <r>     5.1520     0.0000   304.0000 </r>
       <r>     5.3929     0.0000   304.0000 </r>
       <r>     5.6337     0.0000   304.0000 </r>
       <r>     5.8746     0.0000   304.0000 </r>
       <r>     6.1154     0.0000   304.0000 </r>
       <r>     6.3563     0.4585   304.1104 </r>
       <r>     6.5972     4.2206   305.1270 </r>
       <r>     6.8380     8.0932   307.0763 </r>
       <r>     7.0789    20.2121   311.9446 </r>
       <r>     7.3197    44.7803   322.7304 </r>
       <r>     7.5606    54.1258   335.7671 </r>
       <r>     7.8015    62.8697   350.9098 </r>
       <r>     8.0423    66.3926   366.9011 </r>
       <r>     8.2832    70.5994   383.9057 </r>
       <r>     8.5240    58.3714   397.9650 </r>
       <r>     8.7649    58.8758   412.1457 </r>
       <r>     9.0058    46.7124   423.3969 </r>
       <r>     9.2466    28.9410   430.3676 </r>
       <r>     9.4875     8.5079   432.4168 </r>
       <r>     9.7283     3.2302   433.1948 </r>
       <r>     9.9692     8.5218   435.2474 </r>
       <r>    10.2101    18.9002   439.7997 </r>
       <r>    10.4509    17.9758   444.1293 </r>
       <r>    10.6918    17.4144   448.3237 </r>
       <r>    10.9326    27.4754   454.9415 </r>
       <r>    11.1735    18.9615   459.5085 </r>
       <r>    11.4144    24.1054   465.3146 </r>
       <r>    11.6552    14.3238   468.7646 </r>
       <r>    11.8961    13.9402   472.1222 </r>
       <r>    12.1369    16.4387   476.0816 </r>
       <r>    12.3778    37.4240   485.0955 </r>
       <r>    12.6187    32.3994   492.8993 </r>
       <r>    12.8595    29.1616   499.9231 </r>
       <r>    13.1004    20.1836   504.7845 </r>
       <r>    13.3412    22.6266   510.2343 </r>
       <r>    13.5821    27.3019   516.8103 </r>
       <r>    13.8230    23.7296   522.5258 </r>
       <r>    14.0638    26.0935   528.8107 </r>
       <r>    14.3047    19.0143   533.3904 </r>
       <r>    14.5455    16.3350   537.3249 </r>
       <r>    14.7864     2.8030   538.0000 </r>
       <r>    15.0272     0.0000   538.0000 </r>
       <r>    15.2681     0.0000   538.0000 </r>
       <r>    15.5090     0.0000   538.0000 </r>
       <r>    15.7498     0.0000   538.0000 </r>
       <r>    15.9907     0.0000   538.0000 </r>
       <r>    16.2315     0.0000   538.0000 </r>
       <r>    16.4724     0.0000   538.0000 </r>
       <r>    16.7133     0.0000   538.0000 </r>
       <r>    16.9541     0.0000   538.0000 </r>
       <r>    17.1950     0.0000   538.0000 </r>
       <r>    17.4358     0.0000   538.0000 </r>
       <r>    17.6767     0.0000   538.0000 </r>
       <r>    17.9176     0.0000   538.0000 </r>
      </set>
     </set>
    </array>
   </total>
  </dos>
 </calculation>
 <structure name="finalpos" >
  <crystal>
   <varray name="basis" >
    <v>      11.11223374       0.00000000      -0.00029034 </v>
    <v>       0.00000000      11.11745194       0.00000000 </v>
    <v>      -2.77510898       0.00000000      10.19872221 </v>
   </varray>
   <i name="volume">   1259.93837498 </i>
   <varray name="rec_basis" >
    <v>       0.08999155       0.00000000       0.02448702 </v>
    <v>       0.00000000       0.08994867       0.00000000 </v>
    <v>       0.00000256       0.00000000       0.09805220 </v>
   </varray>
  </crystal>
  <varray name="positions" >
   <v>       0.28894969       0.46933910       0.15583616 </v>
   <v>       0.78894969       0.46933910       0.15583616 </v>
   <v>       0.28894969       0.96933910       0.15583616 </v>
   <v>       0.78894969       0.96933910       0.15583616 </v>
   <v>       0.04646972       0.21934976       0.18586770 </v>
   <v>       0.54646972       0.21934976       0.18586770 </v>
   <v>       0.04646972       0.71934976       0.18586770 </v>
   <v>       0.54646972       0.71934976       0.18586770 </v>
   <v>       0.45353028       0.46934976       0.81413230 </v>
   <v>       0.95353028       0.46934976       0.81413230 </v>
   <v>       0.45353028       0.96934976       0.81413230 </v>
   <v>       0.95353028       0.96934976       0.81413230 </v>
   <v>       0.21105031       0.21933910       0.84416384 </v>
   <v>       0.71105031       0.21933910       0.84416384 </v>
   <v>       0.21105031       0.71933910       0.84416384 </v>
   <v>       0.71105031       0.71933910       0.84416384 </v>
   <v>       0.07654971       0.09530995       0.80250593 </v>
   <v>       0.57654971       0.09530995       0.80250593 </v>
   <v>       0.07654971       0.59530995       0.80250593 </v>
   <v>       0.57654971       0.59530995       0.80250593 </v>
   <v>       0.32470466       0.34338175       0.80250383 </v>
   <v>       0.82470466       0.34338175       0.80250383 </v>
   <v>       0.32470466       0.84338175       0.80250383 </v>
   <v>       0.82470466       0.84338175       0.80250383 </v>
   <v>       0.17529534       0.09338175       0.19749617 </v>
   <v>       0.67529534       0.09338175       0.19749617 </v>
   <v>       0.17529534       0.59338175       0.19749617 </v>
   <v>       0.67529534       0.59338175       0.19749617 </v>
   <v>       0.42345029       0.34530995       0.19749407 </v>
   <v>       0.92345029       0.34530995       0.19749407 </v>
   <v>       0.42345029       0.84530995       0.19749407 </v>
   <v>       0.92345029       0.84530995       0.19749407 </v>
   <v>       0.21868463       0.34523395       0.37102476 </v>
   <v>       0.71868463       0.34523395       0.37102476 </v>
   <v>       0.21868463       0.84523395       0.37102476 </v>
   <v>       0.71868463       0.84523395       0.37102476 </v>
   <v>       0.46681660       0.09344897       0.37102399 </v>
   <v>       0.96681660       0.09344897       0.37102399 </v>
   <v>       0.46681660       0.59344897       0.37102399 </v>
   <v>       0.96681660       0.59344897       0.37102399 </v>
   <v>       0.03318340       0.34344897       0.62897601 </v>
   <v>       0.53318340       0.34344897       0.62897601 </v>
   <v>       0.03318340       0.84344897       0.62897601 </v>
   <v>       0.53318340       0.84344897       0.62897601 </v>
   <v>       0.28131537       0.09523395       0.62897524 </v>
   <v>       0.78131537       0.09523395       0.62897524 </v>
   <v>       0.28131537       0.59523395       0.62897524 </v>
   <v>       0.78131537       0.59523395       0.62897524 </v>
   <v>       0.12439279       0.34434306       0.00000412 </v>
   <v>       0.62439279       0.34434306       0.00000412 </v>
   <v>       0.12439279       0.84434306       0.00000412 </v>
   <v>       0.62439279       0.84434306       0.00000412 </v>
   <v>       0.37560721       0.09434306       0.99999588 </v>
   <v>       0.87560721       0.09434306       0.99999588 </v>
   <v>       0.37560721       0.59434306       0.99999588 </v>
   <v>       0.87560721       0.59434306       0.99999588 </v>
   <v>       0.03824426       0.10724748       0.60632306 </v>
   <v>       0.53824426       0.10634799       0.60632306 </v>
   <v>       0.03824426       0.60634799       0.60632306 </v>
   <v>       0.53824426       0.60634799       0.60632306 </v>
   <v>       0.26492712       0.33232651       0.60632763 </v>
   <v>       0.76492712       0.33232651       0.60632763 </v>
   <v>       0.26492712       0.83232651       0.60632763 </v>
   <v>       0.76492712       0.83232651       0.60632763 </v>
   <v>       0.23507288       0.08232651       0.39367237 </v>
   <v>       0.73507288       0.08232651       0.39367237 </v>
   <v>       0.23507288       0.58232651       0.39367237 </v>
   <v>       0.73507288       0.58232651       0.39367237 </v>
   <v>       0.46175574       0.35634799       0.39367694 </v>
   <v>       0.96175574       0.35634799       0.39367694 </v>
   <v>       0.46175574       0.85634799       0.39367694 </v>
   <v>       0.96175574       0.85634799       0.39367694 </v>
   <v>       0.03848398       0.46936404       0.15397331 </v>
   <v>       0.53848398       0.46936404       0.15397331 </v>
   <v>       0.03848398       0.96936404       0.15397331 </v>
   <v>       0.53848398       0.96936404       0.15397331 </v>
   <v>       0.28861657       0.21935690       0.15447525 </v>
   <v>       0.78861657       0.21935690       0.15447525 </v>
   <v>       0.28861657       0.71935690       0.15447525 </v>
   <v>       0.78861657       0.71935690       0.15447525 </v>
   <v>       0.21138343       0.46935690       0.84552475 </v>
   <v>       0.71138343       0.46935690       0.84552475 </v>
   <v>       0.21138343       0.96935690       0.84552475 </v>
   <v>       0.71138343       0.96935690       0.84552475 </v>
   <v>       0.46151602       0.21936404       0.84602669 </v>
   <v>       0.96151602       0.21936404       0.84602669 </v>
   <v>       0.46151602       0.71936404       0.84602669 </v>
   <v>       0.96151602       0.71936404       0.84602669 </v>
  </varray>
 </structure>
</modeling>
