# epsilon and Z* of atoms 1 2 5 6 9 10 13 14 17 18 21 22 25 26
   6.99080023    0.02797522   -0.00111594    0.02797530    6.99081981   -0.00111642   -0.00111281   -0.00111320    5.94194669 
   0.93293246    0.00191058    0.00036322    0.00402123    1.19987681    0.00006671    0.00040547    0.00011661    1.43394189 
   0.93250035    0.00227568    0.00036827    0.00404536    1.20019947    0.00019114    0.00041387    0.00019423    1.43416339 
   1.20019723    0.00413904    0.00019099    0.00236938    0.93250260    0.00036838    0.00019409    0.00041394    1.43416339 
   1.19987471    0.00411465    0.00006656    0.00200401    0.93293456    0.00036329    0.00011647    0.00040551    1.43394189 
  -2.16131680    0.08120373   -0.00131041   -0.10074680   -2.00476438   -0.00111680   -0.00113494   -0.00143980   -3.63362184 
  -2.00475756   -0.10069171   -0.00111618    0.08125875   -2.16132362   -0.00131093   -0.00143940   -0.00113544   -3.63362184 
  -2.70489424   -0.01462292    0.00069309    0.00456715   -2.83762418    0.00087696    0.00078766    0.00120315   -1.82672514 
  -2.83756955    0.00451459    0.00093983   -0.01467281   -2.70505751    0.00071142    0.00072323    0.00058912   -1.82675468 
  -2.70505397   -0.01462639    0.00071101    0.00456098   -2.83757309    0.00094017    0.00058886    0.00072344   -1.82675468 
  -2.83762064    0.00452068    0.00087663   -0.01466942   -2.70489778    0.00069347    0.00120288    0.00078808   -1.82672514 
   2.81781852    0.03357157   -0.00065754   -0.02013484    2.67500853   -0.00070784   -0.00061693   -0.00089493    2.20948056 
   2.67500489   -0.01992339    0.00009561    0.03374877    2.81788564   -0.00051352    0.00004780   -0.00039432    2.20951582 
   2.81788078    0.03379868   -0.00051350   -0.01987344    2.67500974    0.00009539   -0.00039434    0.00004766    2.20951582 
   2.67500384   -0.02018477   -0.00070757    0.03352168    2.81782320   -0.00065784   -0.00089472   -0.00061725    2.20948056 