224  
42   

1    
  0.0099999964585308   0.0000016957394929  -0.0000082434118055
  -0.0708199800    0.0000601400    0.0001734300
   0.0001901800   -0.0002170500    0.0001387600
  -0.0000092200   -0.0002125200    0.0001062300
   0.0000411200   -0.0002042700    0.0001100100
  -0.0000721100   -0.0000527900    0.0000135100
   0.0000769800   -0.0002194200    0.0001908200
   0.0000251200   -0.0001992900    0.0001394600
  -0.0000088100   -0.0001664300    0.0001938600
   0.0000322000    0.0003179100   -0.0001310300
   0.0000339700    0.0003174100   -0.0000990700
   0.0014958100    0.0001555000   -0.0000809900
   0.0014923800    0.0004711700   -0.0001315300
   0.0000348300    0.0002816900   -0.0001394800
   0.0000126400    0.0002784600   -0.0001256800
   0.0000139400    0.0002533100   -0.0001370500
  -0.0000115800    0.0002310600   -0.0000670000
  -0.0003098800    0.0003344900   -0.0001210800
   0.0001339500    0.0003255000   -0.0000655900
  -0.0000612600    0.0002834600   -0.0001271800
   0.0001382200    0.0002993800   -0.0001149700
  -0.0000310900    0.0002257000   -0.0001241700
   0.0000421900    0.0002956100   -0.0000543500
  -0.0000255500    0.0002333200   -0.0001855300
   0.0000451200    0.0002975000   -0.0000454600
   0.0000082200   -0.0000137500    0.0001339800
   0.0000179800   -0.0003671700    0.0001017900
   0.0000131200   -0.0004427300    0.0001368800
   0.0000279200   -0.0000140200    0.0001034400
  -0.0000353000   -0.0000999200    0.0001315600
   0.0000419100   -0.0001970700    0.0001098000
   0.0000419600   -0.0002287300    0.0000621000
  -0.0000214600   -0.0001023900    0.0001568200
  -0.0004717200    0.0000544300    0.0001004400
  -0.0002310700   -0.0000369400    0.0001205000
  -0.0003102200   -0.0000244200    0.0000582500
  -0.0002743400    0.0000492600    0.0001384400
   0.0033232100    0.0043572000    0.0001090500
  -0.0000255300   -0.0000437300    0.0001024100
  -0.0003084300   -0.0000378000    0.0000865300
  -0.0002414600    0.0000614000    0.0000744300
   0.0003049200    0.0000004700   -0.0000732100
   0.0002148900    0.0000174600   -0.0001451200
   0.0002361000   -0.0000171400   -0.0001082600
   0.0001592500   -0.0000031500   -0.0001313900
   0.0004270600    0.0000379500   -0.0000588800
   0.0037343700   -0.0043122100   -0.0001442100
   0.0002035300   -0.0000635600   -0.0001027400
   0.0001537700    0.0000082200   -0.0001184800
   0.0001711200   -0.0000030800   -0.0001090900
   0.0002374700   -0.0000048500   -0.0001235500
   0.0002236800   -0.0000164400   -0.0002358000
   0.0002810300    0.0000057700   -0.0000515800
   0.0001324700    0.0000437800   -0.0001577900
   0.0002256500   -0.0000628600   -0.0001109400
   0.0014298600   -0.0043292100   -0.0001230000
   0.0003926300    0.0000220000   -0.0001434900
  -0.0003151300   -0.0000394700    0.0001340000
  -0.0002913400    0.0000530700    0.0001435900
  -0.0004607000    0.0000470000    0.0000726700
  -0.0002216800   -0.0000398500    0.0001312800
  -0.0002983600   -0.0000240200    0.0001032400
  -0.0002456100    0.0000606100    0.0001246300
   0.0009741600    0.0043166200    0.0001102000
  -0.0000525100   -0.0000149800    0.0001406100
  -0.0000623100    0.0001588800    0.0000058700
  -0.0003164000    0.0003320800   -0.0001818400
  -0.0001390200    0.0002656700    0.0000322000
  -0.0002059100    0.0002366200   -0.0000215600
   0.0200448700   -0.0017896400    0.0000512100
  -0.0005959700    0.0002663700   -0.0001116600
  -0.0001284000    0.0002624300   -0.0002115100
  -0.0001473000    0.0002644900   -0.0000694200
  -0.0006717800    0.0000964700    0.0003114600
   0.0183460500    0.0018919100   -0.0000696400
  -0.0003352200    0.0001133800   -0.0000009800
  -0.0001961900    0.0001517400    0.0000917700
  -0.0003412800    0.0001775300   -0.0003017600
  -0.0002503300    0.0001326600    0.0003506500
  -0.0003226800    0.0001104100    0.0001766000
  -0.0001895700    0.0001184000    0.0000611600
  -0.0000912100   -0.0002202700   -0.0000527600
  -0.0004849400    0.0002749500   -0.0000143200
  -0.0001274100    0.0003559300   -0.0000247400
  -0.0004070600   -0.0000648500   -0.0002064100
  -0.0001587200    0.0002212300    0.0000827800
  -0.0003441300    0.0001212900    0.0000022300
  -0.0002733500    0.0001340500   -0.0000968900
  -0.0003327300    0.0000865600   -0.0001500500
  -0.0002065300    0.0002282300   -0.0002527600
  -0.0002419500    0.0003551700    0.0004476600
  -0.0002599500    0.0002311300    0.0000385800
  -0.0000546300    0.0001866700   -0.0000665300
  -0.0003762000    0.0001971400    0.0002766500
   0.0000594100    0.0008201500   -0.0000747500
  -0.0003985800    0.0003296500    0.0000665600
   0.0000574600   -0.0002177900    0.0000293000
   0.0027626600   -0.0000000500   -0.0001626500
  -0.0004989000    0.0000594300   -0.0000615000
  -0.0000867300   -0.0000024900   -0.0000830500
  -0.0002221200   -0.0000175600   -0.0001498400
   0.0000884800    0.0002022400   -0.0001808200
  -0.0001232100    0.0001544400   -0.0003722800
   0.0000870000   -0.0001784800   -0.0002027200
  -0.0002056900   -0.0001703600   -0.0002276100
  -0.0006229200   -0.0007169300   -0.0007881600
  -0.0006922200    0.0008857000    0.0005390800
   0.0000042900    0.0001850200   -0.0002280000
   0.0001580000   -0.0000994600   -0.0000992100
  -0.0001550400    0.0000180700   -0.0001565800
   0.0002659700    0.0000254400    0.0001011600
  -0.0001251900    0.0000297600   -0.0000577300
   0.0001685700   -0.0000325400   -0.0000411300
  -0.0000602400    0.0001178300   -0.0000975200
  -0.0002157300   -0.0000148000   -0.0000987500
   0.0022329800   -0.0000327500   -0.0000985200
  -0.0004642700    0.0000643900   -0.0001110100
  -0.0000507300    0.0000956800   -0.0000470800
  -0.0000582800    0.0000983600   -0.0001968300
   0.0000092100    0.0000401800    0.0003607900
  -0.0001850200    0.0000208900   -0.0003310100
   0.0000527000   -0.0001507600   -0.0002303500
   0.0000722500    0.0001619600   -0.0000360600
  -0.0006886000    0.0007873800   -0.0007424500
  -0.0006250200   -0.0008618800    0.0005241500
  -0.0001053300    0.0000902000   -0.0001429200
   0.0000547800    0.0000005100   -0.0000964100
  -0.0001294000   -0.0000337300   -0.0002061300
   0.0000692400    0.0000447100   -0.0006635700
   0.0001460300    0.0000167000    0.0007421000
  -0.0002487600    0.0000594300   -0.0000353200
   0.0000287300    0.0000363100    0.0000901200
  -0.0000444400   -0.0000003700    0.0001298400
   0.0026900700    0.0000785600    0.0000576900
  -0.0002633300    0.0000617700    0.0001791400
   0.0000378400   -0.0000167900    0.0000624500
  -0.0001327100    0.0000463600    0.0000489800
   0.0002013400   -0.0000135500   -0.0004023500
  -0.0002667100    0.0000683800    0.0003931900
  -0.0001096200    0.0000796300    0.0002294600
   0.0000442600    0.0000045800    0.0002009400
  -0.0007638900   -0.0006451200    0.0009532700
  -0.0006324700    0.0008473000   -0.0006554100
  -0.0000450200    0.0000824700    0.0001054500
   0.0000568200   -0.0000188800    0.0000727500
   0.0002884000    0.0001178700    0.0000430100
  -0.0001070800   -0.0001007000   -0.0000806500
   0.0002688900   -0.0000614700    0.0000660800
  -0.0001726700    0.0002034700   -0.0000559700
   0.0000670000    0.0001014400    0.0000351200
  -0.0000905200    0.0001118200    0.0001663900
   0.0022253500   -0.0000227100    0.0001270200
  -0.0002054500   -0.0000525300    0.0001080200
   0.0002007400    0.0001543600    0.0003343300
  -0.0002230800    0.0002329500    0.0003449500
   0.0000702200    0.0000046800    0.0002202200
  -0.0001726600   -0.0001340200    0.0002957300
  -0.0001083000    0.0000468200    0.0001726400
   0.0000600400    0.0001510500    0.0000605500
  -0.0007739200    0.0006875400    0.0009056500
  -0.0007233300   -0.0008202600   -0.0006076300
   0.0037993000    0.0004722500   -0.0094901500
   0.0005987300   -0.0001447200    0.0002901300
   0.0001316100   -0.0001258400    0.0001512800
   0.0002686500   -0.0001827900    0.0001036900
   0.0002181800   -0.0001037100    0.0000195900
   0.0004645700   -0.0001951500    0.0001132700
   0.0001557000   -0.0002232400    0.0001916400
   0.0003188100   -0.0001519100    0.0000642900
   0.0039312800   -0.0007616500    0.0098964000
   0.0005768700   -0.0000228000    0.0000731300
   0.0000585100    0.0000091300    0.0002240100
   0.0003718000   -0.0000419500    0.0002552600
   0.0001230800    0.0000964100   -0.0002791600
   0.0003213200   -0.0000682100    0.0006528000
   0.0001165700   -0.0000907700    0.0002079900
   0.0002476400    0.0000088200    0.0003666600
  -0.0002641400    0.0001498900   -0.0000499800
   0.0006072400    0.0002390000    0.0003309900
  -0.0001879100   -0.0001226500    0.0000931600
   0.0005646300   -0.0003045400    0.0003322300
   0.0002274100   -0.0000059600    0.0001815800
   0.0003774800    0.0000672800    0.0002834700
   0.0000577400   -0.0000803900    0.0002053400
   0.0004974500   -0.0000978500    0.0001553000
  -0.0002880900   -0.0001287500    0.0004802600
   0.0004857300   -0.0003372000    0.0000824400
  -0.0002748700   -0.0002594200    0.0003301500
   0.0005280400    0.0000232700    0.0001104100
   0.0000127700   -0.0000537600    0.0000071600
   0.0002684400   -0.0001658900    0.0002008900
   0.0001524500   -0.0003480800   -0.0004027700
   0.0001970900   -0.0001642600    0.0005328800
   0.0001244400   -0.0001817300   -0.0001580600
   0.0001262200   -0.0001894100   -0.0002349500
  -0.0000878600   -0.0002965400   -0.0003174100
   0.0001343900   -0.0002465900   -0.0001352100
  -0.0005820900   -0.0001035800   -0.0006669700
   0.0004412900   -0.0004366700   -0.0001667400
  -0.0004777100   -0.0004281200   -0.0004884900
   0.0003817600   -0.0000338400   -0.0002214600
   0.0002415400   -0.0001269700    0.0003284300
   0.0001339500   -0.0001969500   -0.0004412000
   0.0001706300   -0.0001841800   -0.0000002300
   0.0001800000   -0.0002414900   -0.0001627000
   0.0004849400    0.0001879100   -0.0001129200
  -0.0003128300   -0.0000831700    0.0000971600
   0.0005510300   -0.0005756500   -0.0001938300
  -0.0002749600   -0.0002622900   -0.0000263000
   0.0000886500   -0.0001349500   -0.0001196200
   0.0002943400   -0.0002276400   -0.0001118800
   0.0000566100   -0.0002335500   -0.0001573200
   0.0003034800   -0.0001958500    0.0000163500
   0.0000279200   -0.0001673100   -0.0001533400
   0.0002655000   -0.0001206100   -0.0000837800
   0.0037287000   -0.0009218700   -0.0097399600
   0.0006324500   -0.0002363600    0.0000773400
  -0.0000039200   -0.0002576700   -0.0001458500
  -0.0000039000   -0.0001724000   -0.0003385400
   0.0000853300   -0.0002808200    0.0001660500
   0.0000082700   -0.0002541000   -0.0006307300
   0.0000192700   -0.0001863800   -0.0002676700
   0.0000205000   -0.0002213600   -0.0003507300
   0.0004866500   -0.0002674100   -0.0003313700
   0.0035994100    0.0005012700    0.0092524100

1    
 -0.0099999964585308  -0.0000016957394929   0.0000082434118055
   0.0704411800    0.0000712200   -0.0000538700
  -0.0001575700   -0.0002063500    0.0001244400
   0.0000428700   -0.0002058700    0.0001025900
   0.0000211300   -0.0002134600    0.0001328100
   0.0000823800   -0.0003678200    0.0002129900
  -0.0000491100   -0.0001891900    0.0000259100
  -0.0000002700   -0.0002294100    0.0001414200
   0.0000075700   -0.0002591200    0.0000640900
   0.0000179800    0.0003178200   -0.0001142100
   0.0000198500    0.0003115000   -0.0001004700
  -0.0014615500    0.0004803300   -0.0000816300
  -0.0014633800    0.0001505200   -0.0001347900
   0.0000149000    0.0003442900   -0.0001111200
   0.0000260200    0.0003379200   -0.0000796600
   0.0000230900    0.0003703900   -0.0001385900
   0.0000002900    0.0003981700   -0.0001131000
   0.0003531100    0.0003441600   -0.0001200800
  -0.0000952000    0.0003332200   -0.0000806100
   0.0001240200    0.0002749900   -0.0001343200
  -0.0000891500    0.0002882600   -0.0001057300
   0.0000273800    0.0004422000    0.0000081300
  -0.0000063200    0.0003330500   -0.0001810100
   0.0000474400    0.0003643400   -0.0000860300
  -0.0000243800    0.0003210800   -0.0001847700
   0.0000082300   -0.0003552400    0.0001260300
   0.0000050300   -0.0000040200    0.0000959100
  -0.0000049000   -0.0000188200    0.0001409700
   0.0000376200   -0.0004585500    0.0001016100
   0.0000532800   -0.0002885800    0.0001222600
  -0.0000311100   -0.0001968800    0.0002273200
  -0.0000310500   -0.0002135900    0.0001284700
   0.0000658500   -0.0003302900    0.0000736500
  -0.0000976200   -0.0000238400    0.0000867900
  -0.0002823600    0.0000514200    0.0001532700
  -0.0002621000    0.0000507200    0.0000973900
  -0.0002288000   -0.0000328300    0.0001044300
  -0.0038320200   -0.0042968600    0.0001240700
  -0.0005085600    0.0000482600    0.0000937300
  -0.0002584200    0.0000327000    0.0000816400
  -0.0002827500   -0.0000557000    0.0000917900
   0.0000794900    0.0000069200   -0.0002311800
   0.0001049100    0.0000186700    0.0000029800
   0.0001416300   -0.0000158100   -0.0001364000
   0.0001794600   -0.0000111600   -0.0001177900
  -0.0000546000   -0.0000438100   -0.0000688500
  -0.0034262000    0.0043447600   -0.0001501000
   0.0001482100    0.0000361700   -0.0000760700
   0.0002092000   -0.0000508800   -0.0001379400
   0.0001564900    0.0000056000   -0.0000943100
   0.0001416600   -0.0000061600   -0.0001416400
   0.0001222600   -0.0000220500   -0.0000523800
   0.0000802000    0.0000065500   -0.0002122800
   0.0002024400   -0.0000415500   -0.0001581800
   0.0001598800    0.0000395600   -0.0001051700
  -0.0010857300    0.0043160300   -0.0001283700
  -0.0000214300   -0.0000315700   -0.0001433900
  -0.0002382300    0.0000515800    0.0001630800
  -0.0002261400   -0.0000228900    0.0000883100
  -0.0001091600   -0.0000316800    0.0001536600
  -0.0002922100    0.0000253200    0.0000532900
  -0.0002304700    0.0000614700    0.0000931600
  -0.0003016500   -0.0000441200    0.0001359900
  -0.0015240500   -0.0043463200    0.0001094400
  -0.0004786500    0.0000492400    0.0001412200
  -0.0003042200    0.0003075500   -0.0003196600
  -0.0000444900    0.0001901500    0.0001560900
  -0.0003184600    0.0002392100   -0.0000648800
  -0.0000231800    0.0002559200   -0.0000281400
  -0.0189298700    0.0020863300    0.0000442500
   0.0003188000    0.0002191500   -0.0001383900
  -0.0002659600    0.0002485500   -0.0002488500
  -0.0000067400    0.0002521300    0.0000731400
   0.0002056400    0.0001328900    0.0002872300
  -0.0205468900   -0.0019564900   -0.0000792700
  -0.0001972600    0.0001199800    0.0002225000
  -0.0003243700    0.0001090700   -0.0000567500
  -0.0000497300    0.0000940200    0.0000237200
  -0.0004778900    0.0002213600   -0.0000816000
  -0.0001587400    0.0000918600   -0.0001003200
  -0.0004167000    0.0001320500    0.0000832200
  -0.0005128800    0.0007268600   -0.0001127500
  -0.0000328300    0.0000719900   -0.0000318900
  -0.0004572300   -0.0003692600   -0.0000928500
  -0.0000132500    0.0001670700   -0.0000890400
  -0.0004935400    0.0002021700    0.0001855300
  -0.0001674500    0.0001866000    0.0001868300
  -0.0003756200    0.0000156400   -0.0004191500
  -0.0000834400    0.0001571000    0.0001547900
   0.0000325400    0.0003512200    0.0000968500
  -0.0003128300    0.0002921600    0.0002572000
  -0.0000176700    0.0001998500   -0.0000371800
  -0.0004212800    0.0001610000   -0.0000845200
   0.0000368700    0.0005120400    0.0002381000
  -0.0003181500   -0.0000434800   -0.0001389900
   0.0000045000   -0.0000033100    0.0001675600
  -0.0002831700    0.0004362000   -0.0001039200
  -0.0028159000    0.0000238600   -0.0002001900
   0.0002235000    0.0001028400   -0.0000685700
  -0.0001797200   -0.0000659800   -0.0001773600
   0.0001099300   -0.0000757500   -0.0000214500
  -0.0005036700    0.0001360900    0.0000529800
   0.0003124300   -0.0000420400    0.0000458000
  -0.0004120100   -0.0001734400   -0.0000786400
   0.0002466400    0.0000931600    0.0000336000
   0.0006920100    0.0008755100    0.0006571900
   0.0006602000   -0.0006386500   -0.0009379200
   0.0000211200   -0.0000647800   -0.0001181000
  -0.0000830400    0.0000308000   -0.0001447200
   0.0000534800    0.0003005300   -0.0003074900
  -0.0002275000    0.0002701100   -0.0002572000
   0.0001369700   -0.0001778800   -0.0003882400
  -0.0001959900   -0.0000481400   -0.0002214000
  -0.0001305700    0.0001005300   -0.0001480700
   0.0001246800    0.0001020300   -0.0000029300
  -0.0023027300    0.0000230400   -0.0001596800
   0.0002633300   -0.0000378400   -0.0000496300
  -0.0002537800    0.0000105300   -0.0000336900
   0.0001914100    0.0000662900   -0.0001138500
  -0.0003782100    0.0000630400   -0.0007408200
   0.0003418900   -0.0000153100   -0.0000538300
  -0.0000111100    0.0000925700   -0.0000560100
  -0.0001058500    0.0000147900   -0.0001154100
   0.0006686800   -0.0008053300    0.0006271200
   0.0006324000    0.0006924300   -0.0008556900
  -0.0001295500    0.0000214200   -0.0002243800
   0.0000392100   -0.0000355000   -0.0000966900
   0.0001943200   -0.0000396900   -0.0004371900
  -0.0002014500   -0.0000299000    0.0003969800
  -0.0002098300   -0.0000057000   -0.0003678600
   0.0001889800    0.0000181000    0.0003299300
  -0.0001593900   -0.0000003900    0.0000751600
   0.0001059400    0.0000031800    0.0001415400
  -0.0029010900    0.0001142400    0.0000583000
   0.0004608900    0.0000964800    0.0002442000
  -0.0001205700   -0.0000699700   -0.0000087900
   0.0002246100    0.0000353200    0.0001908900
  -0.0000624000    0.0000675900    0.0006281800
   0.0001088000    0.0000134300    0.0002275200
  -0.0000421600   -0.0000029200    0.0001231500
   0.0000225700    0.0000231100    0.0001334800
   0.0004983100    0.0009537700   -0.0004952400
   0.0007812000   -0.0006813600    0.0007848700
  -0.0002361700   -0.0001194000    0.0000996300
   0.0000614400    0.0001185100    0.0001093300
  -0.0002974700    0.0003025200    0.0003660700
   0.0002140100    0.0002630700    0.0002791400
  -0.0002531100   -0.0000736400    0.0001253300
   0.0002635400   -0.0001173800    0.0003032900
  -0.0000424200    0.0001198700   -0.0000632000
   0.0002783300    0.0000824300    0.0002432100
  -0.0023486400   -0.0000223400    0.0000512400
   0.0005298500   -0.0000453600    0.0001656900
  -0.0002566800    0.0000483900   -0.0000388300
   0.0000533800    0.0000890300    0.0000898800
  -0.0002006900   -0.0000090300    0.0000035800
   0.0000402000    0.0000465800    0.0001109600
  -0.0003201600    0.0002004800    0.0000580500
   0.0000396500   -0.0000174600    0.0000916900
   0.0004726200   -0.0008738900   -0.0004634300
   0.0006739000    0.0007543800    0.0007219600
  -0.0034315400   -0.0009107100    0.0097355300
  -0.0002165200   -0.0001571900   -0.0000750800
   0.0002271400   -0.0001658400    0.0001815500
   0.0001682100   -0.0001741700    0.0001202200
  -0.0000024000   -0.0001059300    0.0002146500
   0.0001842300   -0.0001413500   -0.0000759800
   0.0002001700   -0.0002458100    0.0002198600
   0.0002071400   -0.0001724100    0.0000506300
  -0.0033521900    0.0006602300   -0.0093004000
  -0.0001923100   -0.0000382800    0.0003711500
   0.0002375400   -0.0000258900    0.0002623100
   0.0001958800   -0.0000565400    0.0003568900
   0.0001570300    0.0000096200    0.0005612500
   0.0003386400    0.0000858000   -0.0001816000
   0.0000630800   -0.0000819700    0.0003335100
   0.0003919400   -0.0000584500    0.0002659100
   0.0007261500    0.0001472800    0.0006131600
  -0.0000644100   -0.0001851400    0.0002666500
   0.0006182600   -0.0001889800    0.0004691600
  -0.0000624900    0.0001202700    0.0002451500
   0.0002431800    0.0000832800    0.0003986400
   0.0002372700    0.0000183600    0.0001128500
   0.0002337900   -0.0001430200    0.0002313600
   0.0002545700   -0.0000794600    0.0001135100
   0.0007023200   -0.0000305300   -0.0001536000
  -0.0001645300    0.0003034400    0.0002066300
   0.0005971700   -0.0002535500   -0.0000352500
  -0.0001542500   -0.0005830200    0.0002109900
   0.0000695200   -0.0000630100    0.0001799500
   0.0003988400   -0.0001279200    0.0000831100
   0.0000713800   -0.0002447500    0.0003827700
   0.0002406100   -0.0003090500   -0.0002674200
  -0.0000569400   -0.0001667300   -0.0002079800
  -0.0001651600   -0.0001196100   -0.0001904500
  -0.0000139300   -0.0003091600   -0.0001284400
  -0.0000353400   -0.0003287200   -0.0003964800
   0.0003880300    0.0000245100    0.0000199000
  -0.0001810000    0.0001452200   -0.0002986900
   0.0003012000   -0.0004299000   -0.0001216600
  -0.0002033100   -0.0005708300   -0.0003321400
   0.0002472700   -0.0002175200   -0.0004997500
   0.0001515400   -0.0000031700    0.0004093500
   0.0002914000   -0.0001993000   -0.0001653600
   0.0001809700   -0.0003397000   -0.0000590000
  -0.0001931300   -0.0003050100   -0.0000355100
   0.0006780300   -0.0000526600   -0.0005769800
  -0.0001306900   -0.0000727700   -0.0000386000
   0.0005765400   -0.0003484500   -0.0004157000
   0.0001250000   -0.0001454200   -0.0001361100
   0.0001412800   -0.0001632100   -0.0001724800
   0.0002730200   -0.0002277000    0.0000270800
   0.0000029800   -0.0002481600   -0.0001097200
   0.0000921800   -0.0001958400   -0.0001961400
   0.0002171000   -0.0001744500   -0.0001490200
  -0.0035482400    0.0005014300    0.0094781900
  -0.0001047900   -0.0002304900   -0.0002434000
   0.0001410000   -0.0002340600   -0.0003113000
   0.0000239300   -0.0001400900   -0.0002111000
   0.0000684500   -0.0001845500   -0.0006318400
  -0.0000007300   -0.0003977100    0.0002453000
  -0.0001491600   -0.0002210000   -0.0002040200
   0.0001745000   -0.0002385900   -0.0004085700
  -0.0003148500   -0.0002429300    0.0000458800
  -0.0036835600   -0.0009513200   -0.0099844900

1    
 -0.0000018042572869   0.0099999964395392  -0.0000082434130987
   0.0000362200   -0.0202603900    0.0001400300
   0.0000181900   -0.0002311900    0.0001144900
   0.0000209900    0.0000062000    0.0001331500
   0.0000317200   -0.0001946800    0.0001348500
   0.0001693000   -0.0004018000    0.0000387300
  -0.0000079500   -0.0002313300    0.0001179200
   0.0000271800   -0.0000037200    0.0002751400
   0.0000477700   -0.0001852700    0.0001422300
   0.0000131000    0.0004193600   -0.0000953600
   0.0000278300    0.0004109900   -0.0000831000
  -0.0001632100    0.0002786000   -0.0001005700
   0.0001794300    0.0002730300   -0.0001535300
  -0.0000151700    0.0004325400   -0.0000470600
  -0.0000109400    0.0004198300   -0.0000388700
  -0.0000511900    0.0002026600   -0.0001897300
  -0.0000851200    0.0001992300   -0.0001026600
   0.0000189100    0.0024964200   -0.0001200300
   0.0000065200    0.0003009600   -0.0000926400
   0.0000242600    0.0010002600   -0.0001297800
   0.0000184700    0.0003292600   -0.0001124600
  -0.0001083300    0.0003179300   -0.0001582500
  -0.0000068500    0.0002966900   -0.0001457700
  -0.0000595700    0.0003221500   -0.0000950400
  -0.0000081600    0.0003256800   -0.0001010900
   0.0002248300   -0.0002135200    0.0001227700
  -0.0001926800   -0.0001934100    0.0000993100
  -0.0001772100   -0.0001704300    0.0001389200
   0.0002222600   -0.0001974900    0.0000924200
   0.0001203900   -0.0002978000    0.0001567000
   0.0000001100   -0.0001256900    0.0000905500
   0.0000021600   -0.0001129800    0.0000188100
   0.0001291800   -0.0002810600    0.0001601800
  -0.0001921400   -0.0001753500    0.0000090100
  -0.0003524500   -0.0000397000    0.0000459900
  -0.0003699500    0.0000651000    0.0001596500
  -0.0001625600   -0.0000146300    0.0002460800
   0.0041096600    0.0012648800    0.0001024700
  -0.0002921400   -0.0000333100    0.0000845300
  -0.0003521600    0.0002096300    0.0001132700
  -0.0002064700    0.0000359100    0.0000953900
   0.0001734300    0.0000047400   -0.0001844200
   0.0001764700    0.0000613100   -0.0002145700
   0.0001741900    0.0000425700   -0.0001053800
   0.0001775600    0.0001096400    0.0000275800
   0.0001938500   -0.0000251900   -0.0000947800
  -0.0041967600    0.0012642600   -0.0001610300
   0.0001207200    0.0000261300   -0.0000816800
   0.0002491700    0.0001979500   -0.0001173600
   0.0001667700    0.0001126700    0.0000005200
   0.0001875100    0.0000472000   -0.0001139400
   0.0001636600    0.0000392900   -0.0002575300
   0.0001782800   -0.0000037300   -0.0001295900
   0.0001867400    0.0002267100   -0.0001308600
   0.0001580200    0.0000013800   -0.0000980100
  -0.0041760700    0.0035701400   -0.0001318300
   0.0002492600   -0.0000191600   -0.0001555900
  -0.0003576700    0.0000253900    0.0002240800
  -0.0001841800   -0.0000138800    0.0001637800
  -0.0001780200   -0.0001784500    0.0000400800
  -0.0003550400   -0.0000292800    0.0000181700
  -0.0002888700    0.0002377200    0.0001153600
  -0.0002391200    0.0000077700    0.0001273600
   0.0040916500    0.0035487100    0.0000818300
  -0.0003488900   -0.0000028300    0.0001211900
  -0.0002150300    0.0005667500    0.0005720100
  -0.0001284000    0.0004645300    0.0003286500
  -0.0001604300   -0.0000705800   -0.0004684300
  -0.0002052600    0.0000241900   -0.0001517700
  -0.0039157300    0.0060186100    0.0000361500
  -0.0000787000    0.0005348800   -0.0001296800
  -0.0002481700   -0.0001381500   -0.0000736800
  -0.0000481900    0.0000015600    0.0000521900
  -0.0003513100    0.0003915600    0.0002470000
   0.0034565300    0.0058531800   -0.0001851300
  -0.0003145400   -0.0001276300    0.0001294200
  -0.0001943500   -0.0002669300    0.0000702800
  -0.0002856600    0.0003790400   -0.0000003000
  -0.0002980300    0.0004756100    0.0010545200
  -0.0003773700   -0.0001500700   -0.0002997700
  -0.0001494500   -0.0001780500   -0.0003288100
  -0.0010826200   -0.0007229500   -0.0000547000
  -0.0001268600    0.0000581400   -0.0000479900
   0.0002451200   -0.0004181600   -0.0000127600
  -0.0002316600    0.0001298600   -0.0001645300
  -0.0004134200    0.0001116700   -0.0006044800
  -0.0001609200    0.0000086900    0.0001808900
  -0.0003449300    0.0001619600   -0.0000424900
  -0.0001904800    0.0002617700    0.0000957800
  -0.0001908200    0.0002955700   -0.0002799200
  -0.0001853900    0.0002153500    0.0002303900
  -0.0001284200    0.0001897200    0.0000919500
  -0.0002533800    0.0002864100   -0.0002375400
  -0.0003324000    0.0002187100    0.0001176000
   0.0006771000   -0.0005728300   -0.0000982100
  -0.0002226500    0.0002677600    0.0000799700
  -0.0006090500   -0.0003180800   -0.0001007600
  -0.0000125100    0.0037574000   -0.0000499600
  -0.0001322900    0.0000864900   -0.0000988100
  -0.0000872800   -0.0006432500   -0.0000585000
  -0.0000804300   -0.0001676000   -0.0001198200
  -0.0007015000   -0.0004419300    0.0004310600
   0.0001767300   -0.0000203400   -0.0000963500
   0.0002936100   -0.0004503300   -0.0006021500
  -0.0000174300   -0.0000255900   -0.0001789000
  -0.0003808900    0.0003689000   -0.0000844400
   0.0003740600    0.0004490900   -0.0001723600
   0.0000693300   -0.0001926800   -0.0001564500
  -0.0000438900   -0.0003093100   -0.0001314500
  -0.0002074000    0.0000793000   -0.0002157200
   0.0005998600   -0.0004504300    0.0004637400
  -0.0000027800   -0.0000233400   -0.0003070200
  -0.0004384900   -0.0003341200   -0.0005405400
  -0.0000680600   -0.0006010500   -0.0002607100
  -0.0000378800   -0.0000974300   -0.0001745900
   0.0000094000   -0.0006193300    0.0036067900
  -0.0001399000    0.0002654100   -0.0001327000
  -0.0001205600   -0.0002956500   -0.0002457700
   0.0000708300   -0.0001142300   -0.0002517100
  -0.0003002400    0.0010205900    0.0000284800
   0.0001357800    0.0002698400   -0.0000523600
  -0.0002779900   -0.0003601700   -0.0002095800
   0.0002427700   -0.0002794200   -0.0001562500
   0.0002226200    0.0003450300    0.0000247900
  -0.0002348800    0.0002955000   -0.0000958000
  -0.0001613900   -0.0001746600   -0.0003807600
   0.0000512800   -0.0003466700   -0.0001338800
  -0.0000971400    0.0002300400   -0.0000921900
   0.0001146100    0.0010035600    0.0001067800
   0.0001408900    0.0009949400    0.0002516700
  -0.0001434400    0.0002424900    0.0001005400
   0.0000038000   -0.0003051500   -0.0000602100
  -0.0000755200   -0.0001463900    0.0000755600
  -0.0001046300    0.0038160100   -0.0000388100
   0.0000414100    0.0001471000    0.0001762900
  -0.0000571900   -0.0005984200    0.0000140000
   0.0000110500   -0.0000746800    0.0001311500
  -0.0001130800    0.0009757500    0.0000792100
   0.0000392700    0.0002602800    0.0003954700
  -0.0001001000   -0.0002707000    0.0000575000
   0.0000882500   -0.0001419100    0.0000677800
  -0.0004716400    0.0004756600    0.0001641500
   0.0004635400    0.0004009900    0.0000490300
  -0.0000100700   -0.0002360200    0.0001226500
  -0.0000248400   -0.0001910500    0.0000908700
   0.0006063200   -0.0004562800   -0.0003694600
  -0.0001277400   -0.0000650800    0.0000657100
  -0.0004009700   -0.0002912200    0.0006741400
   0.0000246300    0.0001409700    0.0002345600
   0.0000071300   -0.0006405100    0.0001891500
   0.0000607100   -0.0001017200    0.0002260600
  -0.0000767100   -0.0006272600   -0.0036362200
   0.0001013700    0.0001948400    0.0001804000
  -0.0006231500   -0.0005499600   -0.0004481600
   0.0000879800   -0.0000131600    0.0001402700
   0.0003586500   -0.0002584700    0.0005822400
  -0.0000777400    0.0000757600    0.0003899700
  -0.0004066100   -0.0002963300    0.0001725900
   0.0002740900   -0.0003220600    0.0001468500
   0.0001205300    0.0002834600    0.0001211000
  -0.0002273300    0.0003377800   -0.0000039000
   0.0011186900   -0.0029254700   -0.0012311100
   0.0000424600   -0.0003349000    0.0000934900
   0.0002319500    0.0001023000    0.0001997600
   0.0001538300   -0.0000546300    0.0000771700
   0.0001849800   -0.0007304500   -0.0020636200
   0.0002182900   -0.0002388600    0.0000535700
   0.0001687800    0.0001244100    0.0003817300
   0.0002472800   -0.0000970300    0.0000746200
  -0.0005926300   -0.0027896000   -0.0010692200
   0.0002775800   -0.0001761100    0.0001261700
   0.0001141700    0.0002521600    0.0002279500
   0.0003263700    0.0000532800    0.0002737700