phonopy:
  version: 2.9.3
  frequency_unit_conversion_factor: 15.633302
  symmetry_tolerance: 1.00000e-04
  nac_unit_conversion_factor: 14.399652

physical_unit:
  atomic_mass: "AMU"

space_group:
  type: "P2_1"
  number: 4
  Hall_symbol: "P 2yb"

primitive_matrix:
- [  1.000000000000000,  0.000000000000000,  0.000000000000000 ]
- [  0.000000000000000,  1.000000000000000,  0.000000000000000 ]
- [  0.000000000000000,  0.000000000000000,  1.000000000000000 ]

supercell_matrix:
- [   2,   0,   0 ]
- [   0,   2,   0 ]
- [   0,   0,   2 ]

primitive_cell:
  lattice:
  - [     7.689798720000000,     0.001303990000000,    -0.006339020000000 ] # a
  - [    -0.001387440000000,     7.689809630000000,    -0.006339030000000 ] # b
  - [    -1.916794120000000,    -1.917467270000000,     6.431375320000000 ] # c
  points:
  - symbol: Li # 1
    coordinates: [  0.224104840000005,  0.062418250000000,  0.000005040000000 ]
    mass: 6.941000
  - symbol: Li # 2
    coordinates: [  0.724110409999995,  0.989371730000003,  0.000023510000000 ]
    mass: 6.941000
  - symbol: Li # 3
    coordinates: [  0.224110409999995,  0.489371730000003,  0.000023510000000 ]
    mass: 6.941000
  - symbol: Li # 4
    coordinates: [  0.724104840000005,  0.562418249999998,  0.000005040000000 ]
    mass: 6.941000
  - symbol: Li # 5
    coordinates: [  0.510628279999997,  0.275889589999999,  0.999976489999993 ]
    mass: 6.941000
  - symbol: Li # 6
    coordinates: [  0.937581739999994,  0.275895160000000,  0.999994960000000 ]
    mass: 6.941000
  - symbol: Li # 7
    coordinates: [  0.437581739999994,  0.775895160000004,  0.999994960000000 ]
    mass: 6.941000
  - symbol: Li # 8
    coordinates: [  0.010628279999997,  0.775889589999998,  0.999976489999993 ]
    mass: 6.941000
  - symbol: O  # 9
    coordinates: [  0.474101750000007,  0.025896469999996,  0.999997930000003 ]
    mass: 15.999400
  - symbol: O  # 10
    coordinates: [  0.974104040000000,  0.025898750000000,  0.000002070000000 ]
    mass: 15.999400
  - symbol: O  # 11
    coordinates: [  0.474104040000000,  0.525898749999996,  0.000002070000000 ]
    mass: 15.999400
  - symbol: O  # 12
    coordinates: [  0.974101750000007,  0.525896469999996,  0.999997930000003 ]
    mass: 15.999400
  - symbol: S  # 13
    coordinates: [  0.299815949999997,  0.351622659999998,  0.302880500000004 ]
    mass: 32.065000
  - symbol: S  # 14
    coordinates: [  0.799815719999995,  0.351621679999997,  0.302873629999993 ]
    mass: 32.065000
  - symbol: S  # 15
    coordinates: [  0.299815719999995,  0.851621679999997,  0.302873629999993 ]
    mass: 32.065000
  - symbol: S  # 16
    coordinates: [  0.799815949999997,  0.851622659999998,  0.302880500000004 ]
    mass: 32.065000
  - symbol: S  # 17
    coordinates: [  0.148378320000000,  0.200184280000000,  0.697126370000001 ]
    mass: 32.065000
  - symbol: S  # 18
    coordinates: [  0.648377339999997,  0.200184050000001,  0.697119500000006 ]
    mass: 32.065000
  - symbol: S  # 19
    coordinates: [  0.148377340000001,  0.700184049999999,  0.697119500000006 ]
    mass: 32.065000
  - symbol: S  # 20
    coordinates: [  0.648378320000005,  0.700184280000000,  0.697126370000001 ]
    mass: 32.065000
  - symbol: Fe # 21
    coordinates: [  0.053558100000001,  0.105420120000001,  0.317954140000003 ]
    mass: 55.845000
  - symbol: Fe # 22
    coordinates: [  0.553543710000002,  0.105416080000001,  0.317947360000002 ]
    mass: 55.845000
  - symbol: Fe # 23
    coordinates: [  0.053543710000000,  0.605416079999995,  0.317947360000002 ]
    mass: 55.845000
  - symbol: Fe # 24
    coordinates: [  0.553558100000003,  0.605420120000004,  0.317954140000003 ]
    mass: 55.845000
  - symbol: Fe # 25
    coordinates: [  0.394583920000000,  0.446456289999998,  0.682052640000002 ]
    mass: 55.845000
  - symbol: Fe # 26
    coordinates: [  0.894579880000004,  0.446441899999998,  0.682045860000000 ]
    mass: 55.845000
  - symbol: Fe # 27
    coordinates: [  0.394579880000003,  0.946441899999998,  0.682045860000000 ]
    mass: 55.845000
  - symbol: Fe # 28
    coordinates: [  0.894583920000000,  0.946456289999998,  0.682052640000002 ]
    mass: 55.845000
  reciprocal_lattice: # without 2pi
  - [     0.130074377023116,     0.000055439735445,     0.038783633749856 ] # a*
  - [     0.000009913744030,     0.130074203709463,     0.038783622239368 ] # b*
  - [     0.000128216264785,     0.000128261168426,     0.155564191326793 ] # c*

unit_cell:
  lattice:
  - [     7.689798720000000,     0.001303990000000,    -0.006339020000000 ] # a
  - [    -0.001387440000000,     7.689809630000000,    -0.006339030000000 ] # b
  - [    -1.916794120000000,    -1.917467270000000,     6.431375320000000 ] # c
  points:
  - symbol: Li # 1
    coordinates: [  0.224104840000005,  0.062418250000000,  0.000005040000000 ]
    mass: 6.941000
    reduced_to: 1
  - symbol: Li # 2
    coordinates: [  0.724110409999995,  0.989371730000003,  0.000023510000000 ]
    mass: 6.941000
    reduced_to: 2
  - symbol: Li # 3
    coordinates: [  0.224110409999995,  0.489371730000003,  0.000023510000000 ]
    mass: 6.941000
    reduced_to: 3
  - symbol: Li # 4
    coordinates: [  0.724104840000005,  0.562418249999998,  0.000005040000000 ]
    mass: 6.941000
    reduced_to: 4
  - symbol: Li # 5
    coordinates: [  0.510628279999997,  0.275889589999999,  0.999976489999993 ]
    mass: 6.941000
    reduced_to: 5
  - symbol: Li # 6
    coordinates: [  0.937581739999994,  0.275895160000000,  0.999994960000000 ]
    mass: 6.941000
    reduced_to: 6
  - symbol: Li # 7
    coordinates: [  0.437581739999994,  0.775895160000004,  0.999994960000000 ]
    mass: 6.941000
    reduced_to: 7
  - symbol: Li # 8
    coordinates: [  0.010628279999997,  0.775889589999998,  0.999976489999993 ]
    mass: 6.941000
    reduced_to: 8
  - symbol: O  # 9
    coordinates: [  0.474101750000007,  0.025896469999996,  0.999997930000003 ]
    mass: 15.999400
    reduced_to: 9
  - symbol: O  # 10
    coordinates: [  0.974104040000000,  0.025898750000000,  0.000002070000000 ]
    mass: 15.999400
    reduced_to: 10
  - symbol: O  # 11
    coordinates: [  0.474104040000000,  0.525898749999996,  0.000002070000000 ]
    mass: 15.999400
    reduced_to: 11
  - symbol: O  # 12
    coordinates: [  0.974101750000007,  0.525896469999996,  0.999997930000003 ]
    mass: 15.999400
    reduced_to: 12
  - symbol: S  # 13
    coordinates: [  0.299815949999997,  0.351622659999998,  0.302880500000004 ]
    mass: 32.065000
    reduced_to: 13
  - symbol: S  # 14
    coordinates: [  0.799815719999995,  0.351621679999997,  0.302873629999993 ]
    mass: 32.065000
    reduced_to: 14
  - symbol: S  # 15
    coordinates: [  0.299815719999995,  0.851621679999997,  0.302873629999993 ]
    mass: 32.065000
    reduced_to: 15
  - symbol: S  # 16
    coordinates: [  0.799815949999997,  0.851622659999998,  0.302880500000004 ]
    mass: 32.065000
    reduced_to: 16
  - symbol: S  # 17
    coordinates: [  0.148378320000000,  0.200184280000000,  0.697126370000001 ]
    mass: 32.065000
    reduced_to: 17
  - symbol: S  # 18
    coordinates: [  0.648377339999997,  0.200184050000001,  0.697119500000006 ]
    mass: 32.065000
    reduced_to: 18
  - symbol: S  # 19
    coordinates: [  0.148377340000001,  0.700184049999999,  0.697119500000006 ]
    mass: 32.065000
    reduced_to: 19
  - symbol: S  # 20
    coordinates: [  0.648378320000005,  0.700184280000000,  0.697126370000001 ]
    mass: 32.065000
    reduced_to: 20
  - symbol: Fe # 21
    coordinates: [  0.053558100000001,  0.105420120000001,  0.317954140000003 ]
    mass: 55.845000
    reduced_to: 21
  - symbol: Fe # 22
    coordinates: [  0.553543710000002,  0.105416080000001,  0.317947360000002 ]
    mass: 55.845000
    reduced_to: 22
  - symbol: Fe # 23
    coordinates: [  0.053543710000000,  0.605416079999995,  0.317947360000002 ]
    mass: 55.845000
    reduced_to: 23
  - symbol: Fe # 24
    coordinates: [  0.553558100000003,  0.605420120000004,  0.317954140000003 ]
    mass: 55.845000
    reduced_to: 24
  - symbol: Fe # 25
    coordinates: [  0.394583920000000,  0.446456289999998,  0.682052640000002 ]
    mass: 55.845000
    reduced_to: 25
  - symbol: Fe # 26
    coordinates: [  0.894579880000004,  0.446441899999998,  0.682045860000000 ]
    mass: 55.845000
    reduced_to: 26
  - symbol: Fe # 27
    coordinates: [  0.394579880000003,  0.946441899999998,  0.682045860000000 ]
    mass: 55.845000
    reduced_to: 27
  - symbol: Fe # 28
    coordinates: [  0.894583920000000,  0.946456289999998,  0.682052640000002 ]
    mass: 55.845000
    reduced_to: 28

supercell:
  lattice:
  - [    15.379597440000000,     0.002607980000000,    -0.012678040000000 ] # a
  - [    -0.002774880000000,    15.379619260000000,    -0.012678060000000 ] # b
  - [    -3.833588240000000,    -3.834934540000000,    12.862750640000000 ] # c
  points:
  - symbol: Li # 1
    coordinates: [  0.112052420000003,  0.031209125000000,  0.000002520000000 ]
    mass: 6.941000
    reduced_to: 1
  - symbol: Li # 2
    coordinates: [  0.612052420000003,  0.031209125000000,  0.000002520000000 ]
    mass: 6.941000
    reduced_to: 1
  - symbol: Li # 3
    coordinates: [  0.112052420000003,  0.531209125000000,  0.000002520000000 ]
    mass: 6.941000
    reduced_to: 1
  - symbol: Li # 4
    coordinates: [  0.612052420000003,  0.531209125000000,  0.000002520000000 ]
    mass: 6.941000
    reduced_to: 1
  - symbol: Li # 5
    coordinates: [  0.112052420000003,  0.031209125000000,  0.500002520000000 ]
    mass: 6.941000
    reduced_to: 1
  - symbol: Li # 6
    coordinates: [  0.612052420000003,  0.031209125000000,  0.500002520000000 ]
    mass: 6.941000
    reduced_to: 1
  - symbol: Li # 7
    coordinates: [  0.112052420000003,  0.531209125000000,  0.500002520000000 ]
    mass: 6.941000
    reduced_to: 1
  - symbol: Li # 8
    coordinates: [  0.612052420000003,  0.531209125000000,  0.500002520000000 ]
    mass: 6.941000
    reduced_to: 1
  - symbol: Li # 9
    coordinates: [  0.362055204999997,  0.494685865000001,  0.000011755000000 ]
    mass: 6.941000
    reduced_to: 9
  - symbol: Li # 10
    coordinates: [  0.862055204999997,  0.494685865000001,  0.000011755000000 ]
    mass: 6.941000
    reduced_to: 9
  - symbol: Li # 11
    coordinates: [  0.362055204999997,  0.994685865000001,  0.000011755000000 ]
    mass: 6.941000
    reduced_to: 9
  - symbol: Li # 12
    coordinates: [  0.862055204999997,  0.994685865000001,  0.000011755000000 ]
    mass: 6.941000
    reduced_to: 9
  - symbol: Li # 13
    coordinates: [  0.362055204999997,  0.494685865000001,  0.500011755000000 ]
    mass: 6.941000
    reduced_to: 9
  - symbol: Li # 14
    coordinates: [  0.862055204999997,  0.494685865000001,  0.500011755000000 ]
    mass: 6.941000
    reduced_to: 9
  - symbol: Li # 15
    coordinates: [  0.362055204999997,  0.994685865000001,  0.500011755000000 ]
    mass: 6.941000
    reduced_to: 9
  - symbol: Li # 16
    coordinates: [  0.862055204999997,  0.994685865000001,  0.500011755000000 ]
    mass: 6.941000
    reduced_to: 9
  - symbol: Li # 17
    coordinates: [  0.112055204999997,  0.244685865000001,  0.000011755000000 ]
    mass: 6.941000
    reduced_to: 17
  - symbol: Li # 18
    coordinates: [  0.612055204999997,  0.244685865000001,  0.000011755000000 ]
    mass: 6.941000
    reduced_to: 17
  - symbol: Li # 19
    coordinates: [  0.112055204999997,  0.744685865000001,  0.000011755000000 ]
    mass: 6.941000
    reduced_to: 17
  - symbol: Li # 20
    coordinates: [  0.612055204999997,  0.744685865000001,  0.000011755000000 ]
    mass: 6.941000
    reduced_to: 17
  - symbol: Li # 21
    coordinates: [  0.112055204999997,  0.244685865000001,  0.500011755000000 ]
    mass: 6.941000
    reduced_to: 17
  - symbol: Li # 22
    coordinates: [  0.612055204999997,  0.244685865000001,  0.500011755000000 ]
    mass: 6.941000
    reduced_to: 17
  - symbol: Li # 23
    coordinates: [  0.112055204999997,  0.744685865000001,  0.500011755000000 ]
    mass: 6.941000
    reduced_to: 17
  - symbol: Li # 24
    coordinates: [  0.612055204999997,  0.744685865000001,  0.500011755000000 ]
    mass: 6.941000
    reduced_to: 17
  - symbol: Li # 25
    coordinates: [  0.362052420000003,  0.281209124999999,  0.000002520000000 ]
    mass: 6.941000
    reduced_to: 25
  - symbol: Li # 26
    coordinates: [  0.862052420000003,  0.281209124999999,  0.000002520000000 ]
    mass: 6.941000
    reduced_to: 25
  - symbol: Li # 27
    coordinates: [  0.362052420000003,  0.781209124999999,  0.000002520000000 ]
    mass: 6.941000
    reduced_to: 25
  - symbol: Li # 28
    coordinates: [  0.862052420000003,  0.781209124999999,  0.000002520000000 ]
    mass: 6.941000
    reduced_to: 25
  - symbol: Li # 29
    coordinates: [  0.362052420000003,  0.281209124999999,  0.500002520000000 ]
    mass: 6.941000
    reduced_to: 25
  - symbol: Li # 30
    coordinates: [  0.862052420000003,  0.281209124999999,  0.500002520000000 ]
    mass: 6.941000
    reduced_to: 25
  - symbol: Li # 31
    coordinates: [  0.362052420000003,  0.781209124999999,  0.500002520000000 ]
    mass: 6.941000
    reduced_to: 25
  - symbol: Li # 32
    coordinates: [  0.862052420000003,  0.781209124999999,  0.500002520000000 ]
    mass: 6.941000
    reduced_to: 25
  - symbol: Li # 33
    coordinates: [  0.255314139999998,  0.137944794999999,  0.499988244999997 ]
    mass: 6.941000
    reduced_to: 33
  - symbol: Li # 34
    coordinates: [  0.755314139999998,  0.137944794999999,  0.499988244999997 ]
    mass: 6.941000
    reduced_to: 33
  - symbol: Li # 35
    coordinates: [  0.255314139999998,  0.637944794999999,  0.499988244999997 ]
    mass: 6.941000
    reduced_to: 33
  - symbol: Li # 36
    coordinates: [  0.755314139999998,  0.637944794999999,  0.499988244999997 ]
    mass: 6.941000
    reduced_to: 33
  - symbol: Li # 37
    coordinates: [  0.255314139999998,  0.137944794999999,  0.999988244999997 ]
    mass: 6.941000
    reduced_to: 33
  - symbol: Li # 38
    coordinates: [  0.755314139999998,  0.137944794999999,  0.999988244999997 ]
    mass: 6.941000
    reduced_to: 33
  - symbol: Li # 39
    coordinates: [  0.255314139999998,  0.637944794999999,  0.999988244999997 ]
    mass: 6.941000
    reduced_to: 33
  - symbol: Li # 40
    coordinates: [  0.755314139999998,  0.637944794999999,  0.999988244999997 ]
    mass: 6.941000
    reduced_to: 33
  - symbol: Li # 41
    coordinates: [  0.468790869999997,  0.137947580000000,  0.499997480000000 ]
    mass: 6.941000
    reduced_to: 41
  - symbol: Li # 42
    coordinates: [  0.968790869999997,  0.137947580000000,  0.499997480000000 ]
    mass: 6.941000
    reduced_to: 41
  - symbol: Li # 43
    coordinates: [  0.468790869999997,  0.637947580000000,  0.499997480000000 ]
    mass: 6.941000
    reduced_to: 41
  - symbol: Li # 44
    coordinates: [  0.968790869999997,  0.637947580000000,  0.499997480000000 ]
    mass: 6.941000
    reduced_to: 41
  - symbol: Li # 45
    coordinates: [  0.468790869999997,  0.137947580000000,  0.999997480000000 ]
    mass: 6.941000
    reduced_to: 41
  - symbol: Li # 46
    coordinates: [  0.968790869999997,  0.137947580000000,  0.999997480000000 ]
    mass: 6.941000
    reduced_to: 41
  - symbol: Li # 47
    coordinates: [  0.468790869999997,  0.637947580000000,  0.999997480000000 ]
    mass: 6.941000
    reduced_to: 41
  - symbol: Li # 48
    coordinates: [  0.968790869999997,  0.637947580000000,  0.999997480000000 ]
    mass: 6.941000
    reduced_to: 41
  - symbol: Li # 49
    coordinates: [  0.218790869999997,  0.387947580000002,  0.499997480000000 ]
    mass: 6.941000
    reduced_to: 49
  - symbol: Li # 50
    coordinates: [  0.718790869999997,  0.387947580000002,  0.499997480000000 ]
    mass: 6.941000
    reduced_to: 49
  - symbol: Li # 51
    coordinates: [  0.218790869999997,  0.887947580000002,  0.499997480000000 ]
    mass: 6.941000
    reduced_to: 49
  - symbol: Li # 52
    coordinates: [  0.718790869999997,  0.887947580000002,  0.499997480000000 ]
    mass: 6.941000
    reduced_to: 49
  - symbol: Li # 53
    coordinates: [  0.218790869999997,  0.387947580000002,  0.999997480000000 ]
    mass: 6.941000
    reduced_to: 49
  - symbol: Li # 54
    coordinates: [  0.718790869999997,  0.387947580000002,  0.999997480000000 ]
    mass: 6.941000
    reduced_to: 49
  - symbol: Li # 55
    coordinates: [  0.218790869999997,  0.887947580000002,  0.999997480000000 ]
    mass: 6.941000
    reduced_to: 49
  - symbol: Li # 56
    coordinates: [  0.718790869999997,  0.887947580000002,  0.999997480000000 ]
    mass: 6.941000
    reduced_to: 49
  - symbol: Li # 57
    coordinates: [  0.005314139999998,  0.387944794999999,  0.499988244999997 ]
    mass: 6.941000
    reduced_to: 57
  - symbol: Li # 58
    coordinates: [  0.505314139999998,  0.387944794999999,  0.499988244999997 ]
    mass: 6.941000
    reduced_to: 57
  - symbol: Li # 59
    coordinates: [  0.005314139999998,  0.887944794999999,  0.499988244999997 ]
    mass: 6.941000
    reduced_to: 57
  - symbol: Li # 60
    coordinates: [  0.505314139999998,  0.887944794999999,  0.499988244999997 ]
    mass: 6.941000
    reduced_to: 57
  - symbol: Li # 61
    coordinates: [  0.005314139999998,  0.387944794999999,  0.999988244999997 ]
    mass: 6.941000
    reduced_to: 57
  - symbol: Li # 62
    coordinates: [  0.505314139999998,  0.387944794999999,  0.999988244999997 ]
    mass: 6.941000
    reduced_to: 57
  - symbol: Li # 63
    coordinates: [  0.005314139999998,  0.887944794999999,  0.999988244999997 ]
    mass: 6.941000
    reduced_to: 57
  - symbol: Li # 64
    coordinates: [  0.505314139999998,  0.887944794999999,  0.999988244999997 ]
    mass: 6.941000
    reduced_to: 57
  - symbol: O  # 65
    coordinates: [  0.237050875000004,  0.012948234999998,  0.499998965000002 ]
    mass: 15.999400
    reduced_to: 65
  - symbol: O  # 66
    coordinates: [  0.737050875000004,  0.012948234999998,  0.499998965000002 ]
    mass: 15.999400
    reduced_to: 65
  - symbol: O  # 67
    coordinates: [  0.237050875000004,  0.512948234999998,  0.499998965000002 ]
    mass: 15.999400
    reduced_to: 65
  - symbol: O  # 68
    coordinates: [  0.737050875000004,  0.512948234999998,  0.499998965000002 ]
    mass: 15.999400
    reduced_to: 65
  - symbol: O  # 69
    coordinates: [  0.237050875000004,  0.012948234999998,  0.999998965000002 ]
    mass: 15.999400
    reduced_to: 65
  - symbol: O  # 70
    coordinates: [  0.737050875000004,  0.012948234999998,  0.999998965000002 ]
    mass: 15.999400
    reduced_to: 65
  - symbol: O  # 71
    coordinates: [  0.237050875000004,  0.512948234999998,  0.999998965000002 ]
    mass: 15.999400
    reduced_to: 65
  - symbol: O  # 72
    coordinates: [  0.737050875000004,  0.512948234999998,  0.999998965000002 ]
    mass: 15.999400
    reduced_to: 65
  - symbol: O  # 73
    coordinates: [  0.487052020000000,  0.012949375000000,  0.000001035000000 ]
    mass: 15.999400
    reduced_to: 73
  - symbol: O  # 74
    coordinates: [  0.987052020000000,  0.012949375000000,  0.000001035000000 ]
    mass: 15.999400
    reduced_to: 73
  - symbol: O  # 75
    coordinates: [  0.487052020000000,  0.512949375000000,  0.000001035000000 ]
    mass: 15.999400
    reduced_to: 73
  - symbol: O  # 76
    coordinates: [  0.987052020000000,  0.512949375000000,  0.000001035000000 ]
    mass: 15.999400
    reduced_to: 73
  - symbol: O  # 77
    coordinates: [  0.487052020000000,  0.012949375000000,  0.500001035000000 ]
    mass: 15.999400
    reduced_to: 73
  - symbol: O  # 78
    coordinates: [  0.987052020000000,  0.012949375000000,  0.500001035000000 ]
    mass: 15.999400
    reduced_to: 73
  - symbol: O  # 79
    coordinates: [  0.487052020000000,  0.512949375000000,  0.500001035000000 ]
    mass: 15.999400
    reduced_to: 73
  - symbol: O  # 80
    coordinates: [  0.987052020000000,  0.512949375000000,  0.500001035000000 ]
    mass: 15.999400
    reduced_to: 73
  - symbol: O  # 81
    coordinates: [  0.237052020000000,  0.262949374999998,  0.000001035000000 ]
    mass: 15.999400
    reduced_to: 81
  - symbol: O  # 82
    coordinates: [  0.737052020000000,  0.262949374999998,  0.000001035000000 ]
    mass: 15.999400
    reduced_to: 81
  - symbol: O  # 83
    coordinates: [  0.237052020000000,  0.762949374999998,  0.000001035000000 ]
    mass: 15.999400
    reduced_to: 81
  - symbol: O  # 84
    coordinates: [  0.737052020000000,  0.762949374999998,  0.000001035000000 ]
    mass: 15.999400
    reduced_to: 81
  - symbol: O  # 85
    coordinates: [  0.237052020000000,  0.262949374999998,  0.500001035000000 ]
    mass: 15.999400
    reduced_to: 81
  - symbol: O  # 86
    coordinates: [  0.737052020000000,  0.262949374999998,  0.500001035000000 ]
    mass: 15.999400
    reduced_to: 81
  - symbol: O  # 87
    coordinates: [  0.237052020000000,  0.762949374999998,  0.500001035000000 ]
    mass: 15.999400
    reduced_to: 81
  - symbol: O  # 88
    coordinates: [  0.737052020000000,  0.762949374999998,  0.500001035000000 ]
    mass: 15.999400
    reduced_to: 81
  - symbol: O  # 89
    coordinates: [  0.487050875000004,  0.262948234999998,  0.499998965000002 ]
    mass: 15.999400
    reduced_to: 89
  - symbol: O  # 90
    coordinates: [  0.987050875000004,  0.262948234999998,  0.499998965000002 ]
    mass: 15.999400
    reduced_to: 89
  - symbol: O  # 91
    coordinates: [  0.487050875000004,  0.762948234999998,  0.499998965000002 ]
    mass: 15.999400
    reduced_to: 89
  - symbol: O  # 92
    coordinates: [  0.987050875000004,  0.762948234999998,  0.499998965000002 ]
    mass: 15.999400
    reduced_to: 89
  - symbol: O  # 93
    coordinates: [  0.487050875000004,  0.262948234999998,  0.999998965000002 ]
    mass: 15.999400
    reduced_to: 89
  - symbol: O  # 94
    coordinates: [  0.987050875000004,  0.262948234999998,  0.999998965000002 ]
    mass: 15.999400
    reduced_to: 89
  - symbol: O  # 95
    coordinates: [  0.487050875000004,  0.762948234999998,  0.999998965000002 ]
    mass: 15.999400
    reduced_to: 89
  - symbol: O  # 96
    coordinates: [  0.987050875000004,  0.762948234999998,  0.999998965000002 ]
    mass: 15.999400
    reduced_to: 89
  - symbol: S  # 97
    coordinates: [  0.149907974999998,  0.175811329999999,  0.151440250000002 ]
    mass: 32.065000
    reduced_to: 97
  - symbol: S  # 98
    coordinates: [  0.649907974999998,  0.175811329999999,  0.151440250000002 ]
    mass: 32.065000
    reduced_to: 97
  - symbol: S  # 99
    coordinates: [  0.149907974999998,  0.675811329999999,  0.151440250000002 ]
    mass: 32.065000
    reduced_to: 97
  - symbol: S  # 100
    coordinates: [  0.649907974999998,  0.675811329999999,  0.151440250000002 ]
    mass: 32.065000
    reduced_to: 97
  - symbol: S  # 101
    coordinates: [  0.149907974999998,  0.175811329999999,  0.651440250000002 ]
    mass: 32.065000
    reduced_to: 97
  - symbol: S  # 102
    coordinates: [  0.649907974999998,  0.175811329999999,  0.651440250000002 ]
    mass: 32.065000
    reduced_to: 97
  - symbol: S  # 103
    coordinates: [  0.149907974999998,  0.675811329999999,  0.651440250000002 ]
    mass: 32.065000
    reduced_to: 97
  - symbol: S  # 104
    coordinates: [  0.649907974999998,  0.675811329999999,  0.651440250000002 ]
    mass: 32.065000
    reduced_to: 97
  - symbol: S  # 105
    coordinates: [  0.399907859999998,  0.175810839999998,  0.151436814999996 ]
    mass: 32.065000
    reduced_to: 105
  - symbol: S  # 106
    coordinates: [  0.899907859999998,  0.175810839999998,  0.151436814999996 ]
    mass: 32.065000
    reduced_to: 105
  - symbol: S  # 107
    coordinates: [  0.399907859999998,  0.675810839999998,  0.151436814999996 ]
    mass: 32.065000
    reduced_to: 105
  - symbol: S  # 108
    coordinates: [  0.899907859999998,  0.675810839999998,  0.151436814999996 ]
    mass: 32.065000
    reduced_to: 105
  - symbol: S  # 109
    coordinates: [  0.399907859999998,  0.175810839999998,  0.651436814999996 ]
    mass: 32.065000
    reduced_to: 105
  - symbol: S  # 110
    coordinates: [  0.899907859999998,  0.175810839999998,  0.651436814999996 ]
    mass: 32.065000
    reduced_to: 105
  - symbol: S  # 111
    coordinates: [  0.399907859999998,  0.675810839999998,  0.651436814999996 ]
    mass: 32.065000
    reduced_to: 105
  - symbol: S  # 112
    coordinates: [  0.899907859999998,  0.675810839999998,  0.651436814999996 ]
    mass: 32.065000
    reduced_to: 105
  - symbol: S  # 113
    coordinates: [  0.149907859999998,  0.425810839999998,  0.151436814999996 ]
    mass: 32.065000
    reduced_to: 113
  - symbol: S  # 114
    coordinates: [  0.649907859999998,  0.425810839999998,  0.151436814999996 ]
    mass: 32.065000
    reduced_to: 113
  - symbol: S  # 115
    coordinates: [  0.149907859999998,  0.925810839999998,  0.151436814999996 ]
    mass: 32.065000
    reduced_to: 113
  - symbol: S  # 116
    coordinates: [  0.649907859999998,  0.925810839999998,  0.151436814999996 ]
    mass: 32.065000
    reduced_to: 113
  - symbol: S  # 117
    coordinates: [  0.149907859999998,  0.425810839999998,  0.651436814999996 ]
    mass: 32.065000
    reduced_to: 113
  - symbol: S  # 118
    coordinates: [  0.649907859999998,  0.425810839999998,  0.651436814999996 ]
    mass: 32.065000
    reduced_to: 113
  - symbol: S  # 119
    coordinates: [  0.149907859999998,  0.925810839999998,  0.651436814999996 ]
    mass: 32.065000
    reduced_to: 113
  - symbol: S  # 120
    coordinates: [  0.649907859999998,  0.925810839999998,  0.651436814999996 ]
    mass: 32.065000
    reduced_to: 113
  - symbol: S  # 121
    coordinates: [  0.399907974999999,  0.425811329999999,  0.151440250000002 ]
    mass: 32.065000
    reduced_to: 121
  - symbol: S  # 122
    coordinates: [  0.899907974999999,  0.425811329999999,  0.151440250000002 ]
    mass: 32.065000
    reduced_to: 121
  - symbol: S  # 123
    coordinates: [  0.399907974999999,  0.925811329999999,  0.151440250000002 ]
    mass: 32.065000
    reduced_to: 121
  - symbol: S  # 124
    coordinates: [  0.899907974999999,  0.925811329999999,  0.151440250000002 ]
    mass: 32.065000
    reduced_to: 121
  - symbol: S  # 125
    coordinates: [  0.399907974999999,  0.425811329999999,  0.651440250000002 ]
    mass: 32.065000
    reduced_to: 121
  - symbol: S  # 126
    coordinates: [  0.899907974999999,  0.425811329999999,  0.651440250000002 ]
    mass: 32.065000
    reduced_to: 121
  - symbol: S  # 127
    coordinates: [  0.399907974999999,  0.925811329999999,  0.651440250000002 ]
    mass: 32.065000
    reduced_to: 121
  - symbol: S  # 128
    coordinates: [  0.899907974999999,  0.925811329999999,  0.651440250000002 ]
    mass: 32.065000
    reduced_to: 121
  - symbol: S  # 129
    coordinates: [  0.074189160000000,  0.100092140000000,  0.348563185000000 ]
    mass: 32.065000
    reduced_to: 129
  - symbol: S  # 130
    coordinates: [  0.574189160000000,  0.100092140000000,  0.348563185000000 ]
    mass: 32.065000
    reduced_to: 129
  - symbol: S  # 131
    coordinates: [  0.074189160000000,  0.600092140000000,  0.348563185000000 ]
    mass: 32.065000
    reduced_to: 129
  - symbol: S  # 132
    coordinates: [  0.574189160000000,  0.600092140000000,  0.348563185000000 ]
    mass: 32.065000
    reduced_to: 129
  - symbol: S  # 133
    coordinates: [  0.074189160000000,  0.100092140000000,  0.848563185000000 ]
    mass: 32.065000
    reduced_to: 129
  - symbol: S  # 134
    coordinates: [  0.574189160000000,  0.100092140000000,  0.848563185000000 ]
    mass: 32.065000
    reduced_to: 129
  - symbol: S  # 135
    coordinates: [  0.074189160000000,  0.600092140000000,  0.848563185000000 ]
    mass: 32.065000
    reduced_to: 129
  - symbol: S  # 136
    coordinates: [  0.574189160000000,  0.600092140000000,  0.848563185000000 ]
    mass: 32.065000
    reduced_to: 129
  - symbol: S  # 137
    coordinates: [  0.324188669999999,  0.100092025000001,  0.348559750000003 ]
    mass: 32.065000
    reduced_to: 137
  - symbol: S  # 138
    coordinates: [  0.824188669999999,  0.100092025000001,  0.348559750000003 ]
    mass: 32.065000
    reduced_to: 137
  - symbol: S  # 139
    coordinates: [  0.324188669999999,  0.600092025000001,  0.348559750000003 ]
    mass: 32.065000
    reduced_to: 137
  - symbol: S  # 140
    coordinates: [  0.824188669999999,  0.600092025000001,  0.348559750000003 ]
    mass: 32.065000
    reduced_to: 137
  - symbol: S  # 141
    coordinates: [  0.324188669999999,  0.100092025000001,  0.848559750000003 ]
    mass: 32.065000
    reduced_to: 137
  - symbol: S  # 142
    coordinates: [  0.824188669999999,  0.100092025000001,  0.848559750000003 ]
    mass: 32.065000
    reduced_to: 137
  - symbol: S  # 143
    coordinates: [  0.324188669999999,  0.600092025000001,  0.848559750000003 ]
    mass: 32.065000
    reduced_to: 137
  - symbol: S  # 144
    coordinates: [  0.824188669999999,  0.600092025000001,  0.848559750000003 ]
    mass: 32.065000
    reduced_to: 137
  - symbol: S  # 145
    coordinates: [  0.074188670000001,  0.350092024999999,  0.348559750000003 ]
    mass: 32.065000
    reduced_to: 145
  - symbol: S  # 146
    coordinates: [  0.574188670000001,  0.350092024999999,  0.348559750000003 ]
    mass: 32.065000
    reduced_to: 145
  - symbol: S  # 147
    coordinates: [  0.074188670000001,  0.850092024999999,  0.348559750000003 ]
    mass: 32.065000
    reduced_to: 145
  - symbol: S  # 148
    coordinates: [  0.574188670000001,  0.850092024999999,  0.348559750000003 ]
    mass: 32.065000
    reduced_to: 145
  - symbol: S  # 149
    coordinates: [  0.074188670000001,  0.350092024999999,  0.848559750000003 ]
    mass: 32.065000
    reduced_to: 145
  - symbol: S  # 150
    coordinates: [  0.574188670000001,  0.350092024999999,  0.848559750000003 ]
    mass: 32.065000
    reduced_to: 145
  - symbol: S  # 151
    coordinates: [  0.074188670000001,  0.850092024999999,  0.848559750000003 ]
    mass: 32.065000
    reduced_to: 145
  - symbol: S  # 152
    coordinates: [  0.574188670000001,  0.850092024999999,  0.848559750000003 ]
    mass: 32.065000
    reduced_to: 145