  99  99   0   0
  0.1430410E+02  0.1177748E-08  0.1177748E-08  0.1058004E-08  0.5000000E-15
  1.000000000000000E-004
  CAR 
 unknown system                          
     18.05213484    -54.35102629  301      5.32124567      1.00000000
    -54.351  0.0000E+00  0.0000E+00  0.0000E+00  0.0000E+00
    -54.110  0.0000E+00  0.0000E+00  0.0000E+00  0.0000E+00
    -53.868  0.0000E+00  0.0000E+00  0.0000E+00  0.0000E+00
    -53.627  0.0000E+00  0.0000E+00  0.0000E+00  0.0000E+00
    -53.386  0.0000E+00  0.0000E+00  0.0000E+00  0.0000E+00
    -53.144  0.0000E+00  0.0000E+00  0.0000E+00  0.0000E+00
    -52.903  0.0000E+00  0.0000E+00  0.0000E+00  0.0000E+00
    -52.662  0.0000E+00  0.0000E+00  0.0000E+00  0.0000E+00
    -52.420  0.0000E+00  0.0000E+00  0.0000E+00  0.0000E+00
    -52.179  0.0000E+00  0.0000E+00  0.0000E+00  0.0000E+00
    -51.938  0.0000E+00  0.0000E+00  0.0000E+00  0.0000E+00
    -51.696  0.0000E+00  0.0000E+00  0.0000E+00  0.0000E+00
    -51.455  0.0000E+00  0.0000E+00  0.0000E+00  0.0000E+00
    -51.214  0.1694E-03  0.0000E+00  0.4089E-04  0.0000E+00
    -50.972  0.1453E+03  0.0000E+00  0.3507E+02  0.0000E+00
    -50.731  0.3862E+01  0.0000E+00  0.3600E+02  0.0000E+00
    -50.490  0.0000E+00  0.0000E+00  0.3600E+02  0.0000E+00
    -50.248  0.0000E+00  0.0000E+00  0.3600E+02  0.0000E+00
    -50.007  0.0000E+00  0.0000E+00  0.3600E+02  0.0000E+00
    -49.765  0.1269E+01  0.0000E+00  0.3631E+02  0.0000E+00
    -49.524  0.2639E+03  0.0000E+00  0.9999E+02  0.0000E+00
    -49.283  0.3318E+02  0.0000E+00  0.1080E+03  0.0000E+00
    -49.041  0.0000E+00  0.0000E+00  0.1080E+03  0.0000E+00
    -48.800  0.0000E+00  0.0000E+00  0.1080E+03  0.0000E+00
    -48.559  0.0000E+00  0.0000E+00  0.1080E+03  0.0000E+00
    -48.317  0.0000E+00  0.0000E+00  0.1080E+03  0.0000E+00
    -48.076  0.0000E+00  0.0000E+00  0.1080E+03  0.0000E+00
    -47.835  0.0000E+00  0.0000E+00  0.1080E+03  0.0000E+00
    -47.593  0.0000E+00  0.0000E+00  0.1080E+03  0.0000E+00
    -47.352  0.0000E+00  0.0000E+00  0.1080E+03  0.0000E+00
    -47.111  0.0000E+00  0.0000E+00  0.1080E+03  0.0000E+00
    -46.869  0.0000E+00  0.0000E+00  0.1080E+03  0.0000E+00
    -46.628  0.0000E+00  0.0000E+00  0.1080E+03  0.0000E+00
    -46.387  0.0000E+00  0.3601E+00  0.1080E+03  0.8690E-01
    -46.145  0.0000E+00  0.1488E+03  0.1080E+03  0.3599E+02
    -45.904  0.0000E+00  0.7017E+02  0.1080E+03  0.5293E+02
    -45.663  0.0000E+00  0.2282E+03  0.1080E+03  0.1080E+03
    -45.421  0.0000E+00  0.0000E+00  0.1080E+03  0.1080E+03
    -45.180  0.0000E+00  0.0000E+00  0.1080E+03  0.1080E+03
    -44.939  0.0000E+00  0.0000E+00  0.1080E+03  0.1080E+03
    -44.697  0.0000E+00  0.0000E+00  0.1080E+03  0.1080E+03
    -44.456  0.0000E+00  0.0000E+00  0.1080E+03  0.1080E+03
    -44.215  0.0000E+00  0.0000E+00  0.1080E+03  0.1080E+03
    -43.973  0.0000E+00  0.0000E+00  0.1080E+03  0.1080E+03
    -43.732  0.0000E+00  0.0000E+00  0.1080E+03  0.1080E+03
    -43.491  0.0000E+00  0.0000E+00  0.1080E+03  0.1080E+03
    -43.249  0.0000E+00  0.0000E+00  0.1080E+03  0.1080E+03
    -43.008  0.0000E+00  0.0000E+00  0.1080E+03  0.1080E+03
    -42.767  0.0000E+00  0.0000E+00  0.1080E+03  0.1080E+03
    -42.525  0.0000E+00  0.0000E+00  0.1080E+03  0.1080E+03
    -42.284  0.0000E+00  0.0000E+00  0.1080E+03  0.1080E+03
    -42.042  0.0000E+00  0.0000E+00  0.1080E+03  0.1080E+03
    -41.801  0.0000E+00  0.0000E+00  0.1080E+03  0.1080E+03
    -41.560  0.0000E+00  0.0000E+00  0.1080E+03  0.1080E+03
    -41.318  0.0000E+00  0.0000E+00  0.1080E+03  0.1080E+03
    -41.077  0.0000E+00  0.0000E+00  0.1080E+03  0.1080E+03
    -40.836  0.0000E+00  0.0000E+00  0.1080E+03  0.1080E+03
    -40.594  0.0000E+00  0.0000E+00  0.1080E+03  0.1080E+03
    -40.353  0.0000E+00  0.0000E+00  0.1080E+03  0.1080E+03
    -40.112  0.4726E-10  0.3015E-10  0.1080E+03  0.1080E+03
    -39.870  0.2917E+02  0.2741E+02  0.1150E+03  0.1146E+03
    -39.629  0.4541E+02  0.4717E+02  0.1260E+03  0.1260E+03
    -39.388  0.0000E+00  0.0000E+00  0.1260E+03  0.1260E+03
    -39.146  0.0000E+00  0.0000E+00  0.1260E+03  0.1260E+03
    -38.905  0.0000E+00  0.0000E+00  0.1260E+03  0.1260E+03
    -38.664  0.0000E+00  0.0000E+00  0.1260E+03  0.1260E+03
    -38.422  0.0000E+00  0.0000E+00  0.1260E+03  0.1260E+03
    -38.181  0.0000E+00  0.0000E+00  0.1260E+03  0.1260E+03
    -37.940  0.0000E+00  0.0000E+00  0.1260E+03  0.1260E+03
    -37.698  0.0000E+00  0.0000E+00  0.1260E+03  0.1260E+03
    -37.457  0.0000E+00  0.0000E+00  0.1260E+03  0.1260E+03
    -37.216  0.0000E+00  0.0000E+00  0.1260E+03  0.1260E+03
    -36.974  0.0000E+00  0.0000E+00  0.1260E+03  0.1260E+03
    -36.733  0.0000E+00  0.0000E+00  0.1260E+03  0.1260E+03
    -36.492  0.0000E+00  0.0000E+00  0.1260E+03  0.1260E+03
    -36.250  0.0000E+00  0.0000E+00  0.1260E+03  0.1260E+03
    -36.009  0.0000E+00  0.0000E+00  0.1260E+03  0.1260E+03
    -35.768  0.0000E+00  0.0000E+00  0.1260E+03  0.1260E+03
    -35.526  0.0000E+00  0.0000E+00  0.1260E+03  0.1260E+03
    -35.285  0.0000E+00  0.0000E+00  0.1260E+03  0.1260E+03
    -35.044  0.0000E+00  0.0000E+00  0.1260E+03  0.1260E+03
    -34.802  0.0000E+00  0.0000E+00  0.1260E+03  0.1260E+03
    -34.561  0.0000E+00  0.0000E+00  0.1260E+03  0.1260E+03
    -34.319  0.0000E+00  0.0000E+00  0.1260E+03  0.1260E+03
    -34.078  0.0000E+00  0.0000E+00  0.1260E+03  0.1260E+03
    -33.837  0.0000E+00  0.0000E+00  0.1260E+03  0.1260E+03
    -33.595  0.0000E+00  0.0000E+00  0.1260E+03  0.1260E+03
    -33.354  0.0000E+00  0.0000E+00  0.1260E+03  0.1260E+03
    -33.113  0.0000E+00  0.0000E+00  0.1260E+03  0.1260E+03
    -32.871  0.0000E+00  0.0000E+00  0.1260E+03  0.1260E+03
    -32.630  0.0000E+00  0.0000E+00  0.1260E+03  0.1260E+03
    -32.389  0.0000E+00  0.0000E+00  0.1260E+03  0.1260E+03
    -32.147  0.0000E+00  0.0000E+00  0.1260E+03  0.1260E+03
    -31.906  0.0000E+00  0.0000E+00  0.1260E+03  0.1260E+03
    -31.665  0.0000E+00  0.0000E+00  0.1260E+03  0.1260E+03
    -31.423  0.0000E+00  0.0000E+00  0.1260E+03  0.1260E+03
    -31.182  0.0000E+00  0.0000E+00  0.1260E+03  0.1260E+03
    -30.941  0.0000E+00  0.0000E+00  0.1260E+03  0.1260E+03
    -30.699  0.0000E+00  0.0000E+00  0.1260E+03  0.1260E+03
    -30.458  0.0000E+00  0.0000E+00  0.1260E+03  0.1260E+03
    -30.217  0.0000E+00  0.0000E+00  0.1260E+03  0.1260E+03
    -29.975  0.0000E+00  0.0000E+00  0.1260E+03  0.1260E+03
    -29.734  0.0000E+00  0.0000E+00  0.1260E+03  0.1260E+03
    -29.493  0.0000E+00  0.0000E+00  0.1260E+03  0.1260E+03
    -29.251  0.0000E+00  0.0000E+00  0.1260E+03  0.1260E+03
    -29.010  0.0000E+00  0.0000E+00  0.1260E+03  0.1260E+03
    -28.769  0.0000E+00  0.0000E+00  0.1260E+03  0.1260E+03
    -28.527  0.0000E+00  0.0000E+00  0.1260E+03  0.1260E+03
    -28.286  0.0000E+00  0.0000E+00  0.1260E+03  0.1260E+03
    -28.045  0.0000E+00  0.0000E+00  0.1260E+03  0.1260E+03
    -27.803  0.0000E+00  0.0000E+00  0.1260E+03  0.1260E+03
    -27.562  0.0000E+00  0.0000E+00  0.1260E+03  0.1260E+03
    -27.321  0.0000E+00  0.0000E+00  0.1260E+03  0.1260E+03
    -27.079  0.0000E+00  0.0000E+00  0.1260E+03  0.1260E+03
    -26.838  0.0000E+00  0.0000E+00  0.1260E+03  0.1260E+03
    -26.596  0.0000E+00  0.0000E+00  0.1260E+03  0.1260E+03
    -26.355  0.0000E+00  0.0000E+00  0.1260E+03  0.1260E+03
    -26.114  0.0000E+00  0.0000E+00  0.1260E+03  0.1260E+03
    -25.872  0.0000E+00  0.0000E+00  0.1260E+03  0.1260E+03
    -25.631  0.0000E+00  0.0000E+00  0.1260E+03  0.1260E+03
    -25.390  0.0000E+00  0.0000E+00  0.1260E+03  0.1260E+03
    -25.148  0.0000E+00  0.0000E+00  0.1260E+03  0.1260E+03
    -24.907  0.0000E+00  0.0000E+00  0.1260E+03  0.1260E+03
    -24.666  0.0000E+00  0.0000E+00  0.1260E+03  0.1260E+03
    -24.424  0.0000E+00  0.0000E+00  0.1260E+03  0.1260E+03
    -24.183  0.0000E+00  0.0000E+00  0.1260E+03  0.1260E+03
    -23.942  0.0000E+00  0.0000E+00  0.1260E+03  0.1260E+03
    -23.700  0.0000E+00  0.0000E+00  0.1260E+03  0.1260E+03
    -23.459  0.0000E+00  0.0000E+00  0.1260E+03  0.1260E+03
    -23.218  0.0000E+00  0.0000E+00  0.1260E+03  0.1260E+03
    -22.976  0.0000E+00  0.0000E+00  0.1260E+03  0.1260E+03
    -22.735  0.0000E+00  0.0000E+00  0.1260E+03  0.1260E+03
    -22.494  0.0000E+00  0.0000E+00  0.1260E+03  0.1260E+03
    -22.252  0.0000E+00  0.0000E+00  0.1260E+03  0.1260E+03
    -22.011  0.0000E+00  0.0000E+00  0.1260E+03  0.1260E+03
    -21.770  0.0000E+00  0.0000E+00  0.1260E+03  0.1260E+03
    -21.528  0.0000E+00  0.0000E+00  0.1260E+03  0.1260E+03
    -21.287  0.0000E+00  0.0000E+00  0.1260E+03  0.1260E+03
    -21.046  0.0000E+00  0.0000E+00  0.1260E+03  0.1260E+03
    -20.804  0.0000E+00  0.0000E+00  0.1260E+03  0.1260E+03
    -20.563  0.0000E+00  0.0000E+00  0.1260E+03  0.1260E+03
    -20.322  0.0000E+00  0.0000E+00  0.1260E+03  0.1260E+03
    -20.080  0.0000E+00  0.0000E+00  0.1260E+03  0.1260E+03
    -19.839  0.0000E+00  0.0000E+00  0.1260E+03  0.1260E+03
    -19.598  0.0000E+00  0.0000E+00  0.1260E+03  0.1260E+03
    -19.356  0.0000E+00  0.0000E+00  0.1260E+03  0.1260E+03
    -19.115  0.0000E+00  0.0000E+00  0.1260E+03  0.1260E+03
    -18.873  0.0000E+00  0.0000E+00  0.1260E+03  0.1260E+03
    -18.632  0.0000E+00  0.0000E+00  0.1260E+03  0.1260E+03
    -18.391  0.0000E+00  0.0000E+00  0.1260E+03  0.1260E+03
    -18.149  0.0000E+00  0.0000E+00  0.1260E+03  0.1260E+03
    -17.908  0.0000E+00  0.0000E+00  0.1260E+03  0.1260E+03
    -17.667  0.0000E+00  0.0000E+00  0.1260E+03  0.1260E+03
    -17.425  0.0000E+00  0.0000E+00  0.1260E+03  0.1260E+03
    -17.184  0.0000E+00  0.0000E+00  0.1260E+03  0.1260E+03
    -16.943  0.0000E+00  0.0000E+00  0.1260E+03  0.1260E+03
    -16.701  0.0000E+00  0.0000E+00  0.1260E+03  0.1260E+03
    -16.460  0.0000E+00  0.0000E+00  0.1260E+03  0.1260E+03
    -16.219  0.0000E+00  0.0000E+00  0.1260E+03  0.1260E+03
    -15.977  0.0000E+00  0.0000E+00  0.1260E+03  0.1260E+03
    -15.736  0.0000E+00  0.0000E+00  0.1260E+03  0.1260E+03
    -15.495  0.0000E+00  0.0000E+00  0.1260E+03  0.1260E+03
    -15.253  0.0000E+00  0.0000E+00  0.1260E+03  0.1260E+03
    -15.012  0.0000E+00  0.0000E+00  0.1260E+03  0.1260E+03
    -14.771  0.0000E+00  0.0000E+00  0.1260E+03  0.1260E+03
    -14.529  0.0000E+00  0.0000E+00  0.1260E+03  0.1260E+03
    -14.288  0.0000E+00  0.0000E+00  0.1260E+03  0.1260E+03
    -14.047  0.0000E+00  0.0000E+00  0.1260E+03  0.1260E+03
    -13.805  0.0000E+00  0.0000E+00  0.1260E+03  0.1260E+03
    -13.564  0.0000E+00  0.0000E+00  0.1260E+03  0.1260E+03
    -13.323  0.4901E-01  0.0000E+00  0.1260E+03  0.1260E+03
    -13.081  0.4158E+02  0.2430E-11  0.1360E+03  0.1260E+03
    -12.840  0.3295E+02  0.4722E+01  0.1440E+03  0.1271E+03
    -12.599  0.1718E-02  0.6681E+02  0.1440E+03  0.1433E+03
    -12.357  0.0000E+00  0.3048E+01  0.1440E+03  0.1440E+03
    -12.116  0.0000E+00  0.0000E+00  0.1440E+03  0.1440E+03
    -11.875  0.0000E+00  0.0000E+00  0.1440E+03  0.1440E+03
    -11.633  0.0000E+00  0.0000E+00  0.1440E+03  0.1440E+03
    -11.392  0.0000E+00  0.0000E+00  0.1440E+03  0.1440E+03
    -11.150  0.0000E+00  0.0000E+00  0.1440E+03  0.1440E+03
    -10.909  0.0000E+00  0.0000E+00  0.1440E+03  0.1440E+03
    -10.668  0.0000E+00  0.0000E+00  0.1440E+03  0.1440E+03
    -10.426  0.0000E+00  0.0000E+00  0.1440E+03  0.1440E+03
    -10.185  0.0000E+00  0.0000E+00  0.1440E+03  0.1440E+03
     -9.944  0.0000E+00  0.0000E+00  0.1440E+03  0.1440E+03
     -9.702  0.0000E+00  0.0000E+00  0.1440E+03  0.1440E+03
     -9.461  0.0000E+00  0.0000E+00  0.1440E+03  0.1440E+03
     -9.220  0.0000E+00  0.0000E+00  0.1440E+03  0.1440E+03
     -8.978  0.0000E+00  0.0000E+00  0.1440E+03  0.1440E+03
     -8.737  0.0000E+00  0.0000E+00  0.1440E+03  0.1440E+03
     -8.496  0.0000E+00  0.0000E+00  0.1440E+03  0.1440E+03
     -8.254  0.0000E+00  0.0000E+00  0.1440E+03  0.1440E+03
     -8.013  0.0000E+00  0.0000E+00  0.1440E+03  0.1440E+03
     -7.772  0.7488E-06  0.0000E+00  0.1440E+03  0.1440E+03
     -7.530  0.2534E+01  0.1816E-06  0.1446E+03  0.1440E+03
     -7.289  0.2572E+02  0.2497E+01  0.1508E+03  0.1446E+03
     -7.048  0.2787E+02  0.2759E+02  0.1575E+03  0.1513E+03
     -6.806  0.4581E+02  0.2600E+02  0.1686E+03  0.1575E+03
     -6.565  0.9936E+01  0.3599E+02  0.1710E+03  0.1662E+03
     -6.324  0.0000E+00  0.1979E+02  0.1710E+03  0.1710E+03
     -6.082  0.0000E+00  0.4562E-03  0.1710E+03  0.1710E+03
     -5.841  0.0000E+00  0.0000E+00  0.1710E+03  0.1710E+03
     -5.600  0.0000E+00  0.0000E+00  0.1710E+03  0.1710E+03
     -5.358  0.0000E+00  0.0000E+00  0.1710E+03  0.1710E+03
     -5.117  0.0000E+00  0.0000E+00  0.1710E+03  0.1710E+03
     -4.876  0.0000E+00  0.0000E+00  0.1710E+03  0.1710E+03
     -4.634  0.0000E+00  0.0000E+00  0.1710E+03  0.1710E+03
     -4.393  0.0000E+00  0.0000E+00  0.1710E+03  0.1710E+03
     -4.152  0.0000E+00  0.0000E+00  0.1710E+03  0.1710E+03
     -3.910  0.0000E+00  0.0000E+00  0.1710E+03  0.1710E+03
     -3.669  0.0000E+00  0.0000E+00  0.1710E+03  0.1710E+03
     -3.427  0.0000E+00  0.0000E+00  0.1710E+03  0.1710E+03
     -3.186  0.0000E+00  0.0000E+00  0.1710E+03  0.1710E+03
     -2.945  0.0000E+00  0.0000E+00  0.1710E+03  0.1710E+03
     -2.703  0.0000E+00  0.0000E+00  0.1710E+03  0.1710E+03
     -2.462  0.0000E+00  0.0000E+00  0.1710E+03  0.1710E+03
     -2.221  0.1593E-13  0.0000E+00  0.1710E+03  0.1710E+03
     -1.979  0.1398E+01  0.0000E+00  0.1713E+03  0.1710E+03
     -1.738  0.3056E+02  0.0000E+00  0.1787E+03  0.1710E+03
     -1.497  0.1722E+02  0.0000E+00  0.1829E+03  0.1710E+03
     -1.255  0.1659E+02  0.0000E+00  0.1869E+03  0.1710E+03
     -1.014  0.2822E+02  0.0000E+00  0.1937E+03  0.1710E+03
     -0.773  0.5988E+02  0.1022E-15  0.2081E+03  0.1710E+03
     -0.531  0.6129E+02  0.8112E-01  0.2229E+03  0.1710E+03
     -0.290  0.4980E+02  0.1762E+02  0.2349E+03  0.1753E+03
     -0.049  0.7932E+02  0.1624E+02  0.2541E+03  0.1792E+03
      0.193  0.9513E+02  0.1602E+02  0.2770E+03  0.1831E+03
      0.434  0.7616E+02  0.2424E+02  0.2954E+03  0.1889E+03
      0.675  0.7694E+02  0.4032E+02  0.3140E+03  0.1986E+03
      0.917  0.4897E+02  0.4523E+02  0.3258E+03  0.2096E+03
      1.158  0.3445E+02  0.3885E+02  0.3341E+03  0.2189E+03
      1.399  0.4435E+02  0.2871E+02  0.3448E+03  0.2259E+03
      1.641  0.4609E+02  0.2837E+02  0.3560E+03  0.2327E+03
      1.882  0.6698E+02  0.3414E+02  0.3721E+03  0.2409E+03
      2.123  0.7990E+02  0.3923E+02  0.3914E+03  0.2504E+03
      2.365  0.4075E+02  0.2508E+02  0.4012E+03  0.2565E+03
      2.606  0.3772E+02  0.3044E+02  0.4103E+03  0.2638E+03
      2.847  0.5036E+02  0.4502E+02  0.4225E+03  0.2747E+03
      3.089  0.1187E+02  0.5034E+02  0.4254E+03  0.2868E+03
      3.330  0.1647E+02  0.4300E+02  0.4293E+03  0.2972E+03
      3.572  0.3802E+02  0.3040E+02  0.4385E+03  0.3045E+03
      3.813  0.2750E+02  0.7470E+01  0.4452E+03  0.3063E+03
      4.054  0.4128E+02  0.3967E+02  0.4551E+03  0.3159E+03
      4.296  0.3775E+02  0.7586E+02  0.4642E+03  0.3342E+03
      4.537  0.3889E+02  0.2920E+02  0.4736E+03  0.3413E+03
      4.778  0.3162E+02  0.3006E+01  0.4812E+03  0.3420E+03
      5.020  0.1921E+02  0.0000E+00  0.4859E+03  0.3420E+03
      5.261  0.4955E+00  0.0000E+00  0.4860E+03  0.3420E+03
      5.502  0.0000E+00  0.0000E+00  0.4860E+03  0.3420E+03
      5.744  0.0000E+00  0.0000E+00  0.4860E+03  0.3420E+03
      5.985  0.0000E+00  0.0000E+00  0.4860E+03  0.3420E+03
      6.226  0.0000E+00  0.1035E-03  0.4860E+03  0.3420E+03
      6.468  0.0000E+00  0.2257E+01  0.4860E+03  0.3425E+03
      6.709  0.0000E+00  0.5316E+01  0.4860E+03  0.3438E+03
      6.950  0.0000E+00  0.1521E+02  0.4860E+03  0.3475E+03
      7.192  0.7807E-07  0.3211E+02  0.4860E+03  0.3552E+03
      7.433  0.1494E+00  0.5811E+02  0.4860E+03  0.3693E+03
      7.674  0.5669E-02  0.6837E+02  0.4860E+03  0.3858E+03
      7.916  0.6843E+00  0.6576E+02  0.4862E+03  0.4016E+03
      8.157  0.1425E+01  0.7506E+02  0.4865E+03  0.4198E+03
      8.398  0.2921E+01  0.8276E+02  0.4873E+03  0.4397E+03
      8.640  0.5682E+01  0.6521E+02  0.4886E+03  0.4555E+03
      8.881  0.1154E+02  0.6077E+02  0.4914E+03  0.4701E+03
      9.122  0.1486E+02  0.4211E+02  0.4950E+03  0.4803E+03
      9.364  0.2021E+02  0.2176E+02  0.4999E+03  0.4856E+03
      9.605  0.1555E+02  0.5109E+01  0.5036E+03  0.4868E+03
      9.846  0.1872E+02  0.8311E+01  0.5081E+03  0.4888E+03
     10.088  0.2426E+02  0.1154E+02  0.5140E+03  0.4916E+03
     10.329  0.1880E+02  0.2276E+02  0.5185E+03  0.4971E+03
     10.570  0.1916E+02  0.2134E+02  0.5232E+03  0.5022E+03
     10.812  0.1217E+02  0.2228E+02  0.5261E+03  0.5076E+03
     11.053  0.1961E+02  0.2999E+02  0.5308E+03  0.5148E+03
     11.295  0.2511E+02  0.2305E+02  0.5369E+03  0.5204E+03
     11.536  0.3216E+02  0.2132E+02  0.5447E+03  0.5255E+03
     11.777  0.2745E+02  0.1398E+02  0.5513E+03  0.5289E+03
     12.019  0.3393E+02  0.1251E+02  0.5595E+03  0.5319E+03
     12.260  0.3139E+02  0.3340E+02  0.5670E+03  0.5400E+03
     12.501  0.2293E+02  0.4555E+02  0.5726E+03  0.5510E+03
     12.743  0.2174E+02  0.3627E+02  0.5778E+03  0.5597E+03
     12.984  0.2364E+02  0.2403E+02  0.5835E+03  0.5655E+03
     13.225  0.2837E+02  0.2042E+02  0.5904E+03  0.5705E+03
     13.467  0.2748E+02  0.3013E+02  0.5970E+03  0.5777E+03
     13.708  0.2168E+02  0.3002E+02  0.6022E+03  0.5850E+03
     13.949  0.1435E+02  0.2739E+02  0.6057E+03  0.5916E+03
     14.191  0.1261E+01  0.2367E+02  0.6060E+03  0.5973E+03
     14.432  0.0000E+00  0.2231E+02  0.6060E+03  0.6027E+03
     14.673  0.0000E+00  0.1302E+02  0.6060E+03  0.6058E+03
     14.915  0.0000E+00  0.6788E+00  0.6060E+03  0.6060E+03
     15.156  0.0000E+00  0.2147E-05  0.6060E+03  0.6060E+03
     15.397  0.0000E+00  0.0000E+00  0.6060E+03  0.6060E+03
     15.639  0.0000E+00  0.0000E+00  0.6060E+03  0.6060E+03
     15.880  0.0000E+00  0.0000E+00  0.6060E+03  0.6060E+03
     16.121  0.0000E+00  0.0000E+00  0.6060E+03  0.6060E+03
     16.363  0.0000E+00  0.0000E+00  0.6060E+03  0.6060E+03
     16.604  0.0000E+00  0.0000E+00  0.6060E+03  0.6060E+03
     16.845  0.0000E+00  0.0000E+00  0.6060E+03  0.6060E+03
     17.087  0.0000E+00  0.0000E+00  0.6060E+03  0.6060E+03
     17.328  0.0000E+00  0.0000E+00  0.6060E+03  0.6060E+03
     17.569  0.0000E+00  0.0000E+00  0.6060E+03  0.6060E+03
     17.811  0.0000E+00  0.0000E+00  0.6060E+03  0.6060E+03
     18.052  0.0000E+00  0.0000E+00  0.6060E+03  0.6060E+03
