<?xml version="1.0" encoding="ISO-8859-1"?>
<modeling>
 <generator>
  <i name="program" type="string">vasp </i>
  <i name="version" type="string">5.4.4.18Apr17-6-g9f103f2a35  </i>
  <i name="subversion" type="string">(build Oct 25 2017 14:42:18) complex            parallel </i>
  <i name="platform" type="string">LinuxIFC </i>
  <i name="date" type="string">2021 05 28 </i>
  <i name="time" type="string">05:11:03 </i>
 </generator>
 <incar>
  <i type="string" name="PREC">accurate</i>
  <i type="string" name="ALGO"> normal</i>
  <i type="logical" name="ADDGRID"> T  </i>
  <i type="int" name="ISPIN">     2</i>
  <i type="int" name="ICHARG">     1</i>
  <i type="int" name="NELM">   200</i>
  <i type="int" name="NELMIN">     8</i>
  <i name="EDIFF">      0.00000100</i>
  <i type="int" name="ISYM">     0</i>
  <i name="ENCUT">    650.00000000</i>
  <v name="MAGMOM">      0.60000000      0.60000000      0.60000000      0.60000000      0.60000000      0.60000000      0.60000000      0.60000000      0.60000000      0.60000000      0.60000000      0.60000000      0.60000000      0.60000000      0.60000000      0.60000000      0.60000000      0.60000000      0.60000000      0.60000000
      0.60000000      0.60000000      0.60000000      0.60000000      0.60000000      0.60000000      0.60000000      0.60000000      0.60000000      0.60000000      0.60000000      0.60000000      0.60000000      0.60000000      0.60000000      0.60000000      0.60000000      0.60000000      0.60000000      0.60000000
      0.60000000      0.60000000      0.60000000      0.60000000      0.60000000      0.60000000      0.60000000      0.60000000      0.60000000      0.60000000      0.60000000      0.60000000      0.60000000      0.60000000      0.60000000      0.60000000      0.60000000      0.60000000      0.60000000      0.60000000
      0.60000000      0.60000000      0.60000000      5.00000000      5.00000000      5.00000000      5.00000000      5.00000000      5.00000000      5.00000000      5.00000000      5.00000000      5.00000000      5.00000000      5.00000000      5.00000000      5.00000000      5.00000000      5.00000000      5.00000000
      5.00000000      5.00000000      5.00000000      5.00000000      5.00000000      5.00000000      5.00000000      5.00000000      5.00000000      5.00000000      5.00000000      5.00000000      5.00000000      5.00000000      5.00000000      5.00000000      5.00000000      5.00000000      5.00000000</v>
  <i type="logical" name="LREAL"> F  </i>
  <i type="int" name="ISMEAR">     0</i>
  <i name="SIGMA">      0.05000000</i>
  <i type="int" name="NWRITE">     1</i>
  <i type="int" name="LMAXMIX">     4</i>
  <i type="logical" name="LWAVE"> F  </i>
  <i type="logical" name="LASPH"> T  </i>
  <v type="int" name="KPOINT_BSE">    -1     0     0     0</v>
  <i type="int" name="NELM">   200</i>
  <i type="string" name="GGA"> pe</i>
  <i type="logical" name="LDAU"> T  </i>
  <v type="int" name="LDAUTYPE">     2</v>
  <v type="int" name="LDAUL">    -1    -1    -1     2</v>
  <v name="LDAUU">      0.00000000      0.00000000      0.00000000      4.00000000</v>
  <v name="LDAUJ">      0.00000000      0.00000000      0.00000000      0.00000000</v>
  <i type="logical" name="LASPH"> T  </i>
 </incar>
 <structure name="primitive_cell" >
  <crystal>
   <varray name="basis" >
    <v>      11.77726974       0.00848871       0.06923316 </v>
    <v>      -0.03028248      11.77723386       0.06923316 </v>
    <v>      -2.02000231      -2.02666320      10.18574622 </v>
   </varray>
   <i name="volume">   1416.10551572 </i>
   <varray name="rec_basis" >
    <v>       0.08481023       0.00011906       0.01684296 </v>
    <v>      -0.00016014       0.08481016       0.01684296 </v>
    <v>      -0.00057537      -0.00057727       0.09794744 </v>
   </varray>
  </crystal>
  <varray name="positions" >
   <v>       0.20224939       0.24206952      -0.16816581 </v>
   <v>       0.19734517       0.40355659      -0.19686089 </v>
   <v>       0.19734517       0.07022326      -0.19686089 </v>
   <v>       0.39684232       0.26982435       0.00000000 </v>
   <v>       0.06350899       0.26982435       0.00000000 </v>
   <v>       0.37094724       0.41064640      -0.15457223 </v>
   <v>       0.03761391       0.41064640      -0.15457223 </v>
   <v>       0.03761391       0.07731307      -0.15457223 </v>
   <v>       0.37094724       0.07731307      -0.15457223 </v>
   <v>       0.00253935       0.20657296      -0.37079665 </v>
   <v>       0.33587268       0.20657296      -0.37079665 </v>
   <v>       0.16118393       0.04306059      -0.39352170 </v>
   <v>       0.16118393       0.37639393      -0.39352170 </v>
   <v>       0.25602027       0.29571943       0.15457223 </v>
   <v>       0.20224939      -0.42459715      -0.16816581 </v>
   <v>       0.20224939      -0.09126381      -0.16816581 </v>
   <v>      -0.13108394       0.24206952      -0.16816581 </v>
   <v>      -0.46441728       0.24206952      -0.16816581 </v>
   <v>       0.26311007       0.13683724       0.19686089 </v>
   <v>       0.26311007       0.46932149       0.19686089 </v>
   <v>      -0.46932149       0.40355659      -0.19686089 </v>
   <v>      -0.13598816       0.07022326      -0.19686089 </v>
   <v>      -0.13598816       0.40355659      -0.19686089 </v>
   <v>      -0.46932149       0.07022326      -0.19686089 </v>
   <v>       0.42459715       0.46441728       0.16816581 </v>
   <v>       0.42459715       0.13108394       0.16816581 </v>
   <v>       0.09126381       0.46441728       0.16816581 </v>
   <v>       0.09126381       0.13108394       0.16816581 </v>
   <v>       0.39684232      -0.39684232       0.00000000 </v>
   <v>       0.06350899      -0.39684232       0.00000000 </v>
   <v>       0.06350899      -0.06350899       0.00000000 </v>
   <v>       0.39684232      -0.06350899       0.00000000 </v>
   <v>       0.00253935      -0.46009370      -0.37079665 </v>
   <v>       0.33587268      -0.46009370      -0.37079665 </v>
   <v>       0.29027274       0.17214940       0.39352170 </v>
   <v>       0.00253935      -0.12676037      -0.37079665 </v>
   <v>       0.33587268      -0.12676037      -0.37079665 </v>
   <v>       0.49451727       0.04306059      -0.39352170 </v>
   <v>      -0.04306059       0.17214940       0.39352170 </v>
   <v>       0.49451727       0.37639393      -0.39352170 </v>
   <v>      -0.17214940       0.04306059      -0.39352170 </v>
   <v>      -0.17214940       0.37639393      -0.39352170 </v>
   <v>       0.12676037       0.33079399       0.37079665 </v>
   <v>       0.12676037      -0.00253935       0.37079665 </v>
   <v>       0.25602027      -0.37094724       0.15457223 </v>
   <v>      -0.41064640       0.29571943       0.15457223 </v>
   <v>      -0.07731307       0.29571943       0.15457223 </v>
   <v>       0.25602027      -0.03761391       0.15457223 </v>
   <v>      -0.46441728      -0.42459715      -0.16816581 </v>
   <v>      -0.13108394      -0.09126381      -0.16816581 </v>
   <v>      -0.13108394      -0.42459715      -0.16816581 </v>
   <v>      -0.46441728      -0.09126381      -0.16816581 </v>
   <v>      -0.40355659       0.46932149       0.19686089 </v>
   <v>      -0.07022326       0.13598816       0.19686089 </v>
   <v>      -0.07022326       0.46932149       0.19686089 </v>
   <v>      -0.40355659       0.13598816       0.19686089 </v>
   <v>       0.46009370       0.33079399       0.37079665 </v>
   <v>       0.19734517      -0.26311007      -0.19686089 </v>
   <v>       0.29027274      -0.49451727       0.39352170 </v>
   <v>      -0.26982435       0.26982435       0.00000000 </v>
   <v>       0.37094724      -0.25602027      -0.15457223 </v>
   <v>      -0.29571943       0.41064640      -0.15457223 </v>
   <v>       0.03761391      -0.25602027      -0.15457223 </v>
   <v>      -0.29571943       0.07731307      -0.15457223 </v>
   <v>       0.29027274      -0.16118393       0.39352170 </v>
   <v>      -0.33079399       0.20657296      -0.37079665 </v>
   <v>      -0.04306059      -0.16118393       0.39352170 </v>
   <v>       0.16118393      -0.29027274      -0.39352170 </v>
   <v>      -0.04306059      -0.49451727       0.39352170 </v>
   <v>      -0.20657296       0.33079399       0.37079665 </v>
   <v>      -0.20657296      -0.00253935       0.37079665 </v>
   <v>      -0.41064640      -0.37094724       0.15457223 </v>
   <v>       0.46009370      -0.00253935       0.37079665 </v>
   <v>      -0.07731307      -0.03761391       0.15457223 </v>
   <v>      -0.07731307      -0.37094724       0.15457223 </v>
   <v>      -0.41064640      -0.03761391       0.15457223 </v>
   <v>       0.26311007      -0.19734517       0.19686089 </v>
   <v>       0.12676037      -0.33587268       0.37079665 </v>
   <v>       0.46009370      -0.33587268       0.37079665 </v>
   <v>      -0.46932149      -0.26311007      -0.19686089 </v>
   <v>      -0.13598816      -0.26311007      -0.19686089 </v>
   <v>       0.42459715      -0.20224939       0.16816581 </v>
   <v>      -0.24206952       0.46441728       0.16816581 </v>
   <v>       0.09126381      -0.20224939       0.16816581 </v>
   <v>      -0.24206952       0.13108394       0.16816581 </v>
   <v>      -0.37639393       0.17214940       0.39352170 </v>
   <v>      -0.37639393      -0.49451727       0.39352170 </v>
   <v>      -0.26982435      -0.39684232       0.00000000 </v>
   <v>      -0.26982435      -0.06350899       0.00000000 </v>
   <v>      -0.33079399      -0.46009370      -0.37079665 </v>
   <v>      -0.33079399      -0.12676037      -0.37079665 </v>
   <v>       0.49451727      -0.29027274      -0.39352170 </v>
   <v>      -0.17214940      -0.29027274      -0.39352170 </v>
   <v>      -0.07022326      -0.19734517       0.19686089 </v>
   <v>      -0.40355659      -0.19734517       0.19686089 </v>
   <v>      -0.37639393      -0.16118393       0.39352170 </v>
   <v>      -0.29571943      -0.25602027      -0.15457223 </v>
   <v>      -0.20657296      -0.33587268       0.37079665 </v>
   <v>      -0.24206952      -0.20224939       0.16816581 </v>
  </varray>
 </structure>
 <varray name="primitive_index" >
  <v type="int" >        1 </v>
  <v type="int" >       31 </v>
  <v type="int" >       28 </v>
  <v type="int" >       56 </v>
  <v type="int" >       55 </v>
  <v type="int" >       86 </v>
  <v type="int" >       85 </v>
  <v type="int" >       82 </v>
  <v type="int" >       83 </v>
  <v type="int" >       37 </v>
  <v type="int" >       38 </v>
  <v type="int" >       73 </v>
  <v type="int" >       76 </v>
  <v type="int" >       91 </v>
  <v type="int" >        4 </v>
  <v type="int" >        7 </v>
  <v type="int" >        3 </v>
  <v type="int" >        2 </v>
  <v type="int" >       19 </v>
  <v type="int" >       22 </v>
  <v type="int" >       32 </v>
  <v type="int" >       30 </v>
  <v type="int" >       33 </v>
  <v type="int" >       29 </v>
  <v type="int" >       14 </v>
  <v type="int" >       11 </v>
  <v type="int" >       13 </v>
  <v type="int" >       10 </v>
  <v type="int" >       59 </v>
  <v type="int" >       58 </v>
  <v type="int" >       61 </v>
  <v type="int" >       62 </v>
  <v type="int" >       40 </v>
  <v type="int" >       41 </v>
  <v type="int" >       64 </v>
  <v type="int" >       43 </v>
  <v type="int" >       44 </v>
  <v type="int" >       74 </v>
  <v type="int" >       66 </v>
  <v type="int" >       77 </v>
  <v type="int" >       75 </v>
  <v type="int" >       78 </v>
  <v type="int" >       46 </v>
  <v type="int" >       52 </v>
  <v type="int" >       94 </v>
  <v type="int" >       92 </v>
  <v type="int" >       93 </v>
  <v type="int" >       97 </v>
  <v type="int" >        5 </v>
  <v type="int" >        9 </v>
  <v type="int" >        6 </v>
  <v type="int" >        8 </v>
  <v type="int" >       23 </v>
  <v type="int" >       21 </v>
  <v type="int" >       24 </v>
  <v type="int" >       20 </v>
  <v type="int" >       47 </v>
  <v type="int" >       34 </v>
  <v type="int" >       67 </v>
  <v type="int" >       57 </v>
  <v type="int" >       89 </v>
  <v type="int" >       87 </v>
  <v type="int" >       88 </v>
  <v type="int" >       84 </v>
  <v type="int" >       70 </v>
  <v type="int" >       39 </v>
  <v type="int" >       72 </v>
  <v type="int" >       79 </v>
  <v type="int" >       69 </v>
  <v type="int" >       48 </v>
  <v type="int" >       54 </v>
  <v type="int" >       95 </v>
  <v type="int" >       53 </v>
  <v type="int" >       99 </v>
  <v type="int" >       96 </v>
  <v type="int" >       98 </v>
  <v type="int" >       25 </v>
  <v type="int" >       49 </v>
  <v type="int" >       50 </v>
  <v type="int" >       35 </v>
  <v type="int" >       36 </v>
  <v type="int" >       17 </v>
  <v type="int" >       15 </v>
  <v type="int" >       16 </v>
  <v type="int" >       12 </v>
  <v type="int" >       65 </v>
  <v type="int" >       68 </v>
  <v type="int" >       60 </v>
  <v type="int" >       63 </v>
  <v type="int" >       42 </v>
  <v type="int" >       45 </v>
  <v type="int" >       80 </v>
  <v type="int" >       81 </v>
  <v type="int" >       27 </v>
  <v type="int" >       26 </v>
  <v type="int" >       71 </v>
  <v type="int" >       90 </v>
  <v type="int" >       51 </v>
  <v type="int" >       18 </v>
 </varray>
 <kpoints>
  <generation param="Gamma">
   <v type="int" name="divisions">       3        3        3 </v>
   <v name="usershift">      0.00000000       0.00000000       0.00000000 </v>
   <v name="genvec1">      0.33333333       0.00000000       0.00000000 </v>
   <v name="genvec2">      0.00000000       0.33333333       0.00000000 </v>
   <v name="genvec3">      0.00000000       0.00000000       0.33333333 </v>
   <v name="shift">      0.00000000       0.00000000       0.00000000 </v>
  </generation>
  <varray name="kpointlist" >
   <v>       0.00000000       0.00000000       0.00000000 </v>
   <v>       0.33333333      -0.00000000      -0.00000000 </v>
   <v>       0.00000000       0.33333333       0.00000000 </v>
   <v>       0.33333333       0.33333333       0.00000000 </v>
   <v>      -0.33333333       0.33333333       0.00000000 </v>
   <v>      -0.00000000      -0.00000000       0.33333333 </v>
   <v>       0.33333333      -0.00000000       0.33333333 </v>
   <v>      -0.33333333      -0.00000000       0.33333333 </v>
   <v>      -0.00000000       0.33333333       0.33333333 </v>
   <v>       0.33333333       0.33333333       0.33333333 </v>
   <v>      -0.33333333       0.33333333       0.33333333 </v>
   <v>      -0.00000000      -0.33333333       0.33333333 </v>
   <v>       0.33333333      -0.33333333       0.33333333 </v>
   <v>      -0.33333333      -0.33333333       0.33333333 </v>
  </varray>
  <varray name="weights" >
   <v>       0.03703704 </v>
   <v>       0.07407407 </v>
   <v>       0.07407407 </v>
   <v>       0.07407407 </v>
   <v>       0.07407407 </v>
   <v>       0.07407407 </v>
   <v>       0.07407407 </v>
   <v>       0.07407407 </v>
   <v>       0.07407407 </v>
   <v>       0.07407407 </v>
   <v>       0.07407407 </v>
   <v>       0.07407407 </v>
   <v>       0.07407407 </v>
   <v>       0.07407407 </v>
  </varray>
 </kpoints>
 <parameters>
  <separator name="general" >
   <i type="string" name="SYSTEM">unknown system</i>
   <i type="logical" name="LCOMPAT"> F  </i>
  </separator>
  <separator name="electronic" >
   <i type="string" name="PREC">accura</i>
   <i name="ENMAX">    650.00000000</i>
   <i name="ENAUG">    628.94500000</i>
   <i name="EDIFF">      0.00000100</i>
   <i type="int" name="IALGO">    38</i>
   <i type="int" name="IWAVPR">    10</i>
   <i type="int" name="NBANDS">   606</i>
   <i name="NELECT">    828.00000000</i>
   <i type="int" name="TURBO">     0</i>
   <i type="int" name="IRESTART">     0</i>
   <i type="int" name="NREBOOT">     0</i>
   <i type="int" name="NMIN">     0</i>
   <i name="EREF">      0.00000000</i>
   <separator name="electronic smearing" >
    <i type="int" name="ISMEAR">     0</i>
    <i name="SIGMA">      0.05000000</i>
    <i name="KSPACING">      0.50000000</i>
    <i type="logical" name="KGAMMA"> T  </i>
   </separator>
   <separator name="electronic projectors" >
    <i type="logical" name="LREAL"> F  </i>
    <v name="ROPT">      0.00000000      0.00000000      0.00000000      0.00000000</v>
    <i type="int" name="LMAXPAW">  -100</i>
    <i type="int" name="LMAXMIX">     4</i>
    <i type="logical" name="NLSPLINE"> F  </i>
   </separator>
   <separator name="electronic startup" >
    <i type="int" name="ISTART">     0</i>
    <i type="int" name="ICHARG">     1</i>
    <i type="int" name="INIWAV">     1</i>
   </separator>
   <separator name="electronic spin" >
    <i type="int" name="ISPIN">     2</i>
    <i type="logical" name="LNONCOLLINEAR"> F  </i>
    <v name="MAGMOM">      0.60000000      0.60000000      0.60000000      0.60000000      0.60000000      0.60000000      0.60000000      0.60000000      0.60000000      0.60000000      0.60000000      0.60000000      0.60000000      0.60000000      0.60000000      0.60000000      0.60000000      0.60000000      0.60000000      0.60000000
      0.60000000      0.60000000      0.60000000      0.60000000      0.60000000      0.60000000      0.60000000      0.60000000      0.60000000      0.60000000      0.60000000      0.60000000      0.60000000      0.60000000      0.60000000      0.60000000      0.60000000      0.60000000      0.60000000      0.60000000
      0.60000000      0.60000000      0.60000000      0.60000000      0.60000000      0.60000000      0.60000000      0.60000000      0.60000000      0.60000000      0.60000000      0.60000000      0.60000000      0.60000000      0.60000000      0.60000000      0.60000000      0.60000000      0.60000000      0.60000000
      0.60000000      0.60000000      0.60000000      5.00000000      5.00000000      5.00000000      5.00000000      5.00000000      5.00000000      5.00000000      5.00000000      5.00000000      5.00000000      5.00000000      5.00000000      5.00000000      5.00000000      5.00000000      5.00000000      5.00000000
      5.00000000      5.00000000      5.00000000      5.00000000      5.00000000      5.00000000      5.00000000      5.00000000      5.00000000      5.00000000      5.00000000      5.00000000      5.00000000      5.00000000      5.00000000      5.00000000      5.00000000      5.00000000      5.00000000</v>
    <i name="NUPDOWN">     -1.00000000</i>
    <i type="logical" name="LSORBIT"> F  </i>
    <v name="SAXIS">      0.00000000      0.00000000      1.00000000</v>
    <i type="logical" name="LSPIRAL"> F  </i>
    <v name="QSPIRAL">      0.00000000      0.00000000      0.00000000</v>
    <i type="logical" name="LZEROZ"> F  </i>
   </separator>
   <separator name="electronic exchange-correlation" >
    <i type="logical" name="LASPH"> T  </i>
    <i type="logical" name="LMETAGGA"> F  </i>
   </separator>
   <separator name="electronic convergence" >
    <i type="int" name="NELM">   200</i>
    <i type="int" name="NELMDL">     0</i>
    <i type="int" name="NELMIN">     8</i>
    <i name="ENINI">    650.00000000</i>
    <separator name="electronic convergence detail" >
     <i type="logical" name="LDIAG"> T  </i>
     <i type="logical" name="LSUBROT"> F  </i>
     <i name="WEIMIN">      0.00000000</i>
     <i name="EBREAK">      0.00000000</i>
     <i name="DEPER">      0.30000000</i>
     <i type="int" name="NRMM">     4</i>
     <i name="TIME">      0.40000000</i>
    </separator>
   </separator>
   <separator name="electronic mixer" >
    <i name="AMIX">      0.40000000</i>
    <i name="BMIX">      1.00000000</i>
    <i name="AMIN">      0.10000000</i>
    <i name="AMIX_MAG">      1.60000000</i>
    <i name="BMIX_MAG">      1.00000000</i>
    <separator name="electronic mixer details" >
     <i type="int" name="IMIX">     4</i>
     <i type="logical" name="MIXFIRST"> F  </i>
     <i type="int" name="MAXMIX">   -45</i>
     <i name="WC">    100.00000000</i>
     <i type="int" name="INIMIX">     1</i>
     <i type="int" name="MIXPRE">     1</i>
     <i type="int" name="MREMOVE">     5</i>
    </separator>
   </separator>
   <separator name="electronic dipolcorrection" >
    <i type="logical" name="LDIPOL"> F  </i>
    <i type="logical" name="LMONO"> F  </i>
    <i type="int" name="IDIPOL">     0</i>
    <i name="EPSILON">      1.00000000</i>
    <v name="DIPOL">   -100.00000000   -100.00000000   -100.00000000</v>
    <i name="EFIELD">      0.00000000</i>
   </separator>
  </separator>
  <separator name="grids" >
   <i type="int" name="NGX">    98</i>
   <i type="int" name="NGY">    98</i>
   <i type="int" name="NGZ">    90</i>
   <i type="int" name="NGXF">   196</i>
   <i type="int" name="NGYF">   196</i>
   <i type="int" name="NGZF">   180</i>
   <i type="logical" name="ADDGRID"> T  </i>
  </separator>
  <separator name="ionic" >
   <i type="int" name="NSW">     0</i>
   <i type="int" name="IBRION">    -1</i>
   <i type="int" name="MDALGO">     0</i>
   <i type="int" name="ISIF">     2</i>
   <i name="PSTRESS">      0.00000000</i>
   <i name="EDIFFG">      0.00001000</i>
   <i type="int" name="NFREE">     0</i>
   <i name="POTIM">      0.50000000</i>
   <i name="SMASS">     -3.00000000</i>
   <i name="SCALEE">      1.00000000</i>
  </separator>
  <separator name="ionic md" >
   <i name="TEBEG">      0.00010000</i>
   <i name="TEEND">      0.00010000</i>
   <i type="int" name="NBLOCK">     1</i>
   <i type="int" name="KBLOCK">     1</i>
   <i type="int" name="NPACO">   256</i>
   <i name="APACO">     16.00000000</i>
  </separator>
  <separator name="symmetry" >
   <i type="int" name="ISYM">     0</i>
   <i name="SYMPREC">      0.00001000</i>
  </separator>
  <separator name="dos" >
   <i type="int" name="LORBIT">     0</i>
   <v name="RWIGS">     -1.00000000     -1.00000000     -1.00000000     -1.00000000</v>
   <i type="int" name="NEDOS">   301</i>
   <i name="EMIN">     10.00000000</i>
   <i name="EMAX">    -10.00000000</i>
   <i name="EFERMI">      0.00000000</i>
  </separator>
  <separator name="writing" >
   <i type="int" name="NWRITE">     1</i>
   <i type="logical" name="LWAVE"> F  </i>
   <i type="logical" name="LDOWNSAMPLE"> F  </i>
   <i type="logical" name="LCHARG"> T  </i>
   <i type="logical" name="LPARD"> F  </i>
   <i type="logical" name="LVTOT"> F  </i>
   <i type="logical" name="LVHAR"> F  </i>
   <i type="logical" name="LELF"> F  </i>
   <i type="logical" name="LOPTICS"> F  </i>
   <v name="STM">      0.00000000      0.00000000      0.00000000      0.00000000      0.00000000      0.00000000      0.00000000</v>
  </separator>
  <separator name="performance" >
   <i type="int" name="NPAR">     2</i>
   <i type="int" name="NSIM">     4</i>
   <i type="int" name="NBLK">    -1</i>
   <i type="logical" name="LPLANE"> T  </i>
   <i type="logical" name="LSCALAPACK"> T  </i>
   <i type="logical" name="LSCAAWARE"> F  </i>
   <i type="logical" name="LSCALU"> F  </i>
   <i type="logical" name="LASYNC"> F  </i>
   <i type="logical" name="LORBITALREAL"> F  </i>
  </separator>
  <separator name="miscellaneous" >
   <i type="int" name="IDIOT">     3</i>
   <i type="int" name="ISPECIAL">     0</i>
   <i type="logical" name="LMUSIC"> F  </i>
   <v name="POMASS">      7.01000000     16.00000000     32.06600000     55.84700000</v>
   <v name="DARWINR">      0.00000000      0.00000000      0.00000000      0.00000000</v>
   <v name="DARWINV">      1.00000000      1.00000000      1.00000000      1.00000000</v>
   <i type="logical" name="LCORR"> T  </i>
  </separator>
  <i type="logical" name="GGA_COMPAT"> T  </i>
  <i type="logical" name="LBERRY"> F  </i>
  <i type="int" name="ICORELEVEL">     0</i>
  <i type="logical" name="LDAU"> T  </i>
  <v type="int" name="LDAUTYPE">     2</v>
  <v type="int" name="LDAUL">    -1</v>
  <v name="LDAUU">      0.00000000</v>
  <v name="LDAUJ">      0.00000000</v>
  <i type="int" name="LDAUPRINT">     0</i>
  <i type="int" name="I_CONSTRAINED_M">     0</i>
  <separator name="electronic exchange-correlation" >
   <i type="string" name="GGA">PE</i>
   <i type="int" name="VOSKOWN">     0</i>
   <i type="logical" name="LHFCALC"> F  </i>
   <i type="string" name="PRECFOCK"></i>
   <i type="logical" name="LSYMGRAD"> F  </i>
   <i type="logical" name="LHFONE"> F  </i>
   <i type="logical" name="LRHFCALC"> F  </i>
   <i type="logical" name="LTHOMAS"> F  </i>
   <i type="logical" name="LMODELHF"> F  </i>
   <i name="ENCUT4O">     -1.00000000</i>
   <i type="int" name="EXXOEP">     0</i>
   <i type="int" name="FOURORBIT">     0</i>
   <i name="AEXX">      0.00000000</i>
   <i name="HFALPHA">      0.00000000</i>
   <i name="MCALPHA">      0.00000000</i>
   <i name="ALDAX">      1.00000000</i>
   <i name="AGGAX">      1.00000000</i>
   <i name="ALDAC">      1.00000000</i>
   <i name="AGGAC">      1.00000000</i>
   <i type="int" name="NKREDX">     1</i>
   <i type="int" name="NKREDY">     1</i>
   <i type="int" name="NKREDZ">     1</i>
   <i type="logical" name="SHIFTRED"> F  </i>
   <i type="logical" name="ODDONLY"> F  </i>
   <i type="logical" name="EVENONLY"> F  </i>
   <i type="int" name="LMAXFOCK">     0</i>
   <i type="int" name="NMAXFOCKAE">     0</i>
   <i type="logical" name="LFOCKAEDFT"> F  </i>
   <i name="HFSCREEN">      0.00000000</i>
   <i name="HFSCREENC">      0.00000000</i>
   <i type="int" name="NBANDSGWLOW">     0</i>
  </separator>
  <separator name="vdW DFT" >
   <i type="logical" name="LUSE_VDW"> F  </i>
   <i name="Zab_VDW">     -0.84910000</i>
   <i name="PARAM1">      0.12340000</i>
   <i name="PARAM2">      1.00000000</i>
   <i name="PARAM3">      0.00000000</i>
  </separator>
  <separator name="model GW" >
   <i type="int" name="MODEL_GW">     0</i>
   <i name="MODEL_EPS0">      8.58245767</i>
   <i name="MODEL_ALPHA">      1.00000000</i>
  </separator>
  <separator name="linear response parameters" >
   <i type="logical" name="LEPSILON"> F  </i>
   <i type="logical" name="LRPA"> F  </i>
   <i type="logical" name="LNABLA"> F  </i>
   <i type="logical" name="LVEL"> F  </i>
   <i type="int" name="KINTER">     0</i>
   <i name="CSHIFT">      0.10000000</i>
   <i name="OMEGAMAX">     -1.00000000</i>
   <i name="DEG_THRESHOLD">      0.00200000</i>
   <i name="RTIME">     -0.10000000</i>
   <i name="WPLASMAI">      0.00000000</i>
   <v name="DFIELD">      0.00000000      0.00000000      0.00000000</v>
   <v name="WPLASMA">      0.00000000      0.00000000      0.00000000      0.00000000      0.00000000      0.00000000      0.00000000      0.00000000      0.00000000</v>
  </separator>
  <separator name="orbital magnetization" >
   <i type="logical" name="NUCIND"> F  </i>
   <v name="MAGPOS">      0.00000000      0.00000000      0.00000000</v>
   <i type="logical" name="LNICSALL"> T  </i>
   <i type="logical" name="ORBITALMAG"> F  </i>
   <i type="logical" name="LMAGBLOCH"> F  </i>
   <i type="logical" name="LCHIMAG"> F  </i>
   <i type="logical" name="LGAUGE"> T  </i>
   <i type="int" name="MAGATOM">     0</i>
   <v name="MAGDIPOL">      0.00000000      0.00000000      0.00000000</v>
   <v name="AVECCONST">      0.00000000      0.00000000      0.00000000</v>
  </separator>
  <separator name="response functions" >
   <i type="logical" name="LADDER"> F  </i>
   <i type="logical" name="LRPAFORCE"> F  </i>
   <i type="logical" name="LFXC"> F  </i>
   <i type="logical" name="LHARTREE"> T  </i>
   <i type="int" name="IBSE">     0</i>
   <v type="int" name="KPOINT">    -1     0     0     0</v>
   <i type="logical" name="LTCTE"> F  </i>
   <i type="logical" name="LTETE"> F  </i>
   <i type="logical" name="LTRIPLET"> F  </i>
   <i type="logical" name="LFXCEPS"> F  </i>
   <i type="logical" name="LFXHEG"> F  </i>
   <i type="int" name="NATURALO">     2</i>
   <i type="logical" name="L2ORDER"> F  </i>
   <i type="logical" name="LMP2LT"> F  </i>
   <i type="logical" name="LUSEW"> F  </i>
   <i name="ENCUTGW">     -2.00000000</i>
   <i name="ENCUTGWSOFT">     -2.00000000</i>
   <i name="ENCUTLF">     -1.00000000</i>
   <i type="int" name="LMAXMP2">    -1</i>
   <i name="SCISSOR">      0.00000000</i>
   <i type="int" name="NOMEGA">     0</i>
   <i type="int" name="NOMEGAR">     0</i>
   <i type="int" name="NBANDSGW">    -1</i>
   <i type="int" name="NBANDSO">    -1</i>
   <i type="int" name="NBANDSV">    -1</i>
   <i type="int" name="NELM">   200</i>
   <i type="int" name="NELMHF">     1</i>
   <i type="int" name="DIM">     3</i>
   <i type="int" name="ANTIRES">     0</i>
   <i name="OMEGAMAX">    -30.00000000</i>
   <i name="OMEGAMIN">    -30.00000000</i>
   <i name="OMEGATL">   -200.00000000</i>
   <i type="int" name="OMEGAGRID">   140</i>
   <i name="CSHIFT">     -0.10000000</i>
   <i type="logical" name="SELFENERGY"> F  </i>
   <i type="logical" name="LSPECTRAL"> F  </i>
   <i type="logical" name="LSPECTRALGW"> F  </i>
   <i type="logical" name="LSINGLES"> F  </i>
   <i type="logical" name="LFERMIGW"> F  </i>
   <i type="logical" name="ODDONLYGW"> F  </i>
   <i type="logical" name="EVENONLYGW"> F  </i>
   <i type="int" name="NKREDLFX">     1</i>
   <i type="int" name="NKREDLFY">     1</i>
   <i type="int" name="NKREDLFZ">     1</i>
   <i type="int" name="MAXMEM">  2800</i>
   <i type="int" name="TELESCOPE">     0</i>
   <i type="int" name="TAUPAR">     1</i>
   <i type="int" name="OMEGAPAR">    -1</i>
   <i name="LAMBDA">      1.00000000</i>
  </separator>
  <separator name="External order field" >
   <i name="OFIELD_KAPPA">      0.00000000</i>
   <v name="OFIELD_K">      0.00000000      0.00000000      0.00000000</v>
   <i name="OFIELD_Q6_NEAR">      0.00000000</i>
   <i name="OFIELD_Q6_FAR">      0.00000000</i>
   <i name="OFIELD_A">      0.00000000</i>
  </separator>
 </parameters>
 <atominfo>
  <atoms>      99 </atoms>
  <types>       4 </types>
  <array name="atoms" >
   <dimension dim="1">ion</dimension>
   <field type="string">element</field>
   <field type="int">atomtype</field>
   <set>
    <rc><c>Li</c><c>   1</c></rc>
    <rc><c>Li</c><c>   1</c></rc>
    <rc><c>Li</c><c>   1</c></rc>
    <rc><c>Li</c><c>   1</c></rc>
    <rc><c>Li</c><c>   1</c></rc>
    <rc><c>Li</c><c>   1</c></rc>
    <rc><c>Li</c><c>   1</c></rc>
    <rc><c>Li</c><c>   1</c></rc>
    <rc><c>Li</c><c>   1</c></rc>
    <rc><c>Li</c><c>   1</c></rc>
    <rc><c>Li</c><c>   1</c></rc>
    <rc><c>Li</c><c>   1</c></rc>
    <rc><c>Li</c><c>   1</c></rc>
    <rc><c>Li</c><c>   1</c></rc>
    <rc><c>Li</c><c>   1</c></rc>
    <rc><c>Li</c><c>   1</c></rc>
    <rc><c>Li</c><c>   1</c></rc>
    <rc><c>Li</c><c>   1</c></rc>
    <rc><c>O </c><c>   2</c></rc>
    <rc><c>O </c><c>   2</c></rc>
    <rc><c>O </c><c>   2</c></rc>
    <rc><c>O </c><c>   2</c></rc>
    <rc><c>O </c><c>   2</c></rc>
    <rc><c>O </c><c>   2</c></rc>
    <rc><c>O </c><c>   2</c></rc>
    <rc><c>O </c><c>   2</c></rc>
    <rc><c>O </c><c>   2</c></rc>
    <rc><c>O </c><c>   2</c></rc>
    <rc><c>O </c><c>   2</c></rc>
    <rc><c>O </c><c>   2</c></rc>
    <rc><c>O </c><c>   2</c></rc>
    <rc><c>O </c><c>   2</c></rc>
    <rc><c>O </c><c>   2</c></rc>
    <rc><c>O </c><c>   2</c></rc>
    <rc><c>O </c><c>   2</c></rc>
    <rc><c>O </c><c>   2</c></rc>
    <rc><c>S </c><c>   3</c></rc>
    <rc><c>S </c><c>   3</c></rc>
    <rc><c>S </c><c>   3</c></rc>
    <rc><c>S </c><c>   3</c></rc>
    <rc><c>S </c><c>   3</c></rc>
    <rc><c>S </c><c>   3</c></rc>
    <rc><c>S </c><c>   3</c></rc>
    <rc><c>S </c><c>   3</c></rc>
    <rc><c>S </c><c>   3</c></rc>
    <rc><c>S </c><c>   3</c></rc>
    <rc><c>S </c><c>   3</c></rc>
    <rc><c>S </c><c>   3</c></rc>
    <rc><c>S </c><c>   3</c></rc>
    <rc><c>S </c><c>   3</c></rc>
    <rc><c>S </c><c>   3</c></rc>
    <rc><c>S </c><c>   3</c></rc>
    <rc><c>S </c><c>   3</c></rc>
    <rc><c>S </c><c>   3</c></rc>
    <rc><c>S </c><c>   3</c></rc>
    <rc><c>S </c><c>   3</c></rc>
    <rc><c>S </c><c>   3</c></rc>
    <rc><c>S </c><c>   3</c></rc>
    <rc><c>S </c><c>   3</c></rc>
    <rc><c>S </c><c>   3</c></rc>
    <rc><c>S </c><c>   3</c></rc>
    <rc><c>S </c><c>   3</c></rc>
    <rc><c>S </c><c>   3</c></rc>
    <rc><c>Fe</c><c>   4</c></rc>
    <rc><c>Fe</c><c>   4</c></rc>
    <rc><c>Fe</c><c>   4</c></rc>
    <rc><c>Fe</c><c>   4</c></rc>
    <rc><c>Fe</c><c>   4</c></rc>
    <rc><c>Fe</c><c>   4</c></rc>
    <rc><c>Fe</c><c>   4</c></rc>
    <rc><c>Fe</c><c>   4</c></rc>
    <rc><c>Fe</c><c>   4</c></rc>
    <rc><c>Fe</c><c>   4</c></rc>
    <rc><c>Fe</c><c>   4</c></rc>
    <rc><c>Fe</c><c>   4</c></rc>
    <rc><c>Fe</c><c>   4</c></rc>
    <rc><c>Fe</c><c>   4</c></rc>
    <rc><c>Fe</c><c>   4</c></rc>
    <rc><c>Fe</c><c>   4</c></rc>
    <rc><c>Fe</c><c>   4</c></rc>
    <rc><c>Fe</c><c>   4</c></rc>
    <rc><c>Fe</c><c>   4</c></rc>
    <rc><c>Fe</c><c>   4</c></rc>
    <rc><c>Fe</c><c>   4</c></rc>
    <rc><c>Fe</c><c>   4</c></rc>
    <rc><c>Fe</c><c>   4</c></rc>
    <rc><c>Fe</c><c>   4</c></rc>
    <rc><c>Fe</c><c>   4</c></rc>
    <rc><c>Fe</c><c>   4</c></rc>
    <rc><c>Fe</c><c>   4</c></rc>
    <rc><c>Fe</c><c>   4</c></rc>
    <rc><c>Fe</c><c>   4</c></rc>
    <rc><c>Fe</c><c>   4</c></rc>
    <rc><c>Fe</c><c>   4</c></rc>
    <rc><c>Fe</c><c>   4</c></rc>
    <rc><c>Fe</c><c>   4</c></rc>
    <rc><c>Fe</c><c>   4</c></rc>
    <rc><c>Fe</c><c>   4</c></rc>
    <rc><c>Fe</c><c>   4</c></rc>
   </set>
  </array>
  <array name="atomtypes" >
   <dimension dim="1">type</dimension>
   <field type="int">atomspertype</field>
   <field type="string">element</field>
   <field>mass</field>
   <field>valence</field>
   <field type="string">pseudopotential</field>
   <set>
    <rc><c>  18</c><c>Li</c><c>      7.01000000</c><c>      3.00000000</c><c>  PAW_PBE Li_sv 10Sep2004               </c></rc>
    <rc><c>  18</c><c>O </c><c>     16.00000000</c><c>      6.00000000</c><c>  PAW_PBE O 08Apr2002                   </c></rc>
    <rc><c>  27</c><c>S </c><c>     32.06600000</c><c>      6.00000000</c><c>  PAW_PBE S 06Sep2000                   </c></rc>
    <rc><c>  36</c><c>Fe</c><c>     55.84700000</c><c>     14.00000000</c><c>  PAW_PBE Fe_pv 02Aug2007               </c></rc>
   </set>
  </array>
 </atominfo>
 <structure name="initialpos" >
  <crystal>
   <varray name="basis" >
    <v>      11.77726974       0.00848871       0.06923316 </v>
    <v>      -0.03028248      11.77723386       0.06923316 </v>
    <v>      -2.02000231      -2.02666320      10.18574622 </v>
   </varray>
   <i name="volume">   1416.10551572 </i>
   <varray name="rec_basis" >
    <v>       0.08481023       0.00011906       0.01684296 </v>
    <v>      -0.00016014       0.08481016       0.01684296 </v>
    <v>      -0.00057537      -0.00057727       0.09794744 </v>
   </varray>
  </crystal>
  <varray name="positions" >
   <v>       0.20224939       0.24206952       0.83183419 </v>
   <v>       0.53558272       0.24206952       0.83183419 </v>
   <v>       0.86891606       0.24206952       0.83183419 </v>
   <v>       0.20224939       0.57540285       0.83183419 </v>
   <v>       0.53558272       0.57540285       0.83183419 </v>
   <v>       0.86891606       0.57540285       0.83183419 </v>
   <v>       0.20224939       0.90873619       0.83183419 </v>
   <v>       0.53558272       0.90873619       0.83183419 </v>
   <v>       0.86891606       0.90873619       0.83183419 </v>
   <v>       0.09126381       0.13108394       0.16816581 </v>
   <v>       0.42459715       0.13108394       0.16816581 </v>
   <v>       0.75793048       0.13108394       0.16816581 </v>
   <v>       0.09126381       0.46441728       0.16816581 </v>
   <v>       0.42459715       0.46441728       0.16816581 </v>
   <v>       0.75793048       0.46441728       0.16816581 </v>
   <v>       0.09126381       0.79775061       0.16816581 </v>
   <v>       0.42459715       0.79775061       0.16816581 </v>
   <v>       0.75793048       0.79775061       0.16816581 </v>
   <v>       0.26311007       0.13683724       0.19686089 </v>
   <v>       0.59644341       0.13598816       0.19686089 </v>
   <v>       0.92977674       0.13598816       0.19686089 </v>
   <v>       0.26311007       0.46932149       0.19686089 </v>
   <v>       0.59644341       0.46932149       0.19686089 </v>
   <v>       0.92977674       0.46932149       0.19686089 </v>
   <v>       0.26311007       0.80265483       0.19686089 </v>
   <v>       0.59644341       0.80265483       0.19686089 </v>
   <v>       0.92977674       0.80265483       0.19686089 </v>
   <v>       0.19734517       0.07022326       0.80313911 </v>
   <v>       0.53067851       0.07022326       0.80313911 </v>
   <v>       0.86401184       0.07022326       0.80313911 </v>
   <v>       0.19734517       0.40355659       0.80313911 </v>
   <v>       0.53067851       0.40355659       0.80313911 </v>
   <v>       0.86401184       0.40355659       0.80313911 </v>
   <v>       0.19734517       0.73688993       0.80313911 </v>
   <v>       0.53067851       0.73688993       0.80313911 </v>
   <v>       0.86401184       0.73688993       0.80313911 </v>
   <v>       0.00253935       0.20657296       0.62920335 </v>
   <v>       0.33587268       0.20657296       0.62920335 </v>
   <v>       0.66920601       0.20657296       0.62920335 </v>
   <v>       0.00253935       0.53990630       0.62920335 </v>
   <v>       0.33587268       0.53990630       0.62920335 </v>
   <v>       0.66920601       0.53990630       0.62920335 </v>
   <v>       0.00253935       0.87323963       0.62920335 </v>
   <v>       0.33587268       0.87323963       0.62920335 </v>
   <v>       0.66920601       0.87323963       0.62920335 </v>
   <v>       0.12676037       0.33079399       0.37079665 </v>
   <v>       0.46009370       0.33079399       0.37079665 </v>
   <v>       0.79342704       0.33079399       0.37079665 </v>
   <v>       0.12676037       0.66412732       0.37079665 </v>
   <v>       0.46009370       0.66412732       0.37079665 </v>
   <v>       0.79342704       0.66412732       0.37079665 </v>
   <v>       0.12676037       0.99746065       0.37079665 </v>
   <v>       0.46009370       0.99746065       0.37079665 </v>
   <v>       0.79342704       0.99746065       0.37079665 </v>
   <v>       0.06350899       0.26982435       0.00000000 </v>
   <v>       0.39684232       0.26982435       0.00000000 </v>
   <v>       0.73017565       0.26982435       0.00000000 </v>
   <v>       0.06350899       0.60315768       0.00000000 </v>
   <v>       0.39684232       0.60315768       0.00000000 </v>
   <v>       0.73017565       0.60315768       0.00000000 </v>
   <v>       0.06350899       0.93649101       0.00000000 </v>
   <v>       0.39684232       0.93649101       0.00000000 </v>
   <v>       0.73017565       0.93649101       0.00000000 </v>
   <v>       0.29027274       0.17214940       0.39352170 </v>
   <v>       0.62360607       0.17214940       0.39352170 </v>
   <v>       0.95693941       0.17214940       0.39352170 </v>
   <v>       0.29027274       0.50548273       0.39352170 </v>
   <v>       0.62360607       0.50548273       0.39352170 </v>
   <v>       0.95693941       0.50548273       0.39352170 </v>
   <v>       0.29027274       0.83881607       0.39352170 </v>
   <v>       0.62360607       0.83881607       0.39352170 </v>
   <v>       0.95693941       0.83881607       0.39352170 </v>
   <v>       0.16118393       0.04306059       0.60647830 </v>
   <v>       0.49451727       0.04306059       0.60647830 </v>
   <v>       0.82785060       0.04306059       0.60647830 </v>
   <v>       0.16118393       0.37639393       0.60647830 </v>
   <v>       0.49451727       0.37639393       0.60647830 </v>
   <v>       0.82785060       0.37639393       0.60647830 </v>
   <v>       0.16118393       0.70972726       0.60647830 </v>
   <v>       0.49451727       0.70972726       0.60647830 </v>
   <v>       0.82785060       0.70972726       0.60647830 </v>
   <v>       0.03761391       0.07731307       0.84542777 </v>
   <v>       0.37094724       0.07731307       0.84542777 </v>
   <v>       0.70428057       0.07731307       0.84542777 </v>
   <v>       0.03761391       0.41064640       0.84542777 </v>
   <v>       0.37094724       0.41064640       0.84542777 </v>
   <v>       0.70428057       0.41064640       0.84542777 </v>
   <v>       0.03761391       0.74397973       0.84542777 </v>
   <v>       0.37094724       0.74397973       0.84542777 </v>
   <v>       0.70428057       0.74397973       0.84542777 </v>
   <v>       0.25602027       0.29571943       0.15457223 </v>
   <v>       0.58935360       0.29571943       0.15457223 </v>
   <v>       0.92268693       0.29571943       0.15457223 </v>
   <v>       0.25602027       0.62905276       0.15457223 </v>
   <v>       0.58935360       0.62905276       0.15457223 </v>
   <v>       0.92268693       0.62905276       0.15457223 </v>
   <v>       0.25602027       0.96238609       0.15457223 </v>
   <v>       0.58935360       0.96238609       0.15457223 </v>
   <v>       0.92268693       0.96238609       0.15457223 </v>
  </varray>
 </structure>
 <calculation>
  <scstep>
   <time name="dav">  443.90  448.45</time>
   <time name="total">  447.59  452.21</time>
   <energy>
    <i name="alphaZ">   2606.24521607 </i>
    <i name="ewald"> -65007.65487850 </i>
    <i name="hartreedc"> -34081.95253901 </i>
    <i name="XCdc">   3632.83682156 </i>
    <i name="pawpsdc"> 104149.30743192 </i>
    <i name="pawaedc">-107360.85880398 </i>
    <i name="eentropy">     -0.01703973 </i>
    <i name="bandstr">    394.17133802 </i>
    <i name="atom"> 107373.91467324 </i>
    <i name="e_fr_energy">  11705.99221959 </i>
    <i name="e_wo_entrp">  11706.00925932 </i>
    <i name="e_0_energy">  11706.00073945 </i>
   </energy>
  </scstep>
  <scstep>
   <time name="dav">  433.74  438.42</time>
   <time name="total">  433.74  438.43</time>
   <energy>
    <i name="e_fr_energy">   1328.70956155 </i>
    <i name="e_wo_entrp">   1328.77698872 </i>
    <i name="e_0_energy">   1328.74327514 </i>
   </energy>
  </scstep>
  <scstep>
   <time name="dav">  456.88  461.43</time>
   <time name="total">  456.88  461.43</time>
   <energy>
    <i name="e_fr_energy">   -345.48149829 </i>
    <i name="e_wo_entrp">   -345.48149829 </i>
    <i name="e_0_energy">   -345.48149829 </i>
   </energy>
  </scstep>
  <scstep>
   <time name="dav">  489.13  494.28</time>
   <time name="total">  489.13  494.29</time>
   <energy>
    <i name="e_fr_energy">   -535.88188202 </i>
    <i name="e_wo_entrp">   -535.88188202 </i>
    <i name="e_0_energy">   -535.88188202 </i>
   </energy>
  </scstep>
  <scstep>
   <time name="dav">  639.56  646.03</time>
   <time name="total">  651.88  658.44</time>
   <energy>
    <i name="e_fr_energy">   -549.79243402 </i>
    <i name="e_wo_entrp">   -549.79243402 </i>
    <i name="e_0_energy">   -549.79243402 </i>
   </energy>
  </scstep>
  <scstep>
   <time name="dav">  571.48  577.25</time>
   <time name="total">  587.30  593.27</time>
   <energy>
    <i name="e_fr_energy">   -550.32226198 </i>
    <i name="e_wo_entrp">   -550.32226198 </i>
    <i name="e_0_energy">   -550.32226198 </i>
   </energy>
  </scstep>
  <scstep>
   <time name="dav">  609.21  615.64</time>
   <time name="total">  624.96  631.59</time>
   <energy>
    <i name="e_fr_energy">   -550.34070406 </i>
    <i name="e_wo_entrp">   -550.34070406 </i>
    <i name="e_0_energy">   -550.34070406 </i>
   </energy>
  </scstep>
  <scstep>
   <time name="dav">  576.35  582.35</time>
   <time name="total">  592.22  598.44</time>
   <energy>
    <i name="e_fr_energy">   -550.34022802 </i>
    <i name="e_wo_entrp">   -550.34022802 </i>
    <i name="e_0_energy">   -550.34022802 </i>
   </energy>
  </scstep>
  <scstep>
   <time name="dav">  625.12  631.78</time>
   <time name="total">  640.91  647.70</time>
   <energy>
    <i name="e_fr_energy">   -550.33963649 </i>
    <i name="e_wo_entrp">   -550.33963649 </i>
    <i name="e_0_energy">   -550.33963649 </i>
   </energy>
  </scstep>
  <scstep>
   <time name="dav">  630.09  637.08</time>
   <time name="total">  645.94  653.30</time>
   <energy>
    <i name="e_fr_energy">   -550.33848573 </i>
    <i name="e_wo_entrp">   -550.33848573 </i>
    <i name="e_0_energy">   -550.33848573 </i>
   </energy>
  </scstep>
  <scstep>
   <time name="dav">  498.26  503.29</time>
   <time name="total">  514.04  519.20</time>
   <energy>
    <i name="e_fr_energy">   -550.33850459 </i>
    <i name="e_wo_entrp">   -550.33850459 </i>
    <i name="e_0_energy">   -550.33850459 </i>
   </energy>
  </scstep>
  <scstep>
   <time name="dav">  562.94  568.14</time>
   <time name="total">  578.89  584.26</time>
   <energy>
    <i name="e_fr_energy">   -550.33851139 </i>
    <i name="e_wo_entrp">   -550.33851139 </i>
    <i name="e_0_energy">   -550.33851139 </i>
   </energy>
  </scstep>
  <scstep>
   <time name="dav">  387.13  391.08</time>
   <time name="total">  390.85  394.83</time>
   <energy>
    <i name="alphaZ">   2606.24521607 </i>
    <i name="ewald"> -65007.65487850 </i>
    <i name="hartreedc"> -34081.93784218 </i>
    <i name="XCdc">   3632.84145617 </i>
    <i name="pawpsdc"> 104143.33333434 </i>
    <i name="pawaedc">-107354.86734368 </i>
    <i name="eentropy">     -0.00000000 </i>
    <i name="bandstr"> -11862.21312747 </i>
    <i name="atom"> 107373.91467324 </i>
    <i name="e_fr_energy">   -550.33851201 </i>
    <i name="e_wo_entrp">   -550.33851201 </i>
    <i name="e_0_energy">   -550.33851201 </i>
   </energy>
  </scstep>
  <structure>
   <crystal>
    <varray name="basis" >
     <v>      11.77726974       0.00848871       0.06923316 </v>
     <v>      -0.03028248      11.77723386       0.06923316 </v>
     <v>      -2.02000231      -2.02666320      10.18574622 </v>
    </varray>
    <i name="volume">   1416.10551572 </i>
    <varray name="rec_basis" >
     <v>       0.08481023       0.00011906       0.01684296 </v>
     <v>      -0.00016014       0.08481016       0.01684296 </v>
     <v>      -0.00057537      -0.00057727       0.09794744 </v>
    </varray>
   </crystal>
   <varray name="positions" >
    <v>       0.20224939       0.24206952       0.83183419 </v>
    <v>       0.53558272       0.24206952       0.83183419 </v>
    <v>       0.86891606       0.24206952       0.83183419 </v>
    <v>       0.20224939       0.57540285       0.83183419 </v>
    <v>       0.53558272       0.57540285       0.83183419 </v>
    <v>       0.86891606       0.57540285       0.83183419 </v>
    <v>       0.20224939       0.90873619       0.83183419 </v>
    <v>       0.53558272       0.90873619       0.83183419 </v>
    <v>       0.86891606       0.90873619       0.83183419 </v>
    <v>       0.09126381       0.13108394       0.16816581 </v>
    <v>       0.42459715       0.13108394       0.16816581 </v>
    <v>       0.75793048       0.13108394       0.16816581 </v>
    <v>       0.09126381       0.46441728       0.16816581 </v>
    <v>       0.42459715       0.46441728       0.16816581 </v>
    <v>       0.75793048       0.46441728       0.16816581 </v>
    <v>       0.09126381       0.79775061       0.16816581 </v>
    <v>       0.42459715       0.79775061       0.16816581 </v>
    <v>       0.75793048       0.79775061       0.16816581 </v>
    <v>       0.26311007       0.13683724       0.19686089 </v>
    <v>       0.59644341       0.13598816       0.19686089 </v>
    <v>       0.92977674       0.13598816       0.19686089 </v>
    <v>       0.26311007       0.46932149       0.19686089 </v>
    <v>       0.59644341       0.46932149       0.19686089 </v>
    <v>       0.92977674       0.46932149       0.19686089 </v>
    <v>       0.26311007       0.80265483       0.19686089 </v>
    <v>       0.59644341       0.80265483       0.19686089 </v>
    <v>       0.92977674       0.80265483       0.19686089 </v>
    <v>       0.19734517       0.07022326       0.80313911 </v>
    <v>       0.53067851       0.07022326       0.80313911 </v>
    <v>       0.86401184       0.07022326       0.80313911 </v>
    <v>       0.19734517       0.40355659       0.80313911 </v>
    <v>       0.53067851       0.40355659       0.80313911 </v>
    <v>       0.86401184       0.40355659       0.80313911 </v>
    <v>       0.19734517       0.73688993       0.80313911 </v>
    <v>       0.53067851       0.73688993       0.80313911 </v>
    <v>       0.86401184       0.73688993       0.80313911 </v>
    <v>       0.00253935       0.20657296       0.62920335 </v>
    <v>       0.33587268       0.20657296       0.62920335 </v>
    <v>       0.66920601       0.20657296       0.62920335 </v>
    <v>       0.00253935       0.53990630       0.62920335 </v>
    <v>       0.33587268       0.53990630       0.62920335 </v>
    <v>       0.66920601       0.53990630       0.62920335 </v>
    <v>       0.00253935       0.87323963       0.62920335 </v>
    <v>       0.33587268       0.87323963       0.62920335 </v>
    <v>       0.66920601       0.87323963       0.62920335 </v>
    <v>       0.12676037       0.33079399       0.37079665 </v>
    <v>       0.46009370       0.33079399       0.37079665 </v>
    <v>       0.79342704       0.33079399       0.37079665 </v>
    <v>       0.12676037       0.66412732       0.37079665 </v>
    <v>       0.46009370       0.66412732       0.37079665 </v>
    <v>       0.79342704       0.66412732       0.37079665 </v>
    <v>       0.12676037       0.99746065       0.37079665 </v>
    <v>       0.46009370       0.99746065       0.37079665 </v>
    <v>       0.79342704       0.99746065       0.37079665 </v>
    <v>       0.06350899       0.26982435       0.00000000 </v>
    <v>       0.39684232       0.26982435       0.00000000 </v>
    <v>       0.73017565       0.26982435       0.00000000 </v>
    <v>       0.06350899       0.60315768       0.00000000 </v>
    <v>       0.39684232       0.60315768       0.00000000 </v>
    <v>       0.73017565       0.60315768       0.00000000 </v>
    <v>       0.06350899       0.93649101       0.00000000 </v>
    <v>       0.39684232       0.93649101       0.00000000 </v>
    <v>       0.73017565       0.93649101       0.00000000 </v>
    <v>       0.29027274       0.17214940       0.39352170 </v>
    <v>       0.62360607       0.17214940       0.39352170 </v>
    <v>       0.95693941       0.17214940       0.39352170 </v>
    <v>       0.29027274       0.50548273       0.39352170 </v>
    <v>       0.62360607       0.50548273       0.39352170 </v>
    <v>       0.95693941       0.50548273       0.39352170 </v>
    <v>       0.29027274       0.83881607       0.39352170 </v>
    <v>       0.62360607       0.83881607       0.39352170 </v>
    <v>       0.95693941       0.83881607       0.39352170 </v>
    <v>       0.16118393       0.04306059       0.60647830 </v>
    <v>       0.49451727       0.04306059       0.60647830 </v>
    <v>       0.82785060       0.04306059       0.60647830 </v>
    <v>       0.16118393       0.37639393       0.60647830 </v>
    <v>       0.49451727       0.37639393       0.60647830 </v>
    <v>       0.82785060       0.37639393       0.60647830 </v>
    <v>       0.16118393       0.70972726       0.60647830 </v>
    <v>       0.49451727       0.70972726       0.60647830 </v>
    <v>       0.82785060       0.70972726       0.60647830 </v>
    <v>       0.03761391       0.07731307       0.84542777 </v>
    <v>       0.37094724       0.07731307       0.84542777 </v>
    <v>       0.70428057       0.07731307       0.84542777 </v>
    <v>       0.03761391       0.41064640       0.84542777 </v>
    <v>       0.37094724       0.41064640       0.84542777 </v>
    <v>       0.70428057       0.41064640       0.84542777 </v>
    <v>       0.03761391       0.74397973       0.84542777 </v>
    <v>       0.37094724       0.74397973       0.84542777 </v>
    <v>       0.70428057       0.74397973       0.84542777 </v>
    <v>       0.25602027       0.29571943       0.15457223 </v>
    <v>       0.58935360       0.29571943       0.15457223 </v>
    <v>       0.92268693       0.29571943       0.15457223 </v>
    <v>       0.25602027       0.62905276       0.15457223 </v>
    <v>       0.58935360       0.62905276       0.15457223 </v>
    <v>       0.92268693       0.62905276       0.15457223 </v>
    <v>       0.25602027       0.96238609       0.15457223 </v>
    <v>       0.58935360       0.96238609       0.15457223 </v>
    <v>       0.92268693       0.96238609       0.15457223 </v>
   </varray>
  </structure>
  <varray name="forces" >
   <v>       0.00005565       0.00087509       0.00147775 </v>
   <v>      -0.00080971       0.00097358       0.00108673 </v>
   <v>       0.00077301       0.00084682       0.00110907 </v>
   <v>       0.00009942      -0.00117592      -0.00025976 </v>
   <v>       0.00002644      -0.00107172      -0.00025551 </v>
   <v>      -0.00008431      -0.00097881      -0.00029429 </v>
   <v>       0.00005414       0.00050924      -0.00106584 </v>
   <v>       0.00093266       0.00061335      -0.00068767 </v>
   <v>      -0.00093174       0.00069849      -0.00067363 </v>
   <v>      -0.00046009       0.00641843       0.00002450 </v>
   <v>       0.00064822       0.00641453       0.00016949 </v>
   <v>      -0.00050561       0.00062568      -0.00004264 </v>
   <v>       0.00068282      -0.00144748      -0.00001801 </v>
   <v>      -0.00046215      -0.00145282       0.00010350 </v>
   <v>      -0.00051857      -0.00030337      -0.00004682 </v>
   <v>      -0.00144229      -0.00148820      -0.00008238 </v>
   <v>       0.00168544      -0.00148774       0.00009450 </v>
   <v>      -0.00050743      -0.00034366      -0.00007725 </v>
   <v>       0.00018105      -0.15065358      -0.00169390 </v>
   <v>      -0.00012834      -0.00275677      -0.00001419 </v>
   <v>      -0.00036734      -0.00276597      -0.00005735 </v>
   <v>      -0.00024001       0.00803862       0.00126356 </v>
   <v>       0.00039625       0.00135609       0.00004752 </v>
   <v>      -0.00092606       0.00135707       0.00003179 </v>
   <v>      -0.00019298       0.00799949      -0.00097915 </v>
   <v>      -0.00070385       0.00136720       0.00015446 </v>
   <v>       0.00019847       0.00137031       0.00016730 </v>
   <v>       0.00012568      -0.00113328      -0.00055495 </v>
   <v>       0.00002630      -0.00095272      -0.00051527 </v>
   <v>       0.00006803      -0.00097964      -0.00009280 </v>
   <v>       0.00000736       0.00067270      -0.00039193 </v>
   <v>       0.00094781       0.00074482      -0.00040024 </v>
   <v>      -0.00073375       0.00066525      -0.00085963 </v>
   <v>       0.00006524       0.00135960       0.00079002 </v>
   <v>      -0.00072321       0.00145642       0.00079747 </v>
   <v>       0.00088000       0.00166360       0.00079306 </v>
   <v>       0.00002336      -0.00133678      -0.00070752 </v>
   <v>       0.00000976      -0.00154141      -0.00069441 </v>
   <v>       0.00000328      -0.00124513      -0.00023046 </v>
   <v>      -0.00059114       0.00135877       0.00082275 </v>
   <v>       0.00004702       0.00122718       0.00077265 </v>
   <v>       0.00061548       0.00130990       0.00081745 </v>
   <v>       0.00058969       0.00075397      -0.00016244 </v>
   <v>      -0.00001888       0.00061895      -0.00012907 </v>
   <v>      -0.00054389       0.00077714      -0.00065096 </v>
   <v>      -0.00618030       0.00352435       0.00754345 </v>
   <v>       0.00601437       0.00349007       0.00715358 </v>
   <v>      -0.00000700      -0.00032895       0.00022388 </v>
   <v>       0.00002683       0.00189050       0.00020687 </v>
   <v>      -0.00000045       0.00184983       0.00018131 </v>
   <v>       0.00006978       0.00098184       0.00016211 </v>
   <v>       0.00618714       0.00328941      -0.00730873 </v>
   <v>      -0.00586676       0.00330751      -0.00681304 </v>
   <v>       0.00003298      -0.00054973      -0.00017954 </v>
   <v>      -0.00500707       0.00195630      -0.00577016 </v>
   <v>       0.00511746       0.00193195      -0.00573178 </v>
   <v>       0.00000190      -0.00032405      -0.00021366 </v>
   <v>      -0.00001803       0.00137897       0.00012580 </v>
   <v>       0.00000965       0.00138798       0.00014385 </v>
   <v>       0.00001952       0.00051978       0.00010540 </v>
   <v>       0.00505191       0.00203022       0.00572802 </v>
   <v>      -0.00508983       0.00203554       0.00562746 </v>
   <v>      -0.00000782      -0.00023560       0.00011115 </v>
   <v>       0.00000533       0.00817322       0.00130066 </v>
   <v>       0.00002815       0.00251592       0.00000876 </v>
   <v>       0.00005733       0.00234344       0.00010768 </v>
   <v>       0.00009321      -0.00236896      -0.00261650 </v>
   <v>      -0.00097804      -0.00199245      -0.00010689 </v>
   <v>       0.00106642      -0.00180655      -0.00017601 </v>
   <v>       0.00008782      -0.00219048       0.00210780 </v>
   <v>       0.00125916      -0.00178018      -0.00031473 </v>
   <v>      -0.00123651      -0.00162477      -0.00047938 </v>
   <v>       0.00008808       0.00095046       0.00286601 </v>
   <v>      -0.00041462       0.00083490       0.00273536 </v>
   <v>       0.00000238       0.00055610       0.00059680 </v>
   <v>      -0.00044534       0.00010930      -0.00209337 </v>
   <v>       0.00036793       0.00009469      -0.00199743 </v>
   <v>       0.00004416       0.00001516       0.00019982 </v>
   <v>      -0.00017917      -0.00123012      -0.00041573 </v>
   <v>       0.00003216      -0.00120640      -0.00033511 </v>
   <v>      -0.00003537      -0.00135372      -0.00033341 </v>
   <v>      -0.00010124       0.00320019       0.00007991 </v>
   <v>       0.00013199       0.00322610       0.00013978 </v>
   <v>       0.00037190       0.00083379       0.00011512 </v>
   <v>       0.00021765      -0.00156839       0.00098396 </v>
   <v>       0.00018853      -0.00159150       0.00090015 </v>
   <v>       0.00002138      -0.00022201       0.00000044 </v>
   <v>       0.00020335      -0.00221781      -0.00113755 </v>
   <v>       0.00001177      -0.00223887      -0.00115270 </v>
   <v>       0.00022627      -0.00083841      -0.00006203 </v>
   <v>      -0.00005031       0.05183416      -0.01058593 </v>
   <v>      -0.00138868       0.00043915      -0.00070711 </v>
   <v>       0.00154638       0.00041733      -0.00064498 </v>
   <v>       0.00011270      -0.00566535      -0.00018920 </v>
   <v>       0.00003145      -0.00133562      -0.00017357 </v>
   <v>       0.00006670      -0.00133584      -0.00016327 </v>
   <v>      -0.00013592       0.04883221       0.01030744 </v>
   <v>       0.00148481       0.00052814       0.00052448 </v>
   <v>      -0.00138731       0.00056996       0.00052931 </v>
  </varray>
  <varray name="stress" >
   <v>      -0.01725570      -0.00195324      -0.00771932 </v>
   <v>      -0.00148627       0.00549851      -0.04922821 </v>
   <v>       0.00191580      -0.03936353      -0.02118345 </v>
  </varray>
  <energy>
   <i name="e_fr_energy">   -550.33851201 </i>
   <i name="e_wo_entrp">   -550.33851201 </i>
   <i name="e_0_energy">     -0.00000000 </i>
  </energy>
  <time name="totalsc"> 7806.20 7886.38</time>
  <eigenvalues>
   <array>
    <dimension dim="1">band</dimension>
    <dimension dim="2">kpoint</dimension>
    <dimension dim="3">spin</dimension>
    <field>eigene</field>
    <field>occ</field>
    <set>
     <set comment="spin 1">
      <set comment="kpoint 1">
       <r>  -51.0600    1.0000 </r>
       <r>  -51.0512    1.0000 </r>
       <r>  -51.0509    1.0000 </r>
       <r>  -51.0508    1.0000 </r>
       <r>  -51.0507    1.0000 </r>
       <r>  -51.0503    1.0000 </r>
       <r>  -51.0502    1.0000 </r>
       <r>  -51.0497    1.0000 </r>
       <r>  -51.0495    1.0000 </r>
       <r>  -51.0492    1.0000 </r>
       <r>  -51.0491    1.0000 </r>
       <r>  -51.0485    1.0000 </r>
       <r>  -51.0482    1.0000 </r>
       <r>  -51.0481    1.0000 </r>
       <r>  -51.0471    1.0000 </r>
       <r>  -51.0471    1.0000 </r>
       <r>  -51.0468    1.0000 </r>
       <r>  -51.0465    1.0000 </r>
       <r>  -51.0455    1.0000 </r>
       <r>  -51.0384    1.0000 </r>
       <r>  -51.0381    1.0000 </r>
       <r>  -51.0381    1.0000 </r>
       <r>  -51.0375    1.0000 </r>
       <r>  -51.0373    1.0000 </r>
       <r>  -51.0368    1.0000 </r>
       <r>  -51.0366    1.0000 </r>
       <r>  -51.0365    1.0000 </r>
       <r>  -51.0365    1.0000 </r>
       <r>  -51.0365    1.0000 </r>
       <r>  -51.0364    1.0000 </r>
       <r>  -51.0362    1.0000 </r>
       <r>  -51.0351    1.0000 </r>
       <r>  -51.0351    1.0000 </r>
       <r>  -51.0350    1.0000 </r>
       <r>  -51.0346    1.0000 </r>
       <r>  -51.0175    1.0000 </r>
       <r>  -49.7075    1.0000 </r>
       <r>  -49.6913    1.0000 </r>
       <r>  -49.6908    1.0000 </r>
       <r>  -49.6907    1.0000 </r>
       <r>  -49.6906    1.0000 </r>
       <r>  -49.6900    1.0000 </r>
       <r>  -49.6897    1.0000 </r>
       <r>  -49.6897    1.0000 </r>
       <r>  -49.6896    1.0000 </r>
       <r>  -49.6896    1.0000 </r>
       <r>  -49.6895    1.0000 </r>
       <r>  -49.6890    1.0000 </r>
       <r>  -49.6886    1.0000 </r>
       <r>  -49.6881    1.0000 </r>
       <r>  -49.6880    1.0000 </r>
       <r>  -49.6879    1.0000 </r>
       <r>  -49.6876    1.0000 </r>
       <r>  -49.6714    1.0000 </r>
       <r>  -49.5924    1.0000 </r>
       <r>  -49.5921    1.0000 </r>
       <r>  -49.5915    1.0000 </r>
       <r>  -49.5913    1.0000 </r>
       <r>  -49.5911    1.0000 </r>
       <r>  -49.5910    1.0000 </r>
       <r>  -49.5905    1.0000 </r>
       <r>  -49.5901    1.0000 </r>
       <r>  -49.5899    1.0000 </r>
       <r>  -49.5898    1.0000 </r>
       <r>  -49.5894    1.0000 </r>
       <r>  -49.5892    1.0000 </r>
       <r>  -49.5885    1.0000 </r>
       <r>  -49.5884    1.0000 </r>
       <r>  -49.5881    1.0000 </r>
       <r>  -49.5877    1.0000 </r>
       <r>  -49.5874    1.0000 </r>
       <r>  -49.5868    1.0000 </r>
       <r>  -49.5675    1.0000 </r>
       <r>  -49.5625    1.0000 </r>
       <r>  -49.5624    1.0000 </r>
       <r>  -49.5613    1.0000 </r>
       <r>  -49.5612    1.0000 </r>
       <r>  -49.5611    1.0000 </r>
       <r>  -49.5606    1.0000 </r>
       <r>  -49.5602    1.0000 </r>
       <r>  -49.5600    1.0000 </r>
       <r>  -49.5599    1.0000 </r>
       <r>  -49.5590    1.0000 </r>
       <r>  -49.5590    1.0000 </r>
       <r>  -49.5589    1.0000 </r>
       <r>  -49.5586    1.0000 </r>
       <r>  -49.5584    1.0000 </r>
       <r>  -49.5584    1.0000 </r>
       <r>  -49.5579    1.0000 </r>
       <r>  -49.5578    1.0000 </r>
       <r>  -49.5562    1.0000 </r>
       <r>  -49.5498    1.0000 </r>
       <r>  -49.5495    1.0000 </r>
       <r>  -49.5495    1.0000 </r>
       <r>  -49.5488    1.0000 </r>
       <r>  -49.5482    1.0000 </r>
       <r>  -49.5477    1.0000 </r>
       <r>  -49.5477    1.0000 </r>
       <r>  -49.5476    1.0000 </r>
       <r>  -49.5475    1.0000 </r>
       <r>  -49.5475    1.0000 </r>
       <r>  -49.5473    1.0000 </r>
       <r>  -49.5472    1.0000 </r>
       <r>  -49.5460    1.0000 </r>
       <r>  -49.5460    1.0000 </r>
       <r>  -49.5459    1.0000 </r>
       <r>  -49.5454    1.0000 </r>
       <r>  -49.5313    1.0000 </r>
       <r>  -39.8629    1.0000 </r>
       <r>  -39.8626    1.0000 </r>
       <r>  -39.8623    1.0000 </r>
       <r>  -39.8623    1.0000 </r>
       <r>  -39.8620    1.0000 </r>
       <r>  -39.8612    1.0000 </r>
       <r>  -39.8611    1.0000 </r>
       <r>  -39.8606    1.0000 </r>
       <r>  -39.8604    1.0000 </r>
       <r>  -39.8604    1.0000 </r>
       <r>  -39.8604    1.0000 </r>
       <r>  -39.8603    1.0000 </r>
       <r>  -39.8600    1.0000 </r>
       <r>  -39.8594    1.0000 </r>
       <r>  -39.8592    1.0000 </r>
       <r>  -39.8590    1.0000 </r>
       <r>  -39.8587    1.0000 </r>
       <r>  -39.8584    1.0000 </r>
       <r>  -13.2355    1.0000 </r>
       <r>  -13.2351    1.0000 </r>
       <r>  -13.2350    1.0000 </r>
       <r>  -13.2345    1.0000 </r>
       <r>  -13.2260    1.0000 </r>
       <r>  -13.1989    1.0000 </r>
       <r>  -13.0570    1.0000 </r>
       <r>  -13.0556    1.0000 </r>
       <r>  -13.0543    1.0000 </r>
       <r>  -13.0533    1.0000 </r>
       <r>  -13.0436    1.0000 </r>
       <r>  -13.0424    1.0000 </r>
       <r>  -13.0412    1.0000 </r>
       <r>  -13.0400    1.0000 </r>
       <r>  -13.0204    1.0000 </r>
       <r>  -13.0187    1.0000 </r>
       <r>  -13.0187    1.0000 </r>
       <r>  -13.0170    1.0000 </r>
       <r>   -7.6149    1.0000 </r>
       <r>   -7.4116    1.0000 </r>
       <r>   -7.3770    1.0000 </r>
       <r>   -7.3752    1.0000 </r>
       <r>   -7.3751    1.0000 </r>
       <r>   -7.3732    1.0000 </r>
       <r>   -7.1821    1.0000 </r>
       <r>   -7.1811    1.0000 </r>
       <r>   -7.1720    1.0000 </r>
       <r>   -7.1710    1.0000 </r>
       <r>   -7.1521    1.0000 </r>
       <r>   -7.1513    1.0000 </r>
       <r>   -7.1512    1.0000 </r>
       <r>   -7.1504    1.0000 </r>
       <r>   -6.9846    1.0000 </r>
       <r>   -6.9653    1.0000 </r>
       <r>   -6.9648    1.0000 </r>
       <r>   -6.9307    1.0000 </r>
       <r>   -6.9300    1.0000 </r>
       <r>   -6.8722    1.0000 </r>
       <r>   -6.8714    1.0000 </r>
       <r>   -6.8714    1.0000 </r>
       <r>   -6.8705    1.0000 </r>
       <r>   -6.8075    1.0000 </r>
       <r>   -6.8069    1.0000 </r>
       <r>   -6.7807    1.0000 </r>
       <r>   -6.7801    1.0000 </r>
       <r>   -1.8371    1.0000 </r>
       <r>   -1.8369    1.0000 </r>
       <r>   -1.8368    1.0000 </r>
       <r>   -1.8366    1.0000 </r>
       <r>   -1.8164    1.0000 </r>
       <r>   -1.8163    1.0000 </r>
       <r>   -1.8038    1.0000 </r>
       <r>   -1.8036    1.0000 </r>
       <r>   -1.7665    1.0000 </r>
       <r>   -1.7663    1.0000 </r>
       <r>   -1.7537    1.0000 </r>
       <r>   -1.7536    1.0000 </r>
       <r>   -1.2809    1.0000 </r>
       <r>   -1.1982    1.0000 </r>
       <r>   -1.1976    1.0000 </r>
       <r>   -1.1974    1.0000 </r>
       <r>   -1.1967    1.0000 </r>
       <r>   -1.0053    1.0000 </r>
       <r>   -1.0049    1.0000 </r>
       <r>   -0.9745    1.0000 </r>
       <r>   -0.9739    1.0000 </r>
       <r>   -0.9593    1.0000 </r>
       <r>   -0.9585    1.0000 </r>
       <r>   -0.9468    1.0000 </r>
       <r>   -0.9387    1.0000 </r>
       <r>   -0.9316    1.0000 </r>
       <r>   -0.9287    1.0000 </r>
       <r>   -0.9279    1.0000 </r>
       <r>   -0.8851    1.0000 </r>
       <r>   -0.8848    1.0000 </r>
       <r>   -0.8847    1.0000 </r>
       <r>   -0.8839    1.0000 </r>
       <r>   -0.8716    1.0000 </r>
       <r>   -0.8715    1.0000 </r>
       <r>   -0.8682    1.0000 </r>
       <r>   -0.8674    1.0000 </r>
       <r>   -0.8672    1.0000 </r>
       <r>   -0.8663    1.0000 </r>
       <r>   -0.8599    1.0000 </r>
       <r>   -0.8593    1.0000 </r>
       <r>   -0.7017    1.0000 </r>
       <r>   -0.7004    1.0000 </r>
       <r>   -0.7003    1.0000 </r>
       <r>   -0.6989    1.0000 </r>
       <r>   -0.6717    1.0000 </r>
       <r>   -0.6711    1.0000 </r>
       <r>   -0.6232    1.0000 </r>
       <r>   -0.6229    1.0000 </r>
       <r>   -0.6229    1.0000 </r>
       <r>   -0.6227    1.0000 </r>
       <r>   -0.6220    1.0000 </r>
       <r>   -0.6213    1.0000 </r>
       <r>   -0.3534    1.0000 </r>
       <r>   -0.3521    1.0000 </r>
       <r>   -0.3521    1.0000 </r>
       <r>   -0.3511    1.0000 </r>
       <r>   -0.3220    1.0000 </r>
       <r>   -0.3211    1.0000 </r>
       <r>   -0.2922    1.0000 </r>
       <r>   -0.2910    1.0000 </r>
       <r>   -0.2649    1.0000 </r>
       <r>   -0.2644    1.0000 </r>
       <r>   -0.2643    1.0000 </r>
       <r>   -0.2633    1.0000 </r>
       <r>   -0.2610    1.0000 </r>
       <r>   -0.2605    1.0000 </r>
       <r>   -0.2579    1.0000 </r>
       <r>   -0.2488    1.0000 </r>
       <r>   -0.2486    1.0000 </r>
       <r>   -0.2428    1.0000 </r>
       <r>   -0.2205    1.0000 </r>
       <r>   -0.1414    1.0000 </r>
       <r>   -0.1409    1.0000 </r>
       <r>   -0.1404    1.0000 </r>
       <r>   -0.1398    1.0000 </r>
       <r>   -0.1395    1.0000 </r>
       <r>   -0.1389    1.0000 </r>
       <r>   -0.1246    1.0000 </r>
       <r>   -0.1232    1.0000 </r>
       <r>   -0.1230    1.0000 </r>
       <r>   -0.1216    1.0000 </r>
       <r>   -0.1203    1.0000 </r>
       <r>   -0.1197    1.0000 </r>
       <r>   -0.0781    1.0000 </r>
       <r>   -0.0774    1.0000 </r>
       <r>   -0.0596    1.0000 </r>
       <r>   -0.0124    1.0000 </r>
       <r>   -0.0112    1.0000 </r>
       <r>    0.0152    1.0000 </r>
       <r>    0.0161    1.0000 </r>
       <r>    0.0255    1.0000 </r>
       <r>    0.0263    1.0000 </r>
       <r>    0.0420    1.0000 </r>
       <r>    0.0428    1.0000 </r>
       <r>    0.0430    1.0000 </r>
       <r>    0.0444    1.0000 </r>
       <r>    0.0602    1.0000 </r>
       <r>    0.0611    1.0000 </r>
       <r>    0.1489    1.0000 </r>
       <r>    0.1497    1.0000 </r>
       <r>    0.1498    1.0000 </r>
       <r>    0.1510    1.0000 </r>
       <r>    0.1581    1.0000 </r>
       <r>    0.1637    1.0000 </r>
       <r>    0.1655    1.0000 </r>
       <r>    0.1817    1.0000 </r>
       <r>    0.1831    1.0000 </r>
       <r>    0.1921    1.0000 </r>
       <r>    0.1963    1.0000 </r>
       <r>    0.1969    1.0000 </r>
       <r>    0.2075    1.0000 </r>
       <r>    0.2083    1.0000 </r>
       <r>    0.2577    1.0000 </r>
       <r>    0.2582    1.0000 </r>
       <r>    0.2583    1.0000 </r>
       <r>    0.2591    1.0000 </r>
       <r>    0.2783    1.0000 </r>
       <r>    0.2785    1.0000 </r>
       <r>    0.3386    1.0000 </r>
       <r>    0.3399    1.0000 </r>
       <r>    0.3582    1.0000 </r>
       <r>    0.3597    1.0000 </r>
       <r>    0.3598    1.0000 </r>
       <r>    0.3615    1.0000 </r>
       <r>    0.3800    1.0000 </r>
       <r>    0.3831    1.0000 </r>
       <r>    0.4890    1.0000 </r>
       <r>    0.4894    1.0000 </r>
       <r>    0.4898    1.0000 </r>
       <r>    0.4905    1.0000 </r>
       <r>    0.5161    1.0000 </r>
       <r>    0.5169    1.0000 </r>
       <r>    0.5169    1.0000 </r>
       <r>    0.5179    1.0000 </r>
       <r>    0.5580    1.0000 </r>
       <r>    0.5595    1.0000 </r>
       <r>    0.6078    1.0000 </r>
       <r>    0.6100    1.0000 </r>
       <r>    0.6147    1.0000 </r>
       <r>    0.6301    1.0000 </r>
       <r>    0.6307    1.0000 </r>
       <r>    0.6308    1.0000 </r>
       <r>    0.6319    1.0000 </r>
       <r>    0.7521    1.0000 </r>
       <r>    0.7523    1.0000 </r>
       <r>    0.7611    1.0000 </r>
       <r>    0.7613    1.0000 </r>
       <r>    0.7620    1.0000 </r>
       <r>    0.7623    1.0000 </r>
       <r>    0.7904    1.0000 </r>
       <r>    0.7908    1.0000 </r>
       <r>    0.7931    1.0000 </r>
       <r>    0.8456    1.0000 </r>
       <r>    0.8463    1.0000 </r>
       <r>    0.8545    1.0000 </r>
       <r>    0.8553    1.0000 </r>
       <r>    0.9681    1.0000 </r>
       <r>    0.9690    1.0000 </r>
       <r>    0.9691    1.0000 </r>
       <r>    0.9699    1.0000 </r>
       <r>    0.9791    1.0000 </r>
       <r>    1.2391    1.0000 </r>
       <r>    1.2397    1.0000 </r>
       <r>    1.2400    1.0000 </r>
       <r>    1.2404    1.0000 </r>
       <r>    1.2637    1.0000 </r>
       <r>    1.2919    1.0000 </r>
       <r>    1.2931    1.0000 </r>
       <r>    1.3300    1.0000 </r>
       <r>    1.3308    1.0000 </r>
       <r>    1.3579    1.0000 </r>
       <r>    1.3587    1.0000 </r>
       <r>    1.3590    1.0000 </r>
       <r>    1.3594    1.0000 </r>
       <r>    1.4365    1.0000 </r>
       <r>    1.4368    1.0000 </r>
       <r>    1.4640    1.0000 </r>
       <r>    1.4754    1.0000 </r>
       <r>    1.4871    1.0000 </r>
       <r>    1.4875    1.0000 </r>
       <r>    1.5476    1.0000 </r>
       <r>    1.6786    1.0000 </r>
       <r>    1.6797    1.0000 </r>
       <r>    1.6804    1.0000 </r>
       <r>    1.7219    1.0000 </r>
       <r>    1.7237    1.0000 </r>
       <r>    1.7238    1.0000 </r>
       <r>    1.7253    1.0000 </r>
       <r>    1.7649    1.0000 </r>
       <r>    1.7662    1.0000 </r>
       <r>    1.8138    1.0000 </r>
       <r>    1.8144    1.0000 </r>
       <r>    1.8147    1.0000 </r>
       <r>    1.8149    1.0000 </r>
       <r>    1.8266    1.0000 </r>
       <r>    1.8268    1.0000 </r>
       <r>    1.8276    1.0000 </r>
       <r>    1.8282    1.0000 </r>
       <r>    1.8391    1.0000 </r>
       <r>    1.8759    1.0000 </r>
       <r>    1.8867    1.0000 </r>
       <r>    1.9026    1.0000 </r>
       <r>    1.9033    1.0000 </r>
       <r>    1.9171    1.0000 </r>
       <r>    1.9177    1.0000 </r>
       <r>    1.9630    1.0000 </r>
       <r>    1.9635    1.0000 </r>
       <r>    1.9898    1.0000 </r>
       <r>    1.9899    1.0000 </r>
       <r>    1.9984    1.0000 </r>
       <r>    1.9991    1.0000 </r>
       <r>    1.9993    1.0000 </r>
       <r>    1.9998    1.0000 </r>
       <r>    2.0707    1.0000 </r>
       <r>    2.0718    1.0000 </r>
       <r>    2.0809    1.0000 </r>
       <r>    2.0813    1.0000 </r>
       <r>    2.0815    1.0000 </r>
       <r>    2.0821    1.0000 </r>
       <r>    2.0944    1.0000 </r>
       <r>    2.0945    1.0000 </r>
       <r>    2.1158    1.0000 </r>
       <r>    2.1162    1.0000 </r>
       <r>    2.1164    1.0000 </r>
       <r>    2.1168    1.0000 </r>
       <r>    2.1951    1.0000 </r>
       <r>    2.1960    1.0000 </r>
       <r>    2.2873    1.0000 </r>
       <r>    2.2897    1.0000 </r>
       <r>    2.4161    1.0000 </r>
       <r>    2.4163    1.0000 </r>
       <r>    2.4378    1.0000 </r>
       <r>    2.4407    1.0000 </r>
       <r>    2.4409    1.0000 </r>
       <r>    2.4438    1.0000 </r>
       <r>    2.4995    1.0000 </r>
       <r>    2.5159    1.0000 </r>
       <r>    2.5160    1.0000 </r>
       <r>    2.5164    1.0000 </r>
       <r>    2.5173    1.0000 </r>
       <r>    2.5591    1.0000 </r>
       <r>    2.5600    1.0000 </r>
       <r>    2.5652    1.0000 </r>
       <r>    2.7180    1.0000 </r>
       <r>    2.7185    1.0000 </r>
       <r>    2.7187    1.0000 </r>
       <r>    2.7196    1.0000 </r>
       <r>    2.7332    1.0000 </r>
       <r>    2.7336    1.0000 </r>
       <r>    2.8001    1.0000 </r>
       <r>    2.8005    1.0000 </r>
       <r>    3.0018    1.0000 </r>
       <r>    3.0026    1.0000 </r>
       <r>    3.0057    1.0000 </r>
       <r>    3.0074    1.0000 </r>
       <r>    3.1701    1.0000 </r>
       <r>    3.2187    1.0000 </r>
       <r>    3.2193    1.0000 </r>
       <r>    3.2215    1.0000 </r>
       <r>    3.2225    1.0000 </r>
       <r>    3.3581    1.0000 </r>
       <r>    3.3597    1.0000 </r>
       <r>    3.3597    1.0000 </r>
       <r>    3.3611    1.0000 </r>
       <r>    3.3929    1.0000 </r>
       <r>    3.4018    1.0000 </r>
       <r>    3.5015    1.0000 </r>
       <r>    3.5020    1.0000 </r>
       <r>    3.5870    1.0000 </r>
       <r>    3.5879    1.0000 </r>
       <r>    3.8153    1.0000 </r>
       <r>    3.8165    1.0000 </r>
       <r>    3.8299    1.0000 </r>
       <r>    3.8306    1.0000 </r>
       <r>    4.0016    1.0000 </r>
       <r>    4.0028    1.0000 </r>
       <r>    4.0030    1.0000 </r>
       <r>    4.0048    1.0000 </r>
       <r>    4.0301    1.0000 </r>
       <r>    4.0315    1.0000 </r>
       <r>    4.0316    1.0000 </r>
       <r>    4.0333    1.0000 </r>
       <r>    4.1062    1.0000 </r>
       <r>    4.1168    1.0000 </r>
       <r>    4.1220    1.0000 </r>
       <r>    4.1594    1.0000 </r>
       <r>    4.1605    1.0000 </r>
       <r>    4.2582    1.0000 </r>
       <r>    4.2596    1.0000 </r>
       <r>    4.2760    1.0000 </r>
       <r>    4.2778    1.0000 </r>
       <r>    4.3303    1.0000 </r>
       <r>    4.3304    1.0000 </r>
       <r>    4.3584    1.0000 </r>
       <r>    4.3587    1.0000 </r>
       <r>    4.3587    1.0000 </r>
       <r>    4.3588    1.0000 </r>
       <r>    4.4109    1.0000 </r>
       <r>    4.4120    1.0000 </r>
       <r>    4.4336    1.0000 </r>
       <r>    4.4342    1.0000 </r>
       <r>    4.5223    1.0000 </r>
       <r>    4.5233    1.0000 </r>
       <r>    4.5236    1.0000 </r>
       <r>    4.5241    1.0000 </r>
       <r>    4.5508    1.0000 </r>
       <r>    4.5510    1.0000 </r>
       <r>    4.8109    1.0000 </r>
       <r>    4.8119    1.0000 </r>
       <r>    4.8120    1.0000 </r>
       <r>    4.8129    1.0000 </r>
       <r>    4.8740    1.0000 </r>
       <r>    4.8749    1.0000 </r>
       <r>    4.8749    1.0000 </r>
       <r>    4.8762    1.0000 </r>
       <r>    7.3645    0.0000 </r>
       <r>    8.4303    0.0000 </r>
       <r>    8.6651    0.0000 </r>
       <r>    8.6654    0.0000 </r>
       <r>    8.8397    0.0000 </r>
       <r>    8.8418    0.0000 </r>
       <r>    8.8419    0.0000 </r>
       <r>    8.8431    0.0000 </r>
       <r>    8.9862    0.0000 </r>
       <r>    8.9870    0.0000 </r>
       <r>    9.3094    0.0000 </r>
       <r>    9.3111    0.0000 </r>
       <r>    9.3112    0.0000 </r>
       <r>    9.3130    0.0000 </r>
       <r>    9.3207    0.0000 </r>
       <r>    9.3218    0.0000 </r>
       <r>    9.4443    0.0000 </r>
       <r>    9.4455    0.0000 </r>
       <r>    9.5143    0.0000 </r>
       <r>    9.5158    0.0000 </r>
       <r>    9.5161    0.0000 </r>
       <r>    9.5164    0.0000 </r>
       <r>    9.8731    0.0000 </r>
       <r>    9.8784    0.0000 </r>
       <r>    9.9164    0.0000 </r>
       <r>    9.9191    0.0000 </r>
       <r>    9.9191    0.0000 </r>
       <r>    9.9225    0.0000 </r>
       <r>    9.9659    0.0000 </r>
       <r>    9.9682    0.0000 </r>
       <r>   10.0690    0.0000 </r>
       <r>   10.0699    0.0000 </r>
       <r>   10.4885    0.0000 </r>
       <r>   10.4997    0.0000 </r>
       <r>   10.5050    0.0000 </r>
       <r>   10.5186    0.0000 </r>
       <r>   10.5207    0.0000 </r>
       <r>   10.8009    0.0000 </r>
       <r>   10.8013    0.0000 </r>
       <r>   10.8016    0.0000 </r>
       <r>   10.8025    0.0000 </r>
       <r>   10.8741    0.0000 </r>
       <r>   10.8771    0.0000 </r>
       <r>   11.0178    0.0000 </r>
       <r>   11.0197    0.0000 </r>
       <r>   11.0513    0.0000 </r>
       <r>   11.2662    0.0000 </r>
       <r>   11.2671    0.0000 </r>
       <r>   11.3730    0.0000 </r>
       <r>   11.3734    0.0000 </r>
       <r>   11.3735    0.0000 </r>
       <r>   11.3740    0.0000 </r>
       <r>   11.3872    0.0000 </r>
       <r>   11.3886    0.0000 </r>
       <r>   11.3935    0.0000 </r>
       <r>   11.3943    0.0000 </r>
       <r>   11.3946    0.0000 </r>
       <r>   11.3950    0.0000 </r>
       <r>   11.4482    0.0000 </r>
       <r>   11.6164    0.0000 </r>
       <r>   11.6182    0.0000 </r>
       <r>   11.8010    0.0000 </r>
       <r>   11.8013    0.0000 </r>
       <r>   11.8032    0.0000 </r>
       <r>   11.8328    0.0000 </r>
       <r>   12.0003    0.0000 </r>
       <r>   12.0014    0.0000 </r>
       <r>   12.0731    0.0000 </r>
       <r>   12.0750    0.0000 </r>
       <r>   12.0753    0.0000 </r>
       <r>   12.0762    0.0000 </r>
       <r>   12.1301    0.0000 </r>
       <r>   12.1311    0.0000 </r>
       <r>   12.1315    0.0000 </r>
       <r>   12.1322    0.0000 </r>
       <r>   12.2227    0.0000 </r>
       <r>   12.2229    0.0000 </r>
       <r>   12.2656    0.0000 </r>
       <r>   12.4605    0.0000 </r>
       <r>   12.4619    0.0000 </r>
       <r>   12.5277    0.0000 </r>
       <r>   12.5294    0.0000 </r>
       <r>   12.7049    0.0000 </r>
       <r>   12.7054    0.0000 </r>
       <r>   12.7057    0.0000 </r>
       <r>   12.7069    0.0000 </r>
[...]
       <r>   -45.9040    70.1736    52.9269 </r>
       <r>   -45.6626   228.1933   108.0000 </r>
       <r>   -45.4213     0.0000   108.0000 </r>
       <r>   -45.1800     0.0000   108.0000 </r>
       <r>   -44.9386     0.0000   108.0000 </r>
       <r>   -44.6973     0.0000   108.0000 </r>
       <r>   -44.4559     0.0000   108.0000 </r>
       <r>   -44.2146     0.0000   108.0000 </r>
       <r>   -43.9732     0.0000   108.0000 </r>
       <r>   -43.7319     0.0000   108.0000 </r>
       <r>   -43.4906     0.0000   108.0000 </r>
       <r>   -43.2492     0.0000   108.0000 </r>
       <r>   -43.0079     0.0000   108.0000 </r>
       <r>   -42.7665     0.0000   108.0000 </r>
       <r>   -42.5252     0.0000   108.0000 </r>
       <r>   -42.2838     0.0000   108.0000 </r>
       <r>   -42.0425     0.0000   108.0000 </r>
       <r>   -41.8011     0.0000   108.0000 </r>
       <r>   -41.5598     0.0000   108.0000 </r>
       <r>   -41.3185     0.0000   108.0000 </r>
       <r>   -41.0771     0.0000   108.0000 </r>
       <r>   -40.8358     0.0000   108.0000 </r>
       <r>   -40.5944     0.0000   108.0000 </r>
       <r>   -40.3531     0.0000   108.0000 </r>
       <r>   -40.1117     0.0000   108.0000 </r>
       <r>   -39.8704    27.4093   114.6151 </r>
       <r>   -39.6291    47.1731   126.0000 </r>
       <r>   -39.3877     0.0000   126.0000 </r>
       <r>   -39.1464     0.0000   126.0000 </r>
       <r>   -38.9050     0.0000   126.0000 </r>
       <r>   -38.6637     0.0000   126.0000 </r>
       <r>   -38.4223     0.0000   126.0000 </r>
       <r>   -38.1810     0.0000   126.0000 </r>
       <r>   -37.9396     0.0000   126.0000 </r>
       <r>   -37.6983     0.0000   126.0000 </r>
       <r>   -37.4570     0.0000   126.0000 </r>
       <r>   -37.2156     0.0000   126.0000 </r>
       <r>   -36.9743     0.0000   126.0000 </r>
       <r>   -36.7329     0.0000   126.0000 </r>
       <r>   -36.4916     0.0000   126.0000 </r>
       <r>   -36.2502     0.0000   126.0000 </r>
       <r>   -36.0089     0.0000   126.0000 </r>
       <r>   -35.7675     0.0000   126.0000 </r>
       <r>   -35.5262     0.0000   126.0000 </r>
       <r>   -35.2849     0.0000   126.0000 </r>
       <r>   -35.0435     0.0000   126.0000 </r>
       <r>   -34.8022     0.0000   126.0000 </r>
       <r>   -34.5608     0.0000   126.0000 </r>
       <r>   -34.3195     0.0000   126.0000 </r>
       <r>   -34.0781     0.0000   126.0000 </r>
       <r>   -33.8368     0.0000   126.0000 </r>
       <r>   -33.5955     0.0000   126.0000 </r>
       <r>   -33.3541     0.0000   126.0000 </r>
       <r>   -33.1128     0.0000   126.0000 </r>
       <r>   -32.8714     0.0000   126.0000 </r>
       <r>   -32.6301     0.0000   126.0000 </r>
       <r>   -32.3887     0.0000   126.0000 </r>
       <r>   -32.1474     0.0000   126.0000 </r>
       <r>   -31.9060     0.0000   126.0000 </r>
       <r>   -31.6647     0.0000   126.0000 </r>
       <r>   -31.4234     0.0000   126.0000 </r>
       <r>   -31.1820     0.0000   126.0000 </r>
       <r>   -30.9407     0.0000   126.0000 </r>
       <r>   -30.6993     0.0000   126.0000 </r>
       <r>   -30.4580     0.0000   126.0000 </r>
       <r>   -30.2166     0.0000   126.0000 </r>
       <r>   -29.9753     0.0000   126.0000 </r>
       <r>   -29.7340     0.0000   126.0000 </r>
       <r>   -29.4926     0.0000   126.0000 </r>
       <r>   -29.2513     0.0000   126.0000 </r>
       <r>   -29.0099     0.0000   126.0000 </r>
       <r>   -28.7686     0.0000   126.0000 </r>
       <r>   -28.5272     0.0000   126.0000 </r>
       <r>   -28.2859     0.0000   126.0000 </r>
       <r>   -28.0445     0.0000   126.0000 </r>
       <r>   -27.8032     0.0000   126.0000 </r>
       <r>   -27.5619     0.0000   126.0000 </r>
       <r>   -27.3205     0.0000   126.0000 </r>
       <r>   -27.0792     0.0000   126.0000 </r>
       <r>   -26.8378     0.0000   126.0000 </r>
       <r>   -26.5965     0.0000   126.0000 </r>
       <r>   -26.3551     0.0000   126.0000 </r>
       <r>   -26.1138     0.0000   126.0000 </r>
       <r>   -25.8724     0.0000   126.0000 </r>
       <r>   -25.6311     0.0000   126.0000 </r>
       <r>   -25.3898     0.0000   126.0000 </r>
       <r>   -25.1484     0.0000   126.0000 </r>
       <r>   -24.9071     0.0000   126.0000 </r>
       <r>   -24.6657     0.0000   126.0000 </r>
       <r>   -24.4244     0.0000   126.0000 </r>
       <r>   -24.1830     0.0000   126.0000 </r>
       <r>   -23.9417     0.0000   126.0000 </r>
       <r>   -23.7004     0.0000   126.0000 </r>
       <r>   -23.4590     0.0000   126.0000 </r>
       <r>   -23.2177     0.0000   126.0000 </r>
       <r>   -22.9763     0.0000   126.0000 </r>
       <r>   -22.7350     0.0000   126.0000 </r>
       <r>   -22.4936     0.0000   126.0000 </r>
       <r>   -22.2523     0.0000   126.0000 </r>
       <r>   -22.0109     0.0000   126.0000 </r>
       <r>   -21.7696     0.0000   126.0000 </r>
       <r>   -21.5283     0.0000   126.0000 </r>
       <r>   -21.2869     0.0000   126.0000 </r>
       <r>   -21.0456     0.0000   126.0000 </r>
       <r>   -20.8042     0.0000   126.0000 </r>
       <r>   -20.5629     0.0000   126.0000 </r>
       <r>   -20.3215     0.0000   126.0000 </r>
       <r>   -20.0802     0.0000   126.0000 </r>
       <r>   -19.8389     0.0000   126.0000 </r>
       <r>   -19.5975     0.0000   126.0000 </r>
       <r>   -19.3562     0.0000   126.0000 </r>
       <r>   -19.1148     0.0000   126.0000 </r>
       <r>   -18.8735     0.0000   126.0000 </r>
       <r>   -18.6321     0.0000   126.0000 </r>
       <r>   -18.3908     0.0000   126.0000 </r>
       <r>   -18.1494     0.0000   126.0000 </r>
       <r>   -17.9081     0.0000   126.0000 </r>
       <r>   -17.6668     0.0000   126.0000 </r>
       <r>   -17.4254     0.0000   126.0000 </r>
       <r>   -17.1841     0.0000   126.0000 </r>
       <r>   -16.9427     0.0000   126.0000 </r>
       <r>   -16.7014     0.0000   126.0000 </r>
       <r>   -16.4600     0.0000   126.0000 </r>
       <r>   -16.2187     0.0000   126.0000 </r>
       <r>   -15.9774     0.0000   126.0000 </r>
       <r>   -15.7360     0.0000   126.0000 </r>
       <r>   -15.4947     0.0000   126.0000 </r>
       <r>   -15.2533     0.0000   126.0000 </r>
       <r>   -15.0120     0.0000   126.0000 </r>
       <r>   -14.7706     0.0000   126.0000 </r>
       <r>   -14.5293     0.0000   126.0000 </r>
       <r>   -14.2879     0.0000   126.0000 </r>
       <r>   -14.0466     0.0000   126.0000 </r>
       <r>   -13.8053     0.0000   126.0000 </r>
       <r>   -13.5639     0.0000   126.0000 </r>
       <r>   -13.3226     0.0000   126.0000 </r>
       <r>   -13.0812     0.0000   126.0000 </r>
       <r>   -12.8399     4.7216   127.1395 </r>
       <r>   -12.5985    66.8126   143.2643 </r>
       <r>   -12.3572     3.0482   144.0000 </r>
       <r>   -12.1158     0.0000   144.0000 </r>
       <r>   -11.8745     0.0000   144.0000 </r>
       <r>   -11.6332     0.0000   144.0000 </r>
       <r>   -11.3918     0.0000   144.0000 </r>
       <r>   -11.1505     0.0000   144.0000 </r>
       <r>   -10.9091     0.0000   144.0000 </r>
       <r>   -10.6678     0.0000   144.0000 </r>
       <r>   -10.4264     0.0000   144.0000 </r>
       <r>   -10.1851     0.0000   144.0000 </r>
       <r>    -9.9438     0.0000   144.0000 </r>
       <r>    -9.7024     0.0000   144.0000 </r>
       <r>    -9.4611     0.0000   144.0000 </r>
       <r>    -9.2197     0.0000   144.0000 </r>
       <r>    -8.9784     0.0000   144.0000 </r>
       <r>    -8.7370     0.0000   144.0000 </r>
       <r>    -8.4957     0.0000   144.0000 </r>
       <r>    -8.2543     0.0000   144.0000 </r>
       <r>    -8.0130     0.0000   144.0000 </r>
       <r>    -7.7717     0.0000   144.0000 </r>
       <r>    -7.5303     0.0000   144.0000 </r>
       <r>    -7.2890     2.4973   144.6027 </r>
       <r>    -7.0476    27.5889   151.2611 </r>
       <r>    -6.8063    26.0030   157.5368 </r>
       <r>    -6.5649    35.9931   166.2235 </r>
       <r>    -6.3236    19.7907   170.9999 </r>
       <r>    -6.0823     0.0005   171.0000 </r>
       <r>    -5.8409     0.0000   171.0000 </r>
       <r>    -5.5996     0.0000   171.0000 </r>
       <r>    -5.3582     0.0000   171.0000 </r>
       <r>    -5.1169     0.0000   171.0000 </r>
       <r>    -4.8755     0.0000   171.0000 </r>
       <r>    -4.6342     0.0000   171.0000 </r>
       <r>    -4.3928     0.0000   171.0000 </r>
       <r>    -4.1515     0.0000   171.0000 </r>
       <r>    -3.9102     0.0000   171.0000 </r>
       <r>    -3.6688     0.0000   171.0000 </r>
       <r>    -3.4275     0.0000   171.0000 </r>
       <r>    -3.1861     0.0000   171.0000 </r>
       <r>    -2.9448     0.0000   171.0000 </r>
       <r>    -2.7034     0.0000   171.0000 </r>
       <r>    -2.4621     0.0000   171.0000 </r>
       <r>    -2.2208     0.0000   171.0000 </r>
       <r>    -1.9794     0.0000   171.0000 </r>
       <r>    -1.7381     0.0000   171.0000 </r>
       <r>    -1.4967     0.0000   171.0000 </r>
       <r>    -1.2554     0.0000   171.0000 </r>
       <r>    -1.0140     0.0000   171.0000 </r>
       <r>    -0.7727     0.0000   171.0000 </r>
       <r>    -0.5313     0.0811   171.0196 </r>
       <r>    -0.2900    17.6241   175.2730 </r>
       <r>    -0.0487    16.2369   179.1917 </r>
       <r>     0.1927    16.0172   183.0574 </r>
       <r>     0.4340    24.2366   188.9067 </r>
       <r>     0.6754    40.3214   198.6381 </r>
       <r>     0.9167    45.2270   209.5533 </r>
       <r>     1.1581    38.8499   218.9295 </r>
       <r>     1.3994    28.7075   225.8579 </r>
       <r>     1.6408    28.3697   232.7048 </r>
       <r>     1.8821    34.1412   240.9445 </r>
       <r>     2.1234    39.2278   250.4119 </r>
       <r>     2.3648    25.0756   256.4637 </r>
       <r>     2.6061    30.4368   263.8095 </r>
       <r>     2.8475    45.0239   274.6757 </r>
       <r>     3.0888    50.3445   286.8261 </r>
       <r>     3.3302    42.9961   297.2029 </r>
       <r>     3.5715    30.4019   304.5402 </r>
       <r>     3.8128     7.4701   306.3431 </r>
       <r>     4.0542    39.6748   315.9184 </r>
       <r>     4.2955    75.8576   334.2261 </r>
       <r>     4.5369    29.2049   341.2745 </r>
       <r>     4.7782     3.0059   342.0000 </r>
       <r>     5.0196     0.0000   342.0000 </r>
       <r>     5.2609     0.0000   342.0000 </r>
       <r>     5.5023     0.0000   342.0000 </r>
       <r>     5.7436     0.0000   342.0000 </r>
       <r>     5.9849     0.0000   342.0000 </r>
       <r>     6.2263     0.0001   342.0000 </r>
       <r>     6.4676     2.2575   342.5448 </r>
       <r>     6.7090     5.3162   343.8279 </r>
       <r>     6.9503    15.2110   347.4990 </r>
       <r>     7.1917    32.1095   355.2484 </r>
       <r>     7.4330    58.1123   369.2734 </r>
       <r>     7.6743    68.3695   385.7740 </r>
       <r>     7.9157    65.7580   401.6443 </r>
       <r>     8.1570    75.0625   419.7602 </r>
       <r>     8.3984    82.7611   439.7340 </r>
       <r>     8.6397    65.2093   455.4719 </r>
       <r>     8.8811    60.7696   470.1383 </r>
       <r>     9.1224    42.1091   480.3010 </r>
       <r>     9.3638    21.7595   485.5526 </r>
       <r>     9.6051     5.1092   486.7856 </r>
       <r>     9.8464     8.3108   488.7914 </r>
       <r>    10.0878    11.5402   491.5765 </r>
       <r>    10.3291    22.7627   497.0702 </r>
       <r>    10.5705    21.3390   502.2202 </r>
       <r>    10.8118    22.2830   507.5981 </r>
       <r>    11.0532    29.9885   514.8356 </r>
       <r>    11.2945    23.0535   520.3994 </r>
       <r>    11.5359    21.3164   525.5440 </r>
       <r>    11.7772    13.9770   528.9173 </r>
       <r>    12.0185    12.5130   531.9372 </r>
       <r>    12.2599    33.3984   539.9977 </r>
       <r>    12.5012    45.5508   550.9911 </r>
       <r>    12.7426    36.2687   559.7444 </r>
       <r>    12.9839    24.0265   565.5430 </r>
       <r>    13.2253    20.4231   570.4720 </r>
       <r>    13.4666    30.1261   577.7427 </r>
       <r>    13.7079    30.0161   584.9869 </r>
       <r>    13.9493    27.3895   591.5972 </r>
       <r>    14.1906    23.6662   597.3089 </r>
       <r>    14.4320    22.3099   602.6933 </r>
       <r>    14.6733    13.0225   605.8362 </r>
       <r>    14.9147     0.6788   606.0000 </r>
       <r>    15.1560     0.0000   606.0000 </r>
       <r>    15.3974     0.0000   606.0000 </r>
       <r>    15.6387     0.0000   606.0000 </r>
       <r>    15.8800     0.0000   606.0000 </r>
       <r>    16.1214     0.0000   606.0000 </r>
       <r>    16.3627     0.0000   606.0000 </r>
       <r>    16.6041     0.0000   606.0000 </r>
       <r>    16.8454     0.0000   606.0000 </r>
       <r>    17.0868     0.0000   606.0000 </r>
       <r>    17.3281     0.0000   606.0000 </r>
       <r>    17.5694     0.0000   606.0000 </r>
       <r>    17.8108     0.0000   606.0000 </r>
       <r>    18.0521     0.0000   606.0000 </r>
      </set>
     </set>
    </array>
   </total>
  </dos>
 </calculation>
 <structure name="finalpos" >
  <crystal>
   <varray name="basis" >
    <v>      11.77726974       0.00848871       0.06923316 </v>
    <v>      -0.03028248      11.77723386       0.06923316 </v>
    <v>      -2.02000231      -2.02666320      10.18574622 </v>
   </varray>
   <i name="volume">   1416.10551572 </i>
   <varray name="rec_basis" >
    <v>       0.08481023       0.00011906       0.01684296 </v>
    <v>      -0.00016014       0.08481016       0.01684296 </v>
    <v>      -0.00057537      -0.00057727       0.09794744 </v>
   </varray>
  </crystal>
  <varray name="positions" >
   <v>       0.20224939       0.24206952       0.83183419 </v>
   <v>       0.53558272       0.24206952       0.83183419 </v>
   <v>       0.86891606       0.24206952       0.83183419 </v>
   <v>       0.20224939       0.57540285       0.83183419 </v>
   <v>       0.53558272       0.57540285       0.83183419 </v>
   <v>       0.86891606       0.57540285       0.83183419 </v>
   <v>       0.20224939       0.90873619       0.83183419 </v>
   <v>       0.53558272       0.90873619       0.83183419 </v>
   <v>       0.86891606       0.90873619       0.83183419 </v>
   <v>       0.09126381       0.13108394       0.16816581 </v>
   <v>       0.42459715       0.13108394       0.16816581 </v>
   <v>       0.75793048       0.13108394       0.16816581 </v>
   <v>       0.09126381       0.46441728       0.16816581 </v>
   <v>       0.42459715       0.46441728       0.16816581 </v>
   <v>       0.75793048       0.46441728       0.16816581 </v>
   <v>       0.09126381       0.79775061       0.16816581 </v>
   <v>       0.42459715       0.79775061       0.16816581 </v>
   <v>       0.75793048       0.79775061       0.16816581 </v>
   <v>       0.26311007       0.13683724       0.19686089 </v>
   <v>       0.59644341       0.13598816       0.19686089 </v>
   <v>       0.92977674       0.13598816       0.19686089 </v>
   <v>       0.26311007       0.46932149       0.19686089 </v>
   <v>       0.59644341       0.46932149       0.19686089 </v>
   <v>       0.92977674       0.46932149       0.19686089 </v>
   <v>       0.26311007       0.80265483       0.19686089 </v>
   <v>       0.59644341       0.80265483       0.19686089 </v>
   <v>       0.92977674       0.80265483       0.19686089 </v>
   <v>       0.19734517       0.07022326       0.80313911 </v>
   <v>       0.53067851       0.07022326       0.80313911 </v>
   <v>       0.86401184       0.07022326       0.80313911 </v>
   <v>       0.19734517       0.40355659       0.80313911 </v>
   <v>       0.53067851       0.40355659       0.80313911 </v>
   <v>       0.86401184       0.40355659       0.80313911 </v>
   <v>       0.19734517       0.73688993       0.80313911 </v>
   <v>       0.53067851       0.73688993       0.80313911 </v>
   <v>       0.86401184       0.73688993       0.80313911 </v>
   <v>       0.00253935       0.20657296       0.62920335 </v>
   <v>       0.33587268       0.20657296       0.62920335 </v>
   <v>       0.66920601       0.20657296       0.62920335 </v>
   <v>       0.00253935       0.53990630       0.62920335 </v>
   <v>       0.33587268       0.53990630       0.62920335 </v>
   <v>       0.66920601       0.53990630       0.62920335 </v>
   <v>       0.00253935       0.87323963       0.62920335 </v>
   <v>       0.33587268       0.87323963       0.62920335 </v>
   <v>       0.66920601       0.87323963       0.62920335 </v>
   <v>       0.12676037       0.33079399       0.37079665 </v>
   <v>       0.46009370       0.33079399       0.37079665 </v>
   <v>       0.79342704       0.33079399       0.37079665 </v>
   <v>       0.12676037       0.66412732       0.37079665 </v>
   <v>       0.46009370       0.66412732       0.37079665 </v>
   <v>       0.79342704       0.66412732       0.37079665 </v>
   <v>       0.12676037       0.99746065       0.37079665 </v>
   <v>       0.46009370       0.99746065       0.37079665 </v>
   <v>       0.79342704       0.99746065       0.37079665 </v>
   <v>       0.06350899       0.26982435       0.00000000 </v>
   <v>       0.39684232       0.26982435       0.00000000 </v>
   <v>       0.73017565       0.26982435       0.00000000 </v>
   <v>       0.06350899       0.60315768       0.00000000 </v>
   <v>       0.39684232       0.60315768       0.00000000 </v>
   <v>       0.73017565       0.60315768       0.00000000 </v>
   <v>       0.06350899       0.93649101       0.00000000 </v>
   <v>       0.39684232       0.93649101       0.00000000 </v>
   <v>       0.73017565       0.93649101       0.00000000 </v>
   <v>       0.29027274       0.17214940       0.39352170 </v>
   <v>       0.62360607       0.17214940       0.39352170 </v>
   <v>       0.95693941       0.17214940       0.39352170 </v>
   <v>       0.29027274       0.50548273       0.39352170 </v>
   <v>       0.62360607       0.50548273       0.39352170 </v>
   <v>       0.95693941       0.50548273       0.39352170 </v>
   <v>       0.29027274       0.83881607       0.39352170 </v>
   <v>       0.62360607       0.83881607       0.39352170 </v>
   <v>       0.95693941       0.83881607       0.39352170 </v>
   <v>       0.16118393       0.04306059       0.60647830 </v>
   <v>       0.49451727       0.04306059       0.60647830 </v>
   <v>       0.82785060       0.04306059       0.60647830 </v>
   <v>       0.16118393       0.37639393       0.60647830 </v>
   <v>       0.49451727       0.37639393       0.60647830 </v>
   <v>       0.82785060       0.37639393       0.60647830 </v>
   <v>       0.16118393       0.70972726       0.60647830 </v>
   <v>       0.49451727       0.70972726       0.60647830 </v>
   <v>       0.82785060       0.70972726       0.60647830 </v>
   <v>       0.03761391       0.07731307       0.84542777 </v>
   <v>       0.37094724       0.07731307       0.84542777 </v>
   <v>       0.70428057       0.07731307       0.84542777 </v>
   <v>       0.03761391       0.41064640       0.84542777 </v>
   <v>       0.37094724       0.41064640       0.84542777 </v>
   <v>       0.70428057       0.41064640       0.84542777 </v>
   <v>       0.03761391       0.74397973       0.84542777 </v>
   <v>       0.37094724       0.74397973       0.84542777 </v>
   <v>       0.70428057       0.74397973       0.84542777 </v>
   <v>       0.25602027       0.29571943       0.15457223 </v>
   <v>       0.58935360       0.29571943       0.15457223 </v>
   <v>       0.92268693       0.29571943       0.15457223 </v>
   <v>       0.25602027       0.62905276       0.15457223 </v>
   <v>       0.58935360       0.62905276       0.15457223 </v>
   <v>       0.92268693       0.62905276       0.15457223 </v>
   <v>       0.25602027       0.96238609       0.15457223 </v>
   <v>       0.58935360       0.96238609       0.15457223 </v>
   <v>       0.92268693       0.96238609       0.15457223 </v>
  </varray>
 </structure>
</modeling>
