  88  88   0   0
  0.1431748E+02  0.1111223E-08  0.1111745E-08  0.1056954E-08  0.5000000E-15
  1.000000000000000E-004
  CAR 
 unknown system                          
     17.92415307    -54.33958218  301      5.21777962      1.00000000
    -54.340  0.0000E+00  0.0000E+00  0.0000E+00  0.0000E+00
    -54.099  0.0000E+00  0.0000E+00  0.0000E+00  0.0000E+00
    -53.858  0.0000E+00  0.0000E+00  0.0000E+00  0.0000E+00
    -53.617  0.0000E+00  0.0000E+00  0.0000E+00  0.0000E+00
    -53.376  0.0000E+00  0.0000E+00  0.0000E+00  0.0000E+00
    -53.135  0.0000E+00  0.0000E+00  0.0000E+00  0.0000E+00
    -52.894  0.0000E+00  0.0000E+00  0.0000E+00  0.0000E+00
    -52.653  0.0000E+00  0.0000E+00  0.0000E+00  0.0000E+00
    -52.413  0.0000E+00  0.0000E+00  0.0000E+00  0.0000E+00
    -52.172  0.0000E+00  0.0000E+00  0.0000E+00  0.0000E+00
    -51.931  0.0000E+00  0.0000E+00  0.0000E+00  0.0000E+00
    -51.690  0.0000E+00  0.0000E+00  0.0000E+00  0.0000E+00
    -51.449  0.0000E+00  0.0000E+00  0.0000E+00  0.0000E+00
    -51.208  0.4579E-03  0.0000E+00  0.1103E-03  0.0000E+00
    -50.967  0.1312E+03  0.0000E+00  0.3159E+02  0.0000E+00
    -50.726  0.1694E+01  0.0000E+00  0.3200E+02  0.0000E+00
    -50.486  0.0000E+00  0.0000E+00  0.3200E+02  0.0000E+00
    -50.245  0.0000E+00  0.0000E+00  0.3200E+02  0.0000E+00
    -50.004  0.2305E-15  0.0000E+00  0.3200E+02  0.0000E+00
    -49.763  0.2386E+01  0.0000E+00  0.3257E+02  0.0000E+00
    -49.522  0.2382E+03  0.0000E+00  0.8996E+02  0.0000E+00
    -49.281  0.2507E+02  0.0000E+00  0.9600E+02  0.0000E+00
    -49.040  0.0000E+00  0.0000E+00  0.9600E+02  0.0000E+00
    -48.799  0.0000E+00  0.0000E+00  0.9600E+02  0.0000E+00
    -48.558  0.0000E+00  0.0000E+00  0.9600E+02  0.0000E+00
    -48.318  0.0000E+00  0.0000E+00  0.9600E+02  0.0000E+00
    -48.077  0.0000E+00  0.0000E+00  0.9600E+02  0.0000E+00
    -47.836  0.0000E+00  0.0000E+00  0.9600E+02  0.0000E+00
    -47.595  0.0000E+00  0.0000E+00  0.9600E+02  0.0000E+00
    -47.354  0.0000E+00  0.0000E+00  0.9600E+02  0.0000E+00
    -47.113  0.0000E+00  0.0000E+00  0.9600E+02  0.0000E+00
    -46.872  0.0000E+00  0.0000E+00  0.9600E+02  0.0000E+00
    -46.631  0.0000E+00  0.0000E+00  0.9600E+02  0.0000E+00
    -46.391  0.0000E+00  0.4406E+00  0.9600E+02  0.1061E+00
    -46.150  0.0000E+00  0.1324E+03  0.9600E+02  0.3199E+02
    -45.909  0.0000E+00  0.6406E+02  0.9600E+02  0.4742E+02
    -45.668  0.0000E+00  0.2017E+03  0.9600E+02  0.9600E+02
    -45.427  0.0000E+00  0.0000E+00  0.9600E+02  0.9600E+02
    -45.186  0.0000E+00  0.0000E+00  0.9600E+02  0.9600E+02
    -44.945  0.0000E+00  0.0000E+00  0.9600E+02  0.9600E+02
    -44.704  0.0000E+00  0.0000E+00  0.9600E+02  0.9600E+02
    -44.464  0.0000E+00  0.0000E+00  0.9600E+02  0.9600E+02
    -44.223  0.0000E+00  0.0000E+00  0.9600E+02  0.9600E+02
    -43.982  0.0000E+00  0.0000E+00  0.9600E+02  0.9600E+02
    -43.741  0.0000E+00  0.0000E+00  0.9600E+02  0.9600E+02
    -43.500  0.0000E+00  0.0000E+00  0.9600E+02  0.9600E+02
    -43.259  0.0000E+00  0.0000E+00  0.9600E+02  0.9600E+02
    -43.018  0.0000E+00  0.0000E+00  0.9600E+02  0.9600E+02
    -42.777  0.0000E+00  0.0000E+00  0.9600E+02  0.9600E+02
    -42.537  0.0000E+00  0.0000E+00  0.9600E+02  0.9600E+02
    -42.296  0.0000E+00  0.0000E+00  0.9600E+02  0.9600E+02
    -42.055  0.0000E+00  0.0000E+00  0.9600E+02  0.9600E+02
    -41.814  0.0000E+00  0.0000E+00  0.9600E+02  0.9600E+02
    -41.573  0.0000E+00  0.0000E+00  0.9600E+02  0.9600E+02
    -41.332  0.0000E+00  0.0000E+00  0.9600E+02  0.9600E+02
    -41.091  0.0000E+00  0.0000E+00  0.9600E+02  0.9600E+02
    -40.850  0.0000E+00  0.0000E+00  0.9600E+02  0.9600E+02
    -40.609  0.0000E+00  0.0000E+00  0.9600E+02  0.9600E+02
    -40.369  0.0000E+00  0.0000E+00  0.9600E+02  0.9600E+02
    -40.128  0.4118E-11  0.2652E-11  0.9600E+02  0.9600E+02
    -39.887  0.1813E+02  0.1686E+02  0.1004E+03  0.1001E+03
    -39.646  0.4829E+02  0.4956E+02  0.1120E+03  0.1120E+03
    -39.405  0.0000E+00  0.0000E+00  0.1120E+03  0.1120E+03
    -39.164  0.0000E+00  0.0000E+00  0.1120E+03  0.1120E+03
    -38.923  0.0000E+00  0.0000E+00  0.1120E+03  0.1120E+03
    -38.682  0.0000E+00  0.0000E+00  0.1120E+03  0.1120E+03
    -38.442  0.0000E+00  0.0000E+00  0.1120E+03  0.1120E+03
    -38.201  0.0000E+00  0.0000E+00  0.1120E+03  0.1120E+03
    -37.960  0.0000E+00  0.0000E+00  0.1120E+03  0.1120E+03
    -37.719  0.0000E+00  0.0000E+00  0.1120E+03  0.1120E+03
    -37.478  0.0000E+00  0.0000E+00  0.1120E+03  0.1120E+03
    -37.237  0.0000E+00  0.0000E+00  0.1120E+03  0.1120E+03
    -36.996  0.0000E+00  0.0000E+00  0.1120E+03  0.1120E+03
    -36.755  0.0000E+00  0.0000E+00  0.1120E+03  0.1120E+03
    -36.515  0.0000E+00  0.0000E+00  0.1120E+03  0.1120E+03
    -36.274  0.0000E+00  0.0000E+00  0.1120E+03  0.1120E+03
    -36.033  0.0000E+00  0.0000E+00  0.1120E+03  0.1120E+03
    -35.792  0.0000E+00  0.0000E+00  0.1120E+03  0.1120E+03
    -35.551  0.0000E+00  0.0000E+00  0.1120E+03  0.1120E+03
    -35.310  0.0000E+00  0.0000E+00  0.1120E+03  0.1120E+03
    -35.069  0.0000E+00  0.0000E+00  0.1120E+03  0.1120E+03
    -34.828  0.0000E+00  0.0000E+00  0.1120E+03  0.1120E+03
    -34.587  0.0000E+00  0.0000E+00  0.1120E+03  0.1120E+03
    -34.347  0.0000E+00  0.0000E+00  0.1120E+03  0.1120E+03
    -34.106  0.0000E+00  0.0000E+00  0.1120E+03  0.1120E+03
    -33.865  0.0000E+00  0.0000E+00  0.1120E+03  0.1120E+03
    -33.624  0.0000E+00  0.0000E+00  0.1120E+03  0.1120E+03
    -33.383  0.0000E+00  0.0000E+00  0.1120E+03  0.1120E+03
    -33.142  0.0000E+00  0.0000E+00  0.1120E+03  0.1120E+03
    -32.901  0.0000E+00  0.0000E+00  0.1120E+03  0.1120E+03
    -32.660  0.0000E+00  0.0000E+00  0.1120E+03  0.1120E+03
    -32.420  0.0000E+00  0.0000E+00  0.1120E+03  0.1120E+03
    -32.179  0.0000E+00  0.0000E+00  0.1120E+03  0.1120E+03
    -31.938  0.0000E+00  0.0000E+00  0.1120E+03  0.1120E+03
    -31.697  0.0000E+00  0.0000E+00  0.1120E+03  0.1120E+03
    -31.456  0.0000E+00  0.0000E+00  0.1120E+03  0.1120E+03
    -31.215  0.0000E+00  0.0000E+00  0.1120E+03  0.1120E+03
    -30.974  0.0000E+00  0.0000E+00  0.1120E+03  0.1120E+03
    -30.733  0.0000E+00  0.0000E+00  0.1120E+03  0.1120E+03
    -30.493  0.0000E+00  0.0000E+00  0.1120E+03  0.1120E+03
    -30.252  0.0000E+00  0.0000E+00  0.1120E+03  0.1120E+03
    -30.011  0.0000E+00  0.0000E+00  0.1120E+03  0.1120E+03
    -29.770  0.0000E+00  0.0000E+00  0.1120E+03  0.1120E+03
    -29.529  0.0000E+00  0.0000E+00  0.1120E+03  0.1120E+03
    -29.288  0.0000E+00  0.0000E+00  0.1120E+03  0.1120E+03
    -29.047  0.0000E+00  0.0000E+00  0.1120E+03  0.1120E+03
    -28.806  0.0000E+00  0.0000E+00  0.1120E+03  0.1120E+03
    -28.566  0.0000E+00  0.0000E+00  0.1120E+03  0.1120E+03
    -28.325  0.0000E+00  0.0000E+00  0.1120E+03  0.1120E+03
    -28.084  0.0000E+00  0.0000E+00  0.1120E+03  0.1120E+03
    -27.843  0.0000E+00  0.0000E+00  0.1120E+03  0.1120E+03
    -27.602  0.0000E+00  0.0000E+00  0.1120E+03  0.1120E+03
    -27.361  0.0000E+00  0.0000E+00  0.1120E+03  0.1120E+03
    -27.120  0.0000E+00  0.0000E+00  0.1120E+03  0.1120E+03
    -26.879  0.0000E+00  0.0000E+00  0.1120E+03  0.1120E+03
    -26.638  0.0000E+00  0.0000E+00  0.1120E+03  0.1120E+03
    -26.398  0.0000E+00  0.0000E+00  0.1120E+03  0.1120E+03
    -26.157  0.0000E+00  0.0000E+00  0.1120E+03  0.1120E+03
    -25.916  0.0000E+00  0.0000E+00  0.1120E+03  0.1120E+03
    -25.675  0.0000E+00  0.0000E+00  0.1120E+03  0.1120E+03
    -25.434  0.0000E+00  0.0000E+00  0.1120E+03  0.1120E+03
    -25.193  0.0000E+00  0.0000E+00  0.1120E+03  0.1120E+03
    -24.952  0.0000E+00  0.0000E+00  0.1120E+03  0.1120E+03
    -24.711  0.0000E+00  0.0000E+00  0.1120E+03  0.1120E+03
    -24.471  0.0000E+00  0.0000E+00  0.1120E+03  0.1120E+03
    -24.230  0.0000E+00  0.0000E+00  0.1120E+03  0.1120E+03
    -23.989  0.0000E+00  0.0000E+00  0.1120E+03  0.1120E+03
    -23.748  0.0000E+00  0.0000E+00  0.1120E+03  0.1120E+03
    -23.507  0.0000E+00  0.0000E+00  0.1120E+03  0.1120E+03
    -23.266  0.0000E+00  0.0000E+00  0.1120E+03  0.1120E+03
    -23.025  0.0000E+00  0.0000E+00  0.1120E+03  0.1120E+03
    -22.784  0.0000E+00  0.0000E+00  0.1120E+03  0.1120E+03
    -22.544  0.0000E+00  0.0000E+00  0.1120E+03  0.1120E+03
    -22.303  0.0000E+00  0.0000E+00  0.1120E+03  0.1120E+03
    -22.062  0.0000E+00  0.0000E+00  0.1120E+03  0.1120E+03
    -21.821  0.0000E+00  0.0000E+00  0.1120E+03  0.1120E+03
    -21.580  0.0000E+00  0.0000E+00  0.1120E+03  0.1120E+03
    -21.339  0.0000E+00  0.0000E+00  0.1120E+03  0.1120E+03
    -21.098  0.0000E+00  0.0000E+00  0.1120E+03  0.1120E+03
    -20.857  0.0000E+00  0.0000E+00  0.1120E+03  0.1120E+03
    -20.617  0.0000E+00  0.0000E+00  0.1120E+03  0.1120E+03
    -20.376  0.0000E+00  0.0000E+00  0.1120E+03  0.1120E+03
    -20.135  0.0000E+00  0.0000E+00  0.1120E+03  0.1120E+03
    -19.894  0.0000E+00  0.0000E+00  0.1120E+03  0.1120E+03
    -19.653  0.0000E+00  0.0000E+00  0.1120E+03  0.1120E+03
    -19.412  0.0000E+00  0.0000E+00  0.1120E+03  0.1120E+03
    -19.171  0.0000E+00  0.0000E+00  0.1120E+03  0.1120E+03
    -18.930  0.0000E+00  0.0000E+00  0.1120E+03  0.1120E+03
    -18.689  0.0000E+00  0.0000E+00  0.1120E+03  0.1120E+03
    -18.449  0.0000E+00  0.0000E+00  0.1120E+03  0.1120E+03
    -18.208  0.0000E+00  0.0000E+00  0.1120E+03  0.1120E+03
    -17.967  0.0000E+00  0.0000E+00  0.1120E+03  0.1120E+03
    -17.726  0.0000E+00  0.0000E+00  0.1120E+03  0.1120E+03
    -17.485  0.0000E+00  0.0000E+00  0.1120E+03  0.1120E+03
    -17.244  0.0000E+00  0.0000E+00  0.1120E+03  0.1120E+03
    -17.003  0.0000E+00  0.0000E+00  0.1120E+03  0.1120E+03
    -16.762  0.0000E+00  0.0000E+00  0.1120E+03  0.1120E+03
    -16.522  0.0000E+00  0.0000E+00  0.1120E+03  0.1120E+03
    -16.281  0.0000E+00  0.0000E+00  0.1120E+03  0.1120E+03
    -16.040  0.0000E+00  0.0000E+00  0.1120E+03  0.1120E+03
    -15.799  0.0000E+00  0.0000E+00  0.1120E+03  0.1120E+03
    -15.558  0.0000E+00  0.0000E+00  0.1120E+03  0.1120E+03
    -15.317  0.0000E+00  0.0000E+00  0.1120E+03  0.1120E+03
    -15.076  0.0000E+00  0.0000E+00  0.1120E+03  0.1120E+03
    -14.835  0.0000E+00  0.0000E+00  0.1120E+03  0.1120E+03
    -14.595  0.0000E+00  0.0000E+00  0.1120E+03  0.1120E+03
    -14.354  0.0000E+00  0.0000E+00  0.1120E+03  0.1120E+03
    -14.113  0.0000E+00  0.0000E+00  0.1120E+03  0.1120E+03
    -13.872  0.0000E+00  0.0000E+00  0.1120E+03  0.1120E+03
    -13.631  0.0000E+00  0.0000E+00  0.1120E+03  0.1120E+03
    -13.390  0.2943E-05  0.0000E+00  0.1120E+03  0.1120E+03
    -13.149  0.2137E+02  0.0000E+00  0.1171E+03  0.1120E+03
    -12.908  0.4424E+02  0.2124E-01  0.1278E+03  0.1120E+03
    -12.667  0.8137E+00  0.4528E+02  0.1280E+03  0.1229E+03
    -12.427  0.0000E+00  0.2112E+02  0.1280E+03  0.1280E+03
    -12.186  0.0000E+00  0.0000E+00  0.1280E+03  0.1280E+03
    -11.945  0.0000E+00  0.0000E+00  0.1280E+03  0.1280E+03
    -11.704  0.0000E+00  0.0000E+00  0.1280E+03  0.1280E+03
    -11.463  0.0000E+00  0.0000E+00  0.1280E+03  0.1280E+03
    -11.222  0.0000E+00  0.0000E+00  0.1280E+03  0.1280E+03
    -10.981  0.0000E+00  0.0000E+00  0.1280E+03  0.1280E+03
    -10.740  0.0000E+00  0.0000E+00  0.1280E+03  0.1280E+03
    -10.500  0.0000E+00  0.0000E+00  0.1280E+03  0.1280E+03
    -10.259  0.0000E+00  0.0000E+00  0.1280E+03  0.1280E+03
    -10.018  0.0000E+00  0.0000E+00  0.1280E+03  0.1280E+03
     -9.777  0.0000E+00  0.0000E+00  0.1280E+03  0.1280E+03
     -9.536  0.0000E+00  0.0000E+00  0.1280E+03  0.1280E+03
     -9.295  0.0000E+00  0.0000E+00  0.1280E+03  0.1280E+03
     -9.054  0.0000E+00  0.0000E+00  0.1280E+03  0.1280E+03
     -8.813  0.0000E+00  0.0000E+00  0.1280E+03  0.1280E+03
     -8.573  0.0000E+00  0.0000E+00  0.1280E+03  0.1280E+03
     -8.332  0.0000E+00  0.0000E+00  0.1280E+03  0.1280E+03
     -8.091  0.0000E+00  0.0000E+00  0.1280E+03  0.1280E+03
     -7.850  0.5143E-09  0.0000E+00  0.1280E+03  0.1280E+03
     -7.609  0.7985E+00  0.1001E-09  0.1282E+03  0.1280E+03
     -7.368  0.1381E+02  0.7225E+00  0.1315E+03  0.1282E+03
     -7.127  0.3011E+02  0.1520E+02  0.1388E+03  0.1318E+03
     -6.886  0.3566E+02  0.2914E+02  0.1474E+03  0.1389E+03
     -6.646  0.1925E+02  0.2729E+02  0.1520E+03  0.1454E+03
     -6.405  0.3188E-05  0.2726E+02  0.1520E+03  0.1520E+03
     -6.164  0.0000E+00  0.2512E-01  0.1520E+03  0.1520E+03
     -5.923  0.0000E+00  0.0000E+00  0.1520E+03  0.1520E+03
     -5.682  0.0000E+00  0.0000E+00  0.1520E+03  0.1520E+03
     -5.441  0.0000E+00  0.0000E+00  0.1520E+03  0.1520E+03
     -5.200  0.0000E+00  0.0000E+00  0.1520E+03  0.1520E+03
     -4.959  0.0000E+00  0.0000E+00  0.1520E+03  0.1520E+03
     -4.718  0.0000E+00  0.0000E+00  0.1520E+03  0.1520E+03
     -4.478  0.0000E+00  0.0000E+00  0.1520E+03  0.1520E+03
     -4.237  0.0000E+00  0.0000E+00  0.1520E+03  0.1520E+03
     -3.996  0.0000E+00  0.0000E+00  0.1520E+03  0.1520E+03
     -3.755  0.0000E+00  0.0000E+00  0.1520E+03  0.1520E+03
     -3.514  0.0000E+00  0.0000E+00  0.1520E+03  0.1520E+03
     -3.273  0.0000E+00  0.0000E+00  0.1520E+03  0.1520E+03
     -3.032  0.0000E+00  0.0000E+00  0.1520E+03  0.1520E+03
     -2.791  0.0000E+00  0.0000E+00  0.1520E+03  0.1520E+03
     -2.551  0.0000E+00  0.0000E+00  0.1520E+03  0.1520E+03
     -2.310  0.0000E+00  0.0000E+00  0.1520E+03  0.1520E+03
     -2.069  0.1113E-03  0.0000E+00  0.1520E+03  0.1520E+03
     -1.828  0.1737E+02  0.0000E+00  0.1562E+03  0.1520E+03
     -1.587  0.1908E+02  0.0000E+00  0.1608E+03  0.1520E+03
     -1.346  0.1440E+02  0.0000E+00  0.1642E+03  0.1520E+03
     -1.105  0.1764E+02  0.0000E+00  0.1685E+03  0.1520E+03
     -0.864  0.4751E+02  0.0000E+00  0.1799E+03  0.1520E+03
     -0.624  0.5919E+02  0.5181E-05  0.1942E+03  0.1520E+03
     -0.383  0.3896E+02  0.5156E+01  0.2036E+03  0.1532E+03
     -0.142  0.6927E+02  0.2021E+02  0.2203E+03  0.1581E+03
      0.099  0.7313E+02  0.1237E+02  0.2379E+03  0.1611E+03
      0.340  0.7776E+02  0.1909E+02  0.2566E+03  0.1657E+03
      0.581  0.7016E+02  0.2981E+02  0.2735E+03  0.1729E+03
      0.822  0.5330E+02  0.3978E+02  0.2864E+03  0.1825E+03
      1.063  0.3616E+02  0.3722E+02  0.2951E+03  0.1914E+03
      1.303  0.3103E+02  0.3024E+02  0.3025E+03  0.1987E+03
      1.544  0.4491E+02  0.2108E+02  0.3134E+03  0.2038E+03
      1.785  0.4392E+02  0.2859E+02  0.3239E+03  0.2107E+03
      2.026  0.6935E+02  0.3790E+02  0.3406E+03  0.2198E+03
      2.267  0.5514E+02  0.2626E+02  0.3539E+03  0.2261E+03
      2.508  0.2752E+02  0.2718E+02  0.3605E+03  0.2327E+03
      2.749  0.4298E+02  0.3224E+02  0.3709E+03  0.2404E+03
      2.990  0.2793E+02  0.4504E+02  0.3776E+03  0.2513E+03
      3.231  0.8906E+01  0.4518E+02  0.3798E+03  0.2622E+03
      3.471  0.2935E+02  0.3020E+02  0.3868E+03  0.2694E+03
      3.712  0.2631E+02  0.1175E+02  0.3932E+03  0.2723E+03
      3.953  0.3147E+02  0.1951E+02  0.4008E+03  0.2770E+03
      4.194  0.3589E+02  0.5136E+02  0.4094E+03  0.2893E+03
      4.435  0.3639E+02  0.4597E+02  0.4182E+03  0.3004E+03
      4.676  0.2979E+02  0.1488E+02  0.4253E+03  0.3040E+03
      4.917  0.2531E+02  0.1305E-02  0.4314E+03  0.3040E+03
      5.158  0.2296E+01  0.0000E+00  0.4320E+03  0.3040E+03
      5.398  0.0000E+00  0.0000E+00  0.4320E+03  0.3040E+03
      5.639  0.0000E+00  0.0000E+00  0.4320E+03  0.3040E+03
      5.880  0.0000E+00  0.0000E+00  0.4320E+03  0.3040E+03
      6.121  0.0000E+00  0.3898E-08  0.4320E+03  0.3040E+03
      6.362  0.0000E+00  0.4940E+00  0.4320E+03  0.3041E+03
      6.603  0.0000E+00  0.4231E+01  0.4320E+03  0.3051E+03
      6.844  0.0000E+00  0.8203E+01  0.4320E+03  0.3071E+03
      7.085  0.1803E-13  0.2079E+02  0.4320E+03  0.3121E+03
      7.325  0.4666E-01  0.4516E+02  0.4320E+03  0.3230E+03
      7.566  0.1071E+00  0.5461E+02  0.4320E+03  0.3362E+03
      7.807  0.3390E+00  0.6264E+02  0.4321E+03  0.3512E+03
      8.048  0.6802E+00  0.6656E+02  0.4323E+03  0.3673E+03
      8.289  0.2358E+01  0.7087E+02  0.4329E+03  0.3843E+03
      8.530  0.2689E+01  0.5821E+02  0.4335E+03  0.3984E+03
      8.771  0.9072E+01  0.5881E+02  0.4357E+03  0.4125E+03
      9.012  0.1282E+02  0.4587E+02  0.4388E+03  0.4236E+03
      9.253  0.1333E+02  0.2842E+02  0.4420E+03  0.4304E+03
      9.493  0.1821E+02  0.8311E+01  0.4464E+03  0.4324E+03
      9.734  0.1595E+02  0.3378E+01  0.4502E+03  0.4332E+03
      9.975  0.1576E+02  0.8609E+01  0.4540E+03  0.4353E+03
     10.216  0.2250E+02  0.1901E+02  0.4594E+03  0.4399E+03
     10.457  0.1488E+02  0.1800E+02  0.4630E+03  0.4442E+03
     10.698  0.1510E+02  0.1767E+02  0.4666E+03  0.4485E+03
     10.939  0.1359E+02  0.2729E+02  0.4699E+03  0.4551E+03
     11.180  0.2077E+02  0.1898E+02  0.4749E+03  0.4596E+03
     11.420  0.2544E+02  0.2415E+02  0.4811E+03  0.4654E+03
     11.661  0.2665E+02  0.1404E+02  0.4875E+03  0.4688E+03
     11.902  0.2542E+02  0.1403E+02  0.4936E+03  0.4722E+03
     12.143  0.3265E+02  0.1669E+02  0.5015E+03  0.4762E+03
     12.384  0.1976E+02  0.3782E+02  0.5062E+03  0.4853E+03
     12.625  0.2310E+02  0.3227E+02  0.5118E+03  0.4931E+03
     12.866  0.2173E+02  0.2869E+02  0.5170E+03  0.5000E+03
     13.107  0.1961E+02  0.2018E+02  0.5217E+03  0.5049E+03
     13.347  0.2508E+02  0.2286E+02  0.5278E+03  0.5104E+03
     13.588  0.2329E+02  0.2737E+02  0.5334E+03  0.5170E+03
     13.829  0.1317E+02  0.2371E+02  0.5366E+03  0.5227E+03
     14.070  0.5968E+01  0.2597E+02  0.5380E+03  0.5290E+03
     14.311  0.2463E-02  0.1894E+02  0.5380E+03  0.5335E+03
     14.552  0.0000E+00  0.1611E+02  0.5380E+03  0.5374E+03
     14.793  0.0000E+00  0.2507E+01  0.5380E+03  0.5380E+03
     15.034  0.0000E+00  0.2235E-05  0.5380E+03  0.5380E+03
     15.274  0.0000E+00  0.0000E+00  0.5380E+03  0.5380E+03
     15.515  0.0000E+00  0.0000E+00  0.5380E+03  0.5380E+03
     15.756  0.0000E+00  0.0000E+00  0.5380E+03  0.5380E+03
     15.997  0.0000E+00  0.0000E+00  0.5380E+03  0.5380E+03
     16.238  0.0000E+00  0.0000E+00  0.5380E+03  0.5380E+03
     16.479  0.0000E+00  0.0000E+00  0.5380E+03  0.5380E+03
     16.720  0.0000E+00  0.0000E+00  0.5380E+03  0.5380E+03
     16.961  0.0000E+00  0.0000E+00  0.5380E+03  0.5380E+03
     17.202  0.0000E+00  0.0000E+00  0.5380E+03  0.5380E+03
     17.442  0.0000E+00  0.0000E+00  0.5380E+03  0.5380E+03
     17.683  0.0000E+00  0.0000E+00  0.5380E+03  0.5380E+03
     17.924  0.0000E+00  0.0000E+00  0.5380E+03  0.5380E+03
