 vasp.5.4.4.18Apr17-6-g9f103f2a35 (build Oct 25 2017 14:42:18) complex          
  
 executed on             LinuxIFC date 2021.06.02  19:33:05
 running on   24 total cores
 distrk:  each k-point on   12 cores,    2 groups
 distr:  one band on NCORES_PER_BAND=   6 cores,    2 groups


--------------------------------------------------------------------------------------------------------


 INCAR:
 POTCAR:    PAW_PBE Li_sv 10Sep2004               
 POTCAR:    PAW_PBE O 08Apr2002                   
 POTCAR:    PAW_PBE S 06Sep2000                   
 POTCAR:    PAW_PBE Fe_pv 02Aug2007               

 ----------------------------------------------------------------------------- 
|                                                                             |
|           W    W    AA    RRRRR   N    N  II  N    N   GGGG   !!!           |
|           W    W   A  A   R    R  NN   N  II  NN   N  G    G  !!!           |
|           W    W  A    A  R    R  N N  N  II  N N  N  G       !!!           |
|           W WW W  AAAAAA  RRRRR   N  N N  II  N  N N  G  GGG   !            |
|           WW  WW  A    A  R   R   N   NN  II  N   NN  G    G                |
|           W    W  A    A  R    R  N    N  II  N    N   GGGG   !!!           |
|                                                                             |
|      You have enabled k-point parallelism (KPAR>1).                         |
|      This developmental code was originally  written by Paul Kent at ORNL,  |
|      and carefully double checked in Vienna.                                |
|      GW as well as linear response parallelism added by Martijn Marsman     |
|      and Georg Kresse.                                                      |
|      Carefully verify results versus KPAR=1.                                |
|      Report problems to Paul Kent and Vienna.                               |
|                                                                             |
 ----------------------------------------------------------------------------- 

 POTCAR:    PAW_PBE Li_sv 10Sep2004               
  local pseudopotential read in
  atomic valenz-charges read in
  non local Contribution for L=           0  read in
    real space projection operators read in
  non local Contribution for L=           0  read in
    real space projection operators read in
  non local Contribution for L=           1  read in
    real space projection operators read in
    PAW grid and wavefunctions read in
 
   number of l-projection  operators is LMAX  =           3
   number of lm-projection operators is LMMAX =           5
 
 POTCAR:    PAW_PBE O 08Apr2002                   
  local pseudopotential read in
  partial core-charges read in
  partial kinetic energy density read in
  kinetic energy density of atom read in
  atomic valenz-charges read in
  non local Contribution for L=           0  read in
    real space projection operators read in
  non local Contribution for L=           0  read in
    real space projection operators read in
  non local Contribution for L=           1  read in
    real space projection operators read in
  non local Contribution for L=           1  read in
    real space projection operators read in
    PAW grid and wavefunctions read in
 
   number of l-projection  operators is LMAX  =           4
   number of lm-projection operators is LMMAX =           8
 
 POTCAR:    PAW_PBE S 06Sep2000                   
  local pseudopotential read in
  partial core-charges read in
  partial kinetic energy density read in
  atomic valenz-charges read in
  non local Contribution for L=           0  read in
    real space projection operators read in
  non local Contribution for L=           0  read in
    real space projection operators read in
  non local Contribution for L=           1  read in
    real space projection operators read in
  non local Contribution for L=           1  read in
    real space projection operators read in
    PAW grid and wavefunctions read in
 
   number of l-projection  operators is LMAX  =           4
   number of lm-projection operators is LMMAX =           8
 
 POTCAR:    PAW_PBE Fe_pv 02Aug2007               
  local pseudopotential read in
  partial core-charges read in
  partial kinetic energy density read in
  atomic valenz-charges read in
  non local Contribution for L=           1  read in
    real space projection operators read in
  non local Contribution for L=           1  read in
    real space projection operators read in
  non local Contribution for L=           2  read in
    real space projection operators read in
  non local Contribution for L=           2  read in
    real space projection operators read in
  non local Contribution for L=           0  read in
    real space projection operators read in
  non local Contribution for L=           0  read in
    real space projection operators read in
    PAW grid and wavefunctions read in
 
   number of l-projection  operators is LMAX  =           6
   number of lm-projection operators is LMMAX =          18
 

 ----------------------------------------------------------------------------- 
|                                                                             |
|  ADVICE TO THIS USER RUNNING 'VASP/VAMP'   (HEAR YOUR MASTER'S VOICE ...):  |
|                                                                             |
|      You have a (more or less) 'large supercell' and for larger cells       |
|      it might be more efficient to use real space projection opertators     |
|      So try LREAL= Auto  in the INCAR   file.                               |
|      Mind:          For very  accurate calculation you might also keep the  |
|      reciprocal projection scheme          (i.e. LREAL=.FALSE.)             |
|                                                                             |
 ----------------------------------------------------------------------------- 

  PAW_PBE Li_sv 10Sep2004               :
 energy of atom  1       EATOM= -202.7858
 kinetic energy error for atom=    0.0072 (will be added to EATOM!!)
  PAW_PBE O 08Apr2002                   :
 energy of atom  2       EATOM= -432.3788
 kinetic energy error for atom=    0.0129 (will be added to EATOM!!)
  PAW_PBE S 06Sep2000                   :
 energy of atom  3       EATOM= -276.8230
 kinetic energy error for atom=    0.0008 (will be added to EATOM!!)
  PAW_PBE Fe_pv 02Aug2007               :
 energy of atom  4       EATOM=-2457.4239
 kinetic energy error for atom=    0.0041 (will be added to EATOM!!)
 
 
 POSCAR: # Compound: Li16O16S24Fe32. Old comment:
  positions in direct lattice
  No initial velocities read in
 exchange correlation table for  LEXCH =        8
   RHO(1)=    0.500       N(1)  =     2000
   RHO(2)=  100.500       N(2)  =     4000
 


--------------------------------------------------------------------------------------------------------


 ion  position               nearest neighbor table
   1  0.289  0.469  0.156-  27 2.00  29 2.00  55 2.53  49 2.53
   2  0.789  0.469  0.156-  28 2.00  30 2.00  56 2.53  50 2.53
   3  0.289  0.969  0.156-  25 2.00  31 2.00  53 2.53  51 2.53
   4  0.789  0.969  0.156-  26 2.00  32 2.00  54 2.53  52 2.53
   5  0.046  0.219  0.186-  30 1.98  25 1.98
   6  0.546  0.219  0.186-  29 1.98  26 1.98
   7  0.046  0.719  0.186-  32 1.98  27 1.98
   8  0.546  0.719  0.186-  31 1.98  28 1.98
   9  0.454  0.469  0.814-  20 1.98  21 1.98
  10  0.954  0.469  0.814-  19 1.98  22 1.98
  11  0.454  0.969  0.814-  18 1.98  23 1.98
  12  0.954  0.969  0.814-  17 1.98  24 1.98
  13  0.211  0.219  0.844-  21 2.00  17 2.00  49 2.53  53 2.53
  14  0.711  0.219  0.844-  22 2.00  18 2.00  50 2.53  54 2.53
  15  0.211  0.719  0.844-  23 2.00  19 2.00  51 2.53  55 2.53
  16  0.711  0.719  0.844-  24 2.00  20 2.00  52 2.53  56 2.53
  17  0.077  0.095  0.803-  12 1.98  13 2.00  57 2.01  83 2.01  86 2.01
  18  0.577  0.095  0.803-  11 1.98  14 2.00  58 2.01  84 2.01  85 2.01
  19  0.077  0.595  0.803-  10 1.98  15 2.00  59 2.01  81 2.01  88 2.01
  20  0.577  0.595  0.803-   9 1.98  16 2.00  60 2.01  82 2.01  87 2.01
  21  0.325  0.343  0.803-   9 1.98  13 2.00  61 2.01  81 2.01  85 2.01
  22  0.825  0.343  0.803-  10 1.98  14 2.00  62 2.01  82 2.01  86 2.01
  23  0.325  0.843  0.803-  11 1.98  15 2.00  63 2.01  83 2.01  87 2.01
  24  0.825  0.843  0.803-  12 1.98  16 2.00  64 2.01  84 2.01  88 2.01
  25  0.175  0.093  0.197-   5 1.98   3 2.00  65 2.01  75 2.01  77 2.02
  26  0.675  0.093  0.197-   6 1.98   4 2.00  66 2.01  78 2.01  76 2.01
  27  0.175  0.593  0.197-   7 1.98   1 2.00  67 2.01  79 2.01  73 2.01
  28  0.675  0.593  0.197-   8 1.98   2 2.00  68 2.01  80 2.01  74 2.01
  29  0.423  0.345  0.197-   6 1.98   1 2.00  69 2.01  77 2.01  74 2.01
  30  0.923  0.345  0.197-   5 1.98   2 2.00  70 2.01  78 2.01  73 2.01
  31  0.423  0.845  0.197-   8 1.98   3 2.00  71 2.01  79 2.01  76 2.01
  32  0.923  0.845  0.197-   7 1.98   4 2.00  72 2.01  80 2.01  75 2.01
  33  0.219  0.345  0.371-  61 2.41  67 2.65  69 2.65
  34  0.719  0.345  0.371-  62 2.41  68 2.65  70 2.65
  35  0.219  0.845  0.371-  63 2.41  65 2.65  71 2.65
  36  0.719  0.845  0.371-  64 2.41  66 2.65  72 2.65
  37  0.467  0.093  0.371-  58 2.41  71 2.65  65 2.65
  38  0.967  0.093  0.371-  57 2.41  72 2.65  66 2.65
  39  0.467  0.593  0.371-  60 2.41  69 2.65  67 2.65
  40  0.967  0.593  0.371-  59 2.41  70 2.65  68 2.65
  41  0.033  0.343  0.629-  70 2.41  57 2.65  61 2.65
  42  0.533  0.343  0.629-  69 2.41  58 2.65  62 2.65
  43  0.033  0.843  0.629-  72 2.41  59 2.65  63 2.65
  44  0.533  0.843  0.629-  71 2.41  60 2.65  64 2.65
  45  0.281  0.095  0.629-  65 2.41  61 2.65  57 2.65
  46  0.781  0.095  0.629-  66 2.41  62 2.65  58 2.65
  47  0.281  0.595  0.629-  67 2.41  63 2.65  59 2.65
  48  0.781  0.595  0.629-  68 2.41  64 2.65  60 2.65
  49  0.124  0.344  0.000-  73 2.51  86 2.51  77 2.52  81 2.52  13 2.53   1 2.53
  50  0.624  0.344  0.000-  74 2.51  85 2.51  82 2.52  78 2.52  14 2.53   2 2.53
  51  0.124  0.844  0.000-  75 2.51  88 2.51  83 2.52  79 2.52  15 2.53   3 2.53
  52  0.624  0.844  0.000-  76 2.51  87 2.51  84 2.52  80 2.52  16 2.53   4 2.53
  53  0.376  0.094  1.000-  85 2.51  76 2.51  77 2.51  83 2.52   3 2.53  13 2.53
  54  0.876  0.094  1.000-  86 2.51  75 2.51  78 2.52  84 2.52   4 2.53  14 2.53
  55  0.376  0.594  1.000-  87 2.51  74 2.51  79 2.52  81 2.52   1 2.53  15 2.53
  56  0.876  0.594  1.000-  88 2.51  73 2.51  80 2.52  82 2.52   2 2.53  16 2.53
  57  0.038  0.106  0.606-  17 2.01  38 2.41  41 2.65  45 2.65
  58  0.538  0.106  0.606-  18 2.01  37 2.41  42 2.65  46 2.65
  59  0.038  0.606  0.606-  19 2.01  40 2.41  43 2.65  47 2.65
  60  0.538  0.606  0.606-  20 2.01  39 2.41  44 2.65  48 2.65
  61  0.265  0.332  0.606-  21 2.01  33 2.41  45 2.65  41 2.65
  62  0.765  0.332  0.606-  22 2.01  34 2.41  46 2.65  42 2.65
  63  0.265  0.832  0.606-  23 2.01  35 2.41  47 2.65  43 2.65
  64  0.765  0.832  0.606-  24 2.01  36 2.41  48 2.65  44 2.65
  65  0.235  0.082  0.394-  25 2.01  45 2.41  35 2.65  37 2.65
  66  0.735  0.082  0.394-  26 2.01  46 2.41  36 2.65  38 2.65
  67  0.235  0.582  0.394-  27 2.01  47 2.41  33 2.65  39 2.65
  68  0.735  0.582  0.394-  28 2.01  48 2.41  34 2.65  40 2.65
  69  0.462  0.356  0.394-  29 2.01  42 2.41  39 2.65  33 2.65
  70  0.962  0.356  0.394-  30 2.01  41 2.41  40 2.65  34 2.65
  71  0.462  0.856  0.394-  31 2.01  44 2.41  37 2.65  35 2.65
  72  0.962  0.856  0.394-  32 2.01  43 2.41  38 2.65  36 2.65
  73  0.038  0.469  0.154-  30 2.01  27 2.01  49 2.51  56 2.51
  74  0.538  0.469  0.154-  29 2.01  28 2.01  50 2.51  55 2.51
  75  0.038  0.969  0.154-  32 2.01  25 2.01  51 2.51  54 2.51
  76  0.538  0.969  0.154-  31 2.01  26 2.01  52 2.51  53 2.51
  77  0.289  0.219  0.154-  29 2.01  25 2.02  53 2.51  49 2.52
  78  0.789  0.219  0.154-  26 2.01  30 2.01  54 2.52  50 2.52
  79  0.289  0.719  0.154-  27 2.01  31 2.01  55 2.52  51 2.52
  80  0.789  0.719  0.154-  28 2.01  32 2.01  56 2.52  52 2.52
  81  0.211  0.469  0.846-  21 2.01  19 2.01  49 2.52  55 2.52
  82  0.711  0.469  0.846-  22 2.01  20 2.01  50 2.52  56 2.52
  83  0.211  0.969  0.846-  23 2.01  17 2.01  51 2.52  53 2.52
  84  0.711  0.969  0.846-  24 2.01  18 2.01  52 2.52  54 2.52
  85  0.462  0.219  0.846-  18 2.01  21 2.01  53 2.51  50 2.51
  86  0.962  0.219  0.846-  17 2.01  22 2.01  54 2.51  49 2.51
  87  0.462  0.719  0.846-  20 2.01  23 2.01  55 2.51  52 2.51
  88  0.962  0.719  0.846-  19 2.01  24 2.01  56 2.51  51 2.51
 

IMPORTANT INFORMATION: All symmetrisations will be switched off!
NOSYMM: (Re-)initialisation of all symmetry stuff for point group C_1.

 
 
 KPOINTS: # No comment                            

Automatic generation of k-mesh.
Space group operators:
 irot       det(A)        alpha          n_x          n_y          n_z        tau_x        tau_y        tau_z
    1     1.000000     0.000000     1.000000     0.000000     0.000000     0.000000     0.000000     0.000000
 
 Subroutine IBZKPT returns following result:
 ===========================================
 
 Found     14 irreducible k-points:
 
 Following reciprocal coordinates:
            Coordinates               Weight
  0.000000  0.000000  0.000000      1.000000
  0.333333  0.000000  0.000000      2.000000
  0.000000  0.333333  0.000000      2.000000
  0.333333  0.333333  0.000000      2.000000
 -0.333333  0.333333 -0.000000      2.000000
  0.000000  0.000000  0.333333      2.000000
  0.333333  0.000000  0.333333      2.000000
 -0.333333  0.000000  0.333333      2.000000
  0.000000  0.333333  0.333333      2.000000
  0.333333  0.333333  0.333333      2.000000
 -0.333333  0.333333  0.333333      2.000000
  0.000000 -0.333333  0.333333      2.000000
  0.333333 -0.333333  0.333333      2.000000
 -0.333333 -0.333333  0.333333      2.000000
 
 Following cartesian coordinates:
            Coordinates               Weight
  0.000000  0.000000  0.000000      1.000000
  0.029997  0.000000  0.008162      2.000000
  0.000000  0.029983  0.000000      2.000000
  0.029997  0.029983  0.008162      2.000000
 -0.029997  0.029983 -0.008162      2.000000
  0.000001  0.000000  0.032684      2.000000
  0.029998  0.000000  0.040846      2.000000
 -0.029996  0.000000  0.024522      2.000000
  0.000001  0.029983  0.032684      2.000000
  0.029998  0.029983  0.040846      2.000000
 -0.029996  0.029983  0.024522      2.000000
  0.000001 -0.029983  0.032684      2.000000
  0.029998 -0.029983  0.040846      2.000000
 -0.029996 -0.029983  0.024522      2.000000
 


--------------------------------------------------------------------------------------------------------




 Dimension of arrays:
   k-points           NKPTS =     14   k-points in BZ     NKDIM =     14   number of bands    NBANDS=    538
   number of dos      NEDOS =    301   number of ions     NIONS =     88
   non local maximal  LDIM  =      6   non local SUM 2l+1 LMDIM =     18
   total plane-waves  NPLWV = 829440
   max r-space proj   IRMAX =      1   max aug-charges    IRDMAX= 166102
   dimension x,y,z NGX =    96 NGY =   96 NGZ =   90
   dimension x,y,z NGXF=   192 NGYF=  192 NGZF=  180
   support grid    NGXF=   384 NGYF=  384 NGZF=  360
   ions per type =              16  16  24  32
   NGX,Y,Z   is equivalent  to a cutoff of  14.36, 14.36, 14.16 a.u.
   NGXF,Y,Z  is equivalent  to a cutoff of  28.72, 28.71, 28.31 a.u.

 SYSTEM =  unknown system                          
 POSCAR =  # Compound: Li16O16S24Fe32. Old comment:

 Startparameter for this run:
   NWRITE =      1    write-flag & timer
   PREC   = accura    normal or accurate (medium, high low for compatibility)
   ISTART =      0    job   : 0-new  1-cont  2-samecut
   ICHARG =      1    charge: 1-file 2-atom 10-const
   ISPIN  =      2    spin polarized calculation?
   LNONCOLLINEAR =      F non collinear calculations
   LSORBIT =      F    spin-orbit coupling
   INIWAV =      1    electr: 0-lowe 1-rand  2-diag
   LASPH  =      T    aspherical Exc in radial PAW
   METAGGA=      F    non-selfconsistent MetaGGA calc.

 Electronic Relaxation 1
   ENCUT  =  650.0 eV  47.77 Ry    6.91 a.u.  23.10 23.11 21.97*2*pi/ulx,y,z
   ENINI  =  650.0     initial cutoff
   ENAUG  =  628.9 eV  augmentation charge cutoff
   NELM   =    200;   NELMIN=  8; NELMDL=  0     # of ELM steps 
   EDIFF  = 0.1E-05   stopping-criterion for ELM
   LREAL  =      F    real-space projection
   NLSPLINE    = F    spline interpolate recip. space projectors
   LCOMPAT=      F    compatible to vasp.4.4
   GGA_COMPAT  = T    GGA compatible to vasp.4.4-vasp.4.6
   LMAXPAW     = -100 max onsite density
   LMAXMIX     =    4 max onsite mixed and CHGCAR
   VOSKOWN=      0    Vosko Wilk Nusair interpolation
   ROPT   =    0.00000   0.00000   0.00000   0.00000
 Ionic relaxation
   EDIFFG = 0.1E-04   stopping-criterion for IOM
   NSW    =      0    number of steps for IOM
   NBLOCK =      1;   KBLOCK =      1    inner block; outer block 
   IBRION =     -1    ionic relax: 0-MD 1-quasi-New 2-CG
   NFREE  =      0    steps in history (QN), initial steepest desc. (CG)
   ISIF   =      2    stress and relaxation
   IWAVPR =     10    prediction:  0-non 1-charg 2-wave 3-comb
   ISYM   =      0    0-nonsym 1-usesym 2-fastsym
   LCORR  =      T    Harris-Foulkes like correction to forces

   POTIM  = 0.5000    time-step for ionic-motion
   TEIN   =    0.0    initial temperature
   TEBEG  =    0.0;   TEEND  =   0.0 temperature during run
   SMASS  =  -3.00    Nose mass-parameter (am)
   estimated Nose-frequenzy (Omega)   =  0.10E-29 period in steps =****** mass=  -0.282E-26a.u.
   SCALEE = 1.0000    scale energy and forces
   NPACO  =    256;   APACO  = 16.0  distance and # of slots for P.C.
   PSTRESS=    0.0 pullay stress

  Mass of Ions in am
   POMASS =   7.01 16.00 32.07 55.85
  Ionic Valenz
   ZVAL   =   3.00  6.00  6.00 14.00
  Atomic Wigner-Seitz radii
   RWIGS  =  -1.00 -1.00 -1.00 -1.00
  virtual crystal weights 
   VCA    =   1.00  1.00  1.00  1.00
   NELECT =     736.0000    total number of electrons
   NUPDOWN=      -1.0000    fix difference up-down

 DOS related values:
   EMIN   =  10.00;   EMAX   =-10.00  energy-range for DOS
   EFERMI =   0.00
   ISMEAR =     0;   SIGMA  =   0.05  broadening in eV -4-tet -1-fermi 0-gaus

 Electronic relaxation 2 (details)
   IALGO  =     38    algorithm
   LDIAG  =      T    sub-space diagonalisation (order eigenvalues)
   LSUBROT=      F    optimize rotation matrix (better conditioning)
   TURBO    =      0    0=normal 1=particle mesh
   IRESTART =      0    0=no restart 2=restart with 2 vectors
   NREBOOT  =      0    no. of reboots
   NMIN     =      0    reboot dimension
   EREF     =   0.00    reference energy to select bands
   IMIX   =      4    mixing-type and parameters
     AMIX     =   0.40;   BMIX     =  1.00
     AMIX_MAG =   1.60;   BMIX_MAG =  1.00
     AMIN     =   0.10
     WC   =   100.;   INIMIX=   1;  MIXPRE=   1;  MAXMIX= -45

 Intra band minimization:
   WEIMIN = 0.0000     energy-eigenvalue tresh-hold
   EBREAK =  0.46E-09  absolut break condition
   DEPER  =   0.30     relativ break condition  

   TIME   =   0.40     timestep for ELM

  volume/ion in A,a.u.               =      14.32        96.62
  Fermi-wavevector in a.u.,A,eV,Ry     =   1.368520  2.586127 25.481613  1.872846
  Thomas-Fermi vector in A             =   2.494476
 
 Write flags
   LWAVE        =      F    write WAVECAR
   LDOWNSAMPLE  =      F    k-point downsampling of WAVECAR
   LCHARG       =      T    write CHGCAR
   LVTOT        =      F    write LOCPOT, total local potential
   LVHAR        =      F    write LOCPOT, Hartree potential only
   LELF         =      F    write electronic localiz. function (ELF)
   LORBIT       =      0    0 simple, 1 ext, 2 COOP (PROOUT), +10 PAW based schemes


 Dipole corrections
   LMONO  =      F    monopole corrections only (constant potential shift)
   LDIPOL =      F    correct potential (dipole corrections)
   IDIPOL =      0    1-x, 2-y, 3-z, 4-all directions 
   EPSILON=  1.0000000 bulk dielectric constant

 LDA+U is selected, type is set to LDAUTYPE =  2
   angular momentum for each species LDAUL =    -1   -1   -1    2
   U (eV)           for each species LDAUU =   0.0  0.0  0.0  4.0
   J (eV)           for each species LDAUJ =   0.0  0.0  0.0  0.0
 Exchange correlation treatment:
   GGA     =    PE    GGA type
   LEXCH   =     8    internal setting for exchange type
   VOSKOWN=      0    Vosko Wilk Nusair interpolation
   LHFCALC =     F    Hartree Fock is set to
   LHFONE  =     F    Hartree Fock one center treatment
   AEXX    =    0.0000 exact exchange contribution

 Linear response parameters
   LEPSILON=     F    determine dielectric tensor
   LRPA    =     F    only Hartree local field effects (RPA)
   LNABLA  =     F    use nabla operator in PAW spheres
   LVEL    =     F    velocity operator in full k-point grid
   LINTERFAST=   F  fast interpolation
   KINTER  =     0    interpolate to denser k-point grid
   CSHIFT  =0.1000    complex shift for real part using Kramers Kronig
   OMEGAMAX=  -1.0    maximum frequency
   DEG_THRESHOLD= 0.2000000E-02 threshold for treating states as degnerate
   RTIME   =   -0.100 relaxation time in fs
  (WPLASMAI=    0.000 imaginary part of plasma frequency in eV, 0.658/RTIME)
   DFIELD  = 0.0000000 0.0000000 0.0000000 field for delta impulse in time
 
 Orbital magnetization related:
   ORBITALMAG=     F  switch on orbital magnetization
   LCHIMAG   =     F  perturbation theory with respect to B field
   DQ        =  0.001000  dq finite difference perturbation B field
   LLRAUG    =     F  two centre corrections for induced B field



--------------------------------------------------------------------------------------------------------


 Static calculation
 charge density and potential will be updated during run
 spin polarized calculation
 Variant of blocked Davidson
 Davidson routine will perform the subspace rotation
 perform sub-space diagonalisation
    after iterative eigenvector-optimisation
 modified Broyden-mixing scheme, WC =      100.0
 initial mixing is a Kerker type mixing with AMIX =  0.4000 and BMIX =      1.0000
 Hartree-type preconditioning will be used
 using additional bands          170
 reciprocal scheme for non local part
 use partial core corrections
 calculate Harris-corrections to forces 
   (improved forces if not selfconsistent)
 use gradient corrections 
 use of overlap-Matrix (Vanderbilt PP)
 Gauss-broadening in eV      SIGMA  =   0.05


--------------------------------------------------------------------------------------------------------


  energy-cutoff  :      650.00
  volume of cell :     1259.94
      direct lattice vectors                 reciprocal lattice vectors
    11.112233740  0.000000000 -0.000290340     0.089991547  0.000000000  0.024487024
     0.000000000 11.117451940  0.000000000     0.000000000  0.089948669  0.000000000
    -2.775108980  0.000000000 10.198722210     0.000002562  0.000000000  0.098052196

  length of vectors
    11.112233744 11.117451940 10.569539468     0.093263567  0.089948669  0.098052196


 
 k-points in units of 2pi/SCALE and weight: # No comment                            
   0.00000000  0.00000000  0.00000000       0.037
   0.02999718  0.00000000  0.00816234       0.074
   0.00000000  0.02998289  0.00000000       0.074
   0.02999718  0.02998289  0.00816234       0.074
  -0.02999718  0.02998289 -0.00816234       0.074
   0.00000085  0.00000000  0.03268407       0.074
   0.02999804  0.00000000  0.04084641       0.074
  -0.02999633  0.00000000  0.02452172       0.074
   0.00000085  0.02998289  0.03268407       0.074
   0.02999804  0.02998289  0.04084641       0.074
  -0.02999633  0.02998289  0.02452172       0.074
   0.00000085 -0.02998289  0.03268407       0.074
   0.02999804 -0.02998289  0.04084641       0.074
  -0.02999633 -0.02998289  0.02452172       0.074
 
 k-points in reciprocal lattice and weights: # No comment                            
   0.00000000  0.00000000  0.00000000       0.037
   0.33333333  0.00000000  0.00000000       0.074
   0.00000000  0.33333333  0.00000000       0.074
   0.33333333  0.33333333  0.00000000       0.074
  -0.33333333  0.33333333 -0.00000000       0.074
   0.00000000  0.00000000  0.33333333       0.074
   0.33333333  0.00000000  0.33333333       0.074
  -0.33333333  0.00000000  0.33333333       0.074
   0.00000000  0.33333333  0.33333333       0.074
   0.33333333  0.33333333  0.33333333       0.074
  -0.33333333  0.33333333  0.33333333       0.074
   0.00000000 -0.33333333  0.33333333       0.074
   0.33333333 -0.33333333  0.33333333       0.074
  -0.33333333 -0.33333333  0.33333333       0.074
 
 position of ions in fractional coordinates (direct lattice) 
   0.28894969  0.46933910  0.15583616
   0.78894969  0.46933910  0.15583616
   0.28894969  0.96933910  0.15583616
   0.78894969  0.96933910  0.15583616
   0.04646972  0.21934976  0.18586770
   0.54646972  0.21934976  0.18586770
   0.04646972  0.71934976  0.18586770
   0.54646972  0.71934976  0.18586770
   0.45353028  0.46934976  0.81413230
   0.95353028  0.46934976  0.81413230
   0.45353028  0.96934976  0.81413230
   0.95353028  0.96934976  0.81413230
   0.21105031  0.21933910  0.84416384
   0.71105031  0.21933910  0.84416384
   0.21105031  0.71933910  0.84416384
   0.71105031  0.71933910  0.84416384
   0.07654971  0.09530995  0.80250593
   0.57654971  0.09530995  0.80250593
   0.07654971  0.59530995  0.80250593
   0.57654971  0.59530995  0.80250593
   0.32470466  0.34338175  0.80250383
   0.82470466  0.34338175  0.80250383
   0.32470466  0.84338175  0.80250383
   0.82470466  0.84338175  0.80250383
   0.17529534  0.09338175  0.19749617
   0.67529534  0.09338175  0.19749617
   0.17529534  0.59338175  0.19749617
   0.67529534  0.59338175  0.19749617
   0.42345029  0.34530995  0.19749407
   0.92345029  0.34530995  0.19749407
   0.42345029  0.84530995  0.19749407
   0.92345029  0.84530995  0.19749407
   0.21868463  0.34523395  0.37102476
   0.71868463  0.34523395  0.37102476
   0.21868463  0.84523395  0.37102476
   0.71868463  0.84523395  0.37102476
   0.46681660  0.09344897  0.37102399
   0.96681660  0.09344897  0.37102399
   0.46681660  0.59344897  0.37102399
   0.96681660  0.59344897  0.37102399
   0.03318340  0.34344897  0.62897601
   0.53318340  0.34344897  0.62897601
   0.03318340  0.84344897  0.62897601
   0.53318340  0.84344897  0.62897601
   0.28131537  0.09523395  0.62897524
   0.78131537  0.09523395  0.62897524
   0.28131537  0.59523395  0.62897524
   0.78131537  0.59523395  0.62897524
   0.12439279  0.34434306  0.00000412
   0.62439279  0.34434306  0.00000412
   0.12439279  0.84434306  0.00000412
   0.62439279  0.84434306  0.00000412
   0.37560721  0.09434306  0.99999588
   0.87560721  0.09434306  0.99999588
   0.37560721  0.59434306  0.99999588
   0.87560721  0.59434306  0.99999588
   0.03824426  0.10634799  0.60632306
   0.53824426  0.10634799  0.60632306
   0.03824426  0.60634799  0.60632306
   0.53824426  0.60634799  0.60632306
   0.26492712  0.33232651  0.60632763
   0.76492712  0.33232651  0.60632763
   0.26492712  0.83232651  0.60632763
   0.76492712  0.83232651  0.60632763
   0.23507288  0.08232651  0.39367237
   0.73507288  0.08232651  0.39367237
   0.23507288  0.58232651  0.39367237
   0.73507288  0.58232651  0.39367237
   0.46175574  0.35634799  0.39367694
   0.96175574  0.35634799  0.39367694
   0.46175574  0.85634799  0.39367694
   0.96175574  0.85634799  0.39367694
   0.03848398  0.46936404  0.15397331
   0.53848398  0.46936404  0.15397331
   0.03848398  0.96936404  0.15397331
   0.53848398  0.96936404  0.15397331
   0.28861657  0.21935690  0.15352913
   0.78861657  0.21935690  0.15447525
   0.28861657  0.71935690  0.15447525
   0.78861657  0.71935690  0.15447525
   0.21138343  0.46935690  0.84552475
   0.71138343  0.46935690  0.84552475
   0.21138343  0.96935690  0.84552475
   0.71138343  0.96935690  0.84552475
   0.46151602  0.21936404  0.84602669
   0.96151602  0.21936404  0.84602669
   0.46151602  0.71936404  0.84602669
   0.96151602  0.71936404  0.84602669
 
 position of ions in cartesian coordinates  (Angst):
   2.77841422  5.21785483  1.58924581
   8.33453109  5.21785483  1.58910064
   2.77841422 10.77658080  1.58924581
   8.33453109 10.77658080  1.58910064
   0.00057921  2.43861041  1.89559955
   5.55669608  2.43861041  1.89545438
   0.00057921  7.99733638  1.89559955
   5.55669608  7.99733638  1.89545438
   2.78042868  5.21797340  8.30297749
   8.33654555  5.21797340  8.30283232
   2.78042868 10.77669937  8.30297749
   8.33654555 10.77669937  8.30283232
   0.00259367  2.43849185  8.60933123
   5.55871054  2.43849185  8.60918606
   0.00259367  7.99721782  8.60933123
   5.55871054  7.99721782  8.60918606
  -1.37640314  1.05960384  8.18451283
   4.17971373  1.05960384  8.18436766
  -1.37640314  6.61832981  8.18451283
   4.17971373  6.61832981  8.18436766
   1.38115855  3.81753010  8.18441936
   6.93727542  3.81753010  8.18427419
   1.38115855  9.37625607  8.18441936
   6.93727542  9.37625607  8.18427419
   1.39984934  1.03816712  2.01415768
   6.95596621  1.03816712  2.01401251
   1.39984934  6.59689309  2.01415768
   6.95596621  6.59689309  2.01401251
   4.15741103  3.83896683  2.01406421
   9.71352790  3.83896683  2.01391904
   4.15741103  9.39769280  2.01406421
   9.71352790  9.39769280  2.01391904
   1.40044058  3.83812185  3.78391497
   6.95655745  3.83812185  3.78376980
   1.40044058  9.39684782  3.78391497
   6.95655745  9.39684782  3.78376980
   4.15774317  1.03891443  3.78383507
   9.71386004  1.03891443  3.78368990
   4.15774317  6.59764040  3.78383507
   9.71386004  6.59764040  3.78368990
  -1.37673528  3.81827742  6.41474197
   4.17938159  3.81827742  6.41459680
  -1.37673528  9.37700339  6.41474197
   4.17938159  9.37700339  6.41459680
   1.38056731  1.05875886  6.41466207
   6.93668418  1.05875886  6.41451690
   1.38056731  6.61748483  6.41466207
   6.93668418  6.61748483  6.41451690
   1.38227032  3.82821742  0.00000590
   6.93838719  3.82821742 -0.00013927
   1.38227032  9.38694339  0.00000590
   6.93838719  9.38694339 -0.00013927
   1.39873757  1.04885444 10.19857114
   6.95485444  1.04885444 10.19842597
   1.39873757  6.60758041 10.19857114
   6.95485444  6.60758041 10.19842597
  -1.25763347  1.18231867  6.18370935
   4.29848340  1.18231867  6.18356418
  -1.25763347  6.74104464  6.18370935
   4.29848340  6.74104464  6.18356418
   1.26130689  3.69462400  6.18369015
   6.81742376  3.69462400  6.18354498
   1.26130689  9.25334997  6.18369015
   6.81742376  9.25334997  6.18354498
   1.51970100  0.91526102  4.01488689
   7.07581787  0.91526102  4.01474172
   1.51970100  6.47398699  4.01488689
   7.07581787  6.47398699  4.01474172
   4.03864136  3.96168165  4.01486769
   9.59475823  3.96168165  4.01472252
   4.03864136  9.52040762  4.01486769
   9.59475823  9.52040762  4.01472252
   0.00035027  5.21813216  1.57031984
   5.55646714  5.21813216  1.57017467
   0.00035027 10.77685813  1.57031984
   5.55646714 10.77685813  1.57017467
   2.78111476  2.43868979  1.56571720
   8.33460606  2.43868979  1.57522120
   2.77848919  7.99741576  1.57536637
   8.33460606  7.99741576  1.57522120
   0.00251870  5.21805278  8.62321067
   5.55863557  5.21805278  8.62306550
   0.00251870 10.77677875  8.62321067
   5.55863557 10.77677875  8.62306550
   2.78065762  2.43876917  8.62825720
   8.33677449  2.43876917  8.62811203
   2.78065762  7.99749514  8.62825720
   8.33677449  7.99749514  8.62811203
 


--------------------------------------------------------------------------------------------------------


 k-point  1 :   0.0000 0.0000 0.0000  plane waves:   47369
 k-point  2 :   0.3333 0.0000 0.0000  plane waves:   47373
 k-point  3 :   0.0000 0.3333 0.0000  plane waves:   47370
 k-point  4 :   0.3333 0.3333 0.0000  plane waves:   47404
 k-point  5 :  -0.3333 0.3333-0.0000  plane waves:   47404
 k-point  6 :   0.0000 0.0000 0.3333  plane waves:   47419
 k-point  7 :   0.3333 0.0000 0.3333  plane waves:   47399
 k-point  8 :  -0.3333 0.0000 0.3333  plane waves:   47417
 k-point  9 :   0.0000 0.3333 0.3333  plane waves:   47409
 k-point 10 :   0.3333 0.3333 0.3333  plane waves:   47422
 k-point 11 :  -0.3333 0.3333 0.3333  plane waves:   47440
 k-point 12 :   0.0000-0.3333 0.3333  plane waves:   47409
 k-point 13 :   0.3333-0.3333 0.3333  plane waves:   47422
 k-point 14 :  -0.3333-0.3333 0.3333  plane waves:   47440

 maximum and minimum number of plane-waves per node :      7942     7858

 maximum number of plane-waves:     47440
 maximum index in each direction: 
   IXMAX=   23   IYMAX=   23   IZMAX=   21
   IXMIN=  -23   IYMIN=  -23   IZMIN=  -22


 parallel 3D FFT for wavefunctions:
    minimum data exchange during FFTs selected (reduces bandwidth)
 parallel 3D FFT for charge:
    minimum data exchange during FFTs selected (reduces bandwidth)


 total amount of memory used by VASP MPI-rank0  1233264. kBytes
=======================================================================

   base      :      30000. kBytes
   nonl-proj :      75226. kBytes
   fftplans  :      85054. kBytes
   grid      :      64684. kBytes
   one-center:        466. kBytes
   wavefun   :     977834. kBytes
 
     INWAV:  cpu time    0.0000: real time    0.0000
 Broyden mixing: mesh for mixing (old mesh)
   NGX = 47   NGY = 47   NGZ = 43
  (NGX  =192   NGY  =192   NGZ  =180)
  gives a total of  94987 points

 initial charge density was supplied:
 number of electron     736.0000016 magnetization     127.9999885
 keeping initial charge density in first step


--------------------------------------------------------------------------------------------------------


 Maximum index for augmentation-charges        13229 (set IRDMAX)


--------------------------------------------------------------------------------------------------------


 First call to EWALD:  gamma=   0.164
 Maximum number of real-space cells 3x 3x 3
 Maximum number of reciprocal cells 3x 3x 3

    FEWALD:  cpu time    0.0070: real time    0.0072


--------------------------------------- Iteration      1(   1)  ---------------------------------------


    POTLOK:  cpu time    1.0612: real time    1.0804
    SETDIJ:  cpu time    2.2903: real time    2.2976
     EDDAV:  cpu time  314.2483: real time  316.9634
       DOS:  cpu time    0.0081: real time    0.0081
    --------------------------------------------
      LOOP:  cpu time  317.6079: real time  320.3495

 eigenvalue-minimisations  : 30944
 total energy-change (2. order) : 0.1040959E+05  (-0.4118844E+05)
 number of electron     736.0000016 magnetization     127.9999885
 augmentation part      736.0000016 magnetization     127.9999885

 Free energy of the ion-electron system (eV)
  ---------------------------------------------------
  alpha Z        PSCENC =      2314.49656628
  Ewald energy   TEWEN  =    -57724.96846882
  -Hartree energ DENC   =    -30347.01152729
  -exchange      EXHF   =         0.00000000
  -V(xc)+E(xc)   XCENC  =      3229.29915216
  PAW double counting   =     92679.89207989   -95535.38516353
  entropy T*S    EENTRO =        -0.01867868
  eigenvalues    EBANDS =       349.80138307
  atomic energy  EATOM  =     95443.47970955
  Solvation  Ediel_sol  =         0.00000000
  ---------------------------------------------------
  free energy    TOTEN  =     10409.58505262 eV

  energy without entropy =    10409.60373131  energy(sigma->0) =    10409.59439196


--------------------------------------------------------------------------------------------------------




--------------------------------------- Iteration      1(   2)  ---------------------------------------


     EDDAV:  cpu time  307.8290: real time  310.8663
       DOS:  cpu time    0.0085: real time    0.0085
    --------------------------------------------
      LOOP:  cpu time  307.8375: real time  310.8747

 eigenvalue-minimisations  : 30128
 total energy-change (2. order) :-0.9232067E+04  (-0.8658270E+04)
 number of electron     736.0000016 magnetization     127.9999885
 augmentation part      736.0000016 magnetization     127.9999885

 Free energy of the ion-electron system (eV)
  ---------------------------------------------------
  alpha Z        PSCENC =      2314.49656628
  Ewald energy   TEWEN  =    -57724.96846882
  -Hartree energ DENC   =    -30347.01152729
  -exchange      EXHF   =         0.00000000
  -V(xc)+E(xc)   XCENC  =      3229.29915216
  PAW double counting   =     92679.89207989   -95535.38516353
  entropy T*S    EENTRO =        -0.06592176
  eigenvalues    EBANDS =     -8882.21803804
  atomic energy  EATOM  =     95443.47970955
  Solvation  Ediel_sol  =         0.00000000
  ---------------------------------------------------
  free energy    TOTEN  =      1177.51838844 eV

  energy without entropy =     1177.58431019  energy(sigma->0) =     1177.55134931


--------------------------------------------------------------------------------------------------------




--------------------------------------- Iteration      1(   3)  ---------------------------------------


     EDDAV:  cpu time  326.0249: real time  329.0294
       DOS:  cpu time    0.0027: real time    0.0027
    --------------------------------------------
      LOOP:  cpu time  326.0276: real time  329.0321

 eigenvalue-minimisations  : 32352
 total energy-change (2. order) :-0.1485680E+04  (-0.1278893E+04)
 number of electron     736.0000016 magnetization     127.9999885
 augmentation part      736.0000016 magnetization     127.9999885

 Free energy of the ion-electron system (eV)
  ---------------------------------------------------
  alpha Z        PSCENC =      2314.49656628
  Ewald energy   TEWEN  =    -57724.96846882
  -Hartree energ DENC   =    -30347.01152729
  -exchange      EXHF   =         0.00000000
  -V(xc)+E(xc)   XCENC  =      3229.29915216
  PAW double counting   =     92679.89207989   -95535.38516353
  entropy T*S    EENTRO =        -0.00000000
  eigenvalues    EBANDS =    -10367.96441705
  atomic energy  EATOM  =     95443.47970955
  Solvation  Ediel_sol  =         0.00000000
  ---------------------------------------------------
  free energy    TOTEN  =      -308.16206882 eV

  energy without entropy =     -308.16206882  energy(sigma->0) =     -308.16206882


--------------------------------------------------------------------------------------------------------




--------------------------------------- Iteration      1(   4)  ---------------------------------------


     EDDAV:  cpu time  345.9780: real time  348.9526
       DOS:  cpu time    0.0025: real time    0.0025
    --------------------------------------------
      LOOP:  cpu time  345.9805: real time  348.9551

 eigenvalue-minimisations  : 35024
 total energy-change (2. order) :-0.1681378E+03  (-0.1653739E+03)
 number of electron     736.0000016 magnetization     127.9999885
 augmentation part      736.0000016 magnetization     127.9999885

 Free energy of the ion-electron system (eV)
  ---------------------------------------------------
  alpha Z        PSCENC =      2314.49656628
  Ewald energy   TEWEN  =    -57724.96846882
  -Hartree energ DENC   =    -30347.01152729
  -exchange      EXHF   =         0.00000000
  -V(xc)+E(xc)   XCENC  =      3229.29915216
  PAW double counting   =     92679.89207989   -95535.38516353
  entropy T*S    EENTRO =        -0.00000000
  eigenvalues    EBANDS =    -10536.10223948
  atomic energy  EATOM  =     95443.47970955
  Solvation  Ediel_sol  =         0.00000000
  ---------------------------------------------------
  free energy    TOTEN  =      -476.29989125 eV

  energy without entropy =     -476.29989125  energy(sigma->0) =     -476.29989125


--------------------------------------------------------------------------------------------------------




--------------------------------------- Iteration      1(   5)  ---------------------------------------


     EDDAV:  cpu time  462.1371: real time  466.5454
       DOS:  cpu time    0.0027: real time    0.0027
    CHARGE:  cpu time    9.4202: real time    9.4276
    MIXING:  cpu time    0.0284: real time    0.0284
    --------------------------------------------
      LOOP:  cpu time  471.5884: real time  476.0042

 eigenvalue-minimisations  : 49736
 total energy-change (2. order) :-0.1242903E+02  (-0.1230573E+02)
 number of electron     736.0000016 magnetization     127.9999932
 augmentation part      278.4621028 magnetization      84.1346715

 Broyden mixing:
  rms(total) = 0.22065E+00    rms(broyden)= 0.22048E+00
  rms(prec ) = 0.22391E+00
  weight for this iteration     100.00

 Free energy of the ion-electron system (eV)
  ---------------------------------------------------
  alpha Z        PSCENC =      2314.49656628
  Ewald energy   TEWEN  =    -57724.96846882
  -Hartree energ DENC   =    -30347.01152729
  -exchange      EXHF   =         0.00000000
  -V(xc)+E(xc)   XCENC  =      3229.29915216
  PAW double counting   =     92679.89207989   -95535.38516353
  entropy T*S    EENTRO =        -0.00000000
  eigenvalues    EBANDS =    -10548.53127015
  atomic energy  EATOM  =     95443.47970955
  Solvation  Ediel_sol  =         0.00000000
  ---------------------------------------------------
  free energy    TOTEN  =      -488.72892192 eV

  energy without entropy =     -488.72892192  energy(sigma->0) =     -488.72892192


--------------------------------------------------------------------------------------------------------




--------------------------------------- Iteration      1(   6)  ---------------------------------------


    POTLOK:  cpu time    1.0684: real time    1.0710
    SETDIJ:  cpu time    2.2576: real time    2.2910
     EDDAV:  cpu time  405.2366: real time  409.8555
       DOS:  cpu time    0.0028: real time    0.0028
    CHARGE:  cpu time    9.4993: real time    9.5087
    MIXING:  cpu time    0.0284: real time    0.0284
    --------------------------------------------
      LOOP:  cpu time  418.0931: real time  422.7574

 eigenvalue-minimisations  : 42464
 total energy-change (2. order) :-0.4707639E+00  (-0.4820403E+00)
 number of electron     736.0000016 magnetization     127.9999951
 augmentation part      277.9599612 magnetization      84.1630635

 Broyden mixing:
  rms(total) = 0.10938E+00    rms(broyden)= 0.10923E+00
  rms(prec ) = 0.11008E+00
  weight for this iteration     100.00

 eigenvalues of (default mixing * dielectric matrix)
  average eigenvalue GAMMA=   0.6635
  0.6635

 Free energy of the ion-electron system (eV)
  ---------------------------------------------------
  alpha Z        PSCENC =      2314.49656628
  Ewald energy   TEWEN  =    -57724.96846882
  -Hartree energ DENC   =    -30345.17189394
  -exchange      EXHF   =         0.00000000
  -V(xc)+E(xc)   XCENC  =      3228.99799217
  PAW double counting   =     92519.86860051   -95373.70635209
  entropy T*S    EENTRO =        -0.00000000
  eigenvalues    EBANDS =    -10552.19583943
  atomic energy  EATOM  =     95443.47970955
  Solvation  Ediel_sol  =         0.00000000
  ---------------------------------------------------
  free energy    TOTEN  =      -489.19968579 eV

  energy without entropy =     -489.19968579  energy(sigma->0) =     -489.19968579


--------------------------------------------------------------------------------------------------------




--------------------------------------- Iteration      1(   7)  ---------------------------------------


    POTLOK:  cpu time    1.0608: real time    1.0730
    SETDIJ:  cpu time    2.2898: real time    2.3306
     EDDAV:  cpu time  428.3884: real time  432.4511
       DOS:  cpu time    0.0028: real time    0.0028
    CHARGE:  cpu time    9.3892: real time    9.4638
    MIXING:  cpu time    0.0314: real time    0.0314
    --------------------------------------------
      LOOP:  cpu time  441.1623: real time  445.3526

 eigenvalue-minimisations  : 45576
 total energy-change (2. order) :-0.1753065E-01  (-0.1767364E-01)
 number of electron     736.0000016 magnetization     127.9999958
 augmentation part      277.8794305 magnetization      84.1546899

 Broyden mixing:
  rms(total) = 0.60195E-01    rms(broyden)= 0.60153E-01
  rms(prec ) = 0.61630E-01
  weight for this iteration     100.00

 eigenvalues of (default mixing * dielectric matrix)
  average eigenvalue GAMMA=   0.5496
  0.5496  0.5496

 Free energy of the ion-electron system (eV)
  ---------------------------------------------------
  alpha Z        PSCENC =      2314.49656628
  Ewald energy   TEWEN  =    -57724.96846882
  -Hartree energ DENC   =    -30346.09763514
  -exchange      EXHF   =         0.00000000
  -V(xc)+E(xc)   XCENC  =      3229.08179597
  PAW double counting   =     92578.87855004   -95433.28698256
  entropy T*S    EENTRO =        -0.00000000
  eigenvalues    EBANDS =    -10550.80075175
  atomic energy  EATOM  =     95443.47970955
  Solvation  Ediel_sol  =         0.00000000
  ---------------------------------------------------
  free energy    TOTEN  =      -489.21721644 eV

  energy without entropy =     -489.21721644  energy(sigma->0) =     -489.21721644


--------------------------------------------------------------------------------------------------------




--------------------------------------- Iteration      1(   8)  ---------------------------------------


    POTLOK:  cpu time    1.0659: real time    1.0685
    SETDIJ:  cpu time    2.2718: real time    2.3058
     EDDAV:  cpu time  409.6758: real time  413.4874
       DOS:  cpu time    0.0031: real time    0.0031
    CHARGE:  cpu time    9.4821: real time    9.4918
    MIXING:  cpu time    0.0315: real time    0.0315
    --------------------------------------------
      LOOP:  cpu time  422.5302: real time  426.3881

 eigenvalue-minimisations  : 43072
 total energy-change (2. order) : 0.4220711E-03  (-0.3825530E-03)
 number of electron     736.0000016 magnetization     127.9999967
 augmentation part      277.8708821 magnetization      84.1568952

 Broyden mixing:
  rms(total) = 0.54117E-01    rms(broyden)= 0.54113E-01
  rms(prec ) = 0.55388E-01
  weight for this iteration     100.00

 eigenvalues of (default mixing * dielectric matrix)
  average eigenvalue GAMMA=   0.5931
  0.5373  0.6210  0.6210

 Free energy of the ion-electron system (eV)
  ---------------------------------------------------
  alpha Z        PSCENC =      2314.49656628
  Ewald energy   TEWEN  =    -57724.96846882
  -Hartree energ DENC   =    -30346.08085175
  -exchange      EXHF   =         0.00000000
  -V(xc)+E(xc)   XCENC  =      3229.11044524
  PAW double counting   =     92592.46851318   -95447.01222448
  entropy T*S    EENTRO =        -0.00000000
  eigenvalues    EBANDS =    -10550.71048355
  atomic energy  EATOM  =     95443.47970955
  Solvation  Ediel_sol  =         0.00000000
  ---------------------------------------------------
  free energy    TOTEN  =      -489.21679437 eV

  energy without entropy =     -489.21679437  energy(sigma->0) =     -489.21679437


--------------------------------------------------------------------------------------------------------




--------------------------------------- Iteration      1(   9)  ---------------------------------------


    POTLOK:  cpu time    1.0665: real time    1.0696
    SETDIJ:  cpu time    2.2715: real time    2.2774
     EDDAV:  cpu time  444.2978: real time  448.7202
       DOS:  cpu time    0.0030: real time    0.0030
    CHARGE:  cpu time    9.4348: real time    9.4435
    MIXING:  cpu time    0.0319: real time    0.0319
    --------------------------------------------
      LOOP:  cpu time  457.1055: real time  461.5456

 eigenvalue-minimisations  : 47592
 total energy-change (2. order) : 0.7128997E-03  (-0.2167476E-04)
 number of electron     736.0000016 magnetization     127.9999997
 augmentation part      277.8732864 magnetization      84.1572061

 Broyden mixing:
  rms(total) = 0.43305E-01    rms(broyden)= 0.43304E-01
  rms(prec ) = 0.44259E-01
  weight for this iteration     100.00

 eigenvalues of (default mixing * dielectric matrix)
  average eigenvalue GAMMA=   1.0955
  1.8648  1.2437  0.6367  0.6367

 Free energy of the ion-electron system (eV)
  ---------------------------------------------------
  alpha Z        PSCENC =      2314.49656628
  Ewald energy   TEWEN  =    -57724.96846882
  -Hartree energ DENC   =    -30346.22814414
  -exchange      EXHF   =         0.00000000
  -V(xc)+E(xc)   XCENC  =      3229.15278791
  PAW double counting   =     92607.45874704   -95462.20278290
  entropy T*S    EENTRO =        -0.00000000
  eigenvalues    EBANDS =    -10550.40449638
  atomic energy  EATOM  =     95443.47970955
  Solvation  Ediel_sol  =         0.00000000
  ---------------------------------------------------
  free energy    TOTEN  =      -489.21608147 eV

  energy without entropy =     -489.21608147  energy(sigma->0) =     -489.21608147


--------------------------------------------------------------------------------------------------------




--------------------------------------- Iteration      1(  10)  ---------------------------------------


    POTLOK:  cpu time    1.0674: real time    1.0683
    SETDIJ:  cpu time    2.2835: real time    2.2868
     EDDAV:  cpu time  456.8713: real time  461.3012
       DOS:  cpu time    0.0031: real time    0.0039
    CHARGE:  cpu time    9.2201: real time    9.3940
    MIXING:  cpu time    0.0378: real time    0.0393
    --------------------------------------------
      LOOP:  cpu time  469.4832: real time  474.0936

 eigenvalue-minimisations  : 49056
 total energy-change (2. order) : 0.9031910E-03  (-0.1952206E-03)
 number of electron     736.0000016 magnetization     128.0000003
 augmentation part      277.8914988 magnetization      84.1589384

 Broyden mixing:
  rms(total) = 0.85922E-02    rms(broyden)= 0.85883E-02
  rms(prec ) = 0.86328E-02
  weight for this iteration     100.00

 eigenvalues of (default mixing * dielectric matrix)
  average eigenvalue GAMMA=   1.0580
  2.5112  0.9397  0.6473  0.6473  0.5446

 Free energy of the ion-electron system (eV)
  ---------------------------------------------------
  alpha Z        PSCENC =      2314.49656628
  Ewald energy   TEWEN  =    -57724.96846882
  -Hartree energ DENC   =    -30346.95750397
  -exchange      EXHF   =         0.00000000
  -V(xc)+E(xc)   XCENC  =      3229.30198076
  PAW double counting   =     92662.53891884   -95517.99398751
  entropy T*S    EENTRO =        -0.00000000
  eigenvalues    EBANDS =    -10549.11239340
  atomic energy  EATOM  =     95443.47970955
  Solvation  Ediel_sol  =         0.00000000
  ---------------------------------------------------
  free energy    TOTEN  =      -489.21517828 eV

  energy without entropy =     -489.21517828  energy(sigma->0) =     -489.21517828


--------------------------------------------------------------------------------------------------------




--------------------------------------- Iteration      1(  11)  ---------------------------------------


    POTLOK:  cpu time    1.0616: real time    1.0831
    SETDIJ:  cpu time    2.2558: real time    2.2943
     EDDAV:  cpu time  365.9763: real time  369.8906
       DOS:  cpu time    0.0027: real time    0.0027
    CHARGE:  cpu time    9.3411: real time    9.4119
    MIXING:  cpu time    0.0312: real time    0.0312
    --------------------------------------------
      LOOP:  cpu time  378.6687: real time  382.7138

 eigenvalue-minimisations  : 37584
 total energy-change (2. order) :-0.7992913E-04  (-0.5095293E-04)
 number of electron     736.0000016 magnetization     128.0000003
 augmentation part      277.8944565 magnetization      84.1588214

 Broyden mixing:
  rms(total) = 0.63087E-02    rms(broyden)= 0.63066E-02
  rms(prec ) = 0.66510E-02
  weight for this iteration     100.00

 eigenvalues of (default mixing * dielectric matrix)
  average eigenvalue GAMMA=   1.0240
  2.5573  0.7288  0.7288  0.8862  0.6215  0.6215

 Free energy of the ion-electron system (eV)
  ---------------------------------------------------
  alpha Z        PSCENC =      2314.49656628
  Ewald energy   TEWEN  =    -57724.96846882
  -Hartree energ DENC   =    -30347.08696690
  -exchange      EXHF   =         0.00000000
  -V(xc)+E(xc)   XCENC  =      3229.32465835
  PAW double counting   =     92675.33966841   -95530.91519555
  entropy T*S    EENTRO =        -0.00000000
  eigenvalues    EBANDS =    -10548.88522951
  atomic energy  EATOM  =     95443.47970955
  Solvation  Ediel_sol  =         0.00000000
  ---------------------------------------------------
  free energy    TOTEN  =      -489.21525820 eV

  energy without entropy =     -489.21525820  energy(sigma->0) =     -489.21525820


--------------------------------------------------------------------------------------------------------




--------------------------------------- Iteration      1(  12)  ---------------------------------------


    POTLOK:  cpu time    1.0650: real time    1.0659
    SETDIJ:  cpu time    2.2776: real time    2.2898
     EDDAV:  cpu time  392.6921: real time  396.4939
       DOS:  cpu time    0.0027: real time    0.0027
    CHARGE:  cpu time    9.3481: real time    9.4241
    MIXING:  cpu time    0.0313: real time    0.0319
    --------------------------------------------
      LOOP:  cpu time  405.4167: real time  409.3083

 eigenvalue-minimisations  : 40968
 total energy-change (2. order) : 0.1335693E-04  (-0.4991297E-05)
 number of electron     736.0000016 magnetization     128.0000004
 augmentation part      277.8962932 magnetization      84.1586754

 Broyden mixing:
  rms(total) = 0.52472E-02    rms(broyden)= 0.52457E-02
  rms(prec ) = 0.55223E-02
  weight for this iteration     100.00

 eigenvalues of (default mixing * dielectric matrix)
  average eigenvalue GAMMA=   1.1128
  2.5419  1.2812  1.2812  0.8830  0.6454  0.6454  0.5116

 Free energy of the ion-electron system (eV)
  ---------------------------------------------------
  alpha Z        PSCENC =      2314.49656628
  Ewald energy   TEWEN  =    -57724.96846882
  -Hartree energ DENC   =    -30347.07715124
  -exchange      EXHF   =         0.00000000
  -V(xc)+E(xc)   XCENC  =      3229.31877062
  PAW double counting   =     92676.16632745   -95531.71735723
  entropy T*S    EENTRO =        -0.00000000
  eigenvalues    EBANDS =    -10548.91364145
  atomic energy  EATOM  =     95443.47970955
  Solvation  Ediel_sol  =         0.00000000
  ---------------------------------------------------
  free energy    TOTEN  =      -489.21524485 eV

  energy without entropy =     -489.21524485  energy(sigma->0) =     -489.21524485


--------------------------------------------------------------------------------------------------------




--------------------------------------- Iteration      1(  13)  ---------------------------------------


    POTLOK:  cpu time    1.0645: real time    1.0655
    SETDIJ:  cpu time    2.2782: real time    2.3060
     EDDAV:  cpu time  359.2293: real time  363.0310
       DOS:  cpu time    0.0031: real time    0.0031
    CHARGE:  cpu time    9.3457: real time    9.3673
    MIXING:  cpu time    0.0439: real time    0.0439
    --------------------------------------------
      LOOP:  cpu time  371.9647: real time  375.8169

 eigenvalue-minimisations  : 36744
 total energy-change (2. order) : 0.1519553E-04  (-0.2552491E-05)
 number of electron     736.0000016 magnetization     128.0000005
 augmentation part      277.8943573 magnetization      84.1584626

 Broyden mixing:
  rms(total) = 0.15718E-02    rms(broyden)= 0.15679E-02
  rms(prec ) = 0.16142E-02
  weight for this iteration     100.00

 eigenvalues of (default mixing * dielectric matrix)
  average eigenvalue GAMMA=   1.1836
  2.8149  1.5663  1.5663  0.9386  0.7020  0.7020  0.5894  0.5894

 Free energy of the ion-electron system (eV)
  ---------------------------------------------------
  alpha Z        PSCENC =      2314.49656628
  Ewald energy   TEWEN  =    -57724.96846882
  -Hartree energ DENC   =    -30347.02340423
  -exchange      EXHF   =         0.00000000
  -V(xc)+E(xc)   XCENC  =      3229.30176703
  PAW double counting   =     92677.58555532   -95533.07478780
  entropy T*S    EENTRO =        -0.00000000
  eigenvalues    EBANDS =    -10549.01216698
  atomic energy  EATOM  =     95443.47970955
  Solvation  Ediel_sol  =         0.00000000
  ---------------------------------------------------
  free energy    TOTEN  =      -489.21522965 eV

  energy without entropy =     -489.21522965  energy(sigma->0) =     -489.21522965


--------------------------------------------------------------------------------------------------------




--------------------------------------- Iteration      1(  14)  ---------------------------------------


    POTLOK:  cpu time    1.0653: real time    1.0667
    SETDIJ:  cpu time    2.2903: real time    2.3042
     EDDAV:  cpu time  323.4742: real time  326.5838
       DOS:  cpu time    0.0027: real time    0.0027
    CHARGE:  cpu time    9.3352: real time    9.3503
    MIXING:  cpu time    0.0332: real time    0.0333
    --------------------------------------------
      LOOP:  cpu time  336.2009: real time  339.3411

 eigenvalue-minimisations  : 32048
 total energy-change (2. order) :-0.4709320E-05  (-0.2029646E-05)
 number of electron     736.0000016 magnetization     128.0000005
 augmentation part      277.8929344 magnetization      84.1583231

 Broyden mixing:
  rms(total) = 0.92207E-03    rms(broyden)= 0.91527E-03
  rms(prec ) = 0.95381E-03
  weight for this iteration     100.00

 eigenvalues of (default mixing * dielectric matrix)
  average eigenvalue GAMMA=   1.1189
  2.8486  1.5348  1.5348  0.9730  0.7036  0.7036  0.6386  0.6386  0.4945

 Free energy of the ion-electron system (eV)
  ---------------------------------------------------
  alpha Z        PSCENC =      2314.49656628
  Ewald energy   TEWEN  =    -57724.96846882
  -Hartree energ DENC   =    -30347.01709132
  -exchange      EXHF   =         0.00000000
  -V(xc)+E(xc)   XCENC  =      3229.29692504
  PAW double counting   =     92679.12990835   -95534.60833282
  entropy T*S    EENTRO =        -0.00000000
  eigenvalues    EBANDS =    -10549.02445061
  atomic energy  EATOM  =     95443.47970955
  Solvation  Ediel_sol  =         0.00000000
  ---------------------------------------------------
  free energy    TOTEN  =      -489.21523436 eV

  energy without entropy =     -489.21523436  energy(sigma->0) =     -489.21523436


--------------------------------------------------------------------------------------------------------




--------------------------------------- Iteration      1(  15)  ---------------------------------------


    POTLOK:  cpu time    1.0667: real time    1.0681
    SETDIJ:  cpu time    2.2777: real time    2.2789
     EDDAV:  cpu time  296.5675: real time  299.8461
       DOS:  cpu time    0.0027: real time    0.0027
    CHARGE:  cpu time    9.2648: real time    9.3454
    MIXING:  cpu time    0.0375: real time    0.0375
    --------------------------------------------
      LOOP:  cpu time  309.2169: real time  312.5787

 eigenvalue-minimisations  : 28536
 total energy-change (2. order) : 0.1334149E-05  (-0.2942758E-06)
 number of electron     736.0000016 magnetization     128.0000005
 augmentation part      277.8926453 magnetization      84.1583890

 Broyden mixing:
  rms(total) = 0.60876E-03    rms(broyden)= 0.59859E-03
  rms(prec ) = 0.61335E-03
  weight for this iteration     100.00

 eigenvalues of (default mixing * dielectric matrix)
  average eigenvalue GAMMA=   1.1031
  2.8150  1.3574  1.3574  1.2807  0.8528  0.8528  0.5883  0.5883  0.6693  0.6693

 Free energy of the ion-electron system (eV)
  ---------------------------------------------------
  alpha Z        PSCENC =      2314.49656628
  Ewald energy   TEWEN  =    -57724.96846882
  -Hartree energ DENC   =    -30347.01962543
  -exchange      EXHF   =         0.00000000
  -V(xc)+E(xc)   XCENC  =      3229.29857747
  PAW double counting   =     92679.44789273   -95534.93629251
  entropy T*S    EENTRO =        -0.00000000
  eigenvalues    EBANDS =    -10549.01359229
  atomic energy  EATOM  =     95443.47970955
  Solvation  Ediel_sol  =         0.00000000
  ---------------------------------------------------
  free energy    TOTEN  =      -489.21523303 eV

  energy without entropy =     -489.21523303  energy(sigma->0) =     -489.21523303


--------------------------------------------------------------------------------------------------------




--------------------------------------- Iteration      1(  16)  ---------------------------------------


    POTLOK:  cpu time    1.0628: real time    1.0639
    SETDIJ:  cpu time    2.2788: real time    2.2992
     EDDAV:  cpu time  216.3177: real time  218.5174
       DOS:  cpu time    0.0025: real time    0.0025
    --------------------------------------------
      LOOP:  cpu time  219.6618: real time  221.8830

 eigenvalue-minimisations  : 18064
 total energy-change (2. order) :-0.4422327E-06  (-0.2870755E-07)
 number of electron     736.0000016 magnetization     128.0000005
 augmentation part      277.8926453 magnetization      84.1583890

 Free energy of the ion-electron system (eV)
  ---------------------------------------------------
  alpha Z        PSCENC =      2314.49656628
  Ewald energy   TEWEN  =    -57724.96846882
  -Hartree energ DENC   =    -30347.01614586
  -exchange      EXHF   =         0.00000000
  -V(xc)+E(xc)   XCENC  =      3229.29790027
  PAW double counting   =     92679.73244479   -95535.22090889
  entropy T*S    EENTRO =        -0.00000000
  eigenvalues    EBANDS =    -10549.01633077
  atomic energy  EATOM  =     95443.47970955
  Solvation  Ediel_sol  =         0.00000000
  ---------------------------------------------------
  free energy    TOTEN  =      -489.21523347 eV

  energy without entropy =     -489.21523347  energy(sigma->0) =     -489.21523347


--------------------------------------------------------------------------------------------------------




 average (electrostatic) potential at core
  the test charge radii are     0.7079  0.7215  0.9698  0.9500
  (the norm of the test charge is              1.0000)
       1 -58.9496       2 -58.9490       3 -58.9487       4 -58.9490       5 -58.9453
       6 -58.9493       7 -58.9479       8 -58.9479       9 -58.9484      10 -58.9492
      11 -58.9498      12 -58.9483      13 -58.9523      14 -58.9491      15 -58.9492
      16 -58.9491      17 -69.8174      18 -69.8168      19 -69.8167      20 -69.8162
      21 -69.8174      22 -69.8167      23 -69.8170      24 -69.8163      25 -69.8087
      26 -69.8165      27 -69.8160      28 -69.8162      29 -69.8164      30 -69.8160
      31 -69.8164      32 -69.8157      33 -85.5741      34 -85.5793      35 -85.5787
      36 -85.5793      37 -85.5758      38 -85.5788      39 -85.5792      40 -85.5792
      41 -85.5794      42 -85.5792      43 -85.5797      44 -85.5793      45 -85.5793
      46 -85.5792      47 -85.5791      48 -85.5796      49 -85.6444      50 -85.6393
      51 -85.6387      52 -85.6393      53 -85.6473      54 -85.6385      55 -85.6391
      56 -85.6392      57 -78.5739      58 -78.5731      59 -78.5739      60 -78.5737
      61 -78.5726      62 -78.5738      63 -78.5737      64 -78.5738      65 -78.5707
      66 -78.5731      67 -78.5724      68 -78.5736      69 -78.5726      70 -78.5732
      71 -78.5729      72 -78.5735      73 -78.5828      74 -78.5818      75 -78.5798
      76 -78.5835      77 -78.5957      78 -78.5915      79 -78.5914      80 -78.5915
      81 -78.5927      82 -78.5917      83 -78.5935      84 -78.5916      85 -78.5839
      86 -78.5831      87 -78.5821      88 -78.5821
 
 
 
 E-fermi :   5.2178     XC(G=0): -10.4850     alpha+bet :-11.8156


 spin component 1

 k-point     1 :       0.0000    0.0000    0.0000
  band No.  band energies     occupation 
      1     -51.0549      1.00000
      2     -51.0546      1.00000
      3     -51.0545      1.00000
      4     -51.0540      1.00000
      5     -51.0537      1.00000
      6     -51.0537      1.00000
      7     -51.0534      1.00000
      8     -51.0530      1.00000
      9     -51.0524      1.00000
     10     -51.0520      1.00000
     11     -51.0519      1.00000
     12     -51.0518      1.00000
     13     -51.0514      1.00000
     14     -51.0507      1.00000
     15     -51.0499      1.00000
     16     -51.0492      1.00000
     17     -51.0460      1.00000
     18     -51.0455      1.00000
     19     -51.0449      1.00000
     20     -51.0441      1.00000
     21     -51.0441      1.00000
     22     -51.0439      1.00000
     23     -51.0439      1.00000
     24     -51.0435      1.00000
     25     -51.0408      1.00000
     26     -51.0404      1.00000
     27     -51.0404      1.00000
     28     -51.0398      1.00000
     29     -51.0395      1.00000
     30     -51.0395      1.00000
     31     -51.0391      1.00000
     32     -51.0370      1.00000
     33     -49.7091      1.00000
     34     -49.7035      1.00000
     35     -49.7028      1.00000
     36     -49.7018      1.00000
     37     -49.7016      1.00000
     38     -49.7016      1.00000
     39     -49.7015      1.00000
     40     -49.7014      1.00000
     41     -49.6959      1.00000
     42     -49.6956      1.00000
     43     -49.6952      1.00000
     44     -49.6950      1.00000
     45     -49.6941      1.00000
     46     -49.6941      1.00000
     47     -49.6938      1.00000
     48     -49.6918      1.00000
     49     -49.5977      1.00000
     50     -49.5970      1.00000
     51     -49.5968      1.00000
     52     -49.5967      1.00000
     53     -49.5966      1.00000
     54     -49.5965      1.00000
     55     -49.5960      1.00000
     56     -49.5958      1.00000
     57     -49.5956      1.00000
     58     -49.5955      1.00000
     59     -49.5954      1.00000
     60     -49.5952      1.00000
     61     -49.5950      1.00000
     62     -49.5950      1.00000
     63     -49.5947      1.00000
     64     -49.5936      1.00000
     65     -49.5665      1.00000
     66     -49.5658      1.00000
     67     -49.5656      1.00000
     68     -49.5656      1.00000
     69     -49.5653      1.00000
     70     -49.5649      1.00000
     71     -49.5644      1.00000
     72     -49.5640      1.00000
     73     -49.5638      1.00000
     74     -49.5637      1.00000
     75     -49.5636      1.00000
     76     -49.5634      1.00000
     77     -49.5634      1.00000
     78     -49.5631      1.00000
     79     -49.5624      1.00000
     80     -49.5610      1.00000
     81     -49.5562      1.00000
     82     -49.5553      1.00000
     83     -49.5544      1.00000
     84     -49.5543      1.00000
     85     -49.5542      1.00000
     86     -49.5541      1.00000
     87     -49.5540      1.00000
     88     -49.5540      1.00000
     89     -49.5414      1.00000
     90     -49.5410      1.00000
     91     -49.5406      1.00000
     92     -49.5403      1.00000
     93     -49.5396      1.00000
     94     -49.5395      1.00000
     95     -49.5394      1.00000
     96     -49.5376      1.00000
     97     -39.8686      1.00000
     98     -39.8668      1.00000
     99     -39.8664      1.00000
    100     -39.8663      1.00000
    101     -39.8658      1.00000
    102     -39.8656      1.00000
    103     -39.8654      1.00000
    104     -39.8654      1.00000
    105     -39.8653      1.00000
    106     -39.8652      1.00000
    107     -39.8652      1.00000
    108     -39.8651      1.00000
    109     -39.8649      1.00000
    110     -39.8647      1.00000
    111     -39.8645      1.00000
    112     -39.8622      1.00000
    113     -13.2254      1.00000
    114     -13.2232      1.00000
    115     -13.2098      1.00000
    116     -13.1829      1.00000
    117     -13.1008      1.00000
    118     -13.0992      1.00000
    119     -13.0979      1.00000
    120     -13.0930      1.00000
    121     -13.0853      1.00000
    122     -13.0803      1.00000
    123     -13.0789      1.00000
    124     -13.0765      1.00000
    125     -12.9878      1.00000
    126     -12.9769      1.00000
    127     -12.9424      1.00000
    128     -12.9404      1.00000
    129      -7.6447      1.00000
    130      -7.4091      1.00000
    131      -7.3278      1.00000
    132      -7.3269      1.00000
    133      -7.3123      1.00000
    134      -7.3113      1.00000
    135      -7.3090      1.00000
    136      -7.3078      1.00000
    137      -7.1695      1.00000
    138      -7.1573      1.00000
    139      -7.1245      1.00000
    140      -7.1240      1.00000
    141      -7.0387      1.00000
    142      -7.0207      1.00000
    143      -7.0013      1.00000
    144      -7.0005      1.00000
    145      -6.9408      1.00000
    146      -6.9400      1.00000
    147      -6.8862      1.00000
    148      -6.8859      1.00000
    149      -6.8647      1.00000
    150      -6.8605      1.00000
    151      -6.8333      1.00000
    152      -6.8030      1.00000
    153      -1.9360      1.00000
    154      -1.9329      1.00000
    155      -1.9093      1.00000
    156      -1.8920      1.00000
    157      -1.6664      1.00000
    158      -1.6659      1.00000
    159      -1.6582      1.00000
    160      -1.6570      1.00000
    161      -1.5993      1.00000
    162      -1.5975      1.00000
    163      -1.5860      1.00000
    164      -1.5855      1.00000
    165      -1.2982      1.00000
    166      -1.1747      1.00000
    167      -1.1737      1.00000
    168      -1.1135      1.00000
    169      -1.1127      1.00000
    170      -1.1072      1.00000
    171      -1.0496      1.00000
    172      -0.9809      1.00000
    173      -0.9648      1.00000
    174      -0.9595      1.00000
    175      -0.9572      1.00000
    176      -0.9569      1.00000
    177      -0.9464      1.00000
    178      -0.9445      1.00000
    179      -0.9222      1.00000
    180      -0.8715      1.00000
    181      -0.8712      1.00000
    182      -0.8031      1.00000
    183      -0.8027      1.00000
    184      -0.8017      1.00000
    185      -0.7749      1.00000
    186      -0.7742      1.00000
    187      -0.7736      1.00000
    188      -0.7606      1.00000
    189      -0.7168      1.00000
    190      -0.7163      1.00000
    191      -0.7066      1.00000
    192      -0.7046      1.00000
    193      -0.6987      1.00000
    194      -0.6981      1.00000
    195      -0.6079      1.00000
    196      -0.6075      1.00000
    197      -0.5609      1.00000
    198      -0.5605      1.00000
    199      -0.5489      1.00000
    200      -0.5474      1.00000
    201      -0.4084      1.00000
    202      -0.4081      1.00000
    203      -0.3576      1.00000
    204      -0.3479      1.00000
    205      -0.3294      1.00000
    206      -0.3292      1.00000
    207      -0.2981      1.00000
    208      -0.2979      1.00000
    209      -0.2824      1.00000
    210      -0.2689      1.00000
    211      -0.2623      1.00000
    212      -0.2553      1.00000
    213      -0.2544      1.00000
    214      -0.2089      1.00000
    215      -0.2086      1.00000
    216      -0.1886      1.00000
    217      -0.1874      1.00000
    218      -0.1872      1.00000
    219      -0.1758      1.00000
    220      -0.1577      1.00000
    221      -0.1257      1.00000
    222      -0.1251      1.00000
    223      -0.1097      1.00000
    224      -0.0708      1.00000
    225      -0.0704      1.00000
    226      -0.0600      1.00000
    227      -0.0431      1.00000
    228      -0.0170      1.00000
    229      -0.0167      1.00000
    230      -0.0123      1.00000
    231       0.0011      1.00000
    232       0.0013      1.00000
    233       0.0462      1.00000
    234       0.0493      1.00000
    235       0.0500      1.00000
    236       0.0914      1.00000
    237       0.0930      1.00000
    238       0.1184      1.00000
    239       0.1188      1.00000
    240       0.1572      1.00000
    241       0.1631      1.00000
    242       0.1758      1.00000
    243       0.1792      1.00000
    244       0.1821      1.00000
    245       0.1822      1.00000
    246       0.1863      1.00000
    247       0.1893      1.00000
    248       0.1927      1.00000
    249       0.1929      1.00000
    250       0.2000      1.00000
    251       0.2008      1.00000
    252       0.2386      1.00000
    253       0.2514      1.00000
    254       0.2570      1.00000
    255       0.2572      1.00000
    256       0.2770      1.00000
    257       0.3374      1.00000
    258       0.3477      1.00000
    259       0.3584      1.00000
    260       0.3586      1.00000
    261       0.3600      1.00000
    262       0.3603      1.00000
    263       0.3880      1.00000
    264       0.4013      1.00000
    265       0.4530      1.00000
    266       0.4533      1.00000
    267       0.5787      1.00000
    268       0.5789      1.00000
    269       0.5842      1.00000
    270       0.6023      1.00000
    271       0.6024      1.00000
    272       0.6062      1.00000
    273       0.6089      1.00000
    274       0.6400      1.00000
    275       0.6506      1.00000
    276       0.6507      1.00000
    277       0.6616      1.00000
    278       0.6623      1.00000
    279       0.6663      1.00000
    280       0.6737      1.00000
    281       0.6752      1.00000
    282       0.6756      1.00000
    283       0.6961      1.00000
    284       0.7230      1.00000
    285       0.7843      1.00000
    286       0.8201      1.00000
    287       0.8299      1.00000
    288       0.8328      1.00000
    289       0.8330      1.00000
    290       0.8611      1.00000
    291       0.8613      1.00000
    292       0.9102      1.00000
    293       0.9403      1.00000
    294       0.9476      1.00000
    295       0.9478      1.00000
    296       0.9824      1.00000
    297       1.0259      1.00000
    298       1.0710      1.00000
    299       1.2700      1.00000
    300       1.2981      1.00000
    301       1.2984      1.00000
    302       1.3120      1.00000
    303       1.3329      1.00000
    304       1.3333      1.00000
    305       1.3380      1.00000
    306       1.3848      1.00000
    307       1.4055      1.00000
    308       1.4285      1.00000
    309       1.4673      1.00000
    310       1.4681      1.00000
    311       1.4683      1.00000
    312       1.4820      1.00000
    313       1.5104      1.00000
    314       1.5108      1.00000
    315       1.5409      1.00000
    316       1.5607      1.00000
    317       1.5759      1.00000
    318       1.6473      1.00000
    319       1.6554      1.00000
    320       1.7566      1.00000
    321       1.7569      1.00000
    322       1.7635      1.00000
    323       1.7790      1.00000
    324       1.8025      1.00000
    325       1.8028      1.00000
    326       1.8098      1.00000
    327       1.8231      1.00000
    328       1.8358      1.00000
    329       1.8368      1.00000
    330       1.8463      1.00000
    331       1.8482      1.00000
    332       1.8777      1.00000
    333       1.8897      1.00000
    334       1.9469      1.00000
    335       1.9931      1.00000
    336       1.9934      1.00000
    337       2.0065      1.00000
    338       2.0067      1.00000
    339       2.0110      1.00000
    340       2.0196      1.00000
    341       2.0204      1.00000
    342       2.0213      1.00000
    343       2.0393      1.00000
    344       2.0472      1.00000
    345       2.0477      1.00000
    346       2.0572      1.00000
    347       2.0688      1.00000
    348       2.0693      1.00000
    349       2.0917      1.00000
    350       2.1133      1.00000
    351       2.1901      1.00000
    352       2.1939      1.00000
    353       2.2467      1.00000
    354       2.2469      1.00000
    355       2.2707      1.00000
    356       2.2730      1.00000
    357       2.2850      1.00000
    358       2.4280      1.00000
    359       2.4657      1.00000
    360       2.4666      1.00000
    361       2.4768      1.00000
    362       2.5037      1.00000
    363       2.5269      1.00000
    364       2.5544      1.00000
    365       2.5917      1.00000
    366       2.6261      1.00000
    367       2.6274      1.00000
    368       2.6566      1.00000
    369       2.7380      1.00000
    370       2.7385      1.00000
    371       2.7606      1.00000
    372       2.7615      1.00000
    373       2.8347      1.00000
    374       2.8726      1.00000
    375       2.9270      1.00000
    376       2.9345      1.00000
    377       2.9347      1.00000
    378       2.9695      1.00000
    379       3.0276      1.00000
    380       3.0277      1.00000
    381       3.0621      1.00000
    382       3.0972      1.00000
    383       3.3072      1.00000
    384       3.3100      1.00000
    385       3.3484      1.00000
    386       3.3763      1.00000
    387       3.4214      1.00000
    388       3.4220      1.00000
    389       3.4414      1.00000
    390       3.4585      1.00000
    391       3.4587      1.00000
    392       3.5320      1.00000
    393       3.7476      1.00000
    394       3.8086      1.00000
    395       3.8088      1.00000
    396       3.8149      1.00000
    397       3.8153      1.00000
    398       3.8815      1.00000
    399       3.8826      1.00000
    400       3.9323      1.00000
    401       3.9345      1.00000
    402       3.9395      1.00000
    403       3.9400      1.00000
    404       4.0387      1.00000
    405       4.0391      1.00000
    406       4.0690      1.00000
    407       4.1389      1.00000
    408       4.1498      1.00000
    409       4.1520      1.00000
    410       4.3149      1.00000
    411       4.3173      1.00000
    412       4.3370      1.00000
    413       4.3577      1.00000
    414       4.3583      1.00000
    415       4.4291      1.00000
    416       4.4438      1.00000
    417       4.4455      1.00000
    418       4.4545      1.00000
    419       4.4568      1.00000
    420       4.4572      1.00000
    421       4.6369      1.00000
    422       4.6372      1.00000
    423       4.7325      1.00000
    424       4.7330      1.00000
    425       4.7646      1.00000
    426       4.7648      1.00000
    427       4.7699      1.00000
    428       4.7703      1.00000
    429       4.8110      1.00000
    430       4.8534      1.00000
    431       4.8542      1.00000
    432       4.8579      1.00000
    433       7.3437      0.00000
    434       8.1289      0.00000
    435       8.4458      0.00000
    436       8.6426      0.00000
    437       8.6429      0.00000
    438       8.8590      0.00000
    439       9.0844      0.00000
    440       9.0851      0.00000
    441       9.2615      0.00000
    442       9.2734      0.00000
    443       9.2895      0.00000
    444       9.2902      0.00000
    445       9.7268      0.00000
    446       9.7716      0.00000
    447       9.7723      0.00000
    448       9.7901      0.00000
    449       9.8548      0.00000
    450       9.8549      0.00000
    451       9.8572      0.00000
    452       9.8778      0.00000
    453       9.8879      0.00000
    454      10.0610      0.00000
    455      10.0832      0.00000
    456      10.1367      0.00000
    457      10.1370      0.00000
    458      10.3057      0.00000
    459      10.3062      0.00000
    460      10.4172      0.00000
    461      10.5270      0.00000
    462      10.5702      0.00000
    463      10.5712      0.00000
    464      10.5717      0.00000
    465      10.5787      0.00000
    466      10.5793      0.00000
    467      10.6759      0.00000
    468      10.9759      0.00000
    469      11.0198      0.00000
    470      11.0200      0.00000
    471      11.0408      0.00000
    472      11.0414      0.00000
    473      11.0776      0.00000
    474      11.1286      0.00000
    475      11.1777      0.00000
[...]
   0.311E-01 -.229E-01 -.259E+02   -.324E-01 0.249E-01 0.256E+02   0.833E-03 -.147E-02 0.253E+00   0.961E-06 0.107E-04 0.660E-04
   -.367E-01 0.342E-01 -.259E+02   0.395E-01 -.361E-01 0.256E+02   -.175E-02 0.989E-03 0.254E+00   -.282E-04 0.125E-04 0.910E-04
   0.317E-01 0.272E-01 -.259E+02   -.324E-01 -.272E-01 0.256E+02   0.420E-03 -.188E-03 0.251E+00   0.788E-05 0.241E-04 0.666E-04
   0.422E-01 0.140E-01 -.417E+02   -.429E-01 -.120E-01 0.416E+02   0.176E-03 -.168E-02 0.137E-01   0.626E-05 -.134E-04 0.758E-04
   -.244E-02 0.129E-01 -.420E+02   0.309E-02 -.120E-01 0.420E+02   -.585E-03 -.996E-03 0.108E-01   -.196E-05 0.104E-04 0.287E-05
   0.829E-02 0.131E-01 -.420E+02   -.823E-02 -.119E-01 0.420E+02   -.158E-03 -.117E-02 0.108E-01   -.125E-04 -.593E-05 0.840E-05
   0.406E-02 0.131E-01 -.421E+02   -.378E-02 -.119E-01 0.420E+02   -.358E-03 -.114E-02 0.114E-01   -.785E-05 -.177E-04 0.189E-04
   0.160E+02 0.150E+02 -.126E+03   -.164E+02 -.154E+02 0.130E+03   0.391E+00 0.382E+00 -.462E+01   0.999E-04 0.173E-03 0.192E-03
   0.158E+02 0.149E+02 -.126E+03   -.162E+02 -.153E+02 0.131E+03   0.381E+00 0.380E+00 -.462E+01   -.116E-03 0.728E-04 0.117E-03
   0.159E+02 0.149E+02 -.126E+03   -.163E+02 -.152E+02 0.131E+03   0.386E+00 0.377E+00 -.462E+01   -.961E-04 0.251E-05 0.862E-04
   0.159E+02 0.149E+02 -.126E+03   -.162E+02 -.153E+02 0.131E+03   0.387E+00 0.380E+00 -.463E+01   -.397E-04 0.723E-04 0.736E-04
   -.161E+02 -.150E+02 -.126E+03   0.165E+02 0.154E+02 0.130E+03   -.392E+00 -.384E+00 -.462E+01   -.704E-04 -.152E-03 0.216E-03
   -.159E+02 -.149E+02 -.126E+03   0.163E+02 0.153E+02 0.131E+03   -.386E+00 -.379E+00 -.462E+01   0.234E-04 0.121E-04 0.122E-03
   -.160E+02 -.148E+02 -.126E+03   0.163E+02 0.152E+02 0.131E+03   -.389E+00 -.373E+00 -.462E+01   0.115E-05 0.363E-04 0.146E-03
   -.159E+02 -.149E+02 -.126E+03   0.163E+02 0.153E+02 0.131E+03   -.389E+00 -.380E+00 -.463E+01   -.454E-04 -.103E-03 0.949E-04
   0.152E+02 -.160E+02 0.125E+03   -.155E+02 0.165E+02 -.130E+03   0.351E+00 -.439E+00 0.458E+01   -.481E-04 -.134E-03 -.544E-03
   0.159E+02 -.149E+02 0.126E+03   -.163E+02 0.153E+02 -.131E+03   0.386E+00 -.380E+00 0.462E+01   -.986E-04 -.209E-04 -.191E-03
   0.159E+02 -.148E+02 0.126E+03   -.163E+02 0.152E+02 -.131E+03   0.389E+00 -.380E+00 0.462E+01   0.400E-04 -.383E-04 -.142E-03
   0.159E+02 -.149E+02 0.126E+03   -.163E+02 0.153E+02 -.131E+03   0.389E+00 -.379E+00 0.463E+01   0.836E-05 -.222E-04 -.137E-03
   -.154E+02 0.150E+02 0.125E+03   0.158E+02 -.154E+02 -.129E+03   -.367E+00 0.379E+00 0.456E+01   0.884E-04 -.937E-04 -.591E-03
   -.160E+02 0.150E+02 0.126E+03   0.164E+02 -.153E+02 -.131E+03   -.387E+00 0.382E+00 0.462E+01   0.106E-04 0.116E-03 -.124E-03
   -.159E+02 0.149E+02 0.126E+03   0.162E+02 -.153E+02 -.131E+03   -.385E+00 0.382E+00 0.462E+01   0.475E-04 0.190E-04 -.144E-03
   -.159E+02 0.149E+02 0.126E+03   0.163E+02 -.153E+02 -.131E+03   -.388E+00 0.378E+00 0.463E+01   0.583E-04 0.535E-04 -.105E-03
   0.276E+02 0.287E+02 0.338E+02   -.279E+02 -.291E+02 -.344E+02   0.340E+00 0.366E+00 0.530E+00   -.892E-04 0.111E-03 0.986E-04
   0.280E+02 0.282E+02 0.333E+02   -.284E+02 -.286E+02 -.338E+02   0.350E+00 0.354E+00 0.518E+00   -.401E-05 0.381E-04 0.596E-04
   0.280E+02 0.281E+02 0.333E+02   -.283E+02 -.284E+02 -.339E+02   0.350E+00 0.351E+00 0.519E+00   0.156E-04 -.198E-04 0.468E-04
   0.280E+02 0.282E+02 0.333E+02   -.284E+02 -.285E+02 -.338E+02   0.351E+00 0.352E+00 0.518E+00   -.382E-05 0.278E-04 0.366E-04
   -.274E+02 -.286E+02 0.335E+02   0.278E+02 0.290E+02 -.341E+02   -.338E+00 -.362E+00 0.525E+00   0.530E-04 -.121E-03 0.549E-04
   -.280E+02 -.283E+02 0.334E+02   0.284E+02 0.286E+02 -.339E+02   -.351E+00 -.354E+00 0.520E+00   0.229E-05 -.647E-04 0.970E-04
   -.279E+02 -.282E+02 0.333E+02   0.282E+02 0.285E+02 -.338E+02   -.348E+00 -.353E+00 0.518E+00   -.108E-04 0.104E-04 0.584E-04
   -.280E+02 -.282E+02 0.333E+02   0.283E+02 0.286E+02 -.338E+02   -.350E+00 -.353E+00 0.519E+00   0.286E-04 -.493E-04 0.251E-04
   0.279E+02 -.282E+02 -.332E+02   -.283E+02 0.286E+02 0.337E+02   0.348E+00 -.354E+00 -.516E+00   0.256E-04 -.382E-04 -.163E-05
   0.279E+02 -.282E+02 -.331E+02   -.283E+02 0.285E+02 0.337E+02   0.350E+00 -.353E+00 -.516E+00   0.446E-04 0.116E-04 0.449E-04
   0.279E+02 -.282E+02 -.333E+02   -.283E+02 0.286E+02 0.338E+02   0.349E+00 -.354E+00 -.518E+00   0.450E-04 -.537E-04 -.125E-04
   0.279E+02 -.282E+02 -.333E+02   -.283E+02 0.286E+02 0.338E+02   0.349E+00 -.355E+00 -.517E+00   -.151E-04 -.576E-04 -.415E-04
   -.281E+02 0.282E+02 -.331E+02   0.284E+02 -.285E+02 0.336E+02   -.351E+00 0.352E+00 -.514E+00   -.255E-04 -.163E-04 0.610E-04
   -.280E+02 0.282E+02 -.333E+02   0.283E+02 -.285E+02 0.338E+02   -.349E+00 0.353E+00 -.517E+00   0.254E-04 0.436E-04 -.976E-05
   -.280E+02 0.282E+02 -.333E+02   0.284E+02 -.285E+02 0.338E+02   -.351E+00 0.355E+00 -.516E+00   0.802E-05 0.542E-04 -.178E-04
   -.280E+02 0.282E+02 -.333E+02   0.283E+02 -.285E+02 0.338E+02   -.350E+00 0.353E+00 -.518E+00   0.228E-04 0.126E-04 0.132E-04
   0.106E+02 -.511E+00 -.516E-01   -.108E+02 0.518E+00 0.506E-01   0.122E+00 -.319E-02 -.509E-02   0.184E-04 -.459E-04 0.207E-05
   0.976E+01 -.404E-02 -.257E-01   -.987E+01 0.433E-02 0.263E-01   0.113E+00 -.935E-03 -.777E-03   -.123E-03 0.418E-04 -.144E-04
   0.995E+01 0.110E+00 -.700E-01   -.101E+02 -.110E+00 0.713E-01   0.117E+00 0.454E-03 -.217E-02   -.594E-04 0.233E-05 0.118E-04
   0.987E+01 0.724E-01 -.236E-01   -.998E+01 -.739E-01 0.233E-01   0.113E+00 0.208E-02 0.410E-03   -.114E-03 0.320E-04 -.818E-05
   -.106E+02 0.963E+00 0.381E+00   0.108E+02 -.976E+00 -.386E+00   -.117E+00 0.584E-02 -.373E-02   -.285E-04 0.884E-04 0.826E-05
   -.987E+01 0.591E-01 -.624E-01   0.999E+01 -.603E-01 0.632E-01   -.115E+00 0.162E-02 -.174E-02   0.154E-03 0.358E-04 -.447E-04
   -.992E+01 -.539E-01 -.299E-01   0.100E+02 0.542E-01 0.303E-01   -.116E+00 -.665E-03 -.668E-03   0.389E-04 -.494E-04 -.293E-04
   -.990E+01 0.400E-01 -.210E-01   0.100E+02 -.395E-01 0.207E-01   -.114E+00 -.103E-02 0.902E-04   0.821E-04 -.780E-05 -.376E-04
   0.190E+02 0.190E+02 0.185E+03   -.179E+02 -.179E+02 -.183E+03   -.106E+01 -.109E+01 -.240E+01   0.797E-04 0.574E-04 0.800E-04
   0.191E+02 0.188E+02 0.185E+03   -.181E+02 -.178E+02 -.183E+03   -.106E+01 -.108E+01 -.240E+01   0.609E-04 -.620E-05 0.894E-04
   0.190E+02 0.189E+02 0.185E+03   -.179E+02 -.178E+02 -.183E+03   -.106E+01 -.108E+01 -.241E+01   0.383E-04 0.706E-04 0.450E-04
   0.190E+02 0.190E+02 0.185E+03   -.180E+02 -.179E+02 -.183E+03   -.106E+01 -.108E+01 -.241E+01   0.810E-04 0.639E-04 -.101E-03
   -.191E+02 -.188E+02 0.186E+03   0.180E+02 0.177E+02 -.183E+03   0.107E+01 0.108E+01 -.239E+01   -.954E-04 -.107E-03 0.213E-03
   -.188E+02 -.189E+02 0.185E+03   0.177E+02 0.178E+02 -.183E+03   0.106E+01 0.109E+01 -.241E+01   0.111E-04 -.436E-04 -.889E-04
   -.190E+02 -.189E+02 0.185E+03   0.179E+02 0.178E+02 -.183E+03   0.106E+01 0.109E+01 -.240E+01   -.348E-04 -.671E-04 -.606E-04
   -.189E+02 -.189E+02 0.185E+03   0.178E+02 0.178E+02 -.183E+03   0.107E+01 0.108E+01 -.241E+01   -.174E-04 -.160E-03 -.191E-03
   0.182E+02 -.200E+02 -.184E+03   -.171E+02 0.189E+02 0.182E+03   -.107E+01 0.107E+01 0.243E+01   -.224E-03 -.508E-03 0.819E-03
   0.190E+02 -.189E+02 -.185E+03   -.179E+02 0.178E+02 0.183E+03   -.106E+01 0.109E+01 0.241E+01   0.754E-04 -.121E-03 0.393E-03
   0.188E+02 -.186E+02 -.185E+03   -.178E+02 0.175E+02 0.183E+03   -.106E+01 0.110E+01 0.241E+01   0.972E-05 0.135E-03 0.132E-03
   0.189E+02 -.188E+02 -.185E+03   -.179E+02 0.178E+02 0.183E+03   -.106E+01 0.109E+01 0.241E+01   -.321E-04 -.116E-03 0.273E-03
   -.181E+02 0.198E+02 -.184E+03   0.171E+02 -.187E+02 0.182E+03   0.107E+01 -.108E+01 0.241E+01   0.229E-03 0.333E-03 0.316E-03
   -.193E+02 0.190E+02 -.185E+03   0.182E+02 -.179E+02 0.183E+03   0.106E+01 -.108E+01 0.241E+01   -.166E-03 0.142E-03 0.234E-03
   -.189E+02 0.188E+02 -.185E+03   0.178E+02 -.177E+02 0.183E+03   0.106E+01 -.109E+01 0.241E+01   -.805E-04 -.718E-04 0.142E-03
   -.191E+02 0.189E+02 -.185E+03   0.180E+02 -.178E+02 0.183E+03   0.106E+01 -.109E+01 0.241E+01   -.445E-04 0.554E-04 0.200E-03
   -.729E-01 0.100E+00 0.208E+03   0.692E-01 -.994E-01 -.211E+03   0.381E-02 -.112E-02 0.205E+01   0.436E-04 0.710E-04 -.863E-03
   -.721E-01 -.241E+00 0.208E+03   0.692E-01 0.237E+00 -.211E+03   0.328E-02 0.482E-02 0.206E+01   -.876E-04 -.157E-03 -.801E-03
   -.518E-01 -.221E+00 0.208E+03   0.692E-01 0.236E+00 -.211E+03   -.141E-01 -.119E-01 0.206E+01   -.114E-03 -.201E-03 -.795E-03
   -.625E-01 0.897E-01 0.208E+03   0.692E-01 -.999E-01 -.211E+03   -.576E-02 0.919E-02 0.205E+01   -.203E-03 -.691E-04 -.958E-03
   0.142E+01 0.758E+00 0.196E+03   -.141E+01 -.741E+00 -.198E+03   -.351E-01 -.267E-01 0.209E+01   0.960E-03 -.311E-03 -.458E-02
   -.147E+00 -.535E-01 0.199E+03   0.149E+00 0.512E-01 -.201E+03   -.157E-02 0.206E-02 0.206E+01   -.158E-04 0.172E-03 -.635E-03
   0.701E-01 -.533E-01 0.199E+03   -.717E-01 0.512E-01 -.201E+03   0.142E-02 0.199E-02 0.206E+01   -.618E-04 -.208E-04 -.523E-03
   -.125E-01 -.523E-01 0.199E+03   0.138E-01 0.512E-01 -.201E+03   -.907E-03 0.124E-02 0.206E+01   -.734E-04 -.425E-04 -.623E-03
   0.376E-01 -.530E+00 -.199E+03   -.329E-01 0.537E+00 0.201E+03   -.384E-02 -.471E-02 -.206E+01   0.128E-04 -.222E-03 0.754E-03
   -.456E-01 -.866E-01 -.199E+03   0.445E-01 0.857E-01 0.201E+03   0.598E-03 0.106E-02 -.206E+01   0.147E-03 -.757E-04 0.555E-03
   0.207E-01 0.420E+00 -.199E+03   -.329E-01 -.435E+00 0.201E+03   0.971E-02 0.120E-01 -.205E+01   0.273E-03 0.280E-03 0.739E-03
   -.419E-01 -.184E-01 -.199E+03   0.445E-01 0.167E-01 0.201E+03   -.203E-02 0.172E-02 -.206E+01   -.563E-04 -.991E-05 0.546E-03
   -.573E+00 -.611E-01 -.208E+03   0.586E+00 0.685E-01 0.210E+03   -.103E-01 -.564E-02 -.205E+01   -.331E-03 -.459E-04 0.746E-03
   0.421E+00 -.776E-01 -.209E+03   -.430E+00 0.685E-01 0.211E+03   0.686E-02 0.768E-02 -.206E+01   0.228E-03 0.393E-04 0.723E-03
   -.747E-01 -.729E-01 -.209E+03   0.767E-01 0.685E-01 0.211E+03   -.163E-02 0.376E-02 -.206E+01   -.482E-04 0.683E-04 0.586E-03
   0.330E-01 -.689E-01 -.209E+03   -.325E-01 0.685E-01 0.211E+03   -.612E-03 0.102E-02 -.206E+01   0.106E-03 -.220E-03 0.562E-03
 -----------------------------------------------------------------------------------------------
   0.687E-01 0.644E-01 -.119E-01   -.163E-13 0.486E-13 -.682E-12   -.693E-01 -.644E-01 0.144E-01   0.592E-03 -.110E-02 -.280E-02
 
 
 POSITION                                       TOTAL-FORCE (eV/Angst)
 -----------------------------------------------------------------------------------
      2.77841      5.21785      1.58925        -0.000165      0.000642      0.002999
      8.33453      5.21785      1.58910         0.000056      0.000042      0.000331
      2.77841     10.77658      1.58925        -0.002166     -0.000332      0.003444
      8.33453     10.77658      1.58910         0.000403      0.000022      0.000286
      0.00058      2.43861      1.89560         0.004313     -0.001327      0.002549
      5.55670      2.43861      1.89545         0.002469      0.000434      0.003504
      0.00058      7.99734      1.89560        -0.000005      0.000234      0.000421
      5.55670      7.99734      1.89545        -0.000043     -0.000094      0.000379
      2.78043      5.21797      8.30298         0.000266      0.000286     -0.000368
      8.33655      5.21797      8.30283        -0.000446      0.000555     -0.001391
      2.78043     10.77670      8.30298         0.001051     -0.000869     -0.002005
      8.33655     10.77670      8.30283        -0.000247     -0.000137     -0.000095
      0.00259      2.43849      8.60933        -0.000460      0.000294     -0.004507
      5.55871      2.43849      8.60919         0.000070     -0.000064     -0.000127
      0.00259      7.99722      8.60933        -0.000115     -0.000050     -0.000104
      5.55871      7.99722      8.60919        -0.000085      0.000044     -0.000318
     -1.37640      1.05960      8.18451         0.001334      0.000357      0.002133
      4.17971      1.05960      8.18437        -0.001508      0.000253      0.001797
     -1.37640      6.61833      8.18451         0.000214     -0.001001      0.000970
      4.17971      6.61833      8.18437         0.000270     -0.000079      0.000524
      1.38116      3.81753      8.18442        -0.000564     -0.001040      0.002881
      6.93728      3.81753      8.18427         0.000884      0.000019      0.001233
      1.38116      9.37626      8.18442        -0.000420      0.001794      0.001787
      6.93728      9.37626      8.18427        -0.000134     -0.000100      0.000294
      1.39985      1.03817      2.01416         0.014313      0.012323     -0.008345
      6.95597      1.03817      2.01401        -0.000703     -0.000214     -0.001733
      1.39985      6.59689      2.01416        -0.000018      0.000009     -0.001733
      6.95597      6.59689      2.01401         0.000194      0.000065     -0.000483
      4.15741      3.83897      2.01406         0.000100     -0.001740     -0.007326
      9.71353      3.83897      2.01392        -0.000334      0.000389     -0.001465
      4.15741      9.39769      2.01406         0.000413      0.000547     -0.001764
      9.71353      9.39769      2.01392        -0.000929     -0.000753     -0.000279
      1.40044      3.83812      3.78391        -0.001046      0.002402      0.003129
      6.95656      3.83812      3.78377        -0.000068      0.000034     -0.000127
      1.40044      9.39685      3.78391        -0.000233     -0.001050      0.000625
      6.95656      9.39685      3.78377         0.000167     -0.000417     -0.000136
      4.15774      1.03891      3.78384         0.002159     -0.001297      0.001346
      9.71386      1.03891      3.78369        -0.000870     -0.000010      0.000650
      4.15774      6.59764      3.78384         0.000571      0.000224     -0.000137
      9.71386      6.59764      3.78369        -0.000428      0.000396      0.000063
     -1.37674      3.81828      6.41474        -0.000838      0.000066      0.001344
      4.17938      3.81828      6.41460         0.000322      0.000360      0.001091
     -1.37674      9.37700      6.41474        -0.000098      0.000200      0.000422
      4.17938      9.37700      6.41460        -0.000088     -0.000316      0.000713
      1.38057      1.05876      6.41466        -0.000316     -0.000529      0.002396
      6.93668      1.05876      6.41452         0.000632     -0.000047      0.000977
      1.38057      6.61748      6.41466        -0.000030      0.000614      0.001339
      6.93668      6.61748      6.41452         0.000159     -0.000173      0.000245
      1.38227      3.82822      0.00001        -0.002867      0.003945     -0.006108
      6.93839      3.82822     -0.00014        -0.000591     -0.000592     -0.000178
      1.38227      9.38694      0.00001         0.000745     -0.000068     -0.000888
      6.93839      9.38694     -0.00014        -0.000748      0.000615      0.000079
      1.39874      1.04885     10.19857         0.008033     -0.006828     -0.008734
      6.95485      1.04885     10.19843        -0.000304      0.000421     -0.000916
      1.39874      6.60758     10.19857        -0.000321     -0.000395     -0.000332
      6.95485      6.60758     10.19843         0.000440     -0.000571     -0.000183
     -1.25763      1.18232      6.18371        -0.000256      0.000195     -0.001226
      4.29848      1.18232      6.18356         0.000068     -0.000407     -0.002837
     -1.25763      6.74104      6.18371        -0.000034     -0.000081     -0.000495
      4.29848      6.74104      6.18356        -0.000458      0.000088     -0.000156
      1.26131      3.69462      6.18369        -0.000018      0.000714     -0.004329
      6.81742      3.69462      6.18354         0.000116     -0.000180     -0.000341
      1.26131      9.25335      6.18369         0.000394     -0.000238     -0.000985
      6.81742      9.25335      6.18354         0.000050      0.000081     -0.000106
      1.51970      0.91526      4.01489         0.003962      0.005391     -0.010014
      7.07582      0.91526      4.01474        -0.001305     -0.000077      0.000487
      1.51970      6.47399      4.01489        -0.000572     -0.002183      0.000455
      7.07582      6.47399      4.01474        -0.000160      0.000027     -0.000112
      4.03864      3.96168      4.01487        -0.004637     -0.004093     -0.003558
      9.59476      3.96168      4.01472         0.002023     -0.000058      0.000090
      4.03864      9.52041      4.01487         0.000250      0.001563      0.000470
      9.59476      9.52041      4.01472         0.000422      0.000157     -0.000431
      0.00035      5.21813      1.57032         0.000111     -0.000136      0.003710
      5.55647      5.21813      1.57017         0.000324      0.000468      0.000552
      0.00035     10.77686      1.57032         0.003094      0.003059      0.001274
      5.55647     10.77686      1.57017         0.000779     -0.000976      0.003910
      2.78111      2.43869      1.56572        -0.026680     -0.010705      0.035431
      8.33461      2.43869      1.57522         0.000506     -0.000042      0.000446
      2.77849      7.99742      1.57537        -0.000252     -0.000069      0.000474
      8.33461      7.99742      1.57522         0.000298      0.000152      0.000782
      0.00252      5.21805      8.62321         0.000872      0.001813     -0.002436
      5.55864      5.21805      8.62307        -0.000392      0.000101     -0.000517
      0.00252     10.77678      8.62321        -0.002212     -0.002373     -0.003280
      5.55864     10.77678      8.62307         0.000445     -0.000032     -0.000287
      2.78066      2.43877      8.62826         0.002488      0.001768     -0.003685
      8.33677      2.43877      8.62811        -0.001882     -0.001295     -0.002425
      2.78066      7.99750      8.62826         0.000265     -0.000504     -0.000714
      8.33677      7.99750      8.62811        -0.000000      0.000383     -0.000313
 -----------------------------------------------------------------------------------
    total drift:                                0.000039     -0.001155     -0.000274


--------------------------------------------------------------------------------------------------------



  FREE ENERGIE OF THE ION-ELECTRON SYSTEM (eV)
  ---------------------------------------------------
  free  energy   TOTEN  =      -489.21523347 eV

  energy  without entropy=     -489.21523347  energy(sigma->0) =     -489.21523347
 


--------------------------------------------------------------------------------------------------------


    POTLOK:  cpu time    3.3323: real time    3.3417


--------------------------------------------------------------------------------------------------------


     LOOP+:  cpu time 6532.7036: real time 6596.2728
    4ORBIT:  cpu time    0.0000: real time    0.0000

 total amount of memory used by VASP MPI-rank0  1233264. kBytes
=======================================================================

   base      :      30000. kBytes
   nonl-proj :      75226. kBytes
   fftplans  :      85054. kBytes
   grid      :      64684. kBytes
   one-center:        466. kBytes
   wavefun   :     977834. kBytes
 
  
  
 General timing and accounting informations for this job:
 ========================================================
  
                  Total CPU time used (sec):     6631.064
                            User time (sec):     6561.254
                          System time (sec):       69.810
                         Elapsed time (sec):     6696.917
  
                   Maximum memory used (kb):     1436944.
                   Average memory used (kb):           0.
  
                          Minor page faults:       829650
                          Major page faults:            8
                 Voluntary context switches:        64495
