 144 144   0   0
  0.1325381E+02  0.1546422E-08  0.1214491E-08  0.1054520E-08  0.5000000E-15
  1.000000000000000E-004
  CAR 
 unknown system                          
     17.01770937    -54.87291540  301      5.09584743      1.00000000
    -54.873  0.0000E+00  0.0000E+00  0.0000E+00  0.0000E+00
    -54.633  0.0000E+00  0.0000E+00  0.0000E+00  0.0000E+00
    -54.394  0.0000E+00  0.0000E+00  0.0000E+00  0.0000E+00
    -54.154  0.0000E+00  0.0000E+00  0.0000E+00  0.0000E+00
    -53.914  0.0000E+00  0.0000E+00  0.0000E+00  0.0000E+00
    -53.675  0.0000E+00  0.0000E+00  0.0000E+00  0.0000E+00
    -53.435  0.0000E+00  0.0000E+00  0.0000E+00  0.0000E+00
    -53.195  0.0000E+00  0.0000E+00  0.0000E+00  0.0000E+00
    -52.956  0.0000E+00  0.0000E+00  0.0000E+00  0.0000E+00
    -52.716  0.0000E+00  0.0000E+00  0.0000E+00  0.0000E+00
    -52.477  0.0000E+00  0.0000E+00  0.0000E+00  0.0000E+00
    -52.237  0.0000E+00  0.0000E+00  0.0000E+00  0.0000E+00
    -51.997  0.0000E+00  0.0000E+00  0.0000E+00  0.0000E+00
    -51.758  0.2910E-03  0.0000E+00  0.6973E-04  0.0000E+00
    -51.518  0.4976E+02  0.0000E+00  0.1193E+02  0.0000E+00
    -51.278  0.8573E+02  0.0000E+00  0.3247E+02  0.0000E+00
    -51.039  0.1474E+02  0.0000E+00  0.3600E+02  0.0000E+00
    -50.799  0.0000E+00  0.0000E+00  0.3600E+02  0.0000E+00
    -50.559  0.0000E+00  0.0000E+00  0.3600E+02  0.0000E+00
    -50.320  0.1074E-03  0.0000E+00  0.3600E+02  0.0000E+00
    -50.080  0.6642E+02  0.0000E+00  0.5192E+02  0.0000E+00
    -49.841  0.2081E+03  0.0000E+00  0.1018E+03  0.0000E+00
    -49.601  0.2590E+02  0.0000E+00  0.1080E+03  0.0000E+00
    -49.361  0.0000E+00  0.0000E+00  0.1080E+03  0.0000E+00
    -49.122  0.0000E+00  0.0000E+00  0.1080E+03  0.0000E+00
    -48.882  0.0000E+00  0.0000E+00  0.1080E+03  0.0000E+00
    -48.642  0.0000E+00  0.0000E+00  0.1080E+03  0.0000E+00
    -48.403  0.0000E+00  0.0000E+00  0.1080E+03  0.0000E+00
    -48.163  0.0000E+00  0.0000E+00  0.1080E+03  0.0000E+00
    -47.923  0.0000E+00  0.0000E+00  0.1080E+03  0.0000E+00
    -47.684  0.0000E+00  0.0000E+00  0.1080E+03  0.0000E+00
    -47.444  0.0000E+00  0.0000E+00  0.1080E+03  0.0000E+00
    -47.205  0.0000E+00  0.0000E+00  0.1080E+03  0.0000E+00
    -46.965  0.0000E+00  0.6058E-01  0.1080E+03  0.1452E-01
    -46.725  0.0000E+00  0.5089E+02  0.1080E+03  0.1221E+02
    -46.486  0.0000E+00  0.9532E+02  0.1080E+03  0.3505E+02
    -46.246  0.0000E+00  0.1454E+03  0.1080E+03  0.6990E+02
    -46.006  0.0000E+00  0.1590E+03  0.1080E+03  0.1080E+03
    -45.767  0.0000E+00  0.4951E-02  0.1080E+03  0.1080E+03
    -45.527  0.0000E+00  0.0000E+00  0.1080E+03  0.1080E+03
    -45.287  0.0000E+00  0.0000E+00  0.1080E+03  0.1080E+03
    -45.048  0.0000E+00  0.0000E+00  0.1080E+03  0.1080E+03
    -44.808  0.0000E+00  0.0000E+00  0.1080E+03  0.1080E+03
    -44.569  0.0000E+00  0.0000E+00  0.1080E+03  0.1080E+03
    -44.329  0.0000E+00  0.0000E+00  0.1080E+03  0.1080E+03
    -44.089  0.0000E+00  0.0000E+00  0.1080E+03  0.1080E+03
    -43.850  0.0000E+00  0.0000E+00  0.1080E+03  0.1080E+03
    -43.610  0.0000E+00  0.0000E+00  0.1080E+03  0.1080E+03
    -43.370  0.0000E+00  0.0000E+00  0.1080E+03  0.1080E+03
    -43.131  0.0000E+00  0.0000E+00  0.1080E+03  0.1080E+03
    -42.891  0.0000E+00  0.0000E+00  0.1080E+03  0.1080E+03
    -42.652  0.0000E+00  0.0000E+00  0.1080E+03  0.1080E+03
    -42.412  0.0000E+00  0.0000E+00  0.1080E+03  0.1080E+03
    -42.172  0.0000E+00  0.0000E+00  0.1080E+03  0.1080E+03
    -41.933  0.0000E+00  0.0000E+00  0.1080E+03  0.1080E+03
    -41.693  0.0000E+00  0.0000E+00  0.1080E+03  0.1080E+03
    -41.453  0.0000E+00  0.0000E+00  0.1080E+03  0.1080E+03
    -41.214  0.0000E+00  0.0000E+00  0.1080E+03  0.1080E+03
    -40.974  0.0000E+00  0.0000E+00  0.1080E+03  0.1080E+03
    -40.734  0.1363E-08  0.4418E-09  0.1080E+03  0.1080E+03
    -40.495  0.2924E+02  0.2596E+02  0.1150E+03  0.1142E+03
    -40.255  0.4594E+02  0.4949E+02  0.1260E+03  0.1261E+03
    -40.016  0.1001E+03  0.1001E+03  0.1500E+03  0.1501E+03
    -39.776  0.2502E+02  0.2477E+02  0.1560E+03  0.1560E+03
    -39.536  0.0000E+00  0.0000E+00  0.1560E+03  0.1560E+03
    -39.297  0.0000E+00  0.0000E+00  0.1560E+03  0.1560E+03
    -39.057  0.0000E+00  0.0000E+00  0.1560E+03  0.1560E+03
    -38.817  0.0000E+00  0.0000E+00  0.1560E+03  0.1560E+03
    -38.578  0.0000E+00  0.0000E+00  0.1560E+03  0.1560E+03
    -38.338  0.0000E+00  0.0000E+00  0.1560E+03  0.1560E+03
    -38.098  0.0000E+00  0.0000E+00  0.1560E+03  0.1560E+03
    -37.859  0.0000E+00  0.0000E+00  0.1560E+03  0.1560E+03
    -37.619  0.0000E+00  0.0000E+00  0.1560E+03  0.1560E+03
    -37.380  0.0000E+00  0.0000E+00  0.1560E+03  0.1560E+03
    -37.140  0.0000E+00  0.0000E+00  0.1560E+03  0.1560E+03
    -36.900  0.0000E+00  0.0000E+00  0.1560E+03  0.1560E+03
    -36.661  0.0000E+00  0.0000E+00  0.1560E+03  0.1560E+03
    -36.421  0.0000E+00  0.0000E+00  0.1560E+03  0.1560E+03
    -36.181  0.0000E+00  0.0000E+00  0.1560E+03  0.1560E+03
    -35.942  0.0000E+00  0.0000E+00  0.1560E+03  0.1560E+03
    -35.702  0.0000E+00  0.0000E+00  0.1560E+03  0.1560E+03
    -35.462  0.0000E+00  0.0000E+00  0.1560E+03  0.1560E+03
    -35.223  0.0000E+00  0.0000E+00  0.1560E+03  0.1560E+03
    -34.983  0.0000E+00  0.0000E+00  0.1560E+03  0.1560E+03
    -34.744  0.0000E+00  0.0000E+00  0.1560E+03  0.1560E+03
    -34.504  0.0000E+00  0.0000E+00  0.1560E+03  0.1560E+03
    -34.264  0.0000E+00  0.0000E+00  0.1560E+03  0.1560E+03
    -34.025  0.0000E+00  0.0000E+00  0.1560E+03  0.1560E+03
    -33.785  0.0000E+00  0.0000E+00  0.1560E+03  0.1560E+03
    -33.545  0.0000E+00  0.0000E+00  0.1560E+03  0.1560E+03
    -33.306  0.0000E+00  0.0000E+00  0.1560E+03  0.1560E+03
    -33.066  0.0000E+00  0.0000E+00  0.1560E+03  0.1560E+03
    -32.826  0.0000E+00  0.0000E+00  0.1560E+03  0.1560E+03
    -32.587  0.0000E+00  0.0000E+00  0.1560E+03  0.1560E+03
    -32.347  0.0000E+00  0.0000E+00  0.1560E+03  0.1560E+03
    -32.108  0.0000E+00  0.0000E+00  0.1560E+03  0.1560E+03
    -31.868  0.0000E+00  0.0000E+00  0.1560E+03  0.1560E+03
    -31.628  0.0000E+00  0.0000E+00  0.1560E+03  0.1560E+03
    -31.389  0.0000E+00  0.0000E+00  0.1560E+03  0.1560E+03
    -31.149  0.0000E+00  0.0000E+00  0.1560E+03  0.1560E+03
    -30.909  0.0000E+00  0.0000E+00  0.1560E+03  0.1560E+03
    -30.670  0.0000E+00  0.0000E+00  0.1560E+03  0.1560E+03
    -30.430  0.0000E+00  0.0000E+00  0.1560E+03  0.1560E+03
    -30.190  0.0000E+00  0.0000E+00  0.1560E+03  0.1560E+03
    -29.951  0.0000E+00  0.0000E+00  0.1560E+03  0.1560E+03
    -29.711  0.0000E+00  0.0000E+00  0.1560E+03  0.1560E+03
    -29.472  0.0000E+00  0.0000E+00  0.1560E+03  0.1560E+03
    -29.232  0.0000E+00  0.0000E+00  0.1560E+03  0.1560E+03
    -28.992  0.0000E+00  0.0000E+00  0.1560E+03  0.1560E+03
    -28.753  0.0000E+00  0.0000E+00  0.1560E+03  0.1560E+03
    -28.513  0.0000E+00  0.0000E+00  0.1560E+03  0.1560E+03
    -28.273  0.0000E+00  0.0000E+00  0.1560E+03  0.1560E+03
    -28.034  0.0000E+00  0.0000E+00  0.1560E+03  0.1560E+03
    -27.794  0.0000E+00  0.0000E+00  0.1560E+03  0.1560E+03
    -27.554  0.0000E+00  0.0000E+00  0.1560E+03  0.1560E+03
    -27.315  0.0000E+00  0.0000E+00  0.1560E+03  0.1560E+03
    -27.075  0.0000E+00  0.0000E+00  0.1560E+03  0.1560E+03
    -26.836  0.0000E+00  0.0000E+00  0.1560E+03  0.1560E+03
    -26.596  0.0000E+00  0.0000E+00  0.1560E+03  0.1560E+03
    -26.356  0.0000E+00  0.0000E+00  0.1560E+03  0.1560E+03
    -26.117  0.0000E+00  0.0000E+00  0.1560E+03  0.1560E+03
    -25.877  0.0000E+00  0.0000E+00  0.1560E+03  0.1560E+03
    -25.637  0.0000E+00  0.0000E+00  0.1560E+03  0.1560E+03
    -25.398  0.0000E+00  0.0000E+00  0.1560E+03  0.1560E+03
    -25.158  0.0000E+00  0.0000E+00  0.1560E+03  0.1560E+03
    -24.918  0.0000E+00  0.0000E+00  0.1560E+03  0.1560E+03
    -24.679  0.0000E+00  0.0000E+00  0.1560E+03  0.1560E+03
    -24.439  0.0000E+00  0.0000E+00  0.1560E+03  0.1560E+03
    -24.200  0.0000E+00  0.0000E+00  0.1560E+03  0.1560E+03
    -23.960  0.0000E+00  0.0000E+00  0.1560E+03  0.1560E+03
    -23.720  0.0000E+00  0.0000E+00  0.1560E+03  0.1560E+03
    -23.481  0.0000E+00  0.0000E+00  0.1560E+03  0.1560E+03
    -23.241  0.0000E+00  0.0000E+00  0.1560E+03  0.1560E+03
    -23.001  0.0000E+00  0.0000E+00  0.1560E+03  0.1560E+03
    -22.762  0.0000E+00  0.0000E+00  0.1560E+03  0.1560E+03
    -22.522  0.0000E+00  0.0000E+00  0.1560E+03  0.1560E+03
    -22.282  0.0000E+00  0.0000E+00  0.1560E+03  0.1560E+03
    -22.043  0.0000E+00  0.0000E+00  0.1560E+03  0.1560E+03
    -21.803  0.0000E+00  0.0000E+00  0.1560E+03  0.1560E+03
    -21.564  0.0000E+00  0.0000E+00  0.1560E+03  0.1560E+03
    -21.324  0.0000E+00  0.0000E+00  0.1560E+03  0.1560E+03
    -21.084  0.0000E+00  0.0000E+00  0.1560E+03  0.1560E+03
    -20.845  0.0000E+00  0.0000E+00  0.1560E+03  0.1560E+03
    -20.605  0.0000E+00  0.0000E+00  0.1560E+03  0.1560E+03
    -20.365  0.0000E+00  0.0000E+00  0.1560E+03  0.1560E+03
    -20.126  0.0000E+00  0.0000E+00  0.1560E+03  0.1560E+03
    -19.886  0.0000E+00  0.0000E+00  0.1560E+03  0.1560E+03
    -19.647  0.0000E+00  0.0000E+00  0.1560E+03  0.1560E+03
    -19.407  0.0000E+00  0.0000E+00  0.1560E+03  0.1560E+03
    -19.167  0.0000E+00  0.0000E+00  0.1560E+03  0.1560E+03
    -18.928  0.0000E+00  0.0000E+00  0.1560E+03  0.1560E+03
    -18.688  0.0000E+00  0.0000E+00  0.1560E+03  0.1560E+03
    -18.448  0.0000E+00  0.0000E+00  0.1560E+03  0.1560E+03
    -18.209  0.0000E+00  0.0000E+00  0.1560E+03  0.1560E+03
    -17.969  0.0000E+00  0.0000E+00  0.1560E+03  0.1560E+03
    -17.729  0.0000E+00  0.0000E+00  0.1560E+03  0.1560E+03
    -17.490  0.0000E+00  0.0000E+00  0.1560E+03  0.1560E+03
    -17.250  0.0000E+00  0.0000E+00  0.1560E+03  0.1560E+03
    -17.011  0.0000E+00  0.0000E+00  0.1560E+03  0.1560E+03
    -16.771  0.0000E+00  0.0000E+00  0.1560E+03  0.1560E+03
    -16.531  0.0000E+00  0.0000E+00  0.1560E+03  0.1560E+03
    -16.292  0.0000E+00  0.0000E+00  0.1560E+03  0.1560E+03
    -16.052  0.0000E+00  0.0000E+00  0.1560E+03  0.1560E+03
    -15.812  0.0000E+00  0.0000E+00  0.1560E+03  0.1560E+03
    -15.573  0.0000E+00  0.0000E+00  0.1560E+03  0.1560E+03
    -15.333  0.0000E+00  0.0000E+00  0.1560E+03  0.1560E+03
    -15.093  0.0000E+00  0.0000E+00  0.1560E+03  0.1560E+03
    -14.854  0.0000E+00  0.0000E+00  0.1560E+03  0.1560E+03
    -14.614  0.0000E+00  0.0000E+00  0.1560E+03  0.1560E+03
    -14.375  0.0000E+00  0.0000E+00  0.1560E+03  0.1560E+03
    -14.135  0.0000E+00  0.0000E+00  0.1560E+03  0.1560E+03
    -13.895  0.1925E-02  0.0000E+00  0.1560E+03  0.1560E+03
    -13.656  0.2273E+02  0.1433E-12  0.1614E+03  0.1560E+03
    -13.416  0.2720E+02  0.2164E+01  0.1680E+03  0.1565E+03
    -13.176  0.9626E+01  0.4463E+02  0.1703E+03  0.1672E+03
    -12.937  0.3140E+02  0.4186E+01  0.1778E+03  0.1682E+03
    -12.697  0.9189E+01  0.4268E+02  0.1800E+03  0.1784E+03
    -12.457  0.0000E+00  0.6493E+01  0.1800E+03  0.1800E+03
    -12.218  0.0000E+00  0.0000E+00  0.1800E+03  0.1800E+03
    -11.978  0.0000E+00  0.0000E+00  0.1800E+03  0.1800E+03
    -11.739  0.0000E+00  0.0000E+00  0.1800E+03  0.1800E+03
    -11.499  0.0000E+00  0.0000E+00  0.1800E+03  0.1800E+03
    -11.259  0.0000E+00  0.0000E+00  0.1800E+03  0.1800E+03
    -11.020  0.0000E+00  0.0000E+00  0.1800E+03  0.1800E+03
    -10.780  0.0000E+00  0.0000E+00  0.1800E+03  0.1800E+03
    -10.540  0.0000E+00  0.0000E+00  0.1800E+03  0.1800E+03
    -10.301  0.0000E+00  0.0000E+00  0.1800E+03  0.1800E+03
    -10.061  0.0000E+00  0.0000E+00  0.1800E+03  0.1800E+03
     -9.821  0.0000E+00  0.0000E+00  0.1800E+03  0.1800E+03
     -9.582  0.0000E+00  0.0000E+00  0.1800E+03  0.1800E+03
     -9.342  0.0000E+00  0.0000E+00  0.1800E+03  0.1800E+03
     -9.103  0.0000E+00  0.0000E+00  0.1800E+03  0.1800E+03
     -8.863  0.0000E+00  0.0000E+00  0.1800E+03  0.1800E+03
     -8.623  0.0000E+00  0.0000E+00  0.1800E+03  0.1800E+03
     -8.384  0.0000E+00  0.0000E+00  0.1800E+03  0.1800E+03
     -8.144  0.0000E+00  0.0000E+00  0.1800E+03  0.1800E+03
     -7.904  0.3467E-02  0.0000E+00  0.1800E+03  0.1800E+03
     -7.665  0.9770E+01  0.2430E-01  0.1823E+03  0.1800E+03
     -7.425  0.2351E+02  0.1235E+02  0.1880E+03  0.1830E+03
     -7.185  0.5675E+02  0.2930E+02  0.2016E+03  0.1900E+03
     -6.946  0.5669E+02  0.6045E+02  0.2152E+03  0.2045E+03
     -6.706  0.3509E+01  0.4517E+02  0.2160E+03  0.2153E+03
     -6.467  0.0000E+00  0.2934E+01  0.2160E+03  0.2160E+03
     -6.227  0.0000E+00  0.0000E+00  0.2160E+03  0.2160E+03
     -5.987  0.0000E+00  0.0000E+00  0.2160E+03  0.2160E+03
     -5.748  0.0000E+00  0.0000E+00  0.2160E+03  0.2160E+03
     -5.508  0.0000E+00  0.0000E+00  0.2160E+03  0.2160E+03
     -5.268  0.0000E+00  0.0000E+00  0.2160E+03  0.2160E+03
     -5.029  0.0000E+00  0.0000E+00  0.2160E+03  0.2160E+03
     -4.789  0.0000E+00  0.0000E+00  0.2160E+03  0.2160E+03
     -4.549  0.0000E+00  0.0000E+00  0.2160E+03  0.2160E+03
     -4.310  0.0000E+00  0.0000E+00  0.2160E+03  0.2160E+03
     -4.070  0.0000E+00  0.0000E+00  0.2160E+03  0.2160E+03
     -3.831  0.0000E+00  0.0000E+00  0.2160E+03  0.2160E+03
     -3.591  0.0000E+00  0.0000E+00  0.2160E+03  0.2160E+03
     -3.351  0.0000E+00  0.0000E+00  0.2160E+03  0.2160E+03
     -3.112  0.0000E+00  0.0000E+00  0.2160E+03  0.2160E+03
     -2.872  0.5961E-13  0.0000E+00  0.2160E+03  0.2160E+03
     -2.632  0.1118E+01  0.0000E+00  0.2163E+03  0.2160E+03
     -2.393  0.1002E+02  0.0000E+00  0.2187E+03  0.2160E+03
     -2.153  0.2088E+02  0.0000E+00  0.2237E+03  0.2160E+03
     -1.913  0.1499E+01  0.0000E+00  0.2240E+03  0.2160E+03
     -1.674  0.3513E+02  0.0000E+00  0.2324E+03  0.2160E+03
     -1.434  0.2017E+02  0.1750E-14  0.2373E+03  0.2160E+03
     -1.195  0.4388E+02  0.1184E+00  0.2478E+03  0.2160E+03
     -0.955  0.5034E+02  0.4464E+01  0.2599E+03  0.2171E+03
     -0.715  0.7554E+02  0.1433E+02  0.2780E+03  0.2205E+03
     -0.476  0.1039E+03  0.1546E+02  0.3029E+03  0.2242E+03
     -0.236  0.8546E+02  0.2012E+02  0.3234E+03  0.2291E+03
      0.004  0.1105E+03  0.4111E+02  0.3498E+03  0.2389E+03
      0.243  0.6843E+02  0.3391E+02  0.3662E+03  0.2470E+03
      0.483  0.3770E+02  0.4253E+02  0.3753E+03  0.2572E+03
      0.723  0.4575E+02  0.3342E+02  0.3862E+03  0.2652E+03
      0.962  0.4867E+02  0.5378E+02  0.3979E+03  0.2781E+03
      1.202  0.5598E+02  0.5986E+02  0.4113E+03  0.2925E+03
      1.441  0.6506E+02  0.4448E+02  0.4269E+03  0.3031E+03
      1.681  0.1008E+03  0.3966E+02  0.4510E+03  0.3126E+03
      1.921  0.5092E+02  0.3867E+02  0.4632E+03  0.3219E+03
      2.160  0.3939E+02  0.3723E+02  0.4727E+03  0.3308E+03
      2.400  0.4643E+02  0.3845E+02  0.4838E+03  0.3400E+03
      2.640  0.4786E+02  0.5023E+02  0.4953E+03  0.3521E+03
      2.879  0.4330E+02  0.6245E+02  0.5057E+03  0.3670E+03
      3.119  0.4007E+02  0.5879E+02  0.5153E+03  0.3811E+03
      3.358  0.4819E+02  0.4719E+02  0.5268E+03  0.3924E+03
      3.598  0.5224E+02  0.3087E+02  0.5393E+03  0.3998E+03
      3.838  0.4497E+02  0.6231E+02  0.5501E+03  0.4148E+03
      4.077  0.3215E+02  0.7076E+02  0.5578E+03  0.4317E+03
      4.317  0.4208E+02  0.1172E+01  0.5679E+03  0.4320E+03
      4.557  0.2321E+02  0.0000E+00  0.5735E+03  0.4320E+03
      4.796  0.9890E+01  0.0000E+00  0.5758E+03  0.4320E+03
      5.036  0.7278E+00  0.0000E+00  0.5760E+03  0.4320E+03
      5.276  0.0000E+00  0.0000E+00  0.5760E+03  0.4320E+03
      5.515  0.0000E+00  0.0000E+00  0.5760E+03  0.4320E+03
      5.755  0.0000E+00  0.0000E+00  0.5760E+03  0.4320E+03
      5.994  0.0000E+00  0.1960E-10  0.5760E+03  0.4320E+03
      6.234  0.0000E+00  0.1707E+00  0.5760E+03  0.4320E+03
      6.474  0.0000E+00  0.8524E+01  0.5760E+03  0.4341E+03
      6.713  0.0000E+00  0.3080E+02  0.5760E+03  0.4415E+03
      6.953  0.3062E-11  0.4423E+02  0.5760E+03  0.4521E+03
      7.193  0.1263E+00  0.7414E+02  0.5760E+03  0.4698E+03
      7.432  0.1162E+00  0.8033E+02  0.5761E+03  0.4891E+03
      7.672  0.9661E+00  0.6551E+02  0.5763E+03  0.5048E+03
      7.912  0.3567E+01  0.8782E+02  0.5771E+03  0.5258E+03
      8.151  0.4258E+01  0.7078E+02  0.5782E+03  0.5428E+03
      8.391  0.7211E+01  0.5385E+02  0.5799E+03  0.5557E+03
      8.630  0.1673E+02  0.3733E+02  0.5839E+03  0.5646E+03
      8.870  0.2507E+02  0.3852E+02  0.5899E+03  0.5739E+03
      9.110  0.1922E+02  0.1891E+02  0.5945E+03  0.5784E+03
      9.349  0.2580E+02  0.1432E+02  0.6007E+03  0.5818E+03
      9.589  0.3154E+02  0.2060E+02  0.6083E+03  0.5868E+03
      9.829  0.2633E+02  0.3020E+02  0.6146E+03  0.5940E+03
     10.068  0.2946E+02  0.2657E+02  0.6216E+03  0.6004E+03
     10.308  0.2275E+02  0.3530E+02  0.6271E+03  0.6088E+03
     10.548  0.2038E+02  0.3481E+02  0.6320E+03  0.6172E+03
     10.787  0.2910E+02  0.2812E+02  0.6389E+03  0.6239E+03
     11.027  0.3878E+02  0.2202E+02  0.6482E+03  0.6292E+03
     11.266  0.3954E+02  0.2201E+02  0.6577E+03  0.6345E+03
     11.506  0.3709E+02  0.3242E+02  0.6666E+03  0.6422E+03
     11.746  0.4524E+02  0.3865E+02  0.6774E+03  0.6515E+03
     11.985  0.3824E+02  0.4290E+02  0.6866E+03  0.6618E+03
     12.225  0.3865E+02  0.5222E+02  0.6959E+03  0.6743E+03
     12.465  0.4003E+02  0.4638E+02  0.7054E+03  0.6854E+03
     12.704  0.3620E+02  0.3593E+02  0.7141E+03  0.6940E+03
     12.944  0.3421E+02  0.4141E+02  0.7223E+03  0.7039E+03
     13.184  0.2210E+02  0.3923E+02  0.7276E+03  0.7133E+03
     13.423  0.1598E+01  0.3447E+02  0.7280E+03  0.7216E+03
     13.663  0.0000E+00  0.2311E+02  0.7280E+03  0.7271E+03
     13.902  0.0000E+00  0.3637E+01  0.7280E+03  0.7280E+03
     14.142  0.0000E+00  0.3730E-05  0.7280E+03  0.7280E+03
     14.382  0.0000E+00  0.0000E+00  0.7280E+03  0.7280E+03
     14.621  0.0000E+00  0.0000E+00  0.7280E+03  0.7280E+03
     14.861  0.0000E+00  0.0000E+00  0.7280E+03  0.7280E+03
     15.101  0.0000E+00  0.0000E+00  0.7280E+03  0.7280E+03
     15.340  0.0000E+00  0.0000E+00  0.7280E+03  0.7280E+03
     15.580  0.0000E+00  0.0000E+00  0.7280E+03  0.7280E+03
     15.820  0.0000E+00  0.0000E+00  0.7280E+03  0.7280E+03
     16.059  0.0000E+00  0.0000E+00  0.7280E+03  0.7280E+03
     16.299  0.0000E+00  0.0000E+00  0.7280E+03  0.7280E+03
     16.538  0.0000E+00  0.0000E+00  0.7280E+03  0.7280E+03
     16.778  0.0000E+00  0.0000E+00  0.7280E+03  0.7280E+03
     17.018  0.0000E+00  0.0000E+00  0.7280E+03  0.7280E+03
