 120 120   0   0
  0.1228332E+02  0.1173587E-08  0.1121847E-08  0.1119562E-08  0.5000000E-15
  1.000000000000000E-004
  CAR 
 unknown system                          
     16.72067645    -54.73140406  301      4.39519256      1.00000000
    -54.731  0.0000E+00  0.0000E+00  0.0000E+00  0.0000E+00
    -54.493  0.0000E+00  0.0000E+00  0.0000E+00  0.0000E+00
    -54.255  0.0000E+00  0.0000E+00  0.0000E+00  0.0000E+00
    -54.017  0.0000E+00  0.0000E+00  0.0000E+00  0.0000E+00
    -53.779  0.0000E+00  0.0000E+00  0.0000E+00  0.0000E+00
    -53.541  0.0000E+00  0.0000E+00  0.0000E+00  0.0000E+00
    -53.302  0.0000E+00  0.0000E+00  0.0000E+00  0.0000E+00
    -53.064  0.0000E+00  0.0000E+00  0.0000E+00  0.0000E+00
    -52.826  0.0000E+00  0.0000E+00  0.0000E+00  0.0000E+00
    -52.588  0.0000E+00  0.0000E+00  0.0000E+00  0.0000E+00
    -52.350  0.0000E+00  0.0000E+00  0.0000E+00  0.0000E+00
    -52.111  0.0000E+00  0.0000E+00  0.0000E+00  0.0000E+00
    -51.873  0.0000E+00  0.0000E+00  0.0000E+00  0.0000E+00
    -51.635  0.2268E-03  0.0000E+00  0.5401E-04  0.0000E+00
    -51.397  0.9770E+02  0.0000E+00  0.2327E+02  0.0000E+00
    -51.159  0.3071E+01  0.0000E+00  0.2400E+02  0.0000E+00
    -50.921  0.0000E+00  0.0000E+00  0.2400E+02  0.0000E+00
    -50.682  0.0000E+00  0.0000E+00  0.2400E+02  0.0000E+00
    -50.444  0.2022E-09  0.0000E+00  0.2400E+02  0.0000E+00
    -50.206  0.4191E+02  0.0000E+00  0.3398E+02  0.0000E+00
    -49.968  0.1321E+03  0.0000E+00  0.6546E+02  0.0000E+00
    -49.730  0.2747E+02  0.0000E+00  0.7200E+02  0.0000E+00
    -49.492  0.0000E+00  0.0000E+00  0.7200E+02  0.0000E+00
    -49.253  0.0000E+00  0.0000E+00  0.7200E+02  0.0000E+00
    -49.015  0.0000E+00  0.0000E+00  0.7200E+02  0.0000E+00
    -48.777  0.0000E+00  0.0000E+00  0.7200E+02  0.0000E+00
    -48.539  0.0000E+00  0.0000E+00  0.7200E+02  0.0000E+00
    -48.301  0.0000E+00  0.0000E+00  0.7200E+02  0.0000E+00
    -48.063  0.0000E+00  0.0000E+00  0.7200E+02  0.0000E+00
    -47.824  0.0000E+00  0.0000E+00  0.7200E+02  0.0000E+00
    -47.586  0.0000E+00  0.0000E+00  0.7200E+02  0.0000E+00
    -47.348  0.0000E+00  0.0000E+00  0.7200E+02  0.0000E+00
    -47.110  0.0000E+00  0.0000E+00  0.7200E+02  0.0000E+00
    -46.872  0.0000E+00  0.5368E-01  0.7200E+02  0.1278E-01
    -46.634  0.0000E+00  0.1006E+03  0.7200E+02  0.2397E+02
    -46.395  0.0000E+00  0.9347E+02  0.7200E+02  0.4623E+02
    -46.157  0.0000E+00  0.1082E+03  0.7200E+02  0.7200E+02
    -45.919  0.0000E+00  0.0000E+00  0.7200E+02  0.7200E+02
    -45.681  0.0000E+00  0.0000E+00  0.7200E+02  0.7200E+02
    -45.443  0.0000E+00  0.0000E+00  0.7200E+02  0.7200E+02
    -45.204  0.0000E+00  0.0000E+00  0.7200E+02  0.7200E+02
    -44.966  0.0000E+00  0.0000E+00  0.7200E+02  0.7200E+02
    -44.728  0.0000E+00  0.0000E+00  0.7200E+02  0.7200E+02
    -44.490  0.0000E+00  0.0000E+00  0.7200E+02  0.7200E+02
    -44.252  0.0000E+00  0.0000E+00  0.7200E+02  0.7200E+02
    -44.014  0.0000E+00  0.0000E+00  0.7200E+02  0.7200E+02
    -43.775  0.0000E+00  0.0000E+00  0.7200E+02  0.7200E+02
    -43.537  0.0000E+00  0.0000E+00  0.7200E+02  0.7200E+02
    -43.299  0.0000E+00  0.0000E+00  0.7200E+02  0.7200E+02
    -43.061  0.0000E+00  0.0000E+00  0.7200E+02  0.7200E+02
    -42.823  0.0000E+00  0.0000E+00  0.7200E+02  0.7200E+02
    -42.585  0.0000E+00  0.0000E+00  0.7200E+02  0.7200E+02
    -42.346  0.0000E+00  0.0000E+00  0.7200E+02  0.7200E+02
    -42.108  0.0000E+00  0.0000E+00  0.7200E+02  0.7200E+02
    -41.870  0.0000E+00  0.0000E+00  0.7200E+02  0.7200E+02
    -41.632  0.0000E+00  0.0000E+00  0.7200E+02  0.7200E+02
    -41.394  0.0000E+00  0.0000E+00  0.7200E+02  0.7200E+02
    -41.156  0.0000E+00  0.0000E+00  0.7200E+02  0.7200E+02
    -40.917  0.0000E+00  0.0000E+00  0.7200E+02  0.7200E+02
    -40.679  0.2015E-03  0.6105E-04  0.7200E+02  0.7200E+02
    -40.441  0.9861E+02  0.9702E+02  0.9549E+02  0.9511E+02
    -40.203  0.1027E+03  0.1043E+03  0.1200E+03  0.1200E+03
    -39.965  0.1843E+00  0.1887E+00  0.1200E+03  0.1200E+03
    -39.726  0.0000E+00  0.0000E+00  0.1200E+03  0.1200E+03
    -39.488  0.0000E+00  0.0000E+00  0.1200E+03  0.1200E+03
    -39.250  0.0000E+00  0.0000E+00  0.1200E+03  0.1200E+03
    -39.012  0.0000E+00  0.0000E+00  0.1200E+03  0.1200E+03
    -38.774  0.0000E+00  0.0000E+00  0.1200E+03  0.1200E+03
    -38.536  0.0000E+00  0.0000E+00  0.1200E+03  0.1200E+03
    -38.297  0.0000E+00  0.0000E+00  0.1200E+03  0.1200E+03
    -38.059  0.0000E+00  0.0000E+00  0.1200E+03  0.1200E+03
    -37.821  0.0000E+00  0.0000E+00  0.1200E+03  0.1200E+03
    -37.583  0.0000E+00  0.0000E+00  0.1200E+03  0.1200E+03
    -37.345  0.0000E+00  0.0000E+00  0.1200E+03  0.1200E+03
    -37.107  0.0000E+00  0.0000E+00  0.1200E+03  0.1200E+03
    -36.868  0.0000E+00  0.0000E+00  0.1200E+03  0.1200E+03
    -36.630  0.0000E+00  0.0000E+00  0.1200E+03  0.1200E+03
    -36.392  0.0000E+00  0.0000E+00  0.1200E+03  0.1200E+03
    -36.154  0.0000E+00  0.0000E+00  0.1200E+03  0.1200E+03
    -35.916  0.0000E+00  0.0000E+00  0.1200E+03  0.1200E+03
    -35.678  0.0000E+00  0.0000E+00  0.1200E+03  0.1200E+03
    -35.439  0.0000E+00  0.0000E+00  0.1200E+03  0.1200E+03
    -35.201  0.0000E+00  0.0000E+00  0.1200E+03  0.1200E+03
    -34.963  0.0000E+00  0.0000E+00  0.1200E+03  0.1200E+03
    -34.725  0.0000E+00  0.0000E+00  0.1200E+03  0.1200E+03
    -34.487  0.0000E+00  0.0000E+00  0.1200E+03  0.1200E+03
    -34.248  0.0000E+00  0.0000E+00  0.1200E+03  0.1200E+03
    -34.010  0.0000E+00  0.0000E+00  0.1200E+03  0.1200E+03
    -33.772  0.0000E+00  0.0000E+00  0.1200E+03  0.1200E+03
    -33.534  0.0000E+00  0.0000E+00  0.1200E+03  0.1200E+03
    -33.296  0.0000E+00  0.0000E+00  0.1200E+03  0.1200E+03
    -33.058  0.0000E+00  0.0000E+00  0.1200E+03  0.1200E+03
    -32.819  0.0000E+00  0.0000E+00  0.1200E+03  0.1200E+03
    -32.581  0.0000E+00  0.0000E+00  0.1200E+03  0.1200E+03
    -32.343  0.0000E+00  0.0000E+00  0.1200E+03  0.1200E+03
    -32.105  0.0000E+00  0.0000E+00  0.1200E+03  0.1200E+03
    -31.867  0.0000E+00  0.0000E+00  0.1200E+03  0.1200E+03
    -31.629  0.0000E+00  0.0000E+00  0.1200E+03  0.1200E+03
    -31.390  0.0000E+00  0.0000E+00  0.1200E+03  0.1200E+03
    -31.152  0.0000E+00  0.0000E+00  0.1200E+03  0.1200E+03
    -30.914  0.0000E+00  0.0000E+00  0.1200E+03  0.1200E+03
    -30.676  0.0000E+00  0.0000E+00  0.1200E+03  0.1200E+03
    -30.438  0.0000E+00  0.0000E+00  0.1200E+03  0.1200E+03
    -30.200  0.0000E+00  0.0000E+00  0.1200E+03  0.1200E+03
    -29.961  0.0000E+00  0.0000E+00  0.1200E+03  0.1200E+03
    -29.723  0.0000E+00  0.0000E+00  0.1200E+03  0.1200E+03
    -29.485  0.0000E+00  0.0000E+00  0.1200E+03  0.1200E+03
    -29.247  0.0000E+00  0.0000E+00  0.1200E+03  0.1200E+03
    -29.009  0.0000E+00  0.0000E+00  0.1200E+03  0.1200E+03
    -28.770  0.0000E+00  0.0000E+00  0.1200E+03  0.1200E+03
    -28.532  0.0000E+00  0.0000E+00  0.1200E+03  0.1200E+03
    -28.294  0.0000E+00  0.0000E+00  0.1200E+03  0.1200E+03
    -28.056  0.0000E+00  0.0000E+00  0.1200E+03  0.1200E+03
    -27.818  0.0000E+00  0.0000E+00  0.1200E+03  0.1200E+03
    -27.580  0.0000E+00  0.0000E+00  0.1200E+03  0.1200E+03
    -27.341  0.0000E+00  0.0000E+00  0.1200E+03  0.1200E+03
    -27.103  0.0000E+00  0.0000E+00  0.1200E+03  0.1200E+03
    -26.865  0.0000E+00  0.0000E+00  0.1200E+03  0.1200E+03
    -26.627  0.0000E+00  0.0000E+00  0.1200E+03  0.1200E+03
    -26.389  0.0000E+00  0.0000E+00  0.1200E+03  0.1200E+03
    -26.151  0.0000E+00  0.0000E+00  0.1200E+03  0.1200E+03
    -25.912  0.0000E+00  0.0000E+00  0.1200E+03  0.1200E+03
    -25.674  0.0000E+00  0.0000E+00  0.1200E+03  0.1200E+03
    -25.436  0.0000E+00  0.0000E+00  0.1200E+03  0.1200E+03
    -25.198  0.0000E+00  0.0000E+00  0.1200E+03  0.1200E+03
    -24.960  0.0000E+00  0.0000E+00  0.1200E+03  0.1200E+03
    -24.722  0.0000E+00  0.0000E+00  0.1200E+03  0.1200E+03
    -24.483  0.0000E+00  0.0000E+00  0.1200E+03  0.1200E+03
    -24.245  0.0000E+00  0.0000E+00  0.1200E+03  0.1200E+03
    -24.007  0.0000E+00  0.0000E+00  0.1200E+03  0.1200E+03
    -23.769  0.0000E+00  0.0000E+00  0.1200E+03  0.1200E+03
    -23.531  0.0000E+00  0.0000E+00  0.1200E+03  0.1200E+03
    -23.292  0.0000E+00  0.0000E+00  0.1200E+03  0.1200E+03
    -23.054  0.0000E+00  0.0000E+00  0.1200E+03  0.1200E+03
    -22.816  0.0000E+00  0.0000E+00  0.1200E+03  0.1200E+03
    -22.578  0.0000E+00  0.0000E+00  0.1200E+03  0.1200E+03
    -22.340  0.0000E+00  0.0000E+00  0.1200E+03  0.1200E+03
    -22.102  0.0000E+00  0.0000E+00  0.1200E+03  0.1200E+03
    -21.863  0.0000E+00  0.0000E+00  0.1200E+03  0.1200E+03
    -21.625  0.0000E+00  0.0000E+00  0.1200E+03  0.1200E+03
    -21.387  0.0000E+00  0.0000E+00  0.1200E+03  0.1200E+03
    -21.149  0.0000E+00  0.0000E+00  0.1200E+03  0.1200E+03
    -20.911  0.0000E+00  0.0000E+00  0.1200E+03  0.1200E+03
    -20.673  0.0000E+00  0.0000E+00  0.1200E+03  0.1200E+03
    -20.434  0.0000E+00  0.0000E+00  0.1200E+03  0.1200E+03
    -20.196  0.0000E+00  0.0000E+00  0.1200E+03  0.1200E+03
    -19.958  0.0000E+00  0.0000E+00  0.1200E+03  0.1200E+03
    -19.720  0.0000E+00  0.0000E+00  0.1200E+03  0.1200E+03
    -19.482  0.0000E+00  0.0000E+00  0.1200E+03  0.1200E+03
    -19.244  0.0000E+00  0.0000E+00  0.1200E+03  0.1200E+03
    -19.005  0.0000E+00  0.0000E+00  0.1200E+03  0.1200E+03
    -18.767  0.0000E+00  0.0000E+00  0.1200E+03  0.1200E+03
    -18.529  0.0000E+00  0.0000E+00  0.1200E+03  0.1200E+03
    -18.291  0.0000E+00  0.0000E+00  0.1200E+03  0.1200E+03
    -18.053  0.0000E+00  0.0000E+00  0.1200E+03  0.1200E+03
    -17.814  0.0000E+00  0.0000E+00  0.1200E+03  0.1200E+03
    -17.576  0.0000E+00  0.0000E+00  0.1200E+03  0.1200E+03
    -17.338  0.0000E+00  0.0000E+00  0.1200E+03  0.1200E+03
    -17.100  0.0000E+00  0.0000E+00  0.1200E+03  0.1200E+03
    -16.862  0.0000E+00  0.0000E+00  0.1200E+03  0.1200E+03
    -16.624  0.0000E+00  0.0000E+00  0.1200E+03  0.1200E+03
    -16.385  0.0000E+00  0.0000E+00  0.1200E+03  0.1200E+03
    -16.147  0.0000E+00  0.0000E+00  0.1200E+03  0.1200E+03
    -15.909  0.0000E+00  0.0000E+00  0.1200E+03  0.1200E+03
    -15.671  0.0000E+00  0.0000E+00  0.1200E+03  0.1200E+03
    -15.433  0.0000E+00  0.0000E+00  0.1200E+03  0.1200E+03
    -15.195  0.0000E+00  0.0000E+00  0.1200E+03  0.1200E+03
    -14.956  0.0000E+00  0.0000E+00  0.1200E+03  0.1200E+03
    -14.718  0.0000E+00  0.0000E+00  0.1200E+03  0.1200E+03
    -14.480  0.0000E+00  0.0000E+00  0.1200E+03  0.1200E+03
    -14.242  0.0000E+00  0.0000E+00  0.1200E+03  0.1200E+03
    -14.004  0.0000E+00  0.0000E+00  0.1200E+03  0.1200E+03
    -13.766  0.4442E-09  0.0000E+00  0.1200E+03  0.1200E+03
    -13.527  0.7391E+01  0.3453E-16  0.1218E+03  0.1200E+03
    -13.289  0.5979E+02  0.2130E+00  0.1360E+03  0.1201E+03
    -13.051  0.3359E+02  0.6491E+02  0.1440E+03  0.1355E+03
    -12.813  0.5521E-03  0.3565E+02  0.1440E+03  0.1440E+03
    -12.575  0.0000E+00  0.8003E-04  0.1440E+03  0.1440E+03
    -12.337  0.0000E+00  0.0000E+00  0.1440E+03  0.1440E+03
    -12.098  0.0000E+00  0.0000E+00  0.1440E+03  0.1440E+03
    -11.860  0.0000E+00  0.0000E+00  0.1440E+03  0.1440E+03
    -11.622  0.0000E+00  0.0000E+00  0.1440E+03  0.1440E+03
    -11.384  0.0000E+00  0.0000E+00  0.1440E+03  0.1440E+03
    -11.146  0.0000E+00  0.0000E+00  0.1440E+03  0.1440E+03
    -10.907  0.0000E+00  0.0000E+00  0.1440E+03  0.1440E+03
    -10.669  0.0000E+00  0.0000E+00  0.1440E+03  0.1440E+03
    -10.431  0.0000E+00  0.0000E+00  0.1440E+03  0.1440E+03
    -10.193  0.0000E+00  0.0000E+00  0.1440E+03  0.1440E+03
     -9.955  0.0000E+00  0.0000E+00  0.1440E+03  0.1440E+03
     -9.717  0.0000E+00  0.0000E+00  0.1440E+03  0.1440E+03
     -9.478  0.0000E+00  0.0000E+00  0.1440E+03  0.1440E+03
     -9.240  0.0000E+00  0.0000E+00  0.1440E+03  0.1440E+03
     -9.002  0.0000E+00  0.0000E+00  0.1440E+03  0.1440E+03
     -8.764  0.0000E+00  0.0000E+00  0.1440E+03  0.1440E+03
     -8.526  0.0000E+00  0.0000E+00  0.1440E+03  0.1440E+03
     -8.288  0.0000E+00  0.0000E+00  0.1440E+03  0.1440E+03
     -8.049  0.0000E+00  0.0000E+00  0.1440E+03  0.1440E+03
     -7.811  0.6643E-02  0.5179E-16  0.1440E+03  0.1440E+03
     -7.573  0.1743E+02  0.8320E-01  0.1482E+03  0.1440E+03
     -7.335  0.4741E+02  0.2766E+02  0.1594E+03  0.1506E+03
     -7.097  0.3482E+02  0.4937E+02  0.1677E+03  0.1624E+03
     -6.859  0.1103E+01  0.2282E+02  0.1680E+03  0.1678E+03
     -6.620  0.0000E+00  0.8332E+00  0.1680E+03  0.1680E+03
     -6.382  0.0000E+00  0.0000E+00  0.1680E+03  0.1680E+03
     -6.144  0.0000E+00  0.0000E+00  0.1680E+03  0.1680E+03
     -5.906  0.0000E+00  0.0000E+00  0.1680E+03  0.1680E+03
     -5.668  0.0000E+00  0.0000E+00  0.1680E+03  0.1680E+03
     -5.429  0.0000E+00  0.0000E+00  0.1680E+03  0.1680E+03
     -5.191  0.0000E+00  0.0000E+00  0.1680E+03  0.1680E+03
     -4.953  0.0000E+00  0.0000E+00  0.1680E+03  0.1680E+03
     -4.715  0.0000E+00  0.0000E+00  0.1680E+03  0.1680E+03
     -4.477  0.0000E+00  0.0000E+00  0.1680E+03  0.1680E+03
     -4.239  0.0000E+00  0.0000E+00  0.1680E+03  0.1680E+03
     -4.000  0.0000E+00  0.0000E+00  0.1680E+03  0.1680E+03
     -3.762  0.0000E+00  0.0000E+00  0.1680E+03  0.1680E+03
     -3.524  0.0000E+00  0.0000E+00  0.1680E+03  0.1680E+03
     -3.286  0.0000E+00  0.0000E+00  0.1680E+03  0.1680E+03
     -3.048  0.0000E+00  0.0000E+00  0.1680E+03  0.1680E+03
     -2.810  0.0000E+00  0.0000E+00  0.1680E+03  0.1680E+03
     -2.571  0.0000E+00  0.0000E+00  0.1680E+03  0.1680E+03
     -2.333  0.0000E+00  0.0000E+00  0.1680E+03  0.1680E+03
     -2.095  0.7645E-06  0.0000E+00  0.1680E+03  0.1680E+03
     -1.857  0.6788E+01  0.0000E+00  0.1696E+03  0.1680E+03
     -1.619  0.5703E+02  0.0000E+00  0.1832E+03  0.1680E+03
     -1.381  0.4323E+02  0.0000E+00  0.1935E+03  0.1680E+03
     -1.142  0.3205E+02  0.0000E+00  0.2011E+03  0.1680E+03
     -0.904  0.5293E+02  0.5928E-09  0.2137E+03  0.1680E+03
     -0.666  0.5383E+02  0.1474E+01  0.2266E+03  0.1684E+03
     -0.428  0.6621E+02  0.1653E+02  0.2423E+03  0.1723E+03
     -0.190  0.5560E+02  0.3855E+02  0.2556E+03  0.1815E+03
      0.049  0.3412E+02  0.3595E+02  0.2637E+03  0.1900E+03
      0.287  0.5466E+02  0.2176E+02  0.2767E+03  0.1952E+03
      0.525  0.4830E+02  0.4859E+02  0.2882E+03  0.2068E+03
      0.763  0.3257E+02  0.4815E+02  0.2960E+03  0.2183E+03
      1.001  0.4971E+02  0.6824E+02  0.3078E+03  0.2345E+03
      1.239  0.4802E+02  0.2792E+02  0.3193E+03  0.2412E+03
      1.478  0.5468E+02  0.2225E+02  0.3323E+03  0.2465E+03
      1.716  0.6191E+02  0.3748E+02  0.3470E+03  0.2554E+03
      1.954  0.3505E+02  0.4609E+02  0.3554E+03  0.2664E+03
      2.192  0.2516E+02  0.3003E+02  0.3614E+03  0.2735E+03
      2.430  0.1314E+02  0.3590E+02  0.3645E+03  0.2821E+03
      2.668  0.3759E+02  0.2527E+02  0.3734E+03  0.2881E+03
      2.907  0.3843E+02  0.4562E+02  0.3826E+03  0.2990E+03
      3.145  0.3004E+02  0.4186E+02  0.3898E+03  0.3089E+03
      3.383  0.4340E+02  0.1539E+02  0.4001E+03  0.3126E+03
      3.621  0.5303E+02  0.2881E+02  0.4127E+03  0.3194E+03
      3.859  0.4805E+02  0.5777E+02  0.4242E+03  0.3332E+03
      4.097  0.3029E+02  0.1173E+02  0.4314E+03  0.3360E+03
      4.336  0.2606E+01  0.2719E-04  0.4320E+03  0.3360E+03
      4.574  0.0000E+00  0.0000E+00  0.4320E+03  0.3360E+03
      4.812  0.0000E+00  0.0000E+00  0.4320E+03  0.3360E+03
      5.050  0.0000E+00  0.0000E+00  0.4320E+03  0.3360E+03
      5.288  0.0000E+00  0.0000E+00  0.4320E+03  0.3360E+03
      5.527  0.0000E+00  0.0000E+00  0.4320E+03  0.3360E+03
      5.765  0.0000E+00  0.0000E+00  0.4320E+03  0.3360E+03
      6.003  0.0000E+00  0.1859E-02  0.4320E+03  0.3360E+03
      6.241  0.0000E+00  0.1755E+01  0.4320E+03  0.3364E+03
      6.479  0.0000E+00  0.1291E+02  0.4320E+03  0.3395E+03
      6.717  0.0000E+00  0.2679E+02  0.4320E+03  0.3459E+03
      6.956  0.0000E+00  0.2484E+02  0.4320E+03  0.3518E+03
      7.194  0.2667E-05  0.5559E+02  0.4320E+03  0.3650E+03
      7.432  0.1548E+00  0.7723E+02  0.4320E+03  0.3834E+03
      7.670  0.6618E+00  0.2990E+02  0.4322E+03  0.3905E+03
      7.908  0.1406E+01  0.4079E+02  0.4325E+03  0.4003E+03
      8.146  0.4765E+01  0.7646E+02  0.4337E+03  0.4185E+03
      8.385  0.6746E+01  0.5279E+02  0.4353E+03  0.4310E+03
      8.623  0.1578E+02  0.4408E+01  0.4390E+03  0.4321E+03
      8.861  0.2361E+02  0.1044E+01  0.4447E+03  0.4323E+03
      9.099  0.1955E+02  0.4394E+01  0.4493E+03  0.4334E+03
      9.337  0.1942E+02  0.1021E+02  0.4539E+03  0.4358E+03
      9.575  0.2004E+02  0.2036E+02  0.4587E+03  0.4407E+03
      9.814  0.2432E+02  0.2865E+02  0.4645E+03  0.4475E+03
     10.052  0.2224E+02  0.2999E+02  0.4698E+03  0.4546E+03
     10.290  0.1770E+02  0.3037E+02  0.4740E+03  0.4619E+03
     10.528  0.2442E+02  0.2586E+02  0.4798E+03  0.4680E+03
     10.766  0.1563E+02  0.2605E+02  0.4835E+03  0.4742E+03
     11.005  0.2637E+02  0.2484E+02  0.4898E+03  0.4801E+03
     11.243  0.4524E+02  0.1001E+02  0.5006E+03  0.4825E+03
     11.481  0.4882E+02  0.2542E+02  0.5122E+03  0.4886E+03
     11.719  0.3591E+02  0.2935E+02  0.5208E+03  0.4956E+03
     11.957  0.2021E+02  0.5708E+02  0.5256E+03  0.5092E+03
     12.195  0.2096E+02  0.4471E+02  0.5306E+03  0.5198E+03
     12.434  0.2921E+02  0.2721E+02  0.5375E+03  0.5263E+03
     12.672  0.3322E+02  0.2351E+02  0.5455E+03  0.5319E+03
     12.910  0.1970E+02  0.2797E+02  0.5502E+03  0.5386E+03
     13.148  0.7663E+01  0.3286E+02  0.5520E+03  0.5464E+03
     13.386  0.8712E-01  0.1957E+02  0.5520E+03  0.5511E+03
     13.624  0.0000E+00  0.3983E+01  0.5520E+03  0.5520E+03
     13.863  0.0000E+00  0.5283E-05  0.5520E+03  0.5520E+03
     14.101  0.0000E+00  0.0000E+00  0.5520E+03  0.5520E+03
     14.339  0.0000E+00  0.0000E+00  0.5520E+03  0.5520E+03
     14.577  0.0000E+00  0.0000E+00  0.5520E+03  0.5520E+03
     14.815  0.0000E+00  0.0000E+00  0.5520E+03  0.5520E+03
     15.053  0.0000E+00  0.0000E+00  0.5520E+03  0.5520E+03
     15.292  0.0000E+00  0.0000E+00  0.5520E+03  0.5520E+03
     15.530  0.0000E+00  0.0000E+00  0.5520E+03  0.5520E+03
     15.768  0.0000E+00  0.0000E+00  0.5520E+03  0.5520E+03
     16.006  0.0000E+00  0.0000E+00  0.5520E+03  0.5520E+03
     16.244  0.0000E+00  0.0000E+00  0.5520E+03  0.5520E+03
     16.483  0.0000E+00  0.0000E+00  0.5520E+03  0.5520E+03
     16.721  0.0000E+00  0.0000E+00  0.5520E+03  0.5520E+03
