 160 160   0   0
  0.1218736E+02  0.1542482E-08  0.1121024E-08  0.1127703E-08  0.5000000E-15
  1.000000000000000E-004
  CAR 
 unknown system                          
     16.85804633    -54.75671450  301      4.95209235      1.00000000
    -54.757  0.0000E+00  0.0000E+00  0.0000E+00  0.0000E+00
    -54.518  0.0000E+00  0.0000E+00  0.0000E+00  0.0000E+00
    -54.279  0.0000E+00  0.0000E+00  0.0000E+00  0.0000E+00
    -54.041  0.0000E+00  0.0000E+00  0.0000E+00  0.0000E+00
    -53.802  0.0000E+00  0.0000E+00  0.0000E+00  0.0000E+00
    -53.563  0.0000E+00  0.0000E+00  0.0000E+00  0.0000E+00
    -53.324  0.0000E+00  0.0000E+00  0.0000E+00  0.0000E+00
    -53.086  0.0000E+00  0.0000E+00  0.0000E+00  0.0000E+00
    -52.847  0.0000E+00  0.0000E+00  0.0000E+00  0.0000E+00
    -52.608  0.0000E+00  0.0000E+00  0.0000E+00  0.0000E+00
    -52.370  0.0000E+00  0.0000E+00  0.0000E+00  0.0000E+00
    -52.131  0.0000E+00  0.0000E+00  0.0000E+00  0.0000E+00
    -51.892  0.0000E+00  0.0000E+00  0.0000E+00  0.0000E+00
    -51.653  0.1752E-03  0.0000E+00  0.4183E-04  0.0000E+00
    -51.415  0.1310E+03  0.0000E+00  0.3128E+02  0.0000E+00
    -51.176  0.3020E+01  0.0000E+00  0.3200E+02  0.0000E+00
    -50.937  0.0000E+00  0.0000E+00  0.3200E+02  0.0000E+00
    -50.699  0.0000E+00  0.0000E+00  0.3200E+02  0.0000E+00
    -50.460  0.0000E+00  0.0000E+00  0.3200E+02  0.0000E+00
    -50.221  0.2541E-01  0.0000E+00  0.3201E+02  0.0000E+00
    -49.982  0.2634E+03  0.0000E+00  0.9487E+02  0.0000E+00
    -49.744  0.4720E+01  0.0000E+00  0.9600E+02  0.0000E+00
    -49.505  0.0000E+00  0.0000E+00  0.9600E+02  0.0000E+00
    -49.266  0.0000E+00  0.0000E+00  0.9600E+02  0.0000E+00
    -49.028  0.0000E+00  0.0000E+00  0.9600E+02  0.0000E+00
    -48.789  0.0000E+00  0.0000E+00  0.9600E+02  0.0000E+00
    -48.550  0.0000E+00  0.0000E+00  0.9600E+02  0.0000E+00
    -48.311  0.0000E+00  0.0000E+00  0.9600E+02  0.0000E+00
    -48.073  0.0000E+00  0.0000E+00  0.9600E+02  0.0000E+00
    -47.834  0.0000E+00  0.0000E+00  0.9600E+02  0.0000E+00
    -47.595  0.0000E+00  0.0000E+00  0.9600E+02  0.0000E+00
    -47.357  0.0000E+00  0.0000E+00  0.9600E+02  0.0000E+00
    -47.118  0.0000E+00  0.0000E+00  0.9600E+02  0.0000E+00
    -46.879  0.0000E+00  0.7673E-02  0.9600E+02  0.1832E-02
    -46.640  0.0000E+00  0.1338E+03  0.9600E+02  0.3193E+02
    -46.402  0.0000E+00  0.3615E+02  0.9600E+02  0.4056E+02
    -46.163  0.0000E+00  0.2322E+03  0.9600E+02  0.9600E+02
    -45.924  0.0000E+00  0.0000E+00  0.9600E+02  0.9600E+02
    -45.686  0.0000E+00  0.0000E+00  0.9600E+02  0.9600E+02
    -45.447  0.0000E+00  0.0000E+00  0.9600E+02  0.9600E+02
    -45.208  0.0000E+00  0.0000E+00  0.9600E+02  0.9600E+02
    -44.969  0.0000E+00  0.0000E+00  0.9600E+02  0.9600E+02
    -44.731  0.0000E+00  0.0000E+00  0.9600E+02  0.9600E+02
    -44.492  0.0000E+00  0.0000E+00  0.9600E+02  0.9600E+02
    -44.253  0.0000E+00  0.0000E+00  0.9600E+02  0.9600E+02
    -44.015  0.0000E+00  0.0000E+00  0.9600E+02  0.9600E+02
    -43.776  0.0000E+00  0.0000E+00  0.9600E+02  0.9600E+02
    -43.537  0.0000E+00  0.0000E+00  0.9600E+02  0.9600E+02
    -43.298  0.0000E+00  0.0000E+00  0.9600E+02  0.9600E+02
    -43.060  0.0000E+00  0.0000E+00  0.9600E+02  0.9600E+02
    -42.821  0.0000E+00  0.0000E+00  0.9600E+02  0.9600E+02
    -42.582  0.0000E+00  0.0000E+00  0.9600E+02  0.9600E+02
    -42.343  0.0000E+00  0.0000E+00  0.9600E+02  0.9600E+02
    -42.105  0.0000E+00  0.0000E+00  0.9600E+02  0.9600E+02
    -41.866  0.0000E+00  0.0000E+00  0.9600E+02  0.9600E+02
    -41.627  0.0000E+00  0.0000E+00  0.9600E+02  0.9600E+02
    -41.389  0.0000E+00  0.0000E+00  0.9600E+02  0.9600E+02
    -41.150  0.0000E+00  0.0000E+00  0.9600E+02  0.9600E+02
    -40.911  0.0000E+00  0.0000E+00  0.9600E+02  0.9600E+02
    -40.672  0.0000E+00  0.0000E+00  0.9600E+02  0.9600E+02
    -40.434  0.3162E+00  0.2782E+00  0.9608E+02  0.9607E+02
    -40.195  0.2339E+03  0.2359E+03  0.1519E+03  0.1524E+03
    -39.956  0.3387E+02  0.3189E+02  0.1600E+03  0.1600E+03
    -39.718  0.0000E+00  0.0000E+00  0.1600E+03  0.1600E+03
    -39.479  0.0000E+00  0.0000E+00  0.1600E+03  0.1600E+03
    -39.240  0.0000E+00  0.0000E+00  0.1600E+03  0.1600E+03
    -39.001  0.0000E+00  0.0000E+00  0.1600E+03  0.1600E+03
    -38.763  0.0000E+00  0.0000E+00  0.1600E+03  0.1600E+03
    -38.524  0.0000E+00  0.0000E+00  0.1600E+03  0.1600E+03
    -38.285  0.0000E+00  0.0000E+00  0.1600E+03  0.1600E+03
    -38.047  0.0000E+00  0.0000E+00  0.1600E+03  0.1600E+03
    -37.808  0.0000E+00  0.0000E+00  0.1600E+03  0.1600E+03
    -37.569  0.0000E+00  0.0000E+00  0.1600E+03  0.1600E+03
    -37.330  0.0000E+00  0.0000E+00  0.1600E+03  0.1600E+03
    -37.092  0.0000E+00  0.0000E+00  0.1600E+03  0.1600E+03
    -36.853  0.0000E+00  0.0000E+00  0.1600E+03  0.1600E+03
    -36.614  0.0000E+00  0.0000E+00  0.1600E+03  0.1600E+03
    -36.376  0.0000E+00  0.0000E+00  0.1600E+03  0.1600E+03
    -36.137  0.0000E+00  0.0000E+00  0.1600E+03  0.1600E+03
    -35.898  0.0000E+00  0.0000E+00  0.1600E+03  0.1600E+03
    -35.659  0.0000E+00  0.0000E+00  0.1600E+03  0.1600E+03
    -35.421  0.0000E+00  0.0000E+00  0.1600E+03  0.1600E+03
    -35.182  0.0000E+00  0.0000E+00  0.1600E+03  0.1600E+03
    -34.943  0.0000E+00  0.0000E+00  0.1600E+03  0.1600E+03
    -34.705  0.0000E+00  0.0000E+00  0.1600E+03  0.1600E+03
    -34.466  0.0000E+00  0.0000E+00  0.1600E+03  0.1600E+03
    -34.227  0.0000E+00  0.0000E+00  0.1600E+03  0.1600E+03
    -33.988  0.0000E+00  0.0000E+00  0.1600E+03  0.1600E+03
    -33.750  0.0000E+00  0.0000E+00  0.1600E+03  0.1600E+03
    -33.511  0.0000E+00  0.0000E+00  0.1600E+03  0.1600E+03
    -33.272  0.0000E+00  0.0000E+00  0.1600E+03  0.1600E+03
    -33.034  0.0000E+00  0.0000E+00  0.1600E+03  0.1600E+03
    -32.795  0.0000E+00  0.0000E+00  0.1600E+03  0.1600E+03
    -32.556  0.0000E+00  0.0000E+00  0.1600E+03  0.1600E+03
    -32.317  0.0000E+00  0.0000E+00  0.1600E+03  0.1600E+03
    -32.079  0.0000E+00  0.0000E+00  0.1600E+03  0.1600E+03
    -31.840  0.0000E+00  0.0000E+00  0.1600E+03  0.1600E+03
    -31.601  0.0000E+00  0.0000E+00  0.1600E+03  0.1600E+03
    -31.363  0.0000E+00  0.0000E+00  0.1600E+03  0.1600E+03
    -31.124  0.0000E+00  0.0000E+00  0.1600E+03  0.1600E+03
    -30.885  0.0000E+00  0.0000E+00  0.1600E+03  0.1600E+03
    -30.646  0.0000E+00  0.0000E+00  0.1600E+03  0.1600E+03
    -30.408  0.0000E+00  0.0000E+00  0.1600E+03  0.1600E+03
    -30.169  0.0000E+00  0.0000E+00  0.1600E+03  0.1600E+03
    -29.930  0.0000E+00  0.0000E+00  0.1600E+03  0.1600E+03
    -29.692  0.0000E+00  0.0000E+00  0.1600E+03  0.1600E+03
    -29.453  0.0000E+00  0.0000E+00  0.1600E+03  0.1600E+03
    -29.214  0.0000E+00  0.0000E+00  0.1600E+03  0.1600E+03
    -28.975  0.0000E+00  0.0000E+00  0.1600E+03  0.1600E+03
    -28.737  0.0000E+00  0.0000E+00  0.1600E+03  0.1600E+03
    -28.498  0.0000E+00  0.0000E+00  0.1600E+03  0.1600E+03
    -28.259  0.0000E+00  0.0000E+00  0.1600E+03  0.1600E+03
    -28.021  0.0000E+00  0.0000E+00  0.1600E+03  0.1600E+03
    -27.782  0.0000E+00  0.0000E+00  0.1600E+03  0.1600E+03
    -27.543  0.0000E+00  0.0000E+00  0.1600E+03  0.1600E+03
    -27.304  0.0000E+00  0.0000E+00  0.1600E+03  0.1600E+03
    -27.066  0.0000E+00  0.0000E+00  0.1600E+03  0.1600E+03
    -26.827  0.0000E+00  0.0000E+00  0.1600E+03  0.1600E+03
    -26.588  0.0000E+00  0.0000E+00  0.1600E+03  0.1600E+03
    -26.350  0.0000E+00  0.0000E+00  0.1600E+03  0.1600E+03
    -26.111  0.0000E+00  0.0000E+00  0.1600E+03  0.1600E+03
    -25.872  0.0000E+00  0.0000E+00  0.1600E+03  0.1600E+03
    -25.633  0.0000E+00  0.0000E+00  0.1600E+03  0.1600E+03
    -25.395  0.0000E+00  0.0000E+00  0.1600E+03  0.1600E+03
    -25.156  0.0000E+00  0.0000E+00  0.1600E+03  0.1600E+03
    -24.917  0.0000E+00  0.0000E+00  0.1600E+03  0.1600E+03
    -24.679  0.0000E+00  0.0000E+00  0.1600E+03  0.1600E+03
    -24.440  0.0000E+00  0.0000E+00  0.1600E+03  0.1600E+03
    -24.201  0.0000E+00  0.0000E+00  0.1600E+03  0.1600E+03
    -23.962  0.0000E+00  0.0000E+00  0.1600E+03  0.1600E+03
    -23.724  0.0000E+00  0.0000E+00  0.1600E+03  0.1600E+03
    -23.485  0.0000E+00  0.0000E+00  0.1600E+03  0.1600E+03
    -23.246  0.0000E+00  0.0000E+00  0.1600E+03  0.1600E+03
    -23.008  0.0000E+00  0.0000E+00  0.1600E+03  0.1600E+03
    -22.769  0.0000E+00  0.0000E+00  0.1600E+03  0.1600E+03
    -22.530  0.0000E+00  0.0000E+00  0.1600E+03  0.1600E+03
    -22.291  0.0000E+00  0.0000E+00  0.1600E+03  0.1600E+03
    -22.053  0.0000E+00  0.0000E+00  0.1600E+03  0.1600E+03
    -21.814  0.0000E+00  0.0000E+00  0.1600E+03  0.1600E+03
    -21.575  0.0000E+00  0.0000E+00  0.1600E+03  0.1600E+03
    -21.336  0.0000E+00  0.0000E+00  0.1600E+03  0.1600E+03
    -21.098  0.0000E+00  0.0000E+00  0.1600E+03  0.1600E+03
    -20.859  0.0000E+00  0.0000E+00  0.1600E+03  0.1600E+03
    -20.620  0.0000E+00  0.0000E+00  0.1600E+03  0.1600E+03
    -20.382  0.0000E+00  0.0000E+00  0.1600E+03  0.1600E+03
    -20.143  0.0000E+00  0.0000E+00  0.1600E+03  0.1600E+03
    -19.904  0.0000E+00  0.0000E+00  0.1600E+03  0.1600E+03
    -19.665  0.0000E+00  0.0000E+00  0.1600E+03  0.1600E+03
    -19.427  0.0000E+00  0.0000E+00  0.1600E+03  0.1600E+03
    -19.188  0.0000E+00  0.0000E+00  0.1600E+03  0.1600E+03
    -18.949  0.0000E+00  0.0000E+00  0.1600E+03  0.1600E+03
    -18.711  0.0000E+00  0.0000E+00  0.1600E+03  0.1600E+03
    -18.472  0.0000E+00  0.0000E+00  0.1600E+03  0.1600E+03
    -18.233  0.0000E+00  0.0000E+00  0.1600E+03  0.1600E+03
    -17.994  0.0000E+00  0.0000E+00  0.1600E+03  0.1600E+03
    -17.756  0.0000E+00  0.0000E+00  0.1600E+03  0.1600E+03
    -17.517  0.0000E+00  0.0000E+00  0.1600E+03  0.1600E+03
    -17.278  0.0000E+00  0.0000E+00  0.1600E+03  0.1600E+03
    -17.040  0.0000E+00  0.0000E+00  0.1600E+03  0.1600E+03
    -16.801  0.0000E+00  0.0000E+00  0.1600E+03  0.1600E+03
    -16.562  0.0000E+00  0.0000E+00  0.1600E+03  0.1600E+03
    -16.323  0.0000E+00  0.0000E+00  0.1600E+03  0.1600E+03
    -16.085  0.0000E+00  0.0000E+00  0.1600E+03  0.1600E+03
    -15.846  0.0000E+00  0.0000E+00  0.1600E+03  0.1600E+03
    -15.607  0.0000E+00  0.0000E+00  0.1600E+03  0.1600E+03
    -15.369  0.0000E+00  0.0000E+00  0.1600E+03  0.1600E+03
    -15.130  0.0000E+00  0.0000E+00  0.1600E+03  0.1600E+03
    -14.891  0.0000E+00  0.0000E+00  0.1600E+03  0.1600E+03
    -14.652  0.0000E+00  0.0000E+00  0.1600E+03  0.1600E+03
    -14.414  0.0000E+00  0.0000E+00  0.1600E+03  0.1600E+03
    -14.175  0.0000E+00  0.0000E+00  0.1600E+03  0.1600E+03
    -13.936  0.0000E+00  0.0000E+00  0.1600E+03  0.1600E+03
    -13.698  0.9365E-06  0.0000E+00  0.1600E+03  0.1600E+03
    -13.459  0.3179E+02  0.2845E-12  0.1676E+03  0.1600E+03
    -13.220  0.7600E+02  0.4131E+01  0.1857E+03  0.1610E+03
    -12.981  0.2626E+02  0.1070E+03  0.1920E+03  0.1865E+03
    -12.743  0.0000E+00  0.2295E+02  0.1920E+03  0.1920E+03
    -12.504  0.0000E+00  0.0000E+00  0.1920E+03  0.1920E+03
    -12.265  0.0000E+00  0.0000E+00  0.1920E+03  0.1920E+03
    -12.027  0.0000E+00  0.0000E+00  0.1920E+03  0.1920E+03
    -11.788  0.0000E+00  0.0000E+00  0.1920E+03  0.1920E+03
    -11.549  0.0000E+00  0.0000E+00  0.1920E+03  0.1920E+03
    -11.310  0.0000E+00  0.0000E+00  0.1920E+03  0.1920E+03
    -11.072  0.0000E+00  0.0000E+00  0.1920E+03  0.1920E+03
    -10.833  0.0000E+00  0.0000E+00  0.1920E+03  0.1920E+03
    -10.594  0.0000E+00  0.0000E+00  0.1920E+03  0.1920E+03
    -10.356  0.0000E+00  0.0000E+00  0.1920E+03  0.1920E+03
    -10.117  0.0000E+00  0.0000E+00  0.1920E+03  0.1920E+03
     -9.878  0.0000E+00  0.0000E+00  0.1920E+03  0.1920E+03
     -9.639  0.0000E+00  0.0000E+00  0.1920E+03  0.1920E+03
     -9.401  0.0000E+00  0.0000E+00  0.1920E+03  0.1920E+03
     -9.162  0.0000E+00  0.0000E+00  0.1920E+03  0.1920E+03
     -8.923  0.0000E+00  0.0000E+00  0.1920E+03  0.1920E+03
     -8.685  0.0000E+00  0.0000E+00  0.1920E+03  0.1920E+03
     -8.446  0.0000E+00  0.0000E+00  0.1920E+03  0.1920E+03
     -8.207  0.0000E+00  0.0000E+00  0.1920E+03  0.1920E+03
     -7.968  0.0000E+00  0.0000E+00  0.1920E+03  0.1920E+03
     -7.730  0.2905E-02  0.2584E-16  0.1920E+03  0.1920E+03
     -7.491  0.2139E+02  0.8441E-01  0.1971E+03  0.1920E+03
     -7.252  0.6222E+02  0.4004E+02  0.2120E+03  0.2016E+03
     -7.014  0.4838E+02  0.6377E+02  0.2235E+03  0.2168E+03
     -6.775  0.2067E+01  0.2911E+02  0.2240E+03  0.2238E+03
     -6.536  0.0000E+00  0.1046E+01  0.2240E+03  0.2240E+03
     -6.297  0.0000E+00  0.0000E+00  0.2240E+03  0.2240E+03
     -6.059  0.0000E+00  0.0000E+00  0.2240E+03  0.2240E+03
     -5.820  0.0000E+00  0.0000E+00  0.2240E+03  0.2240E+03
     -5.581  0.0000E+00  0.0000E+00  0.2240E+03  0.2240E+03
     -5.343  0.0000E+00  0.0000E+00  0.2240E+03  0.2240E+03
     -5.104  0.0000E+00  0.0000E+00  0.2240E+03  0.2240E+03
     -4.865  0.0000E+00  0.0000E+00  0.2240E+03  0.2240E+03
     -4.626  0.0000E+00  0.0000E+00  0.2240E+03  0.2240E+03
     -4.388  0.0000E+00  0.0000E+00  0.2240E+03  0.2240E+03
     -4.149  0.0000E+00  0.0000E+00  0.2240E+03  0.2240E+03
     -3.910  0.0000E+00  0.0000E+00  0.2240E+03  0.2240E+03
     -3.672  0.0000E+00  0.0000E+00  0.2240E+03  0.2240E+03
     -3.433  0.0000E+00  0.0000E+00  0.2240E+03  0.2240E+03
     -3.194  0.0000E+00  0.0000E+00  0.2240E+03  0.2240E+03
     -2.955  0.0000E+00  0.0000E+00  0.2240E+03  0.2240E+03
     -2.717  0.1685E-04  0.0000E+00  0.2240E+03  0.2240E+03
     -2.478  0.1450E+02  0.0000E+00  0.2275E+03  0.2240E+03
     -2.239  0.1904E+02  0.0000E+00  0.2320E+03  0.2240E+03
     -2.001  0.2230E+02  0.0000E+00  0.2373E+03  0.2240E+03
     -1.762  0.1014E+00  0.0000E+00  0.2374E+03  0.2240E+03
     -1.523  0.2224E+02  0.0000E+00  0.2427E+03  0.2240E+03
     -1.284  0.2827E+02  0.5168E-15  0.2494E+03  0.2240E+03
     -1.046  0.7826E+02  0.7036E-01  0.2681E+03  0.2240E+03
     -0.807  0.7167E+02  0.2062E+02  0.2852E+03  0.2289E+03
     -0.568  0.7022E+02  0.2830E+02  0.3020E+03  0.2357E+03
     -0.329  0.9431E+02  0.1574E+02  0.3245E+03  0.2395E+03
     -0.091  0.1037E+03  0.1444E+02  0.3492E+03  0.2429E+03
      0.148  0.5508E+02  0.2601E+02  0.3624E+03  0.2491E+03
      0.387  0.4751E+02  0.5083E+02  0.3737E+03  0.2612E+03
      0.625  0.5240E+02  0.7887E+02  0.3862E+03  0.2801E+03
      0.864  0.4338E+02  0.7156E+02  0.3966E+03  0.2972E+03
      1.103  0.6234E+02  0.7674E+02  0.4115E+03  0.3155E+03
      1.342  0.8305E+02  0.2998E+02  0.4313E+03  0.3226E+03
      1.580  0.8127E+02  0.3720E+02  0.4507E+03  0.3315E+03
      1.819  0.4254E+02  0.4960E+02  0.4608E+03  0.3433E+03
      2.058  0.3950E+02  0.4388E+02  0.4703E+03  0.3538E+03
      2.296  0.4861E+02  0.2821E+02  0.4819E+03  0.3606E+03
      2.535  0.4272E+02  0.5078E+02  0.4921E+03  0.3727E+03
      2.774  0.5581E+02  0.6794E+02  0.5054E+03  0.3889E+03
      3.013  0.5569E+02  0.8230E+02  0.5187E+03  0.4085E+03
      3.251  0.5437E+02  0.2939E+02  0.5317E+03  0.4156E+03
      3.490  0.4641E+02  0.2188E+02  0.5427E+03  0.4208E+03
      3.729  0.5589E+02  0.4734E+02  0.5561E+03  0.4321E+03
      3.967  0.3784E+02  0.5566E+02  0.5651E+03  0.4454E+03
      4.206  0.2723E+02  0.1101E+02  0.5716E+03  0.4480E+03
      4.445  0.1621E+02  0.6079E-03  0.5755E+03  0.4480E+03
      4.684  0.2134E+01  0.0000E+00  0.5760E+03  0.4480E+03
      4.922  0.1537E-03  0.0000E+00  0.5760E+03  0.4480E+03
      5.161  0.0000E+00  0.0000E+00  0.5760E+03  0.4480E+03
      5.400  0.0000E+00  0.0000E+00  0.5760E+03  0.4480E+03
      5.638  0.0000E+00  0.0000E+00  0.5760E+03  0.4480E+03
      5.877  0.0000E+00  0.0000E+00  0.5760E+03  0.4480E+03
      6.116  0.0000E+00  0.0000E+00  0.5760E+03  0.4480E+03
      6.355  0.0000E+00  0.4811E-11  0.5760E+03  0.4480E+03
      6.593  0.0000E+00  0.1310E+01  0.5760E+03  0.4483E+03
      6.832  0.3746E-15  0.5325E+02  0.5760E+03  0.4610E+03
      7.071  0.3009E-01  0.7697E+02  0.5760E+03  0.4794E+03
      7.309  0.2027E+00  0.5801E+02  0.5761E+03  0.4932E+03
      7.548  0.9625E+00  0.6868E+02  0.5763E+03  0.5096E+03
      7.787  0.1453E+01  0.6344E+02  0.5766E+03  0.5248E+03
      8.026  0.3074E+01  0.9774E+02  0.5774E+03  0.5481E+03
      8.264  0.8365E+01  0.7024E+02  0.5794E+03  0.5649E+03
      8.503  0.1100E+02  0.3543E+02  0.5820E+03  0.5733E+03
      8.742  0.2229E+02  0.1317E+02  0.5873E+03  0.5765E+03
      8.980  0.2762E+02  0.8414E+01  0.5939E+03  0.5785E+03
      9.219  0.2844E+02  0.1153E+02  0.6007E+03  0.5812E+03
      9.458  0.3225E+02  0.2056E+02  0.6084E+03  0.5862E+03
      9.697  0.2938E+02  0.2558E+02  0.6154E+03  0.5923E+03
      9.935  0.2078E+02  0.4167E+02  0.6204E+03  0.6022E+03
     10.174  0.2176E+02  0.3275E+02  0.6256E+03  0.6100E+03
     10.413  0.2579E+02  0.3384E+02  0.6317E+03  0.6181E+03
     10.651  0.4027E+02  0.3277E+02  0.6413E+03  0.6259E+03
     10.890  0.3983E+02  0.2352E+02  0.6508E+03  0.6315E+03
     11.129  0.4463E+02  0.3401E+02  0.6615E+03  0.6397E+03
     11.368  0.4032E+02  0.2311E+02  0.6711E+03  0.6452E+03
     11.606  0.3871E+02  0.3585E+02  0.6804E+03  0.6537E+03
     11.845  0.4758E+02  0.5239E+02  0.6917E+03  0.6662E+03
     12.084  0.3018E+02  0.5809E+02  0.6989E+03  0.6801E+03
     12.322  0.2902E+02  0.4575E+02  0.7058E+03  0.6910E+03
     12.561  0.3355E+02  0.3107E+02  0.7139E+03  0.6984E+03
     12.800  0.4121E+02  0.3256E+02  0.7237E+03  0.7062E+03
     13.039  0.1968E+02  0.3531E+02  0.7284E+03  0.7146E+03
     13.277  0.1492E+02  0.3654E+02  0.7320E+03  0.7234E+03
     13.516  0.1960E+00  0.2897E+02  0.7320E+03  0.7303E+03
     13.755  0.0000E+00  0.7192E+01  0.7320E+03  0.7320E+03
     13.993  0.0000E+00  0.4035E-05  0.7320E+03  0.7320E+03
     14.232  0.0000E+00  0.0000E+00  0.7320E+03  0.7320E+03
     14.471  0.0000E+00  0.0000E+00  0.7320E+03  0.7320E+03
     14.710  0.0000E+00  0.0000E+00  0.7320E+03  0.7320E+03
     14.948  0.0000E+00  0.0000E+00  0.7320E+03  0.7320E+03
     15.187  0.0000E+00  0.0000E+00  0.7320E+03  0.7320E+03
     15.426  0.0000E+00  0.0000E+00  0.7320E+03  0.7320E+03
     15.664  0.0000E+00  0.0000E+00  0.7320E+03  0.7320E+03
     15.903  0.0000E+00  0.0000E+00  0.7320E+03  0.7320E+03
     16.142  0.0000E+00  0.0000E+00  0.7320E+03  0.7320E+03
     16.381  0.0000E+00  0.0000E+00  0.7320E+03  0.7320E+03
     16.619  0.0000E+00  0.0000E+00  0.7320E+03  0.7320E+03
     16.858  0.0000E+00  0.0000E+00  0.7320E+03  0.7320E+03
