# epsilon and Z* of atoms 1 5 7 9 11 13 17 19
   5.70887940    0.00000000    0.00000000    0.00000000    5.41443026    0.00395230    0.00000000    0.00395219    5.41462601 
   0.93918030   -0.03679490    0.03692876   -0.01904791    1.21037558    0.05348075    0.01911037    0.05347438    1.21056646 
   1.23096146    0.00000000    0.00000000    0.00000000    1.14128250    0.17476397   -0.00000000    0.17479964    1.14125170 
   1.31338674    0.00000000    0.00000000    0.00000000    1.17572593   -0.18451152   -0.00000000   -0.18456314    1.17579124 
   2.17178480    0.00000000    0.00000000    0.00000000    2.48302432   -0.29051831   -0.00000000   -0.29037778    2.48302946 
   2.24049595    0.00000000    0.00000000    0.00000000    2.50287713    0.25746282   -0.00000000    0.25739619    2.50272166 
  -2.42843545    0.02506460    0.02506935    0.02899514   -2.09401465   -0.03588292    0.02909422   -0.03587797   -2.09400005 
  -1.98913960    0.11796624   -0.11815644    0.22873264   -2.77627298    0.82869921   -0.22846777    0.82868229   -2.77668909 
  -1.98897904    0.06958670   -0.07014967   -0.06532731   -2.75935876   -0.82109184    0.06453474   -0.82113002   -2.75923779 