160  
30   

1    
  0.0100000000000000   0.0000000000000000   0.0000000000000000
  -0.0644286000    0.0014476300   -0.0015789900
   0.0002296000   -0.0000679400   -0.0000541200
   0.0001465200   -0.0000250300   -0.0000886800
   0.0001771600   -0.0000692800   -0.0000567900
   0.0001458800   -0.0000316300   -0.0000985900
   0.0001782000   -0.0000639000   -0.0000543700
  -0.0001119300   -0.0000711700   -0.0000518800
   0.0000630200   -0.0000663100   -0.0000565800
  -0.0006730600    0.0001294600   -0.0000059600
   0.0001492400    0.0000664300    0.0000555200
  -0.0002804700   -0.0000581600    0.0000579700
   0.0001435700    0.0000673700    0.0000564500
  -0.0002769900    0.0000668500    0.0001823700
   0.0001439400    0.0000656900    0.0000554700
  -0.0002311100    0.0001160200    0.0000089700
   0.0001275600    0.0000648400    0.0000585600
  -0.0001247000    0.0000204200   -0.0000028200
  -0.0001281400    0.0000966100    0.0001766600
   0.0000147800    0.0000708300    0.0000500600
   0.0000159900    0.0000484400    0.0000743300
   0.0014830600   -0.0001050100    0.0002268100
   0.0013981900    0.0003226000   -0.0002005200
  -0.0001257300    0.0001272400    0.0001026000
  -0.0001303400   -0.0000573400    0.0000257800
   0.0000591100   -0.0001671200   -0.0001391400
  -0.0000438600    0.0000961800    0.0000349100
   0.0000184700    0.0000341200   -0.0001570900
   0.0001000400   -0.0001294600    0.0000055700
   0.0000153800   -0.0002008400    0.0000773500
   0.0000997300    0.0000542700   -0.0001777500
   0.0000536700    0.0000176500    0.0000429800
  -0.0000447000   -0.0001575300   -0.0002222400
   0.0037212300    0.0028766700   -0.0028789600
   0.0004367200   -0.0000735400    0.0000744100
  -0.0001656100   -0.0002042700    0.0000666800
   0.0002250700    0.0000600900    0.0001154100
  -0.0001666900   -0.0000608400    0.0002017500
   0.0002255900   -0.0001151600   -0.0000599100
  -0.0000106700   -0.0000143700    0.0000155900
   0.0001437300    0.0000239300   -0.0000236200
  -0.0002841900    0.0002284300   -0.0001474100
   0.0001682400    0.0000843700    0.0000528700
  -0.0001888300    0.0000284000   -0.0000280000
   0.0000336900   -0.0000284300    0.0000288200
   0.0003849800   -0.0027255300    0.0027248700
   0.0001579600    0.0000340900   -0.0000360000
  -0.0002844100    0.0001483400   -0.0002293700
   0.0001674100   -0.0000538700   -0.0000839400
   0.0002995500    0.0001109200   -0.0000591000
  -0.0002507100    0.0002037200    0.0002441700
   0.0001685100   -0.0000259200   -0.0000265400
  -0.0000316300   -0.0000036100    0.0000133500
   0.0003428500    0.0000317400    0.0000332900
   0.0018779600   -0.0025681900   -0.0032442900
   0.0002877800   -0.0000566800    0.0001073100
  -0.0001661100    0.0001695900    0.0001102900
   0.0017278000    0.0032476200    0.0025699300
   0.0001974800   -0.0000333200   -0.0000312300
  -0.0003959800   -0.0002448200   -0.0002042900
   0.0001541200    0.0000577600   -0.0001112200
  -0.0003116500   -0.0001102200   -0.0001692200
   0.0001430100   -0.0001065500    0.0000572700
  -0.0001767700   -0.0000135400    0.0000035200
   0.0000230400    0.0000260300    0.0000261500
   0.0006174400    0.0000810700   -0.0000807900
   0.0079284400   -0.0075773400    0.0075822100
   0.0004369100   -0.0000951000   -0.0002484600
  -0.0003596800    0.0001995800   -0.0001075100
   0.0004375800    0.0002483000    0.0000956500
  -0.0003592400    0.0001075900   -0.0001997200
   0.0002340700   -0.0000756700    0.0000760700
  -0.0000847300    0.0002043900   -0.0002039500
  -0.0007177100   -0.0004262400    0.0000979100
   0.0003054300   -0.0001707500   -0.0000598100
  -0.0003336800   -0.0003482200    0.0003481400
   0.0001116300    0.0000797500   -0.0000798000
   0.0012678300    0.0065646800   -0.0065637100
   0.0003766000   -0.0000871200    0.0000871000
  -0.0007177100   -0.0000987500    0.0004268000
   0.0003048900    0.0000597200    0.0001698400
  -0.0006330900   -0.0003503400   -0.0002544900
   0.0003430000   -0.0002199200    0.0001042400
  -0.0002570600   -0.0002408700   -0.0002323300
   0.0001177300    0.0000728900    0.0000950000
   0.0040928500    0.0064619600    0.0080166300
   0.0004509500   -0.0000200800   -0.0001408800
  -0.0005203700   -0.0001767600   -0.0001845900
   0.0002983300    0.0000636200   -0.0002183300
   0.0042022000   -0.0080153400   -0.0064588200
   0.0005708600    0.0001403600    0.0000198100
  -0.0005132800    0.0002545000    0.0003510300
   0.0004629100   -0.0001050900    0.0002193200
  -0.0004008500    0.0001843500    0.0001769300
   0.0004186100    0.0002188200   -0.0000635600
  -0.0001370900    0.0002320500    0.0002402100
   0.0002377700   -0.0000948000   -0.0000725200
   0.0035761600   -0.0000800600   -0.0004214200
  -0.0005002600    0.0000207100   -0.0000179500
   0.0021964400   -0.0000509500   -0.0001202500
  -0.0004677100    0.0000113100    0.0000030600
   0.0002533900    0.0000117200   -0.0001221600
  -0.0002918700    0.0000208700   -0.0000226400
   0.0002228500    0.0000414200    0.0000876500
  -0.0002781700    0.0000171300   -0.0000024000
   0.0035746900    0.0003918600    0.0001063800
  -0.0005007900   -0.0000100400    0.0000067500
   0.0002540300    0.0000947500    0.0000149700
  -0.0002910500   -0.0000063200    0.0000077600
   0.0021979000    0.0000908300    0.0000784300
  -0.0004676600   -0.0000309000    0.0000152200
   0.0002230800   -0.0001155700   -0.0000147100
  -0.0002775600   -0.0000267400    0.0000101700
   0.0000019600    0.0000754000    0.0000572500
   0.0000391900   -0.0000977800    0.0000437000
   0.0000071500   -0.0001001500   -0.0000294300
  -0.0000034300    0.0000718700   -0.0000659000
  -0.0006372100    0.0009553400   -0.0000178800
  -0.0005779100   -0.0009247300   -0.0000377000
  -0.0006383500   -0.0010129500    0.0000486100
  -0.0006870700    0.0010196700    0.0002053500
  -0.0006385100   -0.0000207900    0.0009846100
  -0.0006881500   -0.0001771400   -0.0010445800
   0.0000056700    0.0000582700    0.0000730900
  -0.0000038700    0.0000944300   -0.0000984400
  -0.0006376000    0.0000449400   -0.0009822400
  -0.0005786300    0.0000661800    0.0008975400
   0.0000011500   -0.0000291000   -0.0001009800
   0.0000395800   -0.0000150200    0.0000695900
   0.0005839300   -0.0000859300    0.0001939400
  -0.0003947100    0.0000247500   -0.0000078200
   0.0001401900    0.0000293900   -0.0000297400
  -0.0001500900    0.0000093000   -0.0000104300
   0.0147479200    0.0011390100   -0.0011350400
  -0.0005519200    0.0000224300   -0.0000232600
   0.0005843200   -0.0001939600    0.0000865000
  -0.0003936300    0.0000066900   -0.0000254500
   0.0003020300   -0.0001104000   -0.0002927000
  -0.0002789600    0.0000589700    0.0000988200
   0.0002682800    0.0012464500   -0.0012469100
  -0.0003253600   -0.0001576000    0.0001579200
   0.0000774700   -0.0007244000    0.0007232400
  -0.0002730000    0.0001275100   -0.0001250400
   0.0003020500    0.0002926300    0.0001105900
  -0.0002782400   -0.0000987000   -0.0000581400
   0.0005449700   -0.0000475900   -0.0001602400
  -0.0003869300   -0.0000012300   -0.0000596800
   0.0001363200   -0.0000018300    0.0000015300
  -0.0001479500    0.0000113600   -0.0000118500
   0.0171305000   -0.0015930300    0.0015897300
  -0.0005666900   -0.0000071700    0.0000066200
   0.0005451900    0.0001615000    0.0000473500
  -0.0003875800    0.0000600300    0.0000010600
   0.0000979400    0.0008282500    0.0008110900
  -0.0003008800   -0.0001819400   -0.0001240500
   0.0002728100   -0.0003427500    0.0003422100
  -0.0002964000    0.0000822100   -0.0000827200
   0.0002294100    0.0002183700   -0.0002187000
  -0.0002532500   -0.0000789100    0.0000790400
   0.0000973600   -0.0008124700   -0.0008287500
  -0.0003010500    0.0001246200    0.0001823100

1    
 -0.0100000000000000   0.0000000000000000   0.0000000000000000
   0.0640924900   -0.0010894100    0.0009743400
  -0.0002178500   -0.0000532300   -0.0000703400
  -0.0001326100   -0.0000976700   -0.0000334700
  -0.0001667500   -0.0000537800   -0.0000653300
  -0.0001328900   -0.0000891800   -0.0000251000
  -0.0001667400   -0.0000574800   -0.0000690000
   0.0001221800   -0.0000495700   -0.0000732700
  -0.0000524000   -0.0000549600   -0.0000678900
   0.0007027900   -0.0000137300    0.0001365700
  -0.0001308400    0.0000550400    0.0000678800
   0.0002993000    0.0001879800    0.0000724200
  -0.0001287000    0.0000535100    0.0000674900
   0.0002998100    0.0000505500   -0.0000651600
  -0.0001287000    0.0000554200    0.0000693800
   0.0002483500    0.0000050300    0.0001177800
  -0.0001114000    0.0000569400    0.0000659500
   0.0001182800    0.0001022400    0.0001265300
   0.0001228100    0.0000262500   -0.0000565500
  -0.0000225200    0.0000501300    0.0000726300
  -0.0000228400    0.0000740700    0.0000487700
  -0.0014914300    0.0002286500   -0.0001051700
  -0.0014131700   -0.0002101300    0.0003325900
   0.0001182900   -0.0000040700    0.0000206900
   0.0001228700    0.0001796200    0.0000962900
  -0.0000652500    0.0000416700    0.0000100000
   0.0000345100   -0.0002191700   -0.0001599300
  -0.0000269800   -0.0001544400    0.0000315800
  -0.0001079300   -0.0000028300   -0.0001201400
  -0.0000271200    0.0000783800   -0.0002012000
  -0.0001080500   -0.0001763800    0.0000535200
  -0.0000653300   -0.0001327300   -0.0001644800
   0.0000345400    0.0000369800    0.0000963000
  -0.0035459300   -0.0028416300    0.0028434700
  -0.0003162900    0.0000766600   -0.0000767500
   0.0002874100    0.0002043200   -0.0000623000
  -0.0001021000   -0.0000597800   -0.0001150300
   0.0002876500    0.0000623000   -0.0002045100
  -0.0001021000    0.0001149700    0.0000597900
   0.0001349600    0.0000140900   -0.0000141400
  -0.0000200800   -0.0000229800    0.0000229700
   0.0001632500   -0.0002284900    0.0001481800
  -0.0002872400   -0.0000849100   -0.0000532500
   0.0000689200   -0.0000279100    0.0000278900
  -0.0001520000    0.0000272200   -0.0000271900
  -0.0005096000    0.0027106700   -0.0027103800
  -0.0002753300   -0.0000351100    0.0000351400
   0.0001632100   -0.0001482700    0.0002287000
  -0.0002871700    0.0000532600    0.0000849300
  -0.0001515000   -0.0001101200    0.0000582900
   0.0004007600   -0.0002057700   -0.0002475400
  -0.0000212300    0.0000258600    0.0000265900
   0.0001798200    0.0000036300   -0.0000134000
  -0.0001955200   -0.0000315300   -0.0000324200
  -0.0017433700    0.0025856400    0.0032729700
  -0.0001408000    0.0000570700   -0.0001061000
   0.0003154000   -0.0001695900   -0.0001104100
  -0.0018844600   -0.0032748200   -0.0025867800
  -0.0003405100    0.0000325400    0.0000313300
   0.0002556900    0.0002477100    0.0002061000
  -0.0002968600   -0.0000580900    0.0001098900
   0.0001702000    0.0001107700    0.0001694300
  -0.0002861500    0.0001061400   -0.0000572100
   0.0000346900    0.0000135300   -0.0000037400
  -0.0001664600   -0.0000264800   -0.0000260100
  -0.0004757900   -0.0000815200    0.0000818300
  -0.0079173100    0.0077111000   -0.0077157900
  -0.0002959900    0.0000939600    0.0002491000
   0.0005034100   -0.0001988500    0.0001090400
  -0.0002959000   -0.0002487900   -0.0000940800
   0.0005035300   -0.0001088100    0.0001990100
  -0.0000936100    0.0000752900   -0.0000752200
   0.0002278500   -0.0002034500    0.0002036000
   0.0005876500    0.0004267100   -0.0001000400
  -0.0004417100    0.0001697600    0.0000582300
   0.0002014200    0.0003580200   -0.0003582200
  -0.0002485400   -0.0000793900    0.0000792700
  -0.0014070400   -0.0065834900    0.0065826200
  -0.0005144900    0.0000885500   -0.0000884300
   0.0005878500    0.0001002000   -0.0004273200
  -0.0004417000   -0.0000584700   -0.0001697700
   0.0005110700    0.0003471800    0.0002526100
  -0.0004605600    0.0002201300   -0.0001028100
   0.0001395200    0.0002398300    0.0002304400
  -0.0002347800   -0.0000726500   -0.0000951100
  -0.0041713600   -0.0064175800   -0.0079364300
  -0.0005701100    0.0000171700    0.0001433500
   0.0003999200    0.0001763600    0.0001829900
  -0.0004152300   -0.0000633100    0.0002187500
  -0.0040417400    0.0079357100    0.0064152100
  -0.0004504200   -0.0001433900   -0.0000171100
   0.0006308400   -0.0002526400   -0.0003477200
  -0.0003411100    0.0001027300   -0.0002199600
   0.0005197000   -0.0001833000   -0.0001761500
  -0.0002958000   -0.0002187000    0.0000633500
   0.0002591700   -0.0002308400   -0.0002400600
  -0.0001153800    0.0000951300    0.0000727100
  -0.0036025600    0.0000452800    0.0003848200
   0.0004777300    0.0000076000   -0.0000102300
  -0.0022169600    0.0000769100    0.0000953300
   0.0004446600    0.0000146800   -0.0000317100
  -0.0002771300    0.0000171700    0.0000962600
   0.0002678200    0.0000062200   -0.0000071600
  -0.0002446400   -0.0000167900   -0.0001159800
   0.0002552900    0.0000098100   -0.0000270100
  -0.0036012800   -0.0004114200   -0.0000173500
   0.0004778000   -0.0000176400    0.0000200400
  -0.0002769800   -0.0001242300    0.0000105900
   0.0002677000   -0.0000207800    0.0000214800
  -0.0022180300   -0.0001231500   -0.0000493900
   0.0004448000    0.0000038000    0.0000128600
  -0.0002446800    0.0000881200    0.0000443500
   0.0002553200   -0.0000008600    0.0000178000
   0.0000273400   -0.0001016900   -0.0000282200
  -0.0000137700    0.0000700100   -0.0000148500
   0.0000218300    0.0000734600    0.0000590700
   0.0000319800   -0.0000985500    0.0000963400
   0.0006640900   -0.0009831100    0.0000421400
   0.0006052200    0.0008981400    0.0000675000
   0.0006618200    0.0009832500   -0.0000182300
   0.0007173900   -0.0010528100   -0.0001762100
   0.0006619700    0.0000456200   -0.0010103700
   0.0007182600    0.0002038800    0.0010244600
   0.0000218600   -0.0000311100   -0.0001009800
   0.0000319300   -0.0000683900    0.0000709800
   0.0006645800   -0.0000140800    0.0009556300
   0.0006053600   -0.0000397800   -0.0009258400
   0.0000272800    0.0000561000    0.0000741100
  -0.0000137700    0.0000426500   -0.0000976100
  -0.0005875500    0.0000879000   -0.0001904500
   0.0003963600   -0.0000258000    0.0000086400
  -0.0001403700   -0.0000325100    0.0000325200
   0.0001539000   -0.0000099400    0.0000098900
  -0.0161761300   -0.0013730600    0.0013694600
   0.0005548200   -0.0000229300    0.0000229000
  -0.0005878400    0.0001909000   -0.0000880500
   0.0003962200   -0.0000083800    0.0000257800
  -0.0003014000    0.0001066200    0.0002920900
   0.0002805600   -0.0000583600   -0.0000993700
  -0.0002287000   -0.0012805000    0.0012807300
   0.0003274000    0.0001561800   -0.0001563400
  -0.0000701600    0.0007199600   -0.0007199900
   0.0002751700   -0.0001261400    0.0001260300
  -0.0003015100   -0.0002923000   -0.0001065800
   0.0002806300    0.0000995600    0.0000582900
  -0.0005379500    0.0000483200    0.0001601700
   0.0003900900    0.0000006500    0.0000620800
  -0.0001340900    0.0000004900   -0.0000004600
   0.0001490500   -0.0000117400    0.0000117200
  -0.0158080500    0.0013880900   -0.0013850000
   0.0005678800    0.0000090600   -0.0000089100
  -0.0005379000   -0.0001607100   -0.0000487400
   0.0003900900   -0.0000620800   -0.0000005100
  -0.0000671800   -0.0008259300   -0.0008088400
   0.0003034300    0.0001833000    0.0001248700
  -0.0002684800    0.0003385800   -0.0003382100
   0.0002975700   -0.0000831600    0.0000831100
  -0.0002255800   -0.0002162500    0.0002165000
   0.0002538200    0.0000794700   -0.0000794500
  -0.0000671500    0.0008100900    0.0008267900
   0.0003035000   -0.0001249300   -0.0001833500

1    
  0.0000000000000000   0.0099997304182232   0.0000734272623817
   0.0012521600   -0.0240459300    0.0003423200
  -0.0000033500   -0.0000987800   -0.0000664600
   0.0000405400    0.0022507200    0.0000108800
  -0.0000027900   -0.0000226900   -0.0000613100
   0.0000318800    0.0000092800    0.0000290700
   0.0000011600   -0.0000760800   -0.0000607500
  -0.0000067500   -0.0000888800   -0.0000277100
  -0.0000013200   -0.0000442500   -0.0000611300
  -0.0000645100    0.0005670000   -0.0022456800
   0.0000011000    0.0000445500    0.0000441300
   0.0001336800    0.0004846100    0.0010272300
  -0.0000002700    0.0000752900    0.0000739000
  -0.0000037700   -0.0001664900    0.0010405400
   0.0000016800    0.0000473400    0.0000741800
  -0.0000486800    0.0003030300   -0.0005806200
   0.0000031300    0.0000737100    0.0000579000
  -0.0000469100    0.0000518100    0.0001069000
   0.0000315000    0.0000390900    0.0000325300
   0.0000063600    0.0000867000    0.0000414300
  -0.0000177600    0.0000906100    0.0000736400
  -0.0001737900   -0.0000909900   -0.0001241300
   0.0002635300   -0.0000723600    0.0001741000
   0.0000620100    0.0002056200    0.0001058300
  -0.0001234500    0.0002130500    0.0000312200
  -0.0000793900   -0.0000649700   -0.0000903100
   0.0000916300   -0.0000809400   -0.0000240100
   0.0001318200   -0.0000866300   -0.0001202000
  -0.0001214000   -0.0000613700   -0.0000910900
  -0.0000997000   -0.0000856600   -0.0001197600
   0.0000509900   -0.0000606000   -0.0000904700
   0.0000961200   -0.0000665200   -0.0000178200
  -0.0001660300   -0.0000822400    0.0000210300
   0.0028335900   -0.0003704200   -0.0011258300
  -0.0000223900   -0.0001060300   -0.0000846900
  -0.0003635700    0.0004783500    0.0001962300
   0.0001064400    0.0000905100    0.0000545100
  -0.0000197400   -0.0001980800    0.0001082300
   0.0000726000   -0.0000734600   -0.0000191200
   0.0001152400    0.0001299300   -0.0000433600
   0.0000504900    0.0000606000    0.0000261200
   0.0000054300    0.0000332400    0.0001423200
  -0.0000652700   -0.0000155800   -0.0000086800
  -0.0000978300    0.0000730300   -0.0001269400
  -0.0000710900    0.0000194700   -0.0000014700
  -0.0026244900    0.0010942100   -0.0024779600
  -0.0000218200   -0.0000396300   -0.0000201200
   0.0008882000    0.0007447500    0.0007532600
  -0.0001194500    0.0000580100    0.0000370500
   0.0000359900   -0.0000707300    0.0000270900
   0.0003335200   -0.0002862100   -0.0000564100
   0.0000790200    0.0000538000   -0.0000217900
   0.0000146900    0.0001352000    0.0000325800
   0.0001209200   -0.0000962100    0.0000573000
  -0.0023335100   -0.0004973800    0.0016699200
   0.0000146000    0.0000839100   -0.0000514200
   0.0006622000    0.0005818900   -0.0003609700
   0.0032721000    0.0013431100    0.0018343000
  -0.0001508200   -0.0000356000    0.0000277700
  -0.0008958300    0.0006198000   -0.0005836600
  -0.0000180800    0.0000650700   -0.0000472500
  -0.0000977700   -0.0000363300   -0.0000827600
  -0.0000798800   -0.0000213300    0.0000144400
  -0.0000333400    0.0000854100    0.0001439500
  -0.0000778000    0.0000234000   -0.0000006800
   0.0000767800   -0.0002467700   -0.0001471800
  -0.0050432700   -0.0011337900   -0.0020782300
   0.0000191100    0.0001804800    0.0000999400
   0.0008305100    0.0010019300    0.0002642500
   0.0000716000   -0.0000942900    0.0000221800
   0.0001558600   -0.0005384800    0.0003243500
   0.0000445300    0.0000812400    0.0000029500
   0.0000533300    0.0003651400   -0.0001966100
  -0.0000810700    0.0001181900    0.0003182000
  -0.0001323100    0.0000023800    0.0000268200
   0.0000114900    0.0002526400   -0.0003522900
  -0.0000463200    0.0000243100   -0.0000282800
   0.0046531800    0.0013380100   -0.0039881300
  -0.0001459900   -0.0001120300   -0.0000762700
  -0.0019489800    0.0013273500    0.0012315200
  -0.0000098000    0.0001340600    0.0000735300
  -0.0004409300   -0.0006791700   -0.0002575700
  -0.0000683700   -0.0001028000   -0.0000089800
   0.0000366500    0.0004285000    0.0002520800
  -0.0000542000    0.0000828600   -0.0000034500
   0.0045015200   -0.0014391300    0.0028127600
  -0.0001186700   -0.0002281600    0.0001374400
  -0.0011234400    0.0011083000   -0.0005689800
  -0.0000250800    0.0001788200   -0.0000918800
  -0.0063359400    0.0021588700    0.0032946200
   0.0001094900   -0.0001276000    0.0000806200
   0.0016178500    0.0012107800   -0.0009906000
  -0.0000186000    0.0001546200   -0.0000961800
   0.0000403700   -0.0000319600   -0.0001502000
   0.0001045000   -0.0000006500   -0.0000173400
   0.0000536000    0.0002489700    0.0003178900
   0.0000141400    0.0000296000    0.0000316600
   0.0001707000    0.0053193000    0.0000377500
   0.0000059600    0.0000206200   -0.0000158200
   0.0001464600   -0.0043791800    0.0003227700
   0.0000066100    0.0000063200   -0.0000122900
  -0.0000468000    0.0003019300   -0.0001124700
  -0.0000006300    0.0000303700   -0.0000168800
  -0.0000364300   -0.0000296100    0.0000143500
  -0.0000017300   -0.0000039000   -0.0000145000
   0.0002153100    0.0024327300    0.0004813500
   0.0000211300    0.0000319600    0.0000215400
   0.0000052300   -0.0008916700    0.0002302500
  -0.0000075200   -0.0000604500    0.0000203400
   0.0000439300    0.0014763000    0.0005597300
  -0.0000149000    0.0000411400    0.0000047000
  -0.0001451800   -0.0010740100   -0.0002616900
   0.0000069200   -0.0000646800    0.0000102000
   0.0001065700   -0.0000736600   -0.0000030700
  -0.0000718700   -0.0000680200    0.0000219400
  -0.0000612600    0.0000577100   -0.0000073300
   0.0001115200    0.0000392200    0.0000062600
   0.0004363800   -0.0001437100    0.0000749600
  -0.0003919800   -0.0001609200   -0.0000280900
  -0.0005130400    0.0001773300    0.0000026800
   0.0005950700    0.0002176100    0.0000404000
   0.0002348100    0.0002547900   -0.0001215800
  -0.0000250800    0.0002536400   -0.0000597500
  -0.0000919500   -0.0002329900    0.0000423300
   0.0000354300   -0.0001865500   -0.0000018700
   0.0000315900    0.0002257700   -0.0000049600
  -0.0001561200    0.0002325400    0.0001133700
   0.0000152800   -0.0001878100   -0.0000051700
   0.0001385300   -0.0002140400   -0.0000896300
  -0.0002216300    0.0000440500   -0.0001601900
   0.0000339000    0.0000568100   -0.0000717900
   0.0000280600   -0.0000967100    0.0000737900
   0.0000054100   -0.0000522600    0.0000468200
   0.0023425900    0.0066852800   -0.0011558500
   0.0000256000    0.0001974400   -0.0000125600
   0.0004355700   -0.0024612300    0.0005769000
   0.0000173600   -0.0001987400    0.0000355700
  -0.0002971400   -0.0001107200   -0.0006641800
   0.0000497300   -0.0000523600   -0.0000482700
   0.0004271300   -0.0001991600    0.0011790900
  -0.0000300900    0.0000470000    0.0000718300
  -0.0005997300   -0.0003671400    0.0007932700
   0.0000434200   -0.0000160600    0.0000748100
   0.0006070200    0.0004922500   -0.0012159100
  -0.0000340300    0.0000276900   -0.0000998100
   0.0002066100   -0.0000210400   -0.0001244100
  -0.0000215300    0.0000583300    0.0000529200
  -0.0000484400   -0.0000913400   -0.0000733300
   0.0000177500   -0.0000578000   -0.0000432600
  -0.0028364400    0.0066606400    0.0004469500
  -0.0000038200    0.0002120200    0.0000333600
  -0.0003390900   -0.0024268100   -0.0005198400
   0.0000160300   -0.0002034100   -0.0000370000
   0.0006170000   -0.0006034000   -0.0010046800
  -0.0000291400   -0.0000210700   -0.0000674800
  -0.0004639300    0.0003923300    0.0012334400
   0.0000622300    0.0000458000    0.0001062900
   0.0003282700   -0.0000057100    0.0006894700
  -0.0000297200   -0.0000475000    0.0000461000
  -0.0006791200   -0.0001371000   -0.0010805400
   0.0000539100    0.0000359000   -0.0000872800

1    
  0.0000000000000000  -0.0099997304182232  -0.0000734272623817
  -0.0012551000    0.0232332800   -0.0005291100
   0.0000110700   -0.0000217000   -0.0000582300
  -0.0000327400   -0.0023847400   -0.0001375800
   0.0000105600   -0.0000976100   -0.0000636200
  -0.0000238700   -0.0001321300   -0.0001521600
   0.0000072400   -0.0000443000   -0.0000640200
   0.0000147500   -0.0000306700   -0.0000965300
   0.0000098000   -0.0000761400   -0.0000634000
   0.0000753900   -0.0004389900    0.0023487600
   0.0000117300    0.0000763400    0.0000809600
  -0.0001210000   -0.0003629300   -0.0009129400
   0.0000132700    0.0000459800    0.0000510200
   0.0000171900    0.0002841900   -0.0009120400
   0.0000114100    0.0000737800    0.0000507700
   0.0000616400   -0.0001804700    0.0007130500
   0.0000098500    0.0000475000    0.0000675400
   0.0000378600    0.0000699300    0.0000176700
  -0.0000384100    0.0000826100    0.0000923300
  -0.0000143000    0.0000343500    0.0000833300
   0.0000093600    0.0000307400    0.0000507700
   0.0001632500    0.0002153100    0.0002499400
  -0.0002692100    0.0001968600   -0.0000501800
  -0.0000681600   -0.0000849800    0.0000187200
   0.0001145100   -0.0000923800    0.0000938500
   0.0000663600   -0.0000539100   -0.0000343400
  -0.0001052500   -0.0000380000   -0.0001017100
  -0.0001440200   -0.0000344300   -0.0000049500
   0.0001088400   -0.0000592300   -0.0000344800
   0.0000875700   -0.0000332900   -0.0000048200
  -0.0000641800   -0.0000583500   -0.0000342200
  -0.0001089400   -0.0000543300   -0.0001073100
   0.0001522600   -0.0000388100   -0.0001458900
  -0.0027042000    0.0003511400    0.0011247100
   0.0001461800    0.0001056700    0.0000838200
   0.0004918200   -0.0004792800   -0.0002001500
   0.0000162300   -0.0000896800   -0.0000552500
   0.0001420000    0.0001965800   -0.0001083000
   0.0000506300    0.0000734400    0.0000188600
   0.0000076200   -0.0001288100    0.0000442600
   0.0000726000   -0.0000595100   -0.0000258400
  -0.0001320400   -0.0000280800   -0.0001422300
  -0.0000569800    0.0000164200    0.0000090000
  -0.0000245000   -0.0000735600    0.0001262600
  -0.0000524300   -0.0000196700    0.0000014900
   0.0025258100   -0.0010845800    0.0025017500
  -0.0001013700    0.0000405800    0.0000210700
  -0.0010106900   -0.0007417400   -0.0007525500
  -0.0000034900   -0.0000581700   -0.0000367100
   0.0001090000    0.0000707600   -0.0000267500
  -0.0001859700    0.0002831200    0.0000573600
   0.0000664800   -0.0000528300    0.0000219000
   0.0001304100   -0.0001340600   -0.0000335500
   0.0000240500    0.0000958100   -0.0000568600
   0.0024734400    0.0004791800   -0.0016663700
   0.0001312300   -0.0000835600    0.0000518200
  -0.0005243300   -0.0005841300    0.0003661300
  -0.0034534400   -0.0013382100   -0.0018545200
   0.0000056300    0.0000372600   -0.0000285700
   0.0007477900   -0.0006175700    0.0005812400
  -0.0001271200   -0.0000648700    0.0000471200
  -0.0000455500    0.0000399500    0.0000835200
  -0.0000657400    0.0000224900   -0.0000148700
  -0.0001124200   -0.0000857600   -0.0001434400
  -0.0000672500   -0.0000235100    0.0000006300
   0.0000613400    0.0002461900    0.0001470400
   0.0051778800    0.0010878100    0.0020849800
   0.0001204300   -0.0001802200   -0.0000999500
  -0.0007020500   -0.0010047700   -0.0002717500
   0.0000661300    0.0000930500   -0.0000220000
  -0.0000147800    0.0005323500   -0.0003220000
   0.0000945800   -0.0000799500   -0.0000022500
   0.0000850000   -0.0003642600    0.0001989400
  -0.0000503900   -0.0001072700   -0.0003194200
  -0.0000071300   -0.0000006000   -0.0000270000
  -0.0001512800   -0.0002539800    0.0003509200
  -0.0000920100   -0.0000245500    0.0000279000
  -0.0048359600   -0.0013074500    0.0040163300
   0.0000071200    0.0001144500    0.0000767000
   0.0018105100   -0.0013239000   -0.0012287500
  -0.0001287800   -0.0001343800   -0.0000736600
   0.0003169700    0.0006711900    0.0002566400
  -0.0000504000    0.0001019200    0.0000092400
  -0.0001558400   -0.0004272100   -0.0002543400
  -0.0000654700   -0.0000817800    0.0000028200
  -0.0046141000    0.0013941000   -0.0028179800
  -0.0000001300    0.0002274900   -0.0001371300
   0.0010179000   -0.0011130400    0.0005785500
  -0.0000949800   -0.0001783800    0.0000923000
   0.0065227400   -0.0021370300   -0.0033234500
   0.0000103500    0.0001303200   -0.0000815300
  -0.0014947500   -0.0012074600    0.0009870500
   0.0001376000   -0.0001549000    0.0000961900
   0.0000754500    0.0000399800    0.0001528600
   0.0000158000    0.0000027200    0.0000176200
   0.0000666800   -0.0002500700   -0.0003166400
   0.0001050900   -0.0000299100   -0.0000310600
  -0.0001979300   -0.0047742700    0.0000007900
  -0.0000310200    0.0000071500   -0.0000130100
  -0.0001733600    0.0044408300   -0.0003570600
  -0.0000314700    0.0000208200   -0.0000168300
   0.0000218100   -0.0002702600    0.0000831800
  -0.0000242200   -0.0000023000   -0.0000119800
   0.0000118800    0.0000516200   -0.0000442500
  -0.0000232600    0.0000308100   -0.0000143100
  -0.0002409300   -0.0024546200   -0.0004329700
  -0.0000461500   -0.0000585900    0.0000069700
  -0.0000298900    0.0008673000   -0.0001974700
  -0.0000175000    0.0000343000    0.0000077700
  -0.0000688400   -0.0015067100   -0.0005216000
  -0.0000098600   -0.0000675200    0.0000231800
   0.0001207200    0.0010512900    0.0002848200
  -0.0000318200    0.0000384400    0.0000178400
  -0.0000815400    0.0000456700    0.0000318800
   0.0000967000    0.0000399000    0.0000064700
   0.0000861700   -0.0000828000    0.0000361600
  -0.0000865600   -0.0000641500    0.0000221700
  -0.0004151200    0.0001148500   -0.0000458300
   0.0004209800    0.0001323000    0.0000571400
   0.0005368300   -0.0001987900    0.0000260900
  -0.0005691700   -0.0002394400   -0.0000105000
  -0.0002068100   -0.0002280200    0.0000916500
   0.0000475500   -0.0002271200    0.0000287100
   0.0001155300    0.0002599900   -0.0000695900
  -0.0000090700    0.0002148200   -0.0000254300
  -0.0000036800   -0.0001982700   -0.0000204700
   0.0001780800   -0.0002056700   -0.0001395900
   0.0000078300    0.0002159600   -0.0000242200
  -0.0001120200    0.0002413500    0.0000605300
   0.0002162600   -0.0000419700    0.0001567200
  -0.0000328700   -0.0000563200    0.0000718400
  -0.0000277600    0.0000971100   -0.0000737800
  -0.0000059800    0.0000526600   -0.0000471100
  -0.0022884800   -0.0066388600    0.0011503200
  -0.0000249100   -0.0001976000    0.0000123700
  -0.0004316000    0.0024731200   -0.0005779400
  -0.0000173300    0.0002000100   -0.0000356800
   0.0002989900    0.0001048500    0.0006739600
  -0.0000503600    0.0000518400    0.0000492700