phonopy:
  version: 2.9.3
  frequency_unit_conversion_factor: 15.633302
  symmetry_tolerance: 1.00000e-05
  nac_unit_conversion_factor: 14.399652

physical_unit:
  atomic_mass: "AMU"

primitive_matrix:
- [  1.000000000000000,  0.000000000000000,  0.000000000000000 ]
- [  0.000000000000000,  1.000000000000000,  0.000000000000000 ]
- [  0.000000000000000,  0.000000000000000,  1.000000000000000 ]

supercell_matrix:
- [   2,   0,   0 ]
- [   0,   2,   0 ]
- [   0,   0,   2 ]

primitive_cell:
  lattice:
  - [     7.687818560000000,     0.000000000000000,     0.000000000000000 ] # a
  - [     0.000000000000000,     5.623785420000000,     0.041295030000000 ] # b
  - [     0.000000000000000,     0.042364350000000,     5.623638970000000 ] # c
  points:
  - symbol: Li # 1
    coordinates: [  0.250513599999998,  0.551071760000003,  0.949079619999992 ]
    mass: 6.941000
  - symbol: Li # 2
    coordinates: [  0.250513599999998,  0.948928239999997,  0.550920380000008 ]
    mass: 6.941000
  - symbol: Li # 3
    coordinates: [  0.749486400000002,  0.448928239999998,  0.050920380000001 ]
    mass: 6.941000
  - symbol: Li # 4
    coordinates: [  0.749486400000002,  0.051071760000001,  0.449079619999992 ]
    mass: 6.941000
  - symbol: Li # 5
    coordinates: [  0.552004720000000,  0.750000000000000,  0.750000000000000 ]
    mass: 6.941000
  - symbol: Li # 6
    coordinates: [  0.447995280000000,  0.250000000000000,  0.250000000000000 ]
    mass: 6.941000
  - symbol: Li # 7
    coordinates: [  0.999881449999998,  0.750000000000000,  0.250000000000000 ]
    mass: 6.941000
  - symbol: Li # 8
    coordinates: [  0.000118550000000,  0.250000000000000,  0.750000000000000 ]
    mass: 6.941000
  - symbol: Fe # 9
    coordinates: [  0.958258090000006,  0.750000000000000,  0.750000000000000 ]
    mass: 55.845000
  - symbol: Fe # 10
    coordinates: [  0.041741910000000,  0.250000000000000,  0.250000000000000 ]
    mass: 55.845000
  - symbol: Fe # 11
    coordinates: [  0.500069730000001,  0.750000000000000,  0.250000000000000 ]
    mass: 55.845000
  - symbol: Fe # 12
    coordinates: [  0.499930269999999,  0.250000000000000,  0.750000000000000 ]
    mass: 55.845000
  - symbol: S  # 13
    coordinates: [  0.250938130000001,  0.999197619999995,  0.999179109999992 ]
    mass: 32.065000
  - symbol: S  # 14
    coordinates: [  0.250938130000001,  0.500802380000005,  0.500820890000008 ]
    mass: 32.065000
  - symbol: S  # 15
    coordinates: [  0.749061869999999,  0.000802380000000,  0.000820890000000 ]
    mass: 32.065000
  - symbol: S  # 16
    coordinates: [  0.749061869999999,  0.499197619999995,  0.499179109999992 ]
    mass: 32.065000
  - symbol: O  # 17
    coordinates: [  0.000000000000000,  0.500000000000000,  0.000000000000000 ]
    mass: 15.999400
  - symbol: O  # 18
    coordinates: [  0.000000000000000,  0.000000000000000,  0.500000000000000 ]
    mass: 15.999400
  - symbol: O  # 19
    coordinates: [  0.500000000000000,  0.500000000000000,  0.000000000000000 ]
    mass: 15.999400
  - symbol: O  # 20
    coordinates: [  0.500000000000000,  0.000000000000000,  0.500000000000000 ]
    mass: 15.999400
  reciprocal_lattice: # without 2pi
  - [     0.130075910636476,     0.000000000000000,     0.000000000000000 ] # a*
  - [     0.000000000000000,     0.177826009449230,    -0.001339610053846 ] # b*
  - [     0.000000000000000,    -0.001305796910890,     0.177830640368680 ] # c*

unit_cell:
  lattice:
  - [     7.687818560000000,     0.000000000000000,     0.000000000000000 ] # a
  - [     0.000000000000000,     5.623785420000000,     0.041295030000000 ] # b
  - [     0.000000000000000,     0.042364350000000,     5.623638970000000 ] # c
  points:
  - symbol: Li # 1
    coordinates: [  0.250513599999998,  0.551071760000003,  0.949079619999992 ]
    mass: 6.941000
    reduced_to: 1
  - symbol: Li # 2
    coordinates: [  0.250513599999998,  0.948928239999997,  0.550920380000008 ]
    mass: 6.941000
    reduced_to: 2
  - symbol: Li # 3
    coordinates: [  0.749486400000002,  0.448928239999998,  0.050920380000001 ]
    mass: 6.941000
    reduced_to: 3
  - symbol: Li # 4
    coordinates: [  0.749486400000002,  0.051071760000001,  0.449079619999992 ]
    mass: 6.941000
    reduced_to: 4
  - symbol: Li # 5
    coordinates: [  0.552004720000000,  0.750000000000000,  0.750000000000000 ]
    mass: 6.941000
    reduced_to: 5
  - symbol: Li # 6
    coordinates: [  0.447995280000000,  0.250000000000000,  0.250000000000000 ]
    mass: 6.941000
    reduced_to: 6
  - symbol: Li # 7
    coordinates: [  0.999881449999998,  0.750000000000000,  0.250000000000000 ]
    mass: 6.941000
    reduced_to: 7
  - symbol: Li # 8
    coordinates: [  0.000118550000000,  0.250000000000000,  0.750000000000000 ]
    mass: 6.941000
    reduced_to: 8
  - symbol: Fe # 9
    coordinates: [  0.958258090000006,  0.750000000000000,  0.750000000000000 ]
    mass: 55.845000
    reduced_to: 9
  - symbol: Fe # 10
    coordinates: [  0.041741910000000,  0.250000000000000,  0.250000000000000 ]
    mass: 55.845000
    reduced_to: 10
  - symbol: Fe # 11
    coordinates: [  0.500069730000001,  0.750000000000000,  0.250000000000000 ]
    mass: 55.845000
    reduced_to: 11
  - symbol: Fe # 12
    coordinates: [  0.499930269999999,  0.250000000000000,  0.750000000000000 ]
    mass: 55.845000
    reduced_to: 12
  - symbol: S  # 13
    coordinates: [  0.250938130000001,  0.999197619999995,  0.999179109999992 ]
    mass: 32.065000
    reduced_to: 13
  - symbol: S  # 14
    coordinates: [  0.250938130000001,  0.500802380000005,  0.500820890000008 ]
    mass: 32.065000
    reduced_to: 14
  - symbol: S  # 15
    coordinates: [  0.749061869999999,  0.000802380000000,  0.000820890000000 ]
    mass: 32.065000
    reduced_to: 15
  - symbol: S  # 16
    coordinates: [  0.749061869999999,  0.499197619999995,  0.499179109999992 ]
    mass: 32.065000
    reduced_to: 16
  - symbol: O  # 17
    coordinates: [  0.000000000000000,  0.500000000000000, -0.000000000000000 ]
    mass: 15.999400
    reduced_to: 17
  - symbol: O  # 18
    coordinates: [  0.000000000000000, -0.000000000000000,  0.500000000000000 ]
    mass: 15.999400
    reduced_to: 18
  - symbol: O  # 19
    coordinates: [  0.500000000000000,  0.500000000000000, -0.000000000000000 ]
    mass: 15.999400
    reduced_to: 19
  - symbol: O  # 20
    coordinates: [  0.500000000000000, -0.000000000000000,  0.500000000000000 ]
    mass: 15.999400
    reduced_to: 20

supercell:
  lattice:
  - [    15.375637120000000,     0.000000000000000,     0.000000000000000 ] # a
  - [     0.000000000000000,    11.247570840000000,     0.082590060000000 ] # b
  - [     0.000000000000000,     0.084728700000000,    11.247277940000000 ] # c
  points:
  - symbol: Li # 1
    coordinates: [  0.125256799999999,  0.275535880000001,  0.474539809999996 ]
    mass: 6.941000
    reduced_to: 1
  - symbol: Li # 2
    coordinates: [  0.625256799999999,  0.275535880000001,  0.474539809999996 ]
    mass: 6.941000
    reduced_to: 1
  - symbol: Li # 3
    coordinates: [  0.125256799999999,  0.775535880000001,  0.474539809999996 ]
    mass: 6.941000
    reduced_to: 1
  - symbol: Li # 4
    coordinates: [  0.625256799999999,  0.775535880000001,  0.474539809999996 ]
    mass: 6.941000
    reduced_to: 1
  - symbol: Li # 5
    coordinates: [  0.125256799999999,  0.275535880000001,  0.974539809999996 ]
    mass: 6.941000
    reduced_to: 1
  - symbol: Li # 6
    coordinates: [  0.625256799999999,  0.275535880000001,  0.974539809999996 ]
    mass: 6.941000
    reduced_to: 1
  - symbol: Li # 7
    coordinates: [  0.125256799999999,  0.775535880000001,  0.974539809999996 ]
    mass: 6.941000
    reduced_to: 1
  - symbol: Li # 8
    coordinates: [  0.625256799999999,  0.775535880000001,  0.974539809999996 ]
    mass: 6.941000
    reduced_to: 1
  - symbol: Li # 9
    coordinates: [  0.125256799999999,  0.474464119999999,  0.275460190000004 ]
    mass: 6.941000
    reduced_to: 9
  - symbol: Li # 10
    coordinates: [  0.625256799999999,  0.474464119999999,  0.275460190000004 ]
    mass: 6.941000
    reduced_to: 9
  - symbol: Li # 11
    coordinates: [  0.125256799999999,  0.974464119999999,  0.275460190000004 ]
    mass: 6.941000
    reduced_to: 9
  - symbol: Li # 12
    coordinates: [  0.625256799999999,  0.974464119999999,  0.275460190000004 ]
    mass: 6.941000
    reduced_to: 9
  - symbol: Li # 13
    coordinates: [  0.125256799999999,  0.474464119999999,  0.775460190000004 ]
    mass: 6.941000
    reduced_to: 9
  - symbol: Li # 14
    coordinates: [  0.625256799999999,  0.474464119999999,  0.775460190000004 ]
    mass: 6.941000
    reduced_to: 9
  - symbol: Li # 15
    coordinates: [  0.125256799999999,  0.974464119999999,  0.775460190000004 ]
    mass: 6.941000
    reduced_to: 9
  - symbol: Li # 16
    coordinates: [  0.625256799999999,  0.974464119999999,  0.775460190000004 ]
    mass: 6.941000
    reduced_to: 9
  - symbol: Li # 17
    coordinates: [  0.374743200000001,  0.224464119999999,  0.025460190000000 ]
    mass: 6.941000
    reduced_to: 17
  - symbol: Li # 18
    coordinates: [  0.874743200000001,  0.224464119999999,  0.025460190000000 ]
    mass: 6.941000
    reduced_to: 17
  - symbol: Li # 19
    coordinates: [  0.374743200000001,  0.724464119999999,  0.025460190000000 ]
    mass: 6.941000
    reduced_to: 17
  - symbol: Li # 20
    coordinates: [  0.874743200000001,  0.724464119999999,  0.025460190000000 ]
    mass: 6.941000
    reduced_to: 17
  - symbol: Li # 21
    coordinates: [  0.374743200000001,  0.224464119999999,  0.525460190000000 ]
    mass: 6.941000
    reduced_to: 17
  - symbol: Li # 22
    coordinates: [  0.874743200000001,  0.224464119999999,  0.525460190000000 ]
    mass: 6.941000
    reduced_to: 17
  - symbol: Li # 23
    coordinates: [  0.374743200000001,  0.724464119999999,  0.525460190000000 ]
    mass: 6.941000
    reduced_to: 17
  - symbol: Li # 24
    coordinates: [  0.874743200000001,  0.724464119999999,  0.525460190000000 ]
    mass: 6.941000
    reduced_to: 17
  - symbol: Li # 25
    coordinates: [  0.374743200000001,  0.025535880000000,  0.224539809999996 ]
    mass: 6.941000
    reduced_to: 25
  - symbol: Li # 26
    coordinates: [  0.874743200000001,  0.025535880000000,  0.224539809999996 ]
    mass: 6.941000
    reduced_to: 25
  - symbol: Li # 27
    coordinates: [  0.374743200000001,  0.525535880000000,  0.224539809999996 ]
    mass: 6.941000
    reduced_to: 25
  - symbol: Li # 28
    coordinates: [  0.874743200000001,  0.525535880000000,  0.224539809999996 ]
    mass: 6.941000
    reduced_to: 25
  - symbol: Li # 29
    coordinates: [  0.374743200000001,  0.025535880000000,  0.724539809999996 ]
    mass: 6.941000
    reduced_to: 25
  - symbol: Li # 30
    coordinates: [  0.874743200000001,  0.025535880000000,  0.724539809999996 ]
    mass: 6.941000
    reduced_to: 25
  - symbol: Li # 31
    coordinates: [  0.374743200000001,  0.525535880000000,  0.724539809999996 ]
    mass: 6.941000
    reduced_to: 25
  - symbol: Li # 32
    coordinates: [  0.874743200000001,  0.525535880000000,  0.724539809999996 ]
    mass: 6.941000
    reduced_to: 25
  - symbol: Li # 33
    coordinates: [  0.276002360000000,  0.375000000000000,  0.375000000000000 ]
    mass: 6.941000
    reduced_to: 33
  - symbol: Li # 34
    coordinates: [  0.776002360000000,  0.375000000000000,  0.375000000000000 ]
    mass: 6.941000
    reduced_to: 33
  - symbol: Li # 35
    coordinates: [  0.276002360000000,  0.875000000000000,  0.375000000000000 ]
    mass: 6.941000
    reduced_to: 33
  - symbol: Li # 36
    coordinates: [  0.776002360000000,  0.875000000000000,  0.375000000000000 ]
    mass: 6.941000
    reduced_to: 33
  - symbol: Li # 37
    coordinates: [  0.276002360000000,  0.375000000000000,  0.875000000000000 ]
    mass: 6.941000
    reduced_to: 33
  - symbol: Li # 38
    coordinates: [  0.776002360000000,  0.375000000000000,  0.875000000000000 ]
    mass: 6.941000
    reduced_to: 33
  - symbol: Li # 39
    coordinates: [  0.276002360000000,  0.875000000000000,  0.875000000000000 ]
    mass: 6.941000
    reduced_to: 33
  - symbol: Li # 40
    coordinates: [  0.776002360000000,  0.875000000000000,  0.875000000000000 ]
    mass: 6.941000
    reduced_to: 33
  - symbol: Li # 41
    coordinates: [  0.223997640000000,  0.125000000000000,  0.125000000000000 ]
    mass: 6.941000
    reduced_to: 41
  - symbol: Li # 42
    coordinates: [  0.723997640000000,  0.125000000000000,  0.125000000000000 ]
    mass: 6.941000
    reduced_to: 41
  - symbol: Li # 43
    coordinates: [  0.223997640000000,  0.625000000000000,  0.125000000000000 ]
    mass: 6.941000
    reduced_to: 41
  - symbol: Li # 44
    coordinates: [  0.723997640000000,  0.625000000000000,  0.125000000000000 ]
    mass: 6.941000
    reduced_to: 41
  - symbol: Li # 45
    coordinates: [  0.223997640000000,  0.125000000000000,  0.625000000000000 ]
    mass: 6.941000
    reduced_to: 41
  - symbol: Li # 46
    coordinates: [  0.723997640000000,  0.125000000000000,  0.625000000000000 ]
    mass: 6.941000
    reduced_to: 41
  - symbol: Li # 47
    coordinates: [  0.223997640000000,  0.625000000000000,  0.625000000000000 ]
    mass: 6.941000
    reduced_to: 41
  - symbol: Li # 48
    coordinates: [  0.723997640000000,  0.625000000000000,  0.625000000000000 ]
    mass: 6.941000
    reduced_to: 41
  - symbol: Li # 49
    coordinates: [  0.499940724999999,  0.375000000000000,  0.125000000000000 ]
    mass: 6.941000
    reduced_to: 49
  - symbol: Li # 50
    coordinates: [  0.999940724999999,  0.375000000000000,  0.125000000000000 ]
    mass: 6.941000
    reduced_to: 49
  - symbol: Li # 51
    coordinates: [  0.499940724999999,  0.875000000000000,  0.125000000000000 ]
    mass: 6.941000
    reduced_to: 49
  - symbol: Li # 52
    coordinates: [  0.999940724999999,  0.875000000000000,  0.125000000000000 ]
    mass: 6.941000
    reduced_to: 49
  - symbol: Li # 53
    coordinates: [  0.499940724999999,  0.375000000000000,  0.625000000000000 ]
    mass: 6.941000
    reduced_to: 49
  - symbol: Li # 54
    coordinates: [  0.999940724999999,  0.375000000000000,  0.625000000000000 ]
    mass: 6.941000
    reduced_to: 49
  - symbol: Li # 55
    coordinates: [  0.499940724999999,  0.875000000000000,  0.625000000000000 ]
    mass: 6.941000
    reduced_to: 49
  - symbol: Li # 56
    coordinates: [  0.999940724999999,  0.875000000000000,  0.625000000000000 ]
    mass: 6.941000
    reduced_to: 49
  - symbol: Li # 57
    coordinates: [  0.000059275000000,  0.125000000000000,  0.375000000000000 ]
    mass: 6.941000
    reduced_to: 57
  - symbol: Li # 58
    coordinates: [  0.500059275000000,  0.125000000000000,  0.375000000000000 ]
    mass: 6.941000
    reduced_to: 57
  - symbol: Li # 59
    coordinates: [  0.000059275000000,  0.625000000000000,  0.375000000000000 ]
    mass: 6.941000
    reduced_to: 57
  - symbol: Li # 60
    coordinates: [  0.500059275000000,  0.625000000000000,  0.375000000000000 ]
    mass: 6.941000
    reduced_to: 57
  - symbol: Li # 61
    coordinates: [  0.000059275000000,  0.125000000000000,  0.875000000000000 ]
    mass: 6.941000
    reduced_to: 57
  - symbol: Li # 62
    coordinates: [  0.500059275000000,  0.125000000000000,  0.875000000000000 ]
    mass: 6.941000
    reduced_to: 57
  - symbol: Li # 63
    coordinates: [  0.000059275000000,  0.625000000000000,  0.875000000000000 ]
    mass: 6.941000
    reduced_to: 57
  - symbol: Li # 64
    coordinates: [  0.500059275000000,  0.625000000000000,  0.875000000000000 ]
    mass: 6.941000
    reduced_to: 57
  - symbol: Fe # 65
    coordinates: [  0.479129045000003,  0.375000000000000,  0.375000000000000 ]
    mass: 55.845000
    reduced_to: 65
  - symbol: Fe # 66
    coordinates: [  0.979129045000003,  0.375000000000000,  0.375000000000000 ]
    mass: 55.845000
    reduced_to: 65
  - symbol: Fe # 67
    coordinates: [  0.479129045000003,  0.875000000000000,  0.375000000000000 ]
    mass: 55.845000
    reduced_to: 65
  - symbol: Fe # 68
    coordinates: [  0.979129045000003,  0.875000000000000,  0.375000000000000 ]
    mass: 55.845000
    reduced_to: 65
  - symbol: Fe # 69
    coordinates: [  0.479129045000003,  0.375000000000000,  0.875000000000000 ]
    mass: 55.845000
    reduced_to: 65
  - symbol: Fe # 70
    coordinates: [  0.979129045000003,  0.375000000000000,  0.875000000000000 ]
    mass: 55.845000
    reduced_to: 65
  - symbol: Fe # 71
    coordinates: [  0.479129045000003,  0.875000000000000,  0.875000000000000 ]
    mass: 55.845000
    reduced_to: 65
  - symbol: Fe # 72
    coordinates: [  0.979129045000003,  0.875000000000000,  0.875000000000000 ]
    mass: 55.845000
    reduced_to: 65
  - symbol: Fe # 73
    coordinates: [  0.020870955000000,  0.125000000000000,  0.125000000000000 ]
    mass: 55.845000
    reduced_to: 73
  - symbol: Fe # 74
    coordinates: [  0.520870955000000,  0.125000000000000,  0.125000000000000 ]
    mass: 55.845000
    reduced_to: 73
  - symbol: Fe # 75
    coordinates: [  0.020870955000000,  0.625000000000000,  0.125000000000000 ]
    mass: 55.845000
    reduced_to: 73
  - symbol: Fe # 76
    coordinates: [  0.520870955000000,  0.625000000000000,  0.125000000000000 ]
    mass: 55.845000
    reduced_to: 73
  - symbol: Fe # 77
    coordinates: [  0.020870955000000,  0.125000000000000,  0.625000000000000 ]
    mass: 55.845000
    reduced_to: 73
  - symbol: Fe # 78
    coordinates: [  0.520870955000000,  0.125000000000000,  0.625000000000000 ]
    mass: 55.845000
    reduced_to: 73
  - symbol: Fe # 79
    coordinates: [  0.020870955000000,  0.625000000000000,  0.625000000000000 ]
    mass: 55.845000
    reduced_to: 73
  - symbol: Fe # 80
    coordinates: [  0.520870955000000,  0.625000000000000,  0.625000000000000 ]
    mass: 55.845000
    reduced_to: 73
  - symbol: Fe # 81
    coordinates: [  0.250034865000001,  0.375000000000000,  0.125000000000000 ]
    mass: 55.845000
    reduced_to: 81
  - symbol: Fe # 82
    coordinates: [  0.750034865000001,  0.375000000000000,  0.125000000000000 ]
    mass: 55.845000
    reduced_to: 81
  - symbol: Fe # 83
    coordinates: [  0.250034865000001,  0.875000000000000,  0.125000000000000 ]
    mass: 55.845000
    reduced_to: 81
  - symbol: Fe # 84
    coordinates: [  0.750034865000001,  0.875000000000000,  0.125000000000000 ]
    mass: 55.845000
    reduced_to: 81
  - symbol: Fe # 85
    coordinates: [  0.250034865000001,  0.375000000000000,  0.625000000000000 ]
    mass: 55.845000
    reduced_to: 81
  - symbol: Fe # 86
    coordinates: [  0.750034865000001,  0.375000000000000,  0.625000000000000 ]
    mass: 55.845000
    reduced_to: 81
  - symbol: Fe # 87
    coordinates: [  0.250034865000001,  0.875000000000000,  0.625000000000000 ]
    mass: 55.845000
    reduced_to: 81
  - symbol: Fe # 88
    coordinates: [  0.750034865000001,  0.875000000000000,  0.625000000000000 ]
    mass: 55.845000
    reduced_to: 81
  - symbol: Fe # 89
    coordinates: [  0.249965134999999,  0.125000000000000,  0.375000000000000 ]
    mass: 55.845000
    reduced_to: 89
  - symbol: Fe # 90
    coordinates: [  0.749965134999999,  0.125000000000000,  0.375000000000000 ]
    mass: 55.845000
    reduced_to: 89
  - symbol: Fe # 91
    coordinates: [  0.249965134999999,  0.625000000000000,  0.375000000000000 ]
    mass: 55.845000
    reduced_to: 89
  - symbol: Fe # 92
    coordinates: [  0.749965134999999,  0.625000000000000,  0.375000000000000 ]
    mass: 55.845000
    reduced_to: 89
  - symbol: Fe # 93
    coordinates: [  0.249965134999999,  0.125000000000000,  0.875000000000000 ]
    mass: 55.845000
    reduced_to: 89
  - symbol: Fe # 94
    coordinates: [  0.749965134999999,  0.125000000000000,  0.875000000000000 ]
    mass: 55.845000
    reduced_to: 89
  - symbol: Fe # 95
    coordinates: [  0.249965134999999,  0.625000000000000,  0.875000000000000 ]
    mass: 55.845000
    reduced_to: 89
  - symbol: Fe # 96
    coordinates: [  0.749965134999999,  0.625000000000000,  0.875000000000000 ]
    mass: 55.845000
    reduced_to: 89
  - symbol: S  # 97
    coordinates: [  0.125469065000000,  0.499598809999998,  0.499589554999996 ]
    mass: 32.065000
    reduced_to: 97
  - symbol: S  # 98
    coordinates: [  0.625469065000000,  0.499598809999998,  0.499589554999996 ]
    mass: 32.065000
    reduced_to: 97
  - symbol: S  # 99
    coordinates: [  0.125469065000000,  0.999598809999998,  0.499589554999996 ]
    mass: 32.065000
    reduced_to: 97
  - symbol: S  # 100
    coordinates: [  0.625469065000000,  0.999598809999998,  0.499589554999996 ]
    mass: 32.065000
    reduced_to: 97
  - symbol: S  # 101
    coordinates: [  0.125469065000000,  0.499598809999998,  0.999589554999996 ]
    mass: 32.065000
    reduced_to: 97
  - symbol: S  # 102
    coordinates: [  0.625469065000000,  0.499598809999998,  0.999589554999996 ]
    mass: 32.065000
    reduced_to: 97
  - symbol: S  # 103
    coordinates: [  0.125469065000000,  0.999598809999998,  0.999589554999996 ]
    mass: 32.065000
    reduced_to: 97
  - symbol: S  # 104
    coordinates: [  0.625469065000000,  0.999598809999998,  0.999589554999996 ]
    mass: 32.065000
    reduced_to: 97
  - symbol: S  # 105
    coordinates: [  0.125469065000000,  0.250401190000003,  0.250410445000004 ]
    mass: 32.065000
    reduced_to: 105
  - symbol: S  # 106
    coordinates: [  0.625469065000000,  0.250401190000003,  0.250410445000004 ]
    mass: 32.065000
    reduced_to: 105
  - symbol: S  # 107
    coordinates: [  0.125469065000000,  0.750401190000002,  0.250410445000004 ]
    mass: 32.065000
    reduced_to: 105
  - symbol: S  # 108
    coordinates: [  0.625469065000000,  0.750401190000002,  0.250410445000004 ]
    mass: 32.065000
    reduced_to: 105
  - symbol: S  # 109
    coordinates: [  0.125469065000000,  0.250401190000003,  0.750410445000004 ]
    mass: 32.065000
    reduced_to: 105
  - symbol: S  # 110
    coordinates: [  0.625469065000000,  0.250401190000003,  0.750410445000004 ]
    mass: 32.065000
    reduced_to: 105
  - symbol: S  # 111
    coordinates: [  0.125469065000000,  0.750401190000002,  0.750410445000004 ]
    mass: 32.065000
    reduced_to: 105
  - symbol: S  # 112
    coordinates: [  0.625469065000000,  0.750401190000002,  0.750410445000004 ]
    mass: 32.065000
    reduced_to: 105
  - symbol: S  # 113
    coordinates: [  0.374530934999999,  0.000401190000000,  0.000410445000000 ]
    mass: 32.065000
    reduced_to: 113
  - symbol: S  # 114
    coordinates: [  0.874530934999999,  0.000401190000000,  0.000410445000000 ]
    mass: 32.065000
    reduced_to: 113
  - symbol: S  # 115
    coordinates: [  0.374530934999999,  0.500401190000000,  0.000410445000000 ]
    mass: 32.065000
    reduced_to: 113
  - symbol: S  # 116
    coordinates: [  0.874530934999999,  0.500401190000000,  0.000410445000000 ]
    mass: 32.065000
    reduced_to: 113
  - symbol: S  # 117
    coordinates: [  0.374530934999999,  0.000401190000000,  0.500410445000000 ]
    mass: 32.065000
    reduced_to: 113
  - symbol: S  # 118
    coordinates: [  0.874530934999999,  0.000401190000000,  0.500410445000000 ]
    mass: 32.065000
    reduced_to: 113
  - symbol: S  # 119
    coordinates: [  0.374530934999999,  0.500401190000000,  0.500410445000000 ]
    mass: 32.065000
    reduced_to: 113
  - symbol: S  # 120
    coordinates: [  0.874530934999999,  0.500401190000000,  0.500410445000000 ]
    mass: 32.065000
    reduced_to: 113
  - symbol: S  # 121
    coordinates: [  0.374530934999999,  0.249598809999997,  0.249589554999996 ]
    mass: 32.065000
    reduced_to: 121
  - symbol: S  # 122
    coordinates: [  0.874530934999999,  0.249598809999997,  0.249589554999996 ]
    mass: 32.065000
    reduced_to: 121
  - symbol: S  # 123
    coordinates: [  0.374530934999999,  0.749598809999998,  0.249589554999996 ]
    mass: 32.065000
    reduced_to: 121
  - symbol: S  # 124
    coordinates: [  0.874530934999999,  0.749598809999998,  0.249589554999996 ]
    mass: 32.065000
    reduced_to: 121
  - symbol: S  # 125
    coordinates: [  0.374530934999999,  0.249598809999997,  0.749589554999996 ]
    mass: 32.065000
    reduced_to: 121
  - symbol: S  # 126
    coordinates: [  0.874530934999999,  0.249598809999997,  0.749589554999996 ]
    mass: 32.065000
    reduced_to: 121
  - symbol: S  # 127
    coordinates: [  0.374530934999999,  0.749598809999998,  0.749589554999996 ]
    mass: 32.065000
    reduced_to: 121
  - symbol: S  # 128
    coordinates: [  0.874530934999999,  0.749598809999998,  0.749589554999996 ]
    mass: 32.065000
    reduced_to: 121
  - symbol: O  # 129
    coordinates: [  0.000000000000000,  0.250000000000000,  1.000000000000000 ]
    mass: 15.999400
    reduced_to: 129
  - symbol: O  # 130
    coordinates: [  0.500000000000000,  0.250000000000000,  1.000000000000000 ]
    mass: 15.999400
    reduced_to: 129
  - symbol: O  # 131
    coordinates: [  0.000000000000000,  0.750000000000000,  1.000000000000000 ]
    mass: 15.999400
    reduced_to: 129
  - symbol: O  # 132
    coordinates: [  0.500000000000000,  0.750000000000000,  1.000000000000000 ]
    mass: 15.999400
    reduced_to: 129
  - symbol: O  # 133
    coordinates: [  0.000000000000000,  0.250000000000000,  0.500000000000000 ]
    mass: 15.999400
    reduced_to: 129
  - symbol: O  # 134
    coordinates: [  0.500000000000000,  0.250000000000000,  0.500000000000000 ]
    mass: 15.999400
    reduced_to: 129
  - symbol: O  # 135
    coordinates: [  0.000000000000000,  0.750000000000000,  0.500000000000000 ]
    mass: 15.999400
    reduced_to: 129
  - symbol: O  # 136
    coordinates: [  0.500000000000000,  0.750000000000000,  0.500000000000000 ]
    mass: 15.999400
    reduced_to: 129
  - symbol: O  # 137
    coordinates: [  0.000000000000000,  1.000000000000000,  0.250000000000000 ]
    mass: 15.999400
    reduced_to: 137
  - symbol: O  # 138
    coordinates: [  0.500000000000000,  1.000000000000000,  0.250000000000000 ]
    mass: 15.999400
    reduced_to: 137
  - symbol: O  # 139
    coordinates: [  0.000000000000000,  0.500000000000000,  0.250000000000000 ]
    mass: 15.999400
    reduced_to: 137
  - symbol: O  # 140
    coordinates: [  0.500000000000000,  0.500000000000000,  0.250000000000000 ]
    mass: 15.999400
    reduced_to: 137
  - symbol: O  # 141
    coordinates: [  0.000000000000000,  1.000000000000000,  0.750000000000000 ]
    mass: 15.999400
    reduced_to: 137
  - symbol: O  # 142
    coordinates: [  0.500000000000000,  1.000000000000000,  0.750000000000000 ]
    mass: 15.999400
    reduced_to: 137
  - symbol: O  # 143
    coordinates: [  0.000000000000000,  0.500000000000000,  0.750000000000000 ]
    mass: 15.999400
    reduced_to: 137
  - symbol: O  # 144
    coordinates: [  0.500000000000000,  0.500000000000000,  0.750000000000000 ]
    mass: 15.999400
    reduced_to: 137
  - symbol: O  # 145
    coordinates: [  0.250000000000000,  0.250000000000000,  1.000000000000000 ]
    mass: 15.999400
    reduced_to: 145
  - symbol: O  # 146
    coordinates: [  0.750000000000000,  0.250000000000000,  1.000000000000000 ]
    mass: 15.999400
    reduced_to: 145
  - symbol: O  # 147
    coordinates: [  0.250000000000000,  0.750000000000000,  1.000000000000000 ]
    mass: 15.999400
    reduced_to: 145
  - symbol: O  # 148
    coordinates: [  0.750000000000000,  0.750000000000000,  1.000000000000000 ]
    mass: 15.999400
    reduced_to: 145
  - symbol: O  # 149
    coordinates: [  0.250000000000000,  0.250000000000000,  0.500000000000000 ]
    mass: 15.999400
    reduced_to: 145
  - symbol: O  # 150
    coordinates: [  0.750000000000000,  0.250000000000000,  0.500000000000000 ]
    mass: 15.999400
    reduced_to: 145
  - symbol: O  # 151
    coordinates: [  0.250000000000000,  0.750000000000000,  0.500000000000000 ]
    mass: 15.999400
    reduced_to: 145
  - symbol: O  # 152
    coordinates: [  0.750000000000000,  0.750000000000000,  0.500000000000000 ]
    mass: 15.999400
    reduced_to: 145
  - symbol: O  # 153
    coordinates: [  0.250000000000000,  1.000000000000000,  0.250000000000000 ]
    mass: 15.999400
    reduced_to: 153
  - symbol: O  # 154
    coordinates: [  0.750000000000000,  1.000000000000000,  0.250000000000000 ]
    mass: 15.999400
    reduced_to: 153
  - symbol: O  # 155
    coordinates: [  0.250000000000000,  0.500000000000000,  0.250000000000000 ]
    mass: 15.999400
    reduced_to: 153
  - symbol: O  # 156
    coordinates: [  0.750000000000000,  0.500000000000000,  0.250000000000000 ]
    mass: 15.999400
    reduced_to: 153
  - symbol: O  # 157
    coordinates: [  0.250000000000000,  1.000000000000000,  0.750000000000000 ]
    mass: 15.999400
    reduced_to: 153
  - symbol: O  # 158
    coordinates: [  0.750000000000000,  1.000000000000000,  0.750000000000000 ]
    mass: 15.999400
    reduced_to: 153
  - symbol: O  # 159
    coordinates: [  0.250000000000000,  0.500000000000000,  0.750000000000000 ]
    mass: 15.999400
    reduced_to: 153
  - symbol: O  # 160
    coordinates: [  0.750000000000000,  0.500000000000000,  0.750000000000000 ]
    mass: 15.999400
    reduced_to: 153

born_effective_charge:
- # 1 (Li)
  - [  0.939180303000000, -0.036794895000000,  0.036928765000000 ]
  - [ -0.019047905000000,  1.210375585000000,  0.053480752500000 ]
  - [  0.019110367500000,  0.053474377000000,  1.210566460000000 ]
- # 2 (Li)
  - [  0.939180303000000,  0.036794895000000, -0.036928765000000 ]
  - [  0.019047905000000,  1.210375585000000,  0.053480752500000 ]
  - [ -0.019110367500000,  0.053474377000000,  1.210566460000000 ]
- # 3 (Li)
  - [  0.939180303000000, -0.036794895000000,  0.036928765000000 ]
  - [ -0.019047905000000,  1.210375585000000,  0.053480752500000 ]
  - [  0.019110367500000,  0.053474377000000,  1.210566460000000 ]
- # 4 (Li)
  - [  0.939180303000000,  0.036794895000000, -0.036928765000000 ]
  - [  0.019047905000000,  1.210375585000000,  0.053480752500000 ]
  - [ -0.019110367500000,  0.053474377000000,  1.210566460000000 ]
- # 5 (Li)
  - [  1.230961455500000, -0.000000000000000, -0.000000000000000 ]