  88  88   0   0
  0.1431748E+02  0.1111223E-08  0.1111745E-08  0.1056954E-08  0.5000000E-15
  1.000000000000000E-004
  CAR 
 unknown system                          
     17.89882877    -54.33957738  301      5.19690902      1.00000000
    -54.340  0.0000E+00  0.0000E+00  0.0000E+00  0.0000E+00
    -54.099  0.0000E+00  0.0000E+00  0.0000E+00  0.0000E+00
    -53.858  0.0000E+00  0.0000E+00  0.0000E+00  0.0000E+00
    -53.617  0.0000E+00  0.0000E+00  0.0000E+00  0.0000E+00
    -53.376  0.0000E+00  0.0000E+00  0.0000E+00  0.0000E+00
    -53.136  0.0000E+00  0.0000E+00  0.0000E+00  0.0000E+00
    -52.895  0.0000E+00  0.0000E+00  0.0000E+00  0.0000E+00
    -52.654  0.0000E+00  0.0000E+00  0.0000E+00  0.0000E+00
    -52.413  0.0000E+00  0.0000E+00  0.0000E+00  0.0000E+00
    -52.172  0.0000E+00  0.0000E+00  0.0000E+00  0.0000E+00
    -51.932  0.0000E+00  0.0000E+00  0.0000E+00  0.0000E+00
    -51.691  0.0000E+00  0.0000E+00  0.0000E+00  0.0000E+00
    -51.450  0.0000E+00  0.0000E+00  0.0000E+00  0.0000E+00
    -51.209  0.4158E-03  0.0000E+00  0.1001E-03  0.0000E+00
    -50.968  0.1310E+03  0.0000E+00  0.3156E+02  0.0000E+00
    -50.728  0.1845E+01  0.0000E+00  0.3200E+02  0.0000E+00
    -50.487  0.0000E+00  0.0000E+00  0.3200E+02  0.0000E+00
    -50.246  0.0000E+00  0.0000E+00  0.3200E+02  0.0000E+00
    -50.005  0.0000E+00  0.0000E+00  0.3200E+02  0.0000E+00
    -49.764  0.2023E+01  0.0000E+00  0.3249E+02  0.0000E+00
    -49.524  0.2371E+03  0.0000E+00  0.8958E+02  0.0000E+00
    -49.283  0.2667E+02  0.0000E+00  0.9600E+02  0.0000E+00
    -49.042  0.0000E+00  0.0000E+00  0.9600E+02  0.0000E+00
    -48.801  0.0000E+00  0.0000E+00  0.9600E+02  0.0000E+00
    -48.561  0.0000E+00  0.0000E+00  0.9600E+02  0.0000E+00
    -48.320  0.0000E+00  0.0000E+00  0.9600E+02  0.0000E+00
    -48.079  0.0000E+00  0.0000E+00  0.9600E+02  0.0000E+00
    -47.838  0.0000E+00  0.0000E+00  0.9600E+02  0.0000E+00
    -47.597  0.0000E+00  0.0000E+00  0.9600E+02  0.0000E+00
    -47.357  0.0000E+00  0.0000E+00  0.9600E+02  0.0000E+00
    -47.116  0.0000E+00  0.0000E+00  0.9600E+02  0.0000E+00
    -46.875  0.0000E+00  0.0000E+00  0.9600E+02  0.0000E+00
    -46.634  0.0000E+00  0.0000E+00  0.9600E+02  0.0000E+00
    -46.393  0.0000E+00  0.3750E+00  0.9600E+02  0.9029E-01
    -46.153  0.0000E+00  0.1325E+03  0.9600E+02  0.3199E+02
    -45.912  0.0000E+00  0.6034E+02  0.9600E+02  0.4652E+02
    -45.671  0.0000E+00  0.2055E+03  0.9600E+02  0.9600E+02
    -45.430  0.0000E+00  0.0000E+00  0.9600E+02  0.9600E+02
    -45.189  0.0000E+00  0.0000E+00  0.9600E+02  0.9600E+02
    -44.949  0.0000E+00  0.0000E+00  0.9600E+02  0.9600E+02
    -44.708  0.0000E+00  0.0000E+00  0.9600E+02  0.9600E+02
    -44.467  0.0000E+00  0.0000E+00  0.9600E+02  0.9600E+02
    -44.226  0.0000E+00  0.0000E+00  0.9600E+02  0.9600E+02
    -43.985  0.0000E+00  0.0000E+00  0.9600E+02  0.9600E+02
    -43.745  0.0000E+00  0.0000E+00  0.9600E+02  0.9600E+02
    -43.504  0.0000E+00  0.0000E+00  0.9600E+02  0.9600E+02
    -43.263  0.0000E+00  0.0000E+00  0.9600E+02  0.9600E+02
    -43.022  0.0000E+00  0.0000E+00  0.9600E+02  0.9600E+02
    -42.781  0.0000E+00  0.0000E+00  0.9600E+02  0.9600E+02
    -42.541  0.0000E+00  0.0000E+00  0.9600E+02  0.9600E+02
    -42.300  0.0000E+00  0.0000E+00  0.9600E+02  0.9600E+02
    -42.059  0.0000E+00  0.0000E+00  0.9600E+02  0.9600E+02
    -41.818  0.0000E+00  0.0000E+00  0.9600E+02  0.9600E+02
    -41.577  0.0000E+00  0.0000E+00  0.9600E+02  0.9600E+02
    -41.337  0.0000E+00  0.0000E+00  0.9600E+02  0.9600E+02
    -41.096  0.0000E+00  0.0000E+00  0.9600E+02  0.9600E+02
    -40.855  0.0000E+00  0.0000E+00  0.9600E+02  0.9600E+02
    -40.614  0.0000E+00  0.0000E+00  0.9600E+02  0.9600E+02
    -40.373  0.0000E+00  0.0000E+00  0.9600E+02  0.9600E+02
    -40.133  0.1391E-11  0.8792E-12  0.9600E+02  0.9600E+02
    -39.892  0.1513E+02  0.1396E+02  0.9964E+02  0.9936E+02
    -39.651  0.5131E+02  0.5249E+02  0.1120E+03  0.1120E+03
    -39.410  0.0000E+00  0.0000E+00  0.1120E+03  0.1120E+03
    -39.170  0.0000E+00  0.0000E+00  0.1120E+03  0.1120E+03
    -38.929  0.0000E+00  0.0000E+00  0.1120E+03  0.1120E+03
    -38.688  0.0000E+00  0.0000E+00  0.1120E+03  0.1120E+03
    -38.447  0.0000E+00  0.0000E+00  0.1120E+03  0.1120E+03
    -38.206  0.0000E+00  0.0000E+00  0.1120E+03  0.1120E+03
    -37.966  0.0000E+00  0.0000E+00  0.1120E+03  0.1120E+03
    -37.725  0.0000E+00  0.0000E+00  0.1120E+03  0.1120E+03
    -37.484  0.0000E+00  0.0000E+00  0.1120E+03  0.1120E+03
    -37.243  0.0000E+00  0.0000E+00  0.1120E+03  0.1120E+03
    -37.002  0.0000E+00  0.0000E+00  0.1120E+03  0.1120E+03
    -36.762  0.0000E+00  0.0000E+00  0.1120E+03  0.1120E+03
    -36.521  0.0000E+00  0.0000E+00  0.1120E+03  0.1120E+03
    -36.280  0.0000E+00  0.0000E+00  0.1120E+03  0.1120E+03
    -36.039  0.0000E+00  0.0000E+00  0.1120E+03  0.1120E+03
    -35.798  0.0000E+00  0.0000E+00  0.1120E+03  0.1120E+03
    -35.558  0.0000E+00  0.0000E+00  0.1120E+03  0.1120E+03
    -35.317  0.0000E+00  0.0000E+00  0.1120E+03  0.1120E+03
    -35.076  0.0000E+00  0.0000E+00  0.1120E+03  0.1120E+03
    -34.835  0.0000E+00  0.0000E+00  0.1120E+03  0.1120E+03
    -34.594  0.0000E+00  0.0000E+00  0.1120E+03  0.1120E+03
    -34.354  0.0000E+00  0.0000E+00  0.1120E+03  0.1120E+03
    -34.113  0.0000E+00  0.0000E+00  0.1120E+03  0.1120E+03
    -33.872  0.0000E+00  0.0000E+00  0.1120E+03  0.1120E+03
    -33.631  0.0000E+00  0.0000E+00  0.1120E+03  0.1120E+03
    -33.390  0.0000E+00  0.0000E+00  0.1120E+03  0.1120E+03
    -33.150  0.0000E+00  0.0000E+00  0.1120E+03  0.1120E+03
    -32.909  0.0000E+00  0.0000E+00  0.1120E+03  0.1120E+03
    -32.668  0.0000E+00  0.0000E+00  0.1120E+03  0.1120E+03
    -32.427  0.0000E+00  0.0000E+00  0.1120E+03  0.1120E+03
    -32.186  0.0000E+00  0.0000E+00  0.1120E+03  0.1120E+03
    -31.946  0.0000E+00  0.0000E+00  0.1120E+03  0.1120E+03
    -31.705  0.0000E+00  0.0000E+00  0.1120E+03  0.1120E+03
    -31.464  0.0000E+00  0.0000E+00  0.1120E+03  0.1120E+03
    -31.223  0.0000E+00  0.0000E+00  0.1120E+03  0.1120E+03
    -30.982  0.0000E+00  0.0000E+00  0.1120E+03  0.1120E+03
    -30.742  0.0000E+00  0.0000E+00  0.1120E+03  0.1120E+03
    -30.501  0.0000E+00  0.0000E+00  0.1120E+03  0.1120E+03
    -30.260  0.0000E+00  0.0000E+00  0.1120E+03  0.1120E+03
    -30.019  0.0000E+00  0.0000E+00  0.1120E+03  0.1120E+03
    -29.779  0.0000E+00  0.0000E+00  0.1120E+03  0.1120E+03
    -29.538  0.0000E+00  0.0000E+00  0.1120E+03  0.1120E+03
    -29.297  0.0000E+00  0.0000E+00  0.1120E+03  0.1120E+03
    -29.056  0.0000E+00  0.0000E+00  0.1120E+03  0.1120E+03
    -28.815  0.0000E+00  0.0000E+00  0.1120E+03  0.1120E+03
    -28.575  0.0000E+00  0.0000E+00  0.1120E+03  0.1120E+03
    -28.334  0.0000E+00  0.0000E+00  0.1120E+03  0.1120E+03
    -28.093  0.0000E+00  0.0000E+00  0.1120E+03  0.1120E+03
    -27.852  0.0000E+00  0.0000E+00  0.1120E+03  0.1120E+03
    -27.611  0.0000E+00  0.0000E+00  0.1120E+03  0.1120E+03
    -27.371  0.0000E+00  0.0000E+00  0.1120E+03  0.1120E+03
    -27.130  0.0000E+00  0.0000E+00  0.1120E+03  0.1120E+03
    -26.889  0.0000E+00  0.0000E+00  0.1120E+03  0.1120E+03
    -26.648  0.0000E+00  0.0000E+00  0.1120E+03  0.1120E+03
    -26.407  0.0000E+00  0.0000E+00  0.1120E+03  0.1120E+03
    -26.167  0.0000E+00  0.0000E+00  0.1120E+03  0.1120E+03
    -25.926  0.0000E+00  0.0000E+00  0.1120E+03  0.1120E+03
    -25.685  0.0000E+00  0.0000E+00  0.1120E+03  0.1120E+03
    -25.444  0.0000E+00  0.0000E+00  0.1120E+03  0.1120E+03
    -25.203  0.0000E+00  0.0000E+00  0.1120E+03  0.1120E+03
    -24.963  0.0000E+00  0.0000E+00  0.1120E+03  0.1120E+03
    -24.722  0.0000E+00  0.0000E+00  0.1120E+03  0.1120E+03
    -24.481  0.0000E+00  0.0000E+00  0.1120E+03  0.1120E+03
    -24.240  0.0000E+00  0.0000E+00  0.1120E+03  0.1120E+03
    -23.999  0.0000E+00  0.0000E+00  0.1120E+03  0.1120E+03
    -23.759  0.0000E+00  0.0000E+00  0.1120E+03  0.1120E+03
    -23.518  0.0000E+00  0.0000E+00  0.1120E+03  0.1120E+03
    -23.277  0.0000E+00  0.0000E+00  0.1120E+03  0.1120E+03
    -23.036  0.0000E+00  0.0000E+00  0.1120E+03  0.1120E+03
    -22.795  0.0000E+00  0.0000E+00  0.1120E+03  0.1120E+03
    -22.555  0.0000E+00  0.0000E+00  0.1120E+03  0.1120E+03
    -22.314  0.0000E+00  0.0000E+00  0.1120E+03  0.1120E+03
    -22.073  0.0000E+00  0.0000E+00  0.1120E+03  0.1120E+03
    -21.832  0.0000E+00  0.0000E+00  0.1120E+03  0.1120E+03
    -21.591  0.0000E+00  0.0000E+00  0.1120E+03  0.1120E+03
    -21.351  0.0000E+00  0.0000E+00  0.1120E+03  0.1120E+03
    -21.110  0.0000E+00  0.0000E+00  0.1120E+03  0.1120E+03
    -20.869  0.0000E+00  0.0000E+00  0.1120E+03  0.1120E+03
    -20.628  0.0000E+00  0.0000E+00  0.1120E+03  0.1120E+03
    -20.388  0.0000E+00  0.0000E+00  0.1120E+03  0.1120E+03
    -20.147  0.0000E+00  0.0000E+00  0.1120E+03  0.1120E+03
    -19.906  0.0000E+00  0.0000E+00  0.1120E+03  0.1120E+03
    -19.665  0.0000E+00  0.0000E+00  0.1120E+03  0.1120E+03
    -19.424  0.0000E+00  0.0000E+00  0.1120E+03  0.1120E+03
    -19.184  0.0000E+00  0.0000E+00  0.1120E+03  0.1120E+03
    -18.943  0.0000E+00  0.0000E+00  0.1120E+03  0.1120E+03
    -18.702  0.0000E+00  0.0000E+00  0.1120E+03  0.1120E+03
    -18.461  0.0000E+00  0.0000E+00  0.1120E+03  0.1120E+03
    -18.220  0.0000E+00  0.0000E+00  0.1120E+03  0.1120E+03
    -17.980  0.0000E+00  0.0000E+00  0.1120E+03  0.1120E+03
    -17.739  0.0000E+00  0.0000E+00  0.1120E+03  0.1120E+03
    -17.498  0.0000E+00  0.0000E+00  0.1120E+03  0.1120E+03
    -17.257  0.0000E+00  0.0000E+00  0.1120E+03  0.1120E+03
    -17.016  0.0000E+00  0.0000E+00  0.1120E+03  0.1120E+03
    -16.776  0.0000E+00  0.0000E+00  0.1120E+03  0.1120E+03
    -16.535  0.0000E+00  0.0000E+00  0.1120E+03  0.1120E+03
    -16.294  0.0000E+00  0.0000E+00  0.1120E+03  0.1120E+03
    -16.053  0.0000E+00  0.0000E+00  0.1120E+03  0.1120E+03
    -15.812  0.0000E+00  0.0000E+00  0.1120E+03  0.1120E+03
    -15.572  0.0000E+00  0.0000E+00  0.1120E+03  0.1120E+03
    -15.331  0.0000E+00  0.0000E+00  0.1120E+03  0.1120E+03
    -15.090  0.0000E+00  0.0000E+00  0.1120E+03  0.1120E+03
    -14.849  0.0000E+00  0.0000E+00  0.1120E+03  0.1120E+03
    -14.608  0.0000E+00  0.0000E+00  0.1120E+03  0.1120E+03
    -14.368  0.0000E+00  0.0000E+00  0.1120E+03  0.1120E+03
    -14.127  0.0000E+00  0.0000E+00  0.1120E+03  0.1120E+03
    -13.886  0.0000E+00  0.0000E+00  0.1120E+03  0.1120E+03
    -13.645  0.0000E+00  0.0000E+00  0.1120E+03  0.1120E+03
    -13.404  0.3799E-06  0.0000E+00  0.1120E+03  0.1120E+03
    -13.164  0.1820E+02  0.0000E+00  0.1164E+03  0.1120E+03
    -12.923  0.4660E+02  0.5584E-02  0.1276E+03  0.1120E+03
    -12.682  0.1646E+01  0.4142E+02  0.1280E+03  0.1220E+03
    -12.441  0.0000E+00  0.2503E+02  0.1280E+03  0.1280E+03
    -12.201  0.0000E+00  0.4006E-05  0.1280E+03  0.1280E+03
    -11.960  0.0000E+00  0.0000E+00  0.1280E+03  0.1280E+03
    -11.719  0.0000E+00  0.0000E+00  0.1280E+03  0.1280E+03
    -11.478  0.0000E+00  0.0000E+00  0.1280E+03  0.1280E+03
    -11.237  0.0000E+00  0.0000E+00  0.1280E+03  0.1280E+03
    -10.997  0.0000E+00  0.0000E+00  0.1280E+03  0.1280E+03
    -10.756  0.0000E+00  0.0000E+00  0.1280E+03  0.1280E+03
    -10.515  0.0000E+00  0.0000E+00  0.1280E+03  0.1280E+03
    -10.274  0.0000E+00  0.0000E+00  0.1280E+03  0.1280E+03
    -10.033  0.0000E+00  0.0000E+00  0.1280E+03  0.1280E+03
     -9.793  0.0000E+00  0.0000E+00  0.1280E+03  0.1280E+03
     -9.552  0.0000E+00  0.0000E+00  0.1280E+03  0.1280E+03
     -9.311  0.0000E+00  0.0000E+00  0.1280E+03  0.1280E+03
     -9.070  0.0000E+00  0.0000E+00  0.1280E+03  0.1280E+03
     -8.829  0.0000E+00  0.0000E+00  0.1280E+03  0.1280E+03
     -8.589  0.0000E+00  0.0000E+00  0.1280E+03  0.1280E+03
     -8.348  0.0000E+00  0.0000E+00  0.1280E+03  0.1280E+03
     -8.107  0.0000E+00  0.0000E+00  0.1280E+03  0.1280E+03
     -7.866  0.3317E-10  0.0000E+00  0.1280E+03  0.1280E+03
     -7.625  0.4990E+00  0.5678E-11  0.1281E+03  0.1280E+03
     -7.385  0.1223E+02  0.4344E+00  0.1311E+03  0.1281E+03
     -7.144  0.3025E+02  0.1343E+02  0.1383E+03  0.1313E+03
     -6.903  0.3337E+02  0.2952E+02  0.1464E+03  0.1384E+03
     -6.662  0.2332E+02  0.2562E+02  0.1520E+03  0.1446E+03
     -6.421  0.4438E-04  0.3058E+02  0.1520E+03  0.1520E+03
     -6.181  0.0000E+00  0.7462E-01  0.1520E+03  0.1520E+03
     -5.940  0.0000E+00  0.0000E+00  0.1520E+03  0.1520E+03
     -5.699  0.0000E+00  0.0000E+00  0.1520E+03  0.1520E+03
     -5.458  0.0000E+00  0.0000E+00  0.1520E+03  0.1520E+03
     -5.217  0.0000E+00  0.0000E+00  0.1520E+03  0.1520E+03
     -4.977  0.0000E+00  0.0000E+00  0.1520E+03  0.1520E+03
     -4.736  0.0000E+00  0.0000E+00  0.1520E+03  0.1520E+03
     -4.495  0.0000E+00  0.0000E+00  0.1520E+03  0.1520E+03
     -4.254  0.0000E+00  0.0000E+00  0.1520E+03  0.1520E+03
     -4.013  0.0000E+00  0.0000E+00  0.1520E+03  0.1520E+03
     -3.773  0.0000E+00  0.0000E+00  0.1520E+03  0.1520E+03
     -3.532  0.0000E+00  0.0000E+00  0.1520E+03  0.1520E+03
     -3.291  0.0000E+00  0.0000E+00  0.1520E+03  0.1520E+03
     -3.050  0.0000E+00  0.0000E+00  0.1520E+03  0.1520E+03
     -2.810  0.0000E+00  0.0000E+00  0.1520E+03  0.1520E+03
     -2.569  0.0000E+00  0.0000E+00  0.1520E+03  0.1520E+03
     -2.328  0.0000E+00  0.0000E+00  0.1520E+03  0.1520E+03
     -2.087  0.1261E-04  0.0000E+00  0.1520E+03  0.1520E+03
     -1.846  0.1535E+02  0.0000E+00  0.1557E+03  0.1520E+03
     -1.606  0.1978E+02  0.0000E+00  0.1605E+03  0.1520E+03
     -1.365  0.1499E+02  0.0000E+00  0.1641E+03  0.1520E+03
     -1.124  0.1698E+02  0.0000E+00  0.1682E+03  0.1520E+03
     -0.883  0.4511E+02  0.0000E+00  0.1790E+03  0.1520E+03
     -0.642  0.5887E+02  0.4227E-06  0.1932E+03  0.1520E+03
     -0.402  0.3873E+02  0.3774E+01  0.2025E+03  0.1529E+03
     -0.161  0.6733E+02  0.2035E+02  0.2187E+03  0.1578E+03
      0.080  0.7401E+02  0.1225E+02  0.2366E+03  0.1608E+03
      0.321  0.7750E+02  0.1828E+02  0.2552E+03  0.1652E+03
      0.562  0.6965E+02  0.2941E+02  0.2720E+03  0.1722E+03
      0.802  0.5660E+02  0.3905E+02  0.2856E+03  0.1816E+03
      1.043  0.3653E+02  0.3733E+02  0.2944E+03  0.1906E+03
      1.284  0.3042E+02  0.3159E+02  0.3017E+03  0.1982E+03
      1.525  0.4505E+02  0.2065E+02  0.3126E+03  0.2032E+03
      1.766  0.4160E+02  0.2912E+02  0.3226E+03  0.2102E+03
      2.006  0.6861E+02  0.3645E+02  0.3391E+03  0.2190E+03
      2.247  0.5915E+02  0.2817E+02  0.3534E+03  0.2258E+03
      2.488  0.2661E+02  0.2693E+02  0.3598E+03  0.2323E+03
      2.729  0.4246E+02  0.3014E+02  0.3700E+03  0.2395E+03
      2.970  0.3108E+02  0.4410E+02  0.3775E+03  0.2501E+03
      3.210  0.8614E+01  0.4560E+02  0.3796E+03  0.2611E+03
      3.451  0.2719E+02  0.3302E+02  0.3861E+03  0.2691E+03
      3.692  0.2766E+02  0.1275E+02  0.3928E+03  0.2721E+03
      3.933  0.3066E+02  0.1704E+02  0.4002E+03  0.2762E+03
      4.174  0.3593E+02  0.5289E+02  0.4088E+03  0.2890E+03
      4.414  0.3632E+02  0.4430E+02  0.4176E+03  0.2997E+03
      4.655  0.3050E+02  0.1805E+02  0.4249E+03  0.3040E+03
      4.896  0.2592E+02  0.8530E-02  0.4311E+03  0.3040E+03
      5.137  0.3588E+01  0.0000E+00  0.4320E+03  0.3040E+03
      5.378  0.0000E+00  0.0000E+00  0.4320E+03  0.3040E+03
      5.618  0.0000E+00  0.0000E+00  0.4320E+03  0.3040E+03
      5.859  0.0000E+00  0.0000E+00  0.4320E+03  0.3040E+03
      6.100  0.0000E+00  0.1163E-09  0.4320E+03  0.3040E+03
      6.341  0.0000E+00  0.3582E+00  0.4320E+03  0.3041E+03
      6.581  0.0000E+00  0.4177E+01  0.4320E+03  0.3051E+03
      6.822  0.0000E+00  0.7685E+01  0.4320E+03  0.3069E+03
      7.063  0.1622E-15  0.1866E+02  0.4320E+03  0.3114E+03
      7.304  0.2008E-01  0.4372E+02  0.4320E+03  0.3220E+03
      7.545  0.1337E+00  0.5289E+02  0.4320E+03  0.3347E+03
      7.785  0.2077E+00  0.6364E+02  0.4321E+03  0.3500E+03
      8.026  0.7555E+00  0.6542E+02  0.4323E+03  0.3658E+03
      8.267  0.2007E+01  0.6977E+02  0.4328E+03  0.3826E+03
      8.508  0.2634E+01  0.5995E+02  0.4334E+03  0.3970E+03
      8.749  0.8798E+01  0.5846E+02  0.4355E+03  0.4111E+03
      8.989  0.1229E+02  0.4862E+02  0.4385E+03  0.4228E+03
      9.230  0.1308E+02  0.3061E+02  0.4416E+03  0.4302E+03
      9.471  0.1800E+02  0.9215E+01  0.4459E+03  0.4324E+03
      9.712  0.1639E+02  0.2884E+01  0.4499E+03  0.4331E+03
      9.953  0.1564E+02  0.8250E+01  0.4537E+03  0.4351E+03
     10.193  0.2249E+02  0.1845E+02  0.4591E+03  0.4395E+03
     10.434  0.1482E+02  0.1799E+02  0.4626E+03  0.4438E+03
     10.675  0.1542E+02  0.1709E+02  0.4664E+03  0.4480E+03
     10.916  0.1306E+02  0.2756E+02  0.4695E+03  0.4546E+03
     11.157  0.2053E+02  0.1902E+02  0.4744E+03  0.4592E+03
     11.397  0.2446E+02  0.2382E+02  0.4803E+03  0.4649E+03
     11.638  0.2753E+02  0.1522E+02  0.4870E+03  0.4686E+03
     11.879  0.2426E+02  0.1370E+02  0.4928E+03  0.4719E+03
     12.120  0.3386E+02  0.1577E+02  0.5010E+03  0.4757E+03
     12.361  0.1999E+02  0.3620E+02  0.5058E+03  0.4844E+03
     12.601  0.2299E+02  0.3286E+02  0.5113E+03  0.4923E+03
     12.842  0.2136E+02  0.3035E+02  0.5165E+03  0.4996E+03
     13.083  0.2055E+02  0.2035E+02  0.5214E+03  0.5045E+03
     13.324  0.2341E+02  0.2183E+02  0.5270E+03  0.5098E+03
     13.565  0.2479E+02  0.2723E+02  0.5330E+03  0.5163E+03
     13.805  0.1366E+02  0.2373E+02  0.5363E+03  0.5220E+03
     14.046  0.7072E+01  0.2640E+02  0.5380E+03  0.5284E+03
     14.287  0.2837E-02  0.1948E+02  0.5380E+03  0.5331E+03
     14.528  0.0000E+00  0.1702E+02  0.5380E+03  0.5372E+03
     14.768  0.0000E+00  0.3416E+01  0.5380E+03  0.5380E+03
     15.009  0.0000E+00  0.2251E-05  0.5380E+03  0.5380E+03
     15.250  0.0000E+00  0.0000E+00  0.5380E+03  0.5380E+03
     15.491  0.0000E+00  0.0000E+00  0.5380E+03  0.5380E+03
     15.732  0.0000E+00  0.0000E+00  0.5380E+03  0.5380E+03
     15.972  0.0000E+00  0.0000E+00  0.5380E+03  0.5380E+03
     16.213  0.0000E+00  0.0000E+00  0.5380E+03  0.5380E+03
     16.454  0.0000E+00  0.0000E+00  0.5380E+03  0.5380E+03
     16.695  0.0000E+00  0.0000E+00  0.5380E+03  0.5380E+03
     16.936  0.0000E+00  0.0000E+00  0.5380E+03  0.5380E+03
     17.176  0.0000E+00  0.0000E+00  0.5380E+03  0.5380E+03
     17.417  0.0000E+00  0.0000E+00  0.5380E+03  0.5380E+03
     17.658  0.0000E+00  0.0000E+00  0.5380E+03  0.5380E+03
     17.899  0.0000E+00  0.0000E+00  0.5380E+03  0.5380E+03
