   24   24   60    2
  0.1326771E+02  0.7744359E-09  0.4043250E-09  0.1055337E-08  0.5000000E-15
   1.0000000000000000E-004
  CAR 
 unknown system                          
    168     18    120

  0.1262379E-14  0.1262379E-14  0.1262379E-14  0.2777778E-01
    1      -56.361678    -49.717706   1.000000   1.000000
    2      -56.361447    -49.717074   1.000000   1.000000
    3      -56.319635    -49.671721   1.000000   1.000000
    4      -56.319615    -49.670850   1.000000   1.000000
    5      -56.173171    -49.669890   1.000000   1.000000
    6      -56.173125    -49.669555   1.000000   1.000000
    7      -54.899095    -49.607131   1.000000   1.000000
    8      -54.898726    -49.606701   1.000000   1.000000
    9      -54.805540    -49.601694   1.000000   1.000000
   10      -54.805483    -49.601657   1.000000   1.000000
   11      -54.773441    -49.594271   1.000000   1.000000
   12      -54.772863    -49.593829   1.000000   1.000000
   13      -54.767425    -49.496577   1.000000   1.000000
   14      -54.767359    -49.496262   1.000000   1.000000
   15      -54.450870    -49.319230   1.000000   1.000000
   16      -54.450829    -49.318950   1.000000   1.000000
   17      -54.282439    -49.125029   1.000000   1.000000
   18      -54.282415    -49.124997   1.000000   1.000000
   19      -43.863404    -43.855544   1.000000   1.000000
   20      -43.859677    -43.851924   1.000000   1.000000
   21      -43.604944    -43.606241   1.000000   1.000000
   22      -43.600341    -43.601639   1.000000   1.000000
   23      -43.311398    -43.316236   1.000000   1.000000
   24      -43.309422    -43.314262   1.000000   1.000000
   25      -43.257770    -43.258708   1.000000   1.000000
   26      -43.257272    -43.258217   1.000000   1.000000
   27      -16.336654    -15.841189   1.000000   1.000000
   28      -16.330194    -15.833814   1.000000   1.000000
   29      -15.151617    -14.914314   1.000000   1.000000
   30      -15.147167    -14.909644   1.000000   1.000000
   31       -9.682701     -9.365133   1.000000   1.000000
   32       -9.179998     -8.930229   1.000000   1.000000
   33       -9.088880     -8.755574   1.000000   1.000000
   34       -9.005694     -8.745065   1.000000   1.000000
   35       -8.965300     -8.634183   1.000000   1.000000
   36       -8.796137     -8.479980   1.000000   1.000000
   37       -2.345361     -1.320148   1.000000   1.000000
   38       -2.091558     -0.999064   1.000000   1.000000
   39       -1.911324     -0.787391   1.000000   1.000000
   40       -1.875470     -0.711626   1.000000   1.000000
   41       -1.799957     -0.555551   1.000000   1.000000
   42       -1.739284     -0.484823   1.000000   1.000000
   43       -1.695143     -0.256333   1.000000   1.000000
   44       -1.555471     -0.139381   1.000000   1.000000
   45       -1.301186     -0.110552   1.000000   1.000000
   46       -1.150380      0.107054   1.000000   1.000000
   47       -1.096424      0.249318   1.000000   1.000000
   48       -1.070265      0.343379   1.000000   1.000000
   49       -1.039965      0.414327   1.000000   1.000000
   50       -1.033154      0.415652   1.000000   1.000000
   51       -0.895570      0.432540   1.000000   1.000000
   52       -0.890394      1.190994   1.000000   1.000000
   53       -0.797463      1.705762   1.000000   1.000000
   54       -0.637328      1.808421   1.000000   1.000000
   55       -0.591706      1.931927   1.000000   1.000000
   56       -0.560900      2.043409   1.000000   1.000000
   57       -0.539773      2.094844   1.000000   1.000000
   58       -0.528782      2.197410   1.000000   1.000000
   59       -0.485910      2.264099   1.000000   1.000000
   60       -0.481394      2.309787   1.000000   1.000000
   61       -0.345335      2.383041   1.000000   1.000000
   62       -0.233335      2.401654   1.000000   1.000000
   63       -0.226899      2.694096   1.000000   1.000000
   64       -0.043031      3.183450   1.000000   1.000000
   65        0.078523      3.196307   1.000000   1.000000
   66        0.105310      3.245356   1.000000   1.000000
   67        0.105597      3.330984   1.000000   1.000000
   68        0.201970      3.479438   1.000000   1.000000
   69        0.251122      3.682798   1.000000   1.000000
   70        0.501301      3.749818   1.000000   1.000000
   71        0.608121      3.815412   1.000000   1.000000
   72        0.624409      4.006993   1.000000   1.000000
   73        0.711279      6.534001   1.000000   0.000000
   74        0.767687      6.999676   1.000000   0.000000
   75        0.943897      7.147968   1.000000   0.000000
   76        0.954528      7.227052   1.000000   0.000000
   77        1.016270      7.292879   1.000000   0.000000
   78        1.112016      7.529400   1.000000   0.000000
   79        1.275052      7.542040   1.000000   0.000000
   80        1.538907      7.548535   1.000000   0.000000
   81        1.740000      7.594908   1.000000   0.000000
   82        1.922922      8.007531   1.000000   0.000000
   83        2.116642      8.020666   1.000000   0.000000
   84        2.232918      8.065930   1.000000   0.000000
   85        2.557210      8.067931   1.000000   0.000000
   86        2.744104      8.237458   1.000000   0.000000
   87        2.840362      8.357239   1.000000   0.000000
   88        3.078887      8.428150   1.000000   0.000000
   89        3.085512      8.478886   1.000000   0.000000
   90        3.103552      8.599811   1.000000   0.000000
   91        3.168036      8.831194   1.000000   0.000000
   92        3.277515      8.970961   1.000000   0.000000
   93        3.433767      8.995610   1.000000   0.000000
   94        3.545382      9.127343   1.000000   0.000000
   95        3.743687      9.190825   1.000000   0.000000
   96        4.204489      9.422414   1.000000   0.000000
   97        8.065149      9.554590   0.000000   0.000000
   98        8.354302      9.687920   0.000000   0.000000
   99        9.101141      9.840334   0.000000   0.000000
  100        9.174964     10.169546   0.000000   0.000000
  101        9.370157     10.438670   0.000000   0.000000
  102        9.943256     10.513129   0.000000   0.000000
  103       10.137646     10.574275   0.000000   0.000000
  104       10.361883     11.238809   0.000000   0.000000
  105       10.627954     11.326336   0.000000   0.000000
  106       11.127374     11.665365   0.000000   0.000000
  107       11.274651     11.886657   0.000000   0.000000
  108       11.359749     11.997973   0.000000   0.000000
  109       11.380461     12.183042   0.000000   0.000000
  110       11.533346     12.321198   0.000000   0.000000
  111       11.701106     12.380178   0.000000   0.000000
  112       11.992025     12.782257   0.000000   0.000000
  113       12.552886     13.355618   0.000000   0.000000
  114       12.721486     13.486796   0.000000   0.000000
  115       12.832067     13.600207   0.000000   0.000000
  116       12.858892     13.691766   0.000000   0.000000
  117       13.176082     13.710696   0.000000   0.000000
  118       13.617829     14.291534   0.000000   0.000000
  119       14.332272     14.742286   0.000000   0.000000
  120       14.763413     15.013239   0.000000   0.000000

  0.3333333E+00  0.1263442E-14  0.1261650E-14  0.5555556E-01
    1      -56.361676    -49.717714   1.000000   1.000000
    2      -56.361449    -49.717069   1.000000   1.000000
    3      -56.319635    -49.671704   1.000000   1.000000
    4      -56.319617    -49.670866   1.000000   1.000000
    5      -56.173161    -49.669882   1.000000   1.000000
    6      -56.173138    -49.669547   1.000000   1.000000
    7      -54.899096    -49.607032   1.000000   1.000000
    8      -54.898728    -49.606749   1.000000   1.000000
    9      -54.805524    -49.601689   1.000000   1.000000
   10      -54.805494    -49.601666   1.000000   1.000000
   11      -54.773436    -49.594213   1.000000   1.000000
   12      -54.772867    -49.593888   1.000000   1.000000
   13      -54.767413    -49.496524   1.000000   1.000000
   14      -54.767373    -49.496334   1.000000   1.000000
   15      -54.450862    -49.319173   1.000000   1.000000
   16      -54.450840    -49.319011   1.000000   1.000000
   17      -54.282437    -49.125025   1.000000   1.000000
   18      -54.282421    -49.125006   1.000000   1.000000
   19      -43.863402    -43.855541   1.000000   1.000000
   20      -43.859676    -43.851922   1.000000   1.000000
   21      -43.604539    -43.605836   1.000000   1.000000
   22      -43.600747    -43.602045   1.000000   1.000000
   23      -43.311380    -43.316217   1.000000   1.000000
   24      -43.309419    -43.314259   1.000000   1.000000
   25      -43.257777    -43.258715   1.000000   1.000000
   26      -43.257260    -43.258205   1.000000   1.000000
   27      -16.334930    -15.839159   1.000000   1.000000
   28      -16.331227    -15.834995   1.000000   1.000000
   29      -15.150717    -14.913416   1.000000   1.000000
   30      -15.148486    -14.911077   1.000000   1.000000
   31       -9.581824     -9.266805   1.000000   1.000000
   32       -9.256038     -8.965610   1.000000   1.000000
   33       -9.091770     -8.831496   1.000000   1.000000
   34       -9.010125     -8.697809   1.000000   1.000000
   35       -8.974184     -8.661505   1.000000   1.000000
   36       -8.844864     -8.527504   1.000000   1.000000
   37       -2.319171     -1.111039   1.000000   1.000000
   38       -2.119964     -0.863222   1.000000   1.000000
   39       -1.866470     -0.687384   1.000000   1.000000
   40       -1.801562     -0.646512   1.000000   1.000000
   41       -1.785504     -0.561433   1.000000   1.000000
   42       -1.700869     -0.507889   1.000000   1.000000
   43       -1.552755     -0.364029   1.000000   1.000000
   44       -1.471680     -0.213586   1.000000   1.000000
   45       -1.323288      0.151884   1.000000   1.000000
   46       -1.204960      0.191611   1.000000   1.000000
   47       -1.184027      0.316740   1.000000   1.000000
   48       -1.120355      0.336721   1.000000   1.000000
   49       -1.096154      0.346834   1.000000   1.000000
   50       -0.898002      0.557759   1.000000   1.000000
   51       -0.828069      0.704221   1.000000   1.000000
   52       -0.796158      0.847516   1.000000   1.000000
   53       -0.700879      1.327578   1.000000   1.000000
   54       -0.696749      1.631109   1.000000   1.000000
   55       -0.663109      1.935871   1.000000   1.000000
   56       -0.605962      1.947458   1.000000   1.000000
   57       -0.600804      2.078165   1.000000   1.000000
   58       -0.490282      2.104636   1.000000   1.000000
   59       -0.470965      2.287013   1.000000   1.000000
   60       -0.457350      2.296405   1.000000   1.000000
   61       -0.310561      2.437169   1.000000   1.000000
   62       -0.200720      2.454379   1.000000   1.000000
   63       -0.088292      2.577020   1.000000   1.000000
   64       -0.054172      2.674347   1.000000   1.000000
   65       -0.016056      2.885086   1.000000   1.000000
   66        0.154179      2.977361   1.000000   1.000000
   67        0.205789      3.463982   1.000000   1.000000
   68        0.224976      3.553922   1.000000   1.000000
   69        0.248446      3.768653   1.000000   1.000000
   70        0.389219      3.855910   1.000000   1.000000
   71        0.498957      3.884116   1.000000   1.000000
   72        0.633911      4.000239   1.000000   1.000000
   73        0.666926      6.708870   1.000000   0.000000
   74        0.736404      7.158019   1.000000   0.000000
   75        0.888274      7.212923   1.000000   0.000000
   76        0.934043      7.251796   1.000000   0.000000
   77        1.020926      7.435528   1.000000   0.000000
   78        1.075141      7.464648   1.000000   0.000000
   79        1.373588      7.569684   1.000000   0.000000
   80        1.530095      7.620116   1.000000   0.000000
   81        1.800709      7.741128   1.000000   0.000000
   82        1.978222      7.750801   1.000000   0.000000
   83        2.139343      7.823505   1.000000   0.000000
   84        2.345616      8.015395   1.000000   0.000000
   85        2.428469      8.115589   1.000000   0.000000
   86        2.632663      8.233997   1.000000   0.000000
   87        2.693124      8.403508   1.000000   0.000000
   88        2.756537      8.424285   1.000000   0.000000
   89        2.828573      8.586431   1.000000   0.000000
   90        2.935355      8.666080   1.000000   0.000000
   91        2.995971      8.829268   1.000000   0.000000
   92        3.240222      9.053282   1.000000   0.000000
   93        3.554404      9.054741   1.000000   0.000000
   94        3.673566      9.141089   1.000000   0.000000
   95        3.704322      9.234912   1.000000   0.000000
   96        3.874214      9.565513   1.000000   0.000000
   97        8.688368      9.662321   0.000000   0.000000
   98        9.040725      9.733654   0.000000   0.000000
   99        9.238531      9.991523   0.000000   0.000000
  100        9.447335     10.236822   0.000000   0.000000
  101        9.769217     10.288866   0.000000   0.000000
  102       10.108281     10.605197   0.000000   0.000000
  103       10.215301     10.840634   0.000000   0.000000
  104       10.467111     11.361508   0.000000   0.000000
  105       10.637855     11.634500   0.000000   0.000000
  106       10.843835     11.930945   0.000000   0.000000
  107       11.367803     12.145868   0.000000   0.000000
  108       11.672207     12.378729   0.000000   0.000000
  109       11.930548     12.505658   0.000000   0.000000
  110       11.981032     12.614802   0.000000   0.000000
  111       12.021229     12.712444   0.000000   0.000000
  112       12.151880     12.800070   0.000000   0.000000
  113       12.217701     13.132017   0.000000   0.000000
  114       12.618217     13.368151   0.000000   0.000000
  115       12.858216     13.601148   0.000000   0.000000
  116       13.065568     13.719020   0.000000   0.000000
  117       13.631165     14.320279   0.000000   0.000000
  118       13.818916     14.370059   0.000000   0.000000
  119       13.893680     14.580311   0.000000   0.000000
  120       14.096283     14.781540   0.000000   0.000000

  0.1262631E-14  0.1666667E+00  0.1262616E-14  0.5555556E-01
    1      -56.362457    -49.717871   1.000000   1.000000
    2      -56.362261    -49.717312   1.000000   1.000000
    3      -56.319023    -49.671663   1.000000   1.000000
    4      -56.318986    -49.670969   1.000000   1.000000
    5      -56.173188    -49.669874   1.000000   1.000000
    6      -56.173145    -49.669617   1.000000   1.000000
    7      -54.899376    -49.606996   1.000000   1.000000
    8      -54.899052    -49.606570   1.000000   1.000000
    9      -54.805525    -49.601541   1.000000   1.000000
   10      -54.805470    -49.601494   1.000000   1.000000
   11      -54.773396    -49.593832   1.000000   1.000000
   12      -54.772892    -49.593380   1.000000   1.000000
   13      -54.767245    -49.496442   1.000000   1.000000
   14      -54.767182    -49.496115   1.000000   1.000000
   15      -54.450884    -49.319168   1.000000   1.000000
   16      -54.450845    -49.318896   1.000000   1.000000
   17      -54.282681    -49.124901   1.000000   1.000000
   18      -54.282651    -49.124870   1.000000   1.000000
   19      -43.863068    -43.855209   1.000000   1.000000
   20      -43.859857    -43.852091   1.000000   1.000000
   21      -43.604889    -43.606182   1.000000   1.000000
   22      -43.600213    -43.601506   1.000000   1.000000
   23      -43.311335    -43.316169   1.000000   1.000000
   24      -43.309297    -43.314132   1.000000   1.000000
   25      -43.257676    -43.258610   1.000000   1.000000
   26      -43.257187    -43.258126   1.000000   1.000000
   27      -16.279909    -15.787640   1.000000   1.000000
   28      -16.274436    -15.781371   1.000000   1.000000
   29      -15.091149    -14.859720   1.000000   1.000000
   30      -15.087767    -14.856245   1.000000   1.000000
   31       -9.624141     -9.310824   1.000000   1.000000
   32       -9.168696     -8.903975   1.000000   1.000000
   33       -9.052676     -8.732622   1.000000   1.000000
   34       -8.968538     -8.701378   1.000000   1.000000
   35       -8.925772     -8.594505   1.000000   1.000000
   36       -8.753859     -8.434569   1.000000   1.000000
   37       -2.532443     -1.341350   1.000000   1.000000
   38       -2.476023     -1.181297   1.000000   1.000000
   39       -2.190112     -1.130666   1.000000   1.000000
   40       -2.132379     -0.997539   1.000000   1.000000
   41       -1.906929     -0.789175   1.000000   1.000000
   42       -1.855726     -0.644636   1.000000   1.000000
   43       -1.791141     -0.422921   1.000000   1.000000
   44       -1.602052     -0.335694   1.000000   1.000000
   45       -1.524610      0.001747   1.000000   1.000000
   46       -1.275918      0.035656   1.000000   1.000000
   47       -1.233514      0.154518   1.000000   1.000000
   48       -1.218582      0.251057   1.000000   1.000000
   49       -1.141466      0.331600   1.000000   1.000000
   50       -1.092329      0.426234   1.000000   1.000000
   51       -1.022757      0.550898   1.000000   1.000000
   52       -0.999876      0.855914   1.000000   1.000000
   53       -0.971276      1.190419   1.000000   1.000000
   54       -0.855814      1.433230   1.000000   1.000000
   55       -0.847638      1.628719   1.000000   1.000000
   56       -0.781913      1.842006   1.000000   1.000000
   57       -0.723404      2.033902   1.000000   1.000000
   58       -0.677128      2.109623   1.000000   1.000000
   59       -0.553852      2.240655   1.000000   1.000000
   60       -0.536676      2.340948   1.000000   1.000000
   61       -0.444723      2.418356   1.000000   1.000000
   62       -0.408834      2.474682   1.000000   1.000000
   63       -0.256373      2.603111   1.000000   1.000000
   64       -0.194071      2.630147   1.000000   1.000000
   65       -0.062993      3.037144   1.000000   1.000000
   66        0.014916      3.096193   1.000000   1.000000
   67        0.068024      3.378621   1.000000   1.000000
   68        0.160478      3.447735   1.000000   1.000000
   69        0.523585      3.690429   1.000000   1.000000
   70        0.611433      3.828666   1.000000   1.000000
   71        0.637792      4.089682   1.000000   1.000000
   72        0.852006      4.139848   1.000000   1.000000
   73        0.917847      6.806486   1.000000   0.000000
   74        0.947177      7.069938   1.000000   0.000000
   75        1.040104      7.204610   1.000000   0.000000
   76        1.061139      7.396751   1.000000   0.000000
   77        1.116800      7.449731   1.000000   0.000000
   78        1.487878      7.532091   1.000000   0.000000
   79        1.565950      7.603349   1.000000   0.000000
   80        1.774514      7.716730   1.000000   0.000000
   81        1.933359      7.779398   1.000000   0.000000
   82        2.087815      7.894269   1.000000   0.000000
   83        2.297832      7.942384   1.000000   0.000000
   84        2.373719      8.134455   1.000000   0.000000
   85        2.464468      8.261351   1.000000   0.000000
   86        2.599036      8.316232   1.000000   0.000000
   87        2.823569      8.356523   1.000000   0.000000
   88        2.942929      8.466892   1.000000   0.000000
   89        2.966759      8.649558   1.000000   0.000000
   90        3.004079      8.674243   1.000000   0.000000
   91        3.185024      8.844834   1.000000   0.000000
   92        3.327530      8.929992   1.000000   0.000000
   93        3.426049      9.048362   1.000000   0.000000
   94        3.549823      9.086838   1.000000   0.000000
   95        3.838100      9.703206   1.000000   0.000000
   96        4.258577      9.915839   1.000000   0.000000
   97        8.673153     10.041235   0.000000   0.000000
   98        8.829575     10.341918   0.000000   0.000000
   99        9.614745     10.596599   0.000000   0.000000
  100        9.757936     10.765191   0.000000   0.000000
  101        9.874951     10.882891   0.000000   0.000000
  102       10.216190     10.906667   0.000000   0.000000
  103       10.359749     11.038270   0.000000   0.000000
  104       10.565921     11.156818   0.000000   0.000000
  105       10.684046     11.266495   0.000000   0.000000
  106       11.041937     11.476540   0.000000   0.000000
  107       11.253198     11.605471   0.000000   0.000000
  108       11.497058     12.155990   0.000000   0.000000
  109       11.700972     12.436660   0.000000   0.000000
  110       11.765437     12.521077   0.000000   0.000000
  111       11.897622     12.763970   0.000000   0.000000
  112       12.356558     13.066894   0.000000   0.000000
  113       12.408967     13.180747   0.000000   0.000000
  114       12.548732     13.304514   0.000000   0.000000
  115       12.654138     13.514320   0.000000   0.000000
  116       13.164903     13.711998   0.000000   0.000000
  117       13.261755     13.896218   0.000000   0.000000
  118       13.606287     14.107563   0.000000   0.000000
  119       13.729992     14.190726   0.000000   0.000000
  120       14.217967     14.373685   0.000000   0.000000

  0.3333333E+00  0.1666667E+00  0.1262942E-14  0.5555556E-01
    1      -56.362457    -49.717875   1.000000   1.000000
    2      -56.362263    -49.717309   1.000000   1.000000
    3      -56.319017    -49.671645   1.000000   1.000000
    4      -56.318996    -49.670974   1.000000   1.000000
    5      -56.173178    -49.669874   1.000000   1.000000
    6      -56.173156    -49.669614   1.000000   1.000000
    7      -54.899376    -49.606892   1.000000   1.000000
    8      -54.899054    -49.606621   1.000000   1.000000
    9      -54.805510    -49.601528   1.000000   1.000000
   10      -54.805480    -49.601508   1.000000   1.000000
   11      -54.773389    -49.593769   1.000000   1.000000
   12      -54.772897    -49.593441   1.000000   1.000000
   13      -54.767231    -49.496389   1.000000   1.000000
   14      -54.767197    -49.496187   1.000000   1.000000
   15      -54.450877    -49.319114   1.000000   1.000000
   16      -54.450854    -49.318955   1.000000   1.000000
   17      -54.282674    -49.124894   1.000000   1.000000
   18      -54.282660    -49.124879   1.000000   1.000000
   19      -43.863067    -43.855208   1.000000   1.000000
   20      -43.859850    -43.852082   1.000000   1.000000
   21      -43.604481    -43.605775   1.000000   1.000000
   22      -43.600615    -43.601909   1.000000   1.000000
   23      -43.311314    -43.316148   1.000000   1.000000
   24      -43.309294    -43.314129   1.000000   1.000000
   25      -43.257676    -43.258609   1.000000   1.000000
   26      -43.257177    -43.258116   1.000000   1.000000
   27      -16.278122    -15.785524   1.000000   1.000000
   28      -16.275460    -15.782523   1.000000   1.000000
   29      -15.090649    -14.859278   1.000000   1.000000
   30      -15.088877    -14.857461   1.000000   1.000000
   31       -9.513496     -9.201774   1.000000   1.000000
   32       -9.224924     -8.936461   1.000000   1.000000
   33       -9.092289     -8.811328   1.000000   1.000000
   34       -8.957799     -8.639734   1.000000   1.000000
   35       -8.909725     -8.611097   1.000000   1.000000
   36       -8.837496     -8.521282   1.000000   1.000000
   37       -2.516940     -1.247896   1.000000   1.000000
   38       -2.491170     -1.123617   1.000000   1.000000
   39       -2.200225     -1.021340   1.000000   1.000000
   40       -2.128790     -0.837139   1.000000   1.000000
   41       -1.891613     -0.653702   1.000000   1.000000
   42       -1.856109     -0.575890   1.000000   1.000000
   43       -1.533667     -0.453951   1.000000   1.000000
   44       -1.502228     -0.368548   1.000000   1.000000
   45       -1.397658     -0.183608   1.000000   1.000000
   46       -1.340662      0.018112   1.000000   1.000000
   47       -1.266746      0.127158   1.000000   1.000000
   48       -1.242423      0.365378   1.000000   1.000000
   49       -1.208382      0.430371   1.000000   1.000000
   50       -1.055093      0.610394   1.000000   1.000000
   51       -1.049568      0.743462   1.000000   1.000000
   52       -1.007646      0.919037   1.000000   1.000000
   53       -0.947558      1.093137   1.000000   1.000000
   54       -0.837739      1.415815   1.000000   1.000000
   55       -0.802070      1.458399   1.000000   1.000000
   56       -0.781422      1.668676   1.000000   1.000000
   57       -0.702111      1.840951   1.000000   1.000000
   58       -0.660181      1.904026   1.000000   1.000000
   59       -0.605619      2.024804   1.000000   1.000000
   60       -0.573655      2.136427   1.000000   1.000000
   61       -0.504021      2.331396   1.000000   1.000000
   62       -0.443475      2.459661   1.000000   1.000000
   63       -0.210802      2.537311   1.000000   1.000000
   64       -0.063076      2.587988   1.000000   1.000000
   65        0.047808      2.683732   1.000000   1.000000
   66        0.063734      2.908279   1.000000   1.000000
   67        0.191741      3.569849   1.000000   1.000000
   68        0.288326      3.651682   1.000000   1.000000
   69        0.410979      3.719677   1.000000   1.000000
   70        0.555499      3.836113   1.000000   1.000000
   71        0.637127      4.075382   1.000000   1.000000
   72        0.675840      4.145793   1.000000   1.000000
   73        0.714860      6.899370   1.000000   0.000000
   74        0.880740      7.157398   1.000000   0.000000
   75        0.957466      7.370335   1.000000   0.000000
   76        0.980201      7.480703   1.000000   0.000000
   77        1.245516      7.493678   1.000000   0.000000
   78        1.466845      7.622418   1.000000   0.000000
   79        1.658915      7.706448   1.000000   0.000000
   80        1.827614      7.729669   1.000000   0.000000
   81        1.987634      7.794527   1.000000   0.000000
   82        2.109595      7.867414   1.000000   0.000000
   83        2.172403      7.947014   1.000000   0.000000
   84        2.338182      8.048949   1.000000   0.000000
   85        2.456775      8.170746   1.000000   0.000000
   86        2.462810      8.378085   1.000000   0.000000
   87        2.598269      8.420321   1.000000   0.000000
   88        2.781903      8.465992   1.000000   0.000000
   89        2.908259      8.559444   1.000000   0.000000
   90        3.024477      8.624713   1.000000   0.000000
   91        3.177660      8.840776   1.000000   0.000000
   92        3.213498      8.956343   1.000000   0.000000
   93        3.430719      9.098161   1.000000   0.000000
   94        3.590228      9.270317   1.000000   0.000000
   95        3.775960      9.517261   1.000000   0.000000
   96        3.958812      9.955999   1.000000   0.000000
   97        9.261881     10.252474   0.000000   0.000000
   98        9.473334     10.538559   0.000000   0.000000
   99        9.889224     10.755798   0.000000   0.000000
  100       10.147836     10.891607   0.000000   0.000000
  101       10.218655     10.981507   0.000000   0.000000
  102       10.487110     11.130989   0.000000   0.000000
  103       10.618072     11.281600   0.000000   0.000000
  104       10.829016     11.318351   0.000000   0.000000
  105       10.914173     11.565541   0.000000   0.000000
  106       11.140309     11.870403   0.000000   0.000000
  107       11.514538     12.134411   0.000000   0.000000
  108       11.569644     12.228991   0.000000   0.000000
  109       11.652915     12.429092   0.000000   0.000000
  110       11.967066     12.600569   0.000000   0.000000
  111       12.027163     12.882736   0.000000   0.000000
  112       12.091522     12.938918   0.000000   0.000000
  113       12.345955     13.040896   0.000000   0.000000
  114       12.419880     13.189915   0.000000   0.000000
  115       12.638847     13.360742   0.000000   0.000000
  116       12.806362     13.493179   0.000000   0.000000
  117       13.000886     13.597748   0.000000   0.000000
  118       13.188910     13.795775   0.000000   0.000000
  119       13.351318     14.236759   0.000000   0.000000
  120       13.623212     14.445349   0.000000   0.000000

 -0.3333333E+00  0.1666667E+00  0.1263591E-14  0.5555556E-01
    1      -56.362456    -49.717874   1.000000   1.000000
    2      -56.362262    -49.717308   1.000000   1.000000
    3      -56.319013    -49.671645   1.000000   1.000000
    4      -56.318997    -49.670975   1.000000   1.000000
    5      -56.173178    -49.669867   1.000000   1.000000
    6      -56.173154    -49.669618   1.000000   1.000000
    7      -54.899376    -49.606907   1.000000   1.000000
    8      -54.899053    -49.606606   1.000000   1.000000
    9      -54.805509    -49.601531   1.000000   1.000000
   10      -54.805479    -49.601504   1.000000   1.000000
   11      -54.773388    -49.593774   1.000000   1.000000
   12      -54.772895    -49.593434   1.000000   1.000000
   13      -54.767233    -49.496385   1.000000   1.000000
   14      -54.767193    -49.496190   1.000000   1.000000
   15      -54.450875    -49.319110   1.000000   1.000000
   16      -54.450854    -49.318957   1.000000   1.000000
   17      -54.282674    -49.124893   1.000000   1.000000
   18      -54.282658    -49.124879   1.000000   1.000000
   19      -43.863060    -43.855202   1.000000   1.000000
   20      -43.859847    -43.852080   1.000000   1.000000
   21      -43.604481    -43.605775   1.000000   1.000000
   22      -43.600606    -43.601900   1.000000   1.000000
   23      -43.311307    -43.316141   1.000000   1.000000
   24      -43.309294    -43.314129   1.000000   1.000000
   25      -43.257671    -43.258604   1.000000   1.000000
   26      -43.257174    -43.258113   1.000000   1.000000
   27      -16.278584    -15.786039   1.000000   1.000000
   28      -16.274969    -15.781979   1.000000   1.000000