 vasp.5.4.4.18Apr17-6-g9f103f2a35 (build Oct 25 2017 14:42:18) complex          
  
 executed on             LinuxIFC date 2021.06.02  15:26:28
 running on   24 total cores
 distrk:  each k-point on   12 cores,    2 groups
 distr:  one band on NCORES_PER_BAND=   6 cores,    2 groups


--------------------------------------------------------------------------------------------------------


 INCAR:
 POTCAR:    PAW_PBE Li_sv 10Sep2004               
 POTCAR:    PAW_PBE O 08Apr2002                   
 POTCAR:    PAW_PBE S 06Sep2000                   
 POTCAR:    PAW_PBE Fe_pv 02Aug2007               

 ----------------------------------------------------------------------------- 
|                                                                             |
|           W    W    AA    RRRRR   N    N  II  N    N   GGGG   !!!           |
|           W    W   A  A   R    R  NN   N  II  NN   N  G    G  !!!           |
|           W    W  A    A  R    R  N N  N  II  N N  N  G       !!!           |
|           W WW W  AAAAAA  RRRRR   N  N N  II  N  N N  G  GGG   !            |
|           WW  WW  A    A  R   R   N   NN  II  N   NN  G    G                |
|           W    W  A    A  R    R  N    N  II  N    N   GGGG   !!!           |
|                                                                             |
|      You have enabled k-point parallelism (KPAR>1).                         |
|      This developmental code was originally  written by Paul Kent at ORNL,  |
|      and carefully double checked in Vienna.                                |
|      GW as well as linear response parallelism added by Martijn Marsman     |
|      and Georg Kresse.                                                      |
|      Carefully verify results versus KPAR=1.                                |
|      Report problems to Paul Kent and Vienna.                               |
|                                                                             |
 ----------------------------------------------------------------------------- 

 POTCAR:    PAW_PBE Li_sv 10Sep2004               
  local pseudopotential read in
  atomic valenz-charges read in
  non local Contribution for L=           0  read in
    real space projection operators read in
  non local Contribution for L=           0  read in
    real space projection operators read in
  non local Contribution for L=           1  read in
    real space projection operators read in
    PAW grid and wavefunctions read in
 
   number of l-projection  operators is LMAX  =           3
   number of lm-projection operators is LMMAX =           5
 
 POTCAR:    PAW_PBE O 08Apr2002                   
  local pseudopotential read in
  partial core-charges read in
  partial kinetic energy density read in
  kinetic energy density of atom read in
  atomic valenz-charges read in
  non local Contribution for L=           0  read in
    real space projection operators read in
  non local Contribution for L=           0  read in
    real space projection operators read in
  non local Contribution for L=           1  read in
    real space projection operators read in
  non local Contribution for L=           1  read in
    real space projection operators read in
    PAW grid and wavefunctions read in
 
   number of l-projection  operators is LMAX  =           4
   number of lm-projection operators is LMMAX =           8
 
 POTCAR:    PAW_PBE S 06Sep2000                   
  local pseudopotential read in
  partial core-charges read in
  partial kinetic energy density read in
  atomic valenz-charges read in
  non local Contribution for L=           0  read in
    real space projection operators read in
  non local Contribution for L=           0  read in
    real space projection operators read in
  non local Contribution for L=           1  read in
    real space projection operators read in
  non local Contribution for L=           1  read in
    real space projection operators read in
    PAW grid and wavefunctions read in
 
   number of l-projection  operators is LMAX  =           4
   number of lm-projection operators is LMMAX =           8
 
 POTCAR:    PAW_PBE Fe_pv 02Aug2007               
  local pseudopotential read in
  partial core-charges read in
  partial kinetic energy density read in
  atomic valenz-charges read in
  non local Contribution for L=           1  read in
    real space projection operators read in
  non local Contribution for L=           1  read in
    real space projection operators read in
  non local Contribution for L=           2  read in
    real space projection operators read in
  non local Contribution for L=           2  read in
    real space projection operators read in
  non local Contribution for L=           0  read in
    real space projection operators read in
  non local Contribution for L=           0  read in
    real space projection operators read in
    PAW grid and wavefunctions read in
 
   number of l-projection  operators is LMAX  =           6
   number of lm-projection operators is LMMAX =          18
 

 ----------------------------------------------------------------------------- 
|                                                                             |
|  ADVICE TO THIS USER RUNNING 'VASP/VAMP'   (HEAR YOUR MASTER'S VOICE ...):  |
|                                                                             |
|      You have a (more or less) 'large supercell' and for larger cells       |
|      it might be more efficient to use real space projection opertators     |
|      So try LREAL= Auto  in the INCAR   file.                               |
|      Mind:          For very  accurate calculation you might also keep the  |
|      reciprocal projection scheme          (i.e. LREAL=.FALSE.)             |
|                                                                             |
 ----------------------------------------------------------------------------- 

  PAW_PBE Li_sv 10Sep2004               :
 energy of atom  1       EATOM= -202.7858
 kinetic energy error for atom=    0.0072 (will be added to EATOM!!)
  PAW_PBE O 08Apr2002                   :
 energy of atom  2       EATOM= -432.3788
 kinetic energy error for atom=    0.0129 (will be added to EATOM!!)
  PAW_PBE S 06Sep2000                   :
 energy of atom  3       EATOM= -276.8230
 kinetic energy error for atom=    0.0008 (will be added to EATOM!!)
  PAW_PBE Fe_pv 02Aug2007               :
 energy of atom  4       EATOM=-2457.4239
 kinetic energy error for atom=    0.0041 (will be added to EATOM!!)
 
 
 POSCAR: # Compound: Li16O16S24Fe32. Old comment:
  positions in direct lattice
  No initial velocities read in
 exchange correlation table for  LEXCH =        8
   RHO(1)=    0.500       N(1)  =     2000
   RHO(2)=  100.500       N(2)  =     4000
 


--------------------------------------------------------------------------------------------------------


 ion  position               nearest neighbor table
   1  0.289  0.469  0.156-  27 2.00  29 2.00  55 2.53  49 2.53
   2  0.789  0.469  0.156-  28 2.00  30 2.00  56 2.53  50 2.53
   3  0.289  0.969  0.156-  25 2.00  31 2.00  53 2.53  51 2.53
   4  0.789  0.969  0.156-  26 2.00  32 2.00  54 2.53  52 2.53
   5  0.046  0.219  0.186-  30 1.98  25 1.98
   6  0.546  0.219  0.186-  29 1.98  26 1.98
   7  0.046  0.719  0.186-  32 1.98  27 1.98
   8  0.546  0.719  0.186-  31 1.98  28 1.98
   9  0.454  0.469  0.814-  20 1.98  21 1.98
  10  0.954  0.469  0.814-  19 1.98  22 1.98
  11  0.454  0.969  0.814-  18 1.98  23 1.98
  12  0.954  0.969  0.814-  24 1.98  17 1.99
  13  0.211  0.219  0.844-  21 2.00  17 2.00  49 2.53  53 2.53
  14  0.711  0.219  0.844-  22 2.00  18 2.00  50 2.53  54 2.53
  15  0.211  0.719  0.844-  23 2.00  19 2.00  51 2.53  55 2.53
  16  0.711  0.719  0.844-  24 2.00  20 2.00  52 2.53  56 2.53
  17  0.077  0.095  0.802-  12 1.99  13 2.00  57 2.00  83 2.01  86 2.02
  18  0.577  0.095  0.803-  11 1.98  14 2.00  58 2.01  84 2.01  85 2.01
  19  0.077  0.595  0.803-  10 1.98  15 2.00  59 2.01  81 2.01  88 2.01
  20  0.577  0.595  0.803-   9 1.98  16 2.00  60 2.01  82 2.01  87 2.01
  21  0.325  0.343  0.803-   9 1.98  13 2.00  61 2.01  81 2.01  85 2.01
  22  0.825  0.343  0.803-  10 1.98  14 2.00  62 2.01  82 2.01  86 2.01
  23  0.325  0.843  0.803-  11 1.98  15 2.00  63 2.01  83 2.01  87 2.01
  24  0.825  0.843  0.803-  12 1.98  16 2.00  64 2.01  84 2.01  88 2.01
  25  0.175  0.093  0.197-   5 1.98   3 2.00  65 2.01  77 2.01  75 2.01
  26  0.675  0.093  0.197-   6 1.98   4 2.00  66 2.01  78 2.01  76 2.01
  27  0.175  0.593  0.197-   7 1.98   1 2.00  67 2.01  79 2.01  73 2.01
  28  0.675  0.593  0.197-   8 1.98   2 2.00  68 2.01  80 2.01  74 2.01
  29  0.423  0.345  0.197-   6 1.98   1 2.00  69 2.01  77 2.01  74 2.01
  30  0.923  0.345  0.197-   5 1.98   2 2.00  70 2.01  78 2.01  73 2.01
  31  0.423  0.845  0.197-   8 1.98   3 2.00  71 2.01  79 2.01  76 2.01
  32  0.923  0.845  0.197-   7 1.98   4 2.00  72 2.01  80 2.01  75 2.01
  33  0.219  0.345  0.371-  61 2.41  67 2.65  69 2.65
  34  0.719  0.345  0.371-  62 2.41  68 2.65  70 2.65
  35  0.219  0.845  0.371-  63 2.41  65 2.65  71 2.65
  36  0.719  0.845  0.371-  64 2.41  66 2.65  72 2.65
  37  0.467  0.093  0.371-  58 2.41  71 2.65  65 2.65
  38  0.967  0.093  0.371-  57 2.41  72 2.65  66 2.65
  39  0.467  0.593  0.371-  60 2.41  69 2.65  67 2.65
  40  0.967  0.593  0.371-  59 2.41  70 2.65  68 2.65
  41  0.033  0.343  0.629-  70 2.41  57 2.65  61 2.65
  42  0.533  0.343  0.629-  69 2.41  58 2.65  62 2.65
  43  0.033  0.843  0.629-  72 2.41  59 2.65  63 2.65
  44  0.533  0.843  0.629-  71 2.41  60 2.65  64 2.65
  45  0.281  0.095  0.629-  65 2.41  61 2.65  57 2.65
  46  0.781  0.095  0.629-  66 2.41  62 2.65  58 2.65
  47  0.281  0.595  0.629-  67 2.41  63 2.65  59 2.65
  48  0.781  0.595  0.629-  68 2.41  64 2.65  60 2.65
  49  0.124  0.344  0.000-  73 2.51  86 2.51  81 2.52  77 2.52  13 2.53   1 2.53
  50  0.624  0.344  0.000-  74 2.51  85 2.51  82 2.52  78 2.52  14 2.53   2 2.53
  51  0.124  0.844  0.000-  75 2.51  88 2.51  83 2.52  79 2.52  15 2.53   3 2.53
  52  0.624  0.844  0.000-  76 2.51  87 2.51  84 2.52  80 2.52  16 2.53   4 2.53
  53  0.376  0.094  1.000-  85 2.51  76 2.51  77 2.52  83 2.52   3 2.53  13 2.53
  54  0.876  0.094  1.000-  86 2.51  75 2.51  78 2.52  84 2.52   4 2.53  14 2.53
  55  0.376  0.594  1.000-  87 2.51  74 2.51  79 2.52  81 2.52   1 2.53  15 2.53
  56  0.876  0.594  1.000-  88 2.51  73 2.51  80 2.52  82 2.52   2 2.53  16 2.53
  57  0.038  0.106  0.606-  17 2.00  38 2.41  41 2.65  45 2.65
  58  0.538  0.106  0.606-  18 2.01  37 2.41  42 2.65  46 2.65
  59  0.038  0.606  0.606-  19 2.01  40 2.41  43 2.65  47 2.65
  60  0.538  0.606  0.606-  20 2.01  39 2.41  44 2.65  48 2.65
  61  0.265  0.332  0.606-  21 2.01  33 2.41  45 2.65  41 2.65
  62  0.765  0.332  0.606-  22 2.01  34 2.41  46 2.65  42 2.65
  63  0.265  0.832  0.606-  23 2.01  35 2.41  47 2.65  43 2.65
  64  0.765  0.832  0.606-  24 2.01  36 2.41  48 2.65  44 2.65
  65  0.235  0.082  0.394-  25 2.01  45 2.41  35 2.65  37 2.65
  66  0.735  0.082  0.394-  26 2.01  46 2.41  36 2.65  38 2.65
  67  0.235  0.582  0.394-  27 2.01  47 2.41  33 2.65  39 2.65
  68  0.735  0.582  0.394-  28 2.01  48 2.41  34 2.65  40 2.65
  69  0.462  0.356  0.394-  29 2.01  42 2.41  39 2.65  33 2.65
  70  0.962  0.356  0.394-  30 2.01  41 2.41  40 2.65  34 2.65
  71  0.462  0.856  0.394-  31 2.01  44 2.41  37 2.65  35 2.65
  72  0.962  0.856  0.394-  32 2.01  43 2.41  38 2.65  36 2.65
  73  0.038  0.469  0.154-  30 2.01  27 2.01  49 2.51  56 2.51
  74  0.538  0.469  0.154-  29 2.01  28 2.01  50 2.51  55 2.51
  75  0.038  0.969  0.154-  32 2.01  25 2.01  51 2.51  54 2.51
  76  0.538  0.969  0.154-  31 2.01  26 2.01  52 2.51  53 2.51
  77  0.289  0.219  0.154-  25 2.01  29 2.01  53 2.52  49 2.52
  78  0.789  0.219  0.154-  26 2.01  30 2.01  54 2.52  50 2.52
  79  0.289  0.719  0.154-  27 2.01  31 2.01  55 2.52  51 2.52
  80  0.789  0.719  0.154-  28 2.01  32 2.01  56 2.52  52 2.52
  81  0.211  0.469  0.846-  21 2.01  19 2.01  49 2.52  55 2.52
  82  0.711  0.469  0.846-  22 2.01  20 2.01  50 2.52  56 2.52
  83  0.211  0.969  0.846-  23 2.01  17 2.01  51 2.52  53 2.52
  84  0.711  0.969  0.846-  24 2.01  18 2.01  52 2.52  54 2.52
  85  0.462  0.219  0.846-  18 2.01  21 2.01  53 2.51  50 2.51
  86  0.962  0.219  0.846-  22 2.01  17 2.02  54 2.51  49 2.51
  87  0.462  0.719  0.846-  20 2.01  23 2.01  55 2.51  52 2.51
  88  0.962  0.719  0.846-  19 2.01  24 2.01  56 2.51  51 2.51
 

IMPORTANT INFORMATION: All symmetrisations will be switched off!
NOSYMM: (Re-)initialisation of all symmetry stuff for point group C_1.

 
 
 KPOINTS: # No comment                            

Automatic generation of k-mesh.
Space group operators:
 irot       det(A)        alpha          n_x          n_y          n_z        tau_x        tau_y        tau_z
    1     1.000000     0.000000     1.000000     0.000000     0.000000     0.000000     0.000000     0.000000
 
 Subroutine IBZKPT returns following result:
 ===========================================
 
 Found     14 irreducible k-points:
 
 Following reciprocal coordinates:
            Coordinates               Weight
  0.000000  0.000000  0.000000      1.000000
  0.333333  0.000000  0.000000      2.000000
  0.000000  0.333333  0.000000      2.000000
  0.333333  0.333333  0.000000      2.000000
 -0.333333  0.333333 -0.000000      2.000000
  0.000000  0.000000  0.333333      2.000000
  0.333333  0.000000  0.333333      2.000000
 -0.333333  0.000000  0.333333      2.000000
  0.000000  0.333333  0.333333      2.000000
  0.333333  0.333333  0.333333      2.000000
 -0.333333  0.333333  0.333333      2.000000
  0.000000 -0.333333  0.333333      2.000000
  0.333333 -0.333333  0.333333      2.000000
 -0.333333 -0.333333  0.333333      2.000000
 
 Following cartesian coordinates:
            Coordinates               Weight
  0.000000  0.000000  0.000000      1.000000
  0.029997  0.000000  0.008162      2.000000
  0.000000  0.029983  0.000000      2.000000
  0.029997  0.029983  0.008162      2.000000
 -0.029997  0.029983 -0.008162      2.000000
  0.000001  0.000000  0.032684      2.000000
  0.029998  0.000000  0.040846      2.000000
 -0.029996  0.000000  0.024522      2.000000
  0.000001  0.029983  0.032684      2.000000
  0.029998  0.029983  0.040846      2.000000
 -0.029996  0.029983  0.024522      2.000000
  0.000001 -0.029983  0.032684      2.000000
  0.029998 -0.029983  0.040846      2.000000
 -0.029996 -0.029983  0.024522      2.000000
 


--------------------------------------------------------------------------------------------------------




 Dimension of arrays:
   k-points           NKPTS =     14   k-points in BZ     NKDIM =     14   number of bands    NBANDS=    538
   number of dos      NEDOS =    301   number of ions     NIONS =     88
   non local maximal  LDIM  =      6   non local SUM 2l+1 LMDIM =     18
   total plane-waves  NPLWV = 829440
   max r-space proj   IRMAX =      1   max aug-charges    IRDMAX= 166102
   dimension x,y,z NGX =    96 NGY =   96 NGZ =   90
   dimension x,y,z NGXF=   192 NGYF=  192 NGZF=  180
   support grid    NGXF=   384 NGYF=  384 NGZF=  360
   ions per type =              16  16  24  32
   NGX,Y,Z   is equivalent  to a cutoff of  14.36, 14.36, 14.16 a.u.
   NGXF,Y,Z  is equivalent  to a cutoff of  28.72, 28.71, 28.31 a.u.

 SYSTEM =  unknown system                          
 POSCAR =  # Compound: Li16O16S24Fe32. Old comment:

 Startparameter for this run:
   NWRITE =      1    write-flag & timer
   PREC   = accura    normal or accurate (medium, high low for compatibility)
   ISTART =      0    job   : 0-new  1-cont  2-samecut
   ICHARG =      1    charge: 1-file 2-atom 10-const
   ISPIN  =      2    spin polarized calculation?
   LNONCOLLINEAR =      F non collinear calculations
   LSORBIT =      F    spin-orbit coupling
   INIWAV =      1    electr: 0-lowe 1-rand  2-diag
   LASPH  =      T    aspherical Exc in radial PAW
   METAGGA=      F    non-selfconsistent MetaGGA calc.

 Electronic Relaxation 1
   ENCUT  =  650.0 eV  47.77 Ry    6.91 a.u.  23.10 23.11 21.97*2*pi/ulx,y,z
   ENINI  =  650.0     initial cutoff
   ENAUG  =  628.9 eV  augmentation charge cutoff
   NELM   =    200;   NELMIN=  8; NELMDL=  0     # of ELM steps 
   EDIFF  = 0.1E-05   stopping-criterion for ELM
   LREAL  =      F    real-space projection
   NLSPLINE    = F    spline interpolate recip. space projectors
   LCOMPAT=      F    compatible to vasp.4.4
   GGA_COMPAT  = T    GGA compatible to vasp.4.4-vasp.4.6
   LMAXPAW     = -100 max onsite density
   LMAXMIX     =    4 max onsite mixed and CHGCAR
   VOSKOWN=      0    Vosko Wilk Nusair interpolation
   ROPT   =    0.00000   0.00000   0.00000   0.00000
 Ionic relaxation
   EDIFFG = 0.1E-04   stopping-criterion for IOM
   NSW    =      0    number of steps for IOM
   NBLOCK =      1;   KBLOCK =      1    inner block; outer block 
   IBRION =     -1    ionic relax: 0-MD 1-quasi-New 2-CG
   NFREE  =      0    steps in history (QN), initial steepest desc. (CG)
   ISIF   =      2    stress and relaxation
   IWAVPR =     10    prediction:  0-non 1-charg 2-wave 3-comb
   ISYM   =      0    0-nonsym 1-usesym 2-fastsym
   LCORR  =      T    Harris-Foulkes like correction to forces

   POTIM  = 0.5000    time-step for ionic-motion
   TEIN   =    0.0    initial temperature
   TEBEG  =    0.0;   TEEND  =   0.0 temperature during run
   SMASS  =  -3.00    Nose mass-parameter (am)
   estimated Nose-frequenzy (Omega)   =  0.10E-29 period in steps =****** mass=  -0.282E-26a.u.
   SCALEE = 1.0000    scale energy and forces
   NPACO  =    256;   APACO  = 16.0  distance and # of slots for P.C.
   PSTRESS=    0.0 pullay stress

  Mass of Ions in am
   POMASS =   7.01 16.00 32.07 55.85
  Ionic Valenz
   ZVAL   =   3.00  6.00  6.00 14.00
  Atomic Wigner-Seitz radii
   RWIGS  =  -1.00 -1.00 -1.00 -1.00
  virtual crystal weights 
   VCA    =   1.00  1.00  1.00  1.00
   NELECT =     736.0000    total number of electrons
   NUPDOWN=      -1.0000    fix difference up-down

 DOS related values:
   EMIN   =  10.00;   EMAX   =-10.00  energy-range for DOS
   EFERMI =   0.00
   ISMEAR =     0;   SIGMA  =   0.05  broadening in eV -4-tet -1-fermi 0-gaus

 Electronic relaxation 2 (details)
   IALGO  =     38    algorithm
   LDIAG  =      T    sub-space diagonalisation (order eigenvalues)
   LSUBROT=      F    optimize rotation matrix (better conditioning)
   TURBO    =      0    0=normal 1=particle mesh
   IRESTART =      0    0=no restart 2=restart with 2 vectors
   NREBOOT  =      0    no. of reboots
   NMIN     =      0    reboot dimension
   EREF     =   0.00    reference energy to select bands
   IMIX   =      4    mixing-type and parameters
     AMIX     =   0.40;   BMIX     =  1.00
     AMIX_MAG =   1.60;   BMIX_MAG =  1.00
     AMIN     =   0.10
     WC   =   100.;   INIMIX=   1;  MIXPRE=   1;  MAXMIX= -45

 Intra band minimization:
   WEIMIN = 0.0000     energy-eigenvalue tresh-hold
   EBREAK =  0.46E-09  absolut break condition
   DEPER  =   0.30     relativ break condition  

   TIME   =   0.40     timestep for ELM

  volume/ion in A,a.u.               =      14.32        96.62
  Fermi-wavevector in a.u.,A,eV,Ry     =   1.368520  2.586127 25.481613  1.872846
  Thomas-Fermi vector in A             =   2.494476
 
 Write flags
   LWAVE        =      F    write WAVECAR
   LDOWNSAMPLE  =      F    k-point downsampling of WAVECAR
   LCHARG       =      T    write CHGCAR
   LVTOT        =      F    write LOCPOT, total local potential
   LVHAR        =      F    write LOCPOT, Hartree potential only
   LELF         =      F    write electronic localiz. function (ELF)
   LORBIT       =      0    0 simple, 1 ext, 2 COOP (PROOUT), +10 PAW based schemes


 Dipole corrections
   LMONO  =      F    monopole corrections only (constant potential shift)
   LDIPOL =      F    correct potential (dipole corrections)
   IDIPOL =      0    1-x, 2-y, 3-z, 4-all directions 
   EPSILON=  1.0000000 bulk dielectric constant

 LDA+U is selected, type is set to LDAUTYPE =  2
   angular momentum for each species LDAUL =    -1   -1   -1    2
   U (eV)           for each species LDAUU =   0.0  0.0  0.0  4.0
   J (eV)           for each species LDAUJ =   0.0  0.0  0.0  0.0
 Exchange correlation treatment:
   GGA     =    PE    GGA type
   LEXCH   =     8    internal setting for exchange type
   VOSKOWN=      0    Vosko Wilk Nusair interpolation
   LHFCALC =     F    Hartree Fock is set to
   LHFONE  =     F    Hartree Fock one center treatment
   AEXX    =    0.0000 exact exchange contribution

 Linear response parameters
   LEPSILON=     F    determine dielectric tensor
   LRPA    =     F    only Hartree local field effects (RPA)
   LNABLA  =     F    use nabla operator in PAW spheres
   LVEL    =     F    velocity operator in full k-point grid
   LINTERFAST=   F  fast interpolation
   KINTER  =     0    interpolate to denser k-point grid
   CSHIFT  =0.1000    complex shift for real part using Kramers Kronig
   OMEGAMAX=  -1.0    maximum frequency
   DEG_THRESHOLD= 0.2000000E-02 threshold for treating states as degnerate
   RTIME   =   -0.100 relaxation time in fs
  (WPLASMAI=    0.000 imaginary part of plasma frequency in eV, 0.658/RTIME)
   DFIELD  = 0.0000000 0.0000000 0.0000000 field for delta impulse in time
 
 Orbital magnetization related:
   ORBITALMAG=     F  switch on orbital magnetization
   LCHIMAG   =     F  perturbation theory with respect to B field
   DQ        =  0.001000  dq finite difference perturbation B field
   LLRAUG    =     F  two centre corrections for induced B field



--------------------------------------------------------------------------------------------------------


 Static calculation
 charge density and potential will be updated during run
 spin polarized calculation
 Variant of blocked Davidson
 Davidson routine will perform the subspace rotation
 perform sub-space diagonalisation
    after iterative eigenvector-optimisation
 modified Broyden-mixing scheme, WC =      100.0
 initial mixing is a Kerker type mixing with AMIX =  0.4000 and BMIX =      1.0000
 Hartree-type preconditioning will be used
 using additional bands          170
 reciprocal scheme for non local part
 use partial core corrections
 calculate Harris-corrections to forces 
   (improved forces if not selfconsistent)
 use gradient corrections 
 use of overlap-Matrix (Vanderbilt PP)
 Gauss-broadening in eV      SIGMA  =   0.05


--------------------------------------------------------------------------------------------------------


  energy-cutoff  :      650.00
  volume of cell :     1259.94
      direct lattice vectors                 reciprocal lattice vectors
    11.112233740  0.000000000 -0.000290340     0.089991547  0.000000000  0.024487024
     0.000000000 11.117451940  0.000000000     0.000000000  0.089948669  0.000000000
    -2.775108980  0.000000000 10.198722210     0.000002562  0.000000000  0.098052196

  length of vectors
    11.112233744 11.117451940 10.569539468     0.093263567  0.089948669  0.098052196


 
 k-points in units of 2pi/SCALE and weight: # No comment                            
   0.00000000  0.00000000  0.00000000       0.037
   0.02999718  0.00000000  0.00816234       0.074
   0.00000000  0.02998289  0.00000000       0.074
   0.02999718  0.02998289  0.00816234       0.074
  -0.02999718  0.02998289 -0.00816234       0.074
   0.00000085  0.00000000  0.03268407       0.074
   0.02999804  0.00000000  0.04084641       0.074
  -0.02999633  0.00000000  0.02452172       0.074
   0.00000085  0.02998289  0.03268407       0.074
   0.02999804  0.02998289  0.04084641       0.074
  -0.02999633  0.02998289  0.02452172       0.074
   0.00000085 -0.02998289  0.03268407       0.074
   0.02999804 -0.02998289  0.04084641       0.074
  -0.02999633 -0.02998289  0.02452172       0.074
 
 k-points in reciprocal lattice and weights: # No comment                            
   0.00000000  0.00000000  0.00000000       0.037
   0.33333333  0.00000000  0.00000000       0.074
   0.00000000  0.33333333  0.00000000       0.074
   0.33333333  0.33333333  0.00000000       0.074
  -0.33333333  0.33333333 -0.00000000       0.074
   0.00000000  0.00000000  0.33333333       0.074
   0.33333333  0.00000000  0.33333333       0.074
  -0.33333333  0.00000000  0.33333333       0.074
   0.00000000  0.33333333  0.33333333       0.074
   0.33333333  0.33333333  0.33333333       0.074
  -0.33333333  0.33333333  0.33333333       0.074
   0.00000000 -0.33333333  0.33333333       0.074
   0.33333333 -0.33333333  0.33333333       0.074
  -0.33333333 -0.33333333  0.33333333       0.074
 
 position of ions in fractional coordinates (direct lattice) 
   0.28894969  0.46933910  0.15583616
   0.78894969  0.46933910  0.15583616
   0.28894969  0.96933910  0.15583616
   0.78894969  0.96933910  0.15583616
   0.04646972  0.21934976  0.18586770
   0.54646972  0.21934976  0.18586770
   0.04646972  0.71934976  0.18586770
   0.54646972  0.71934976  0.18586770
   0.45353028  0.46934976  0.81413230
   0.95353028  0.46934976  0.81413230
   0.45353028  0.96934976  0.81413230
   0.95353028  0.96934976  0.81413230
   0.21105031  0.21933910  0.84416384
   0.71105031  0.21933910  0.84416384
   0.21105031  0.71933910  0.84416384
   0.71105031  0.71933910  0.84416384
   0.07654971  0.09530995  0.80155981
   0.57654971  0.09530995  0.80250593
   0.07654971  0.59530995  0.80250593
   0.57654971  0.59530995  0.80250593
   0.32470466  0.34338175  0.80250383
   0.82470466  0.34338175  0.80250383
   0.32470466  0.84338175  0.80250383
   0.82470466  0.84338175  0.80250383
   0.17529534  0.09338175  0.19749617
   0.67529534  0.09338175  0.19749617
   0.17529534  0.59338175  0.19749617
   0.67529534  0.59338175  0.19749617
   0.42345029  0.34530995  0.19749407
   0.92345029  0.34530995  0.19749407
   0.42345029  0.84530995  0.19749407
   0.92345029  0.84530995  0.19749407
   0.21868463  0.34523395  0.37102476
   0.71868463  0.34523395  0.37102476
   0.21868463  0.84523395  0.37102476
   0.71868463  0.84523395  0.37102476
   0.46681660  0.09344897  0.37102399
   0.96681660  0.09344897  0.37102399
   0.46681660  0.59344897  0.37102399
   0.96681660  0.59344897  0.37102399
   0.03318340  0.34344897  0.62897601
   0.53318340  0.34344897  0.62897601
   0.03318340  0.84344897  0.62897601
   0.53318340  0.84344897  0.62897601
   0.28131537  0.09523395  0.62897524
   0.78131537  0.09523395  0.62897524
   0.28131537  0.59523395  0.62897524
   0.78131537  0.59523395  0.62897524
   0.12439279  0.34434306  0.00000412
   0.62439279  0.34434306  0.00000412
   0.12439279  0.84434306  0.00000412
   0.62439279  0.84434306  0.00000412
   0.37560721  0.09434306  0.99999588
   0.87560721  0.09434306  0.99999588
   0.37560721  0.59434306  0.99999588
   0.87560721  0.59434306  0.99999588
   0.03824426  0.10634799  0.60632306
   0.53824426  0.10634799  0.60632306
   0.03824426  0.60634799  0.60632306
   0.53824426  0.60634799  0.60632306
   0.26492712  0.33232651  0.60632763
   0.76492712  0.33232651  0.60632763
   0.26492712  0.83232651  0.60632763
   0.76492712  0.83232651  0.60632763
   0.23507288  0.08232651  0.39367237
   0.73507288  0.08232651  0.39367237
   0.23507288  0.58232651  0.39367237
   0.73507288  0.58232651  0.39367237
   0.46175574  0.35634799  0.39367694
   0.96175574  0.35634799  0.39367694
   0.46175574  0.85634799  0.39367694
   0.96175574  0.85634799  0.39367694
   0.03848398  0.46936404  0.15397331
   0.53848398  0.46936404  0.15397331
   0.03848398  0.96936404  0.15397331
   0.53848398  0.96936404  0.15397331
   0.28861657  0.21935690  0.15447525
   0.78861657  0.21935690  0.15447525
   0.28861657  0.71935690  0.15447525
   0.78861657  0.71935690  0.15447525
   0.21138343  0.46935690  0.84552475
   0.71138343  0.46935690  0.84552475
   0.21138343  0.96935690  0.84552475
   0.71138343  0.96935690  0.84552475
   0.46151602  0.21936404  0.84602669
   0.96151602  0.21936404  0.84602669
   0.46151602  0.71936404  0.84602669
   0.96151602  0.71936404  0.84602669
 
 position of ions in cartesian coordinates  (Angst):
   2.77841422  5.21785483  1.58924581
   8.33453109  5.21785483  1.58910064
   2.77841422 10.77658080  1.58924581
   8.33453109 10.77658080  1.58910064
   0.00057921  2.43861041  1.89559955
   5.55669608  2.43861041  1.89545438
   0.00057921  7.99733638  1.89559955
   5.55669608  7.99733638  1.89545438
   2.78042868  5.21797340  8.30297749
   8.33654555  5.21797340  8.30283232
   2.78042868 10.77669937  8.30297749
   8.33654555 10.77669937  8.30283232
   0.00259367  2.43849185  8.60933123
   5.55871054  2.43849185  8.60918606
   0.00259367  7.99721782  8.60933123
   5.55871054  7.99721782  8.60918606
  -1.37377757  1.05960384  8.17486366
   4.17971373  1.05960384  8.18436766
  -1.37640314  6.61832981  8.18451283
   4.17971373  6.61832981  8.18436766
   1.38115855  3.81753010  8.18441936
   6.93727542  3.81753010  8.18427419
   1.38115855  9.37625607  8.18441936
   6.93727542  9.37625607  8.18427419
   1.39984934  1.03816712  2.01415768
   6.95596621  1.03816712  2.01401251
   1.39984934  6.59689309  2.01415768
   6.95596621  6.59689309  2.01401251
   4.15741103  3.83896683  2.01406421
   9.71352790  3.83896683  2.01391904
   4.15741103  9.39769280  2.01406421
   9.71352790  9.39769280  2.01391904
   1.40044058  3.83812185  3.78391497
   6.95655745  3.83812185  3.78376980
   1.40044058  9.39684782  3.78391497
   6.95655745  9.39684782  3.78376980
   4.15774317  1.03891443  3.78383507
   9.71386004  1.03891443  3.78368990
   4.15774317  6.59764040  3.78383507
   9.71386004  6.59764040  3.78368990
  -1.37673528  3.81827742  6.41474197
   4.17938159  3.81827742  6.41459680
  -1.37673528  9.37700339  6.41474197
   4.17938159  9.37700339  6.41459680
   1.38056731  1.05875886  6.41466207
   6.93668418  1.05875886  6.41451690
   1.38056731  6.61748483  6.41466207
   6.93668418  6.61748483  6.41451690
   1.38227032  3.82821742  0.00000590
   6.93838719  3.82821742 -0.00013927
   1.38227032  9.38694339  0.00000590
   6.93838719  9.38694339 -0.00013927
   1.39873757  1.04885444 10.19857114
   6.95485444  1.04885444 10.19842597
   1.39873757  6.60758041 10.19857114
   6.95485444  6.60758041 10.19842597
  -1.25763347  1.18231867  6.18370935
   4.29848340  1.18231867  6.18356418
  -1.25763347  6.74104464  6.18370935
   4.29848340  6.74104464  6.18356418
   1.26130689  3.69462400  6.18369015
   6.81742376  3.69462400  6.18354498
   1.26130689  9.25334997  6.18369015
   6.81742376  9.25334997  6.18354498
   1.51970100  0.91526102  4.01488689
   7.07581787  0.91526102  4.01474172
   1.51970100  6.47398699  4.01488689
   7.07581787  6.47398699  4.01474172
   4.03864136  3.96168165  4.01486769
   9.59475823  3.96168165  4.01472252
   4.03864136  9.52040762  4.01486769
   9.59475823  9.52040762  4.01472252
   0.00035027  5.21813216  1.57031984
   5.55646714  5.21813216  1.57017467
   0.00035027 10.77685813  1.57031984
   5.55646714 10.77685813  1.57017467
   2.77848919  2.43868979  1.57536637
   8.33460606  2.43868979  1.57522120
   2.77848919  7.99741576  1.57536637
   8.33460606  7.99741576  1.57522120
   0.00251870  5.21805278  8.62321067
   5.55863557  5.21805278  8.62306550
   0.00251870 10.77677875  8.62321067
   5.55863557 10.77677875  8.62306550
   2.78065762  2.43876917  8.62825720
   8.33677449  2.43876917  8.62811203
   2.78065762  7.99749514  8.62825720
   8.33677449  7.99749514  8.62811203
 


--------------------------------------------------------------------------------------------------------


 k-point  1 :   0.0000 0.0000 0.0000  plane waves:   47369
 k-point  2 :   0.3333 0.0000 0.0000  plane waves:   47373
 k-point  3 :   0.0000 0.3333 0.0000  plane waves:   47370
 k-point  4 :   0.3333 0.3333 0.0000  plane waves:   47404
 k-point  5 :  -0.3333 0.3333-0.0000  plane waves:   47404
 k-point  6 :   0.0000 0.0000 0.3333  plane waves:   47419
 k-point  7 :   0.3333 0.0000 0.3333  plane waves:   47399
 k-point  8 :  -0.3333 0.0000 0.3333  plane waves:   47417
 k-point  9 :   0.0000 0.3333 0.3333  plane waves:   47409
 k-point 10 :   0.3333 0.3333 0.3333  plane waves:   47422
 k-point 11 :  -0.3333 0.3333 0.3333  plane waves:   47440
 k-point 12 :   0.0000-0.3333 0.3333  plane waves:   47409
 k-point 13 :   0.3333-0.3333 0.3333  plane waves:   47422
 k-point 14 :  -0.3333-0.3333 0.3333  plane waves:   47440

 maximum and minimum number of plane-waves per node :      7942     7858

 maximum number of plane-waves:     47440
 maximum index in each direction: 
   IXMAX=   23   IYMAX=   23   IZMAX=   21
   IXMIN=  -23   IYMIN=  -23   IZMIN=  -22


 parallel 3D FFT for wavefunctions:
    minimum data exchange during FFTs selected (reduces bandwidth)
 parallel 3D FFT for charge:
    minimum data exchange during FFTs selected (reduces bandwidth)


 total amount of memory used by VASP MPI-rank0  1233264. kBytes
=======================================================================

   base      :      30000. kBytes
   nonl-proj :      75226. kBytes
   fftplans  :      85054. kBytes
   grid      :      64684. kBytes
   one-center:        466. kBytes
   wavefun   :     977834. kBytes
 
     INWAV:  cpu time    0.0000: real time    0.0000
 Broyden mixing: mesh for mixing (old mesh)
   NGX = 47   NGY = 47   NGZ = 43
  (NGX  =192   NGY  =192   NGZ  =180)
  gives a total of  94987 points

 initial charge density was supplied:
 number of electron     736.0000016 magnetization     127.9999885
 keeping initial charge density in first step


--------------------------------------------------------------------------------------------------------


 Maximum index for augmentation-charges        13229 (set IRDMAX)


--------------------------------------------------------------------------------------------------------


 First call to EWALD:  gamma=   0.164
 Maximum number of real-space cells 3x 3x 3
 Maximum number of reciprocal cells 3x 3x 3

    FEWALD:  cpu time    0.0046: real time    0.0059


--------------------------------------- Iteration      1(   1)  ---------------------------------------


    POTLOK:  cpu time    1.0422: real time    1.0763
    SETDIJ:  cpu time    2.2909: real time    2.3197
     EDDAV:  cpu time  314.1382: real time  317.4985
       DOS:  cpu time    0.0086: real time    0.0486
    --------------------------------------------
      LOOP:  cpu time  317.4799: real time  320.9431

 eigenvalue-minimisations  : 30944
 total energy-change (2. order) : 0.1040969E+05  (-0.4118851E+05)
 number of electron     736.0000016 magnetization     127.9999885
 augmentation part      736.0000016 magnetization     127.9999885

 Free energy of the ion-electron system (eV)
  ---------------------------------------------------
  alpha Z        PSCENC =      2314.49656628
  Ewald energy   TEWEN  =    -57721.73143109
  -Hartree energ DENC   =    -30350.10716935
  -exchange      EXHF   =         0.00000000
  -V(xc)+E(xc)   XCENC  =      3229.30499713
  PAW double counting   =     92679.89207989   -95535.38516353
  entropy T*S    EENTRO =        -0.01838191
  eigenvalues    EBANDS =       349.75849058
  atomic energy  EATOM  =     95443.47970955
  Solvation  Ediel_sol  =         0.00000000
  ---------------------------------------------------
  free energy    TOTEN  =     10409.68969755 eV

  energy without entropy =    10409.70807946  energy(sigma->0) =    10409.69888850


--------------------------------------------------------------------------------------------------------




--------------------------------------- Iteration      1(   2)  ---------------------------------------


     EDDAV:  cpu time  309.9463: real time  312.9709
       DOS:  cpu time    0.0084: real time    0.0084
    --------------------------------------------
      LOOP:  cpu time  309.9547: real time  312.9793

 eigenvalue-minimisations  : 30128
 total energy-change (2. order) :-0.9232197E+04  (-0.8658397E+04)
 number of electron     736.0000016 magnetization     127.9999885
 augmentation part      736.0000016 magnetization     127.9999885

 Free energy of the ion-electron system (eV)
  ---------------------------------------------------
  alpha Z        PSCENC =      2314.49656628
  Ewald energy   TEWEN  =    -57721.73143109
  -Hartree energ DENC   =    -30350.10716935
  -exchange      EXHF   =         0.00000000
  -V(xc)+E(xc)   XCENC  =      3229.30499713
  PAW double counting   =     92679.89207989   -95535.38516353
  entropy T*S    EENTRO =        -0.06575484
  eigenvalues    EBANDS =     -8882.39089123
  atomic energy  EATOM  =     95443.47970955
  Solvation  Ediel_sol  =         0.00000000
  ---------------------------------------------------
  free energy    TOTEN  =      1177.49294281 eV

  energy without entropy =     1177.55869765  energy(sigma->0) =     1177.52582023


--------------------------------------------------------------------------------------------------------




--------------------------------------- Iteration      1(   3)  ---------------------------------------


     EDDAV:  cpu time  326.9783: real time  330.2438
       DOS:  cpu time    0.0026: real time    0.0030
    --------------------------------------------
      LOOP:  cpu time  326.9808: real time  330.2468

 eigenvalue-minimisations  : 32352
 total energy-change (2. order) :-0.1485597E+04  (-0.1278952E+04)
 number of electron     736.0000016 magnetization     127.9999885
 augmentation part      736.0000016 magnetization     127.9999885

 Free energy of the ion-electron system (eV)
  ---------------------------------------------------
  alpha Z        PSCENC =      2314.49656628
  Ewald energy   TEWEN  =    -57721.73143109
  -Hartree energ DENC   =    -30350.10716935
  -exchange      EXHF   =         0.00000000
  -V(xc)+E(xc)   XCENC  =      3229.30499713
  PAW double counting   =     92679.89207989   -95535.38516353
  entropy T*S    EENTRO =        -0.00000000
  eigenvalues    EBANDS =    -10368.05384161
  atomic energy  EATOM  =     95443.47970955
  Solvation  Ediel_sol  =         0.00000000
  ---------------------------------------------------
  free energy    TOTEN  =      -308.10425274 eV

  energy without entropy =     -308.10425274  energy(sigma->0) =     -308.10425274


--------------------------------------------------------------------------------------------------------




--------------------------------------- Iteration      1(   4)  ---------------------------------------


     EDDAV:  cpu time  348.3182: real time  351.9780
       DOS:  cpu time    0.0024: real time    0.0024
    --------------------------------------------
      LOOP:  cpu time  348.3206: real time  351.9804

 eigenvalue-minimisations  : 35024
 total energy-change (2. order) :-0.1681977E+03  (-0.1654368E+03)
 number of electron     736.0000016 magnetization     127.9999885
 augmentation part      736.0000016 magnetization     127.9999885

 Free energy of the ion-electron system (eV)
  ---------------------------------------------------
  alpha Z        PSCENC =      2314.49656628
  Ewald energy   TEWEN  =    -57721.73143109
  -Hartree energ DENC   =    -30350.10716935
  -exchange      EXHF   =         0.00000000
  -V(xc)+E(xc)   XCENC  =      3229.30499713
  PAW double counting   =     92679.89207989   -95535.38516353
  entropy T*S    EENTRO =        -0.00000000
  eigenvalues    EBANDS =    -10536.25152750
  atomic energy  EATOM  =     95443.47970955
  Solvation  Ediel_sol  =         0.00000000
  ---------------------------------------------------
  free energy    TOTEN  =      -476.30193862 eV

  energy without entropy =     -476.30193862  energy(sigma->0) =     -476.30193862


--------------------------------------------------------------------------------------------------------




--------------------------------------- Iteration      1(   5)  ---------------------------------------


     EDDAV:  cpu time  461.4945: real time  465.6943
       DOS:  cpu time    0.0025: real time    0.0026
    CHARGE:  cpu time    9.2981: real time    9.3847
    MIXING:  cpu time    0.0339: real time    0.0358
    --------------------------------------------
      LOOP:  cpu time  470.8290: real time  475.1175

 eigenvalue-minimisations  : 49776
 total energy-change (2. order) :-0.1243294E+02  (-0.1230982E+02)
 number of electron     736.0000016 magnetization     127.9999932
 augmentation part      278.4640864 magnetization      84.1330906

 Broyden mixing:
  rms(total) = 0.20740E+00    rms(broyden)= 0.20723E+00
  rms(prec ) = 0.21090E+00
  weight for this iteration     100.00

 Free energy of the ion-electron system (eV)
  ---------------------------------------------------
  alpha Z        PSCENC =      2314.49656628
  Ewald energy   TEWEN  =    -57721.73143109
  -Hartree energ DENC   =    -30350.10716935
  -exchange      EXHF   =         0.00000000
  -V(xc)+E(xc)   XCENC  =      3229.30499713
  PAW double counting   =     92679.89207989   -95535.38516353
  entropy T*S    EENTRO =        -0.00000000
  eigenvalues    EBANDS =    -10548.68447022
  atomic energy  EATOM  =     95443.47970955
  Solvation  Ediel_sol  =         0.00000000
  ---------------------------------------------------
  free energy    TOTEN  =      -488.73488134 eV

  energy without entropy =     -488.73488134  energy(sigma->0) =     -488.73488134


--------------------------------------------------------------------------------------------------------




--------------------------------------- Iteration      1(   6)  ---------------------------------------


    POTLOK:  cpu time    1.0445: real time    1.0604
    SETDIJ:  cpu time    2.3016: real time    2.3494
     EDDAV:  cpu time  403.7312: real time  408.0126
       DOS:  cpu time    0.0026: real time    0.0026
    CHARGE:  cpu time    9.3636: real time    9.4120
    MIXING:  cpu time    0.0342: real time    0.0400
    --------------------------------------------
      LOOP:  cpu time  416.4777: real time  420.8771

 eigenvalue-minimisations  : 42040
 total energy-change (2. order) :-0.4654028E+00  (-0.4796770E+00)
 number of electron     736.0000016 magnetization     127.9999951
 augmentation part      277.9609114 magnetization      84.1618731

 Broyden mixing:
  rms(total) = 0.10234E+00    rms(broyden)= 0.10218E+00
  rms(prec ) = 0.10306E+00
  weight for this iteration     100.00

 eigenvalues of (default mixing * dielectric matrix)
  average eigenvalue GAMMA=   0.6578
  0.6578

 Free energy of the ion-electron system (eV)
  ---------------------------------------------------
  alpha Z        PSCENC =      2314.49656628
  Ewald energy   TEWEN  =    -57721.73143109
  -Hartree energ DENC   =    -30348.37017792
  -exchange      EXHF   =         0.00000000
  -V(xc)+E(xc)   XCENC  =      3229.00664565
  PAW double counting   =     92524.30835301   -95378.15915588
  entropy T*S    EENTRO =        -0.00000000
  eigenvalues    EBANDS =    -10552.23079377
  atomic energy  EATOM  =     95443.47970955
  Solvation  Ediel_sol  =         0.00000000
  ---------------------------------------------------
  free energy    TOTEN  =      -489.20028418 eV

  energy without entropy =     -489.20028418  energy(sigma->0) =     -489.20028418


--------------------------------------------------------------------------------------------------------




--------------------------------------- Iteration      1(   7)  ---------------------------------------


    POTLOK:  cpu time    1.0425: real time    1.0475
    SETDIJ:  cpu time    2.3012: real time    2.3028
     EDDAV:  cpu time  434.1609: real time  438.6646
       DOS:  cpu time    0.0027: real time    0.0027
    CHARGE:  cpu time    9.3728: real time    9.3824
    MIXING:  cpu time    0.0351: real time    0.0364
    --------------------------------------------
      LOOP:  cpu time  446.9152: real time  451.4363

 eigenvalue-minimisations  : 46304
 total energy-change (2. order) :-0.1669033E-01  (-0.1757020E-01)
 number of electron     736.0000016 magnetization     127.9999959
 augmentation part      277.8798108 magnetization      84.1541169

 Broyden mixing:
  rms(total) = 0.59241E-01    rms(broyden)= 0.59199E-01
  rms(prec ) = 0.60675E-01
  weight for this iteration     100.00

 eigenvalues of (default mixing * dielectric matrix)
  average eigenvalue GAMMA=   0.5702
  0.5702  0.5702

 Free energy of the ion-electron system (eV)
  ---------------------------------------------------
  alpha Z        PSCENC =      2314.49656628
  Ewald energy   TEWEN  =    -57721.73143109
  -Hartree energ DENC   =    -30349.29601321
  -exchange      EXHF   =         0.00000000
  -V(xc)+E(xc)   XCENC  =      3229.09127460
  PAW double counting   =     92582.00427783   -95436.42869893
  entropy T*S    EENTRO =        -0.00000000
  eigenvalues    EBANDS =    -10550.83265953
  atomic energy  EATOM  =     95443.47970955
  Solvation  Ediel_sol  =         0.00000000
  ---------------------------------------------------
  free energy    TOTEN  =      -489.21697451 eV

  energy without entropy =     -489.21697451  energy(sigma->0) =     -489.21697451


--------------------------------------------------------------------------------------------------------




--------------------------------------- Iteration      1(   8)  ---------------------------------------


    POTLOK:  cpu time    1.0498: real time    1.0521
    SETDIJ:  cpu time    2.2949: real time    2.2983
     EDDAV:  cpu time  406.2260: real time  410.2413
       DOS:  cpu time    0.0038: real time    0.0038
    CHARGE:  cpu time    9.3864: real time    9.3968
    MIXING:  cpu time    0.0283: real time    0.0290
    --------------------------------------------
      LOOP:  cpu time  418.9891: real time  423.0213

 eigenvalue-minimisations  : 42704
 total energy-change (2. order) : 0.4894121E-03  (-0.3517763E-03)
 number of electron     736.0000016 magnetization     127.9999964
 augmentation part      277.8717659 magnetization      84.1563523

 Broyden mixing:
  rms(total) = 0.52690E-01    rms(broyden)= 0.52686E-01
  rms(prec ) = 0.53952E-01
  weight for this iteration     100.00

 eigenvalues of (default mixing * dielectric matrix)
  average eigenvalue GAMMA=   0.5809
  0.6410  0.6410  0.4607

 Free energy of the ion-electron system (eV)
  ---------------------------------------------------
  alpha Z        PSCENC =      2314.49656628
  Ewald energy   TEWEN  =    -57721.73143109
  -Hartree energ DENC   =    -30349.26382517
  -exchange      EXHF   =         0.00000000
  -V(xc)+E(xc)   XCENC  =      3229.12041109
  PAW double counting   =     92595.56961802   -95450.12734024
  entropy T*S    EENTRO =        -0.00000000
  eigenvalues    EBANDS =    -10550.76019352
  atomic energy  EATOM  =     95443.47970955
  Solvation  Ediel_sol  =         0.00000000
  ---------------------------------------------------
  free energy    TOTEN  =      -489.21648509 eV

  energy without entropy =     -489.21648509  energy(sigma->0) =     -489.21648509


--------------------------------------------------------------------------------------------------------




--------------------------------------- Iteration      1(   9)  ---------------------------------------


    POTLOK:  cpu time    1.0471: real time    1.0499
    SETDIJ:  cpu time    2.2996: real time    2.3128
     EDDAV:  cpu time  453.6400: real time  457.9927
       DOS:  cpu time    0.0028: real time    0.0028
    CHARGE:  cpu time    9.1147: real time    9.3204
    MIXING:  cpu time    0.0366: real time    0.0367
    --------------------------------------------
      LOOP:  cpu time  466.1409: real time  470.7153

 eigenvalue-minimisations  : 48672
 total energy-change (2. order) : 0.5266387E-03  (-0.2192941E-04)
 number of electron     736.0000016 magnetization     127.9999988
 augmentation part      277.8741046 magnetization      84.1565517

 Broyden mixing:
  rms(total) = 0.45035E-01    rms(broyden)= 0.45035E-01
  rms(prec ) = 0.46068E-01
  weight for this iteration     100.00

 eigenvalues of (default mixing * dielectric matrix)
  average eigenvalue GAMMA=   0.8892
  1.2047  1.2047  0.5737  0.5737

 Free energy of the ion-electron system (eV)
  ---------------------------------------------------
  alpha Z        PSCENC =      2314.49656628
  Ewald energy   TEWEN  =    -57721.73143109
  -Hartree energ DENC   =    -30349.36232997
  -exchange      EXHF   =         0.00000000
  -V(xc)+E(xc)   XCENC  =      3229.14975661
  PAW double counting   =     92605.81940641   -95460.51389037
  entropy T*S    EENTRO =        -0.00000000
  eigenvalues    EBANDS =    -10550.55374588
  atomic energy  EATOM  =     95443.47970955
  Solvation  Ediel_sol  =         0.00000000
  ---------------------------------------------------
  free energy    TOTEN  =      -489.21595846 eV

  energy without entropy =     -489.21595846  energy(sigma->0) =     -489.21595846


--------------------------------------------------------------------------------------------------------




--------------------------------------- Iteration      1(  10)  ---------------------------------------


    POTLOK:  cpu time    1.0420: real time    1.0456
    SETDIJ:  cpu time    2.2965: real time    2.3145
     EDDAV:  cpu time  444.1173: real time  448.4225
       DOS:  cpu time    0.0031: real time    0.0034
    CHARGE:  cpu time    9.1960: real time    9.3227
    MIXING:  cpu time    0.0356: real time    0.0366
    --------------------------------------------
      LOOP:  cpu time  456.6904: real time  461.1453

 eigenvalue-minimisations  : 47512
 total energy-change (2. order) : 0.1033789E-02  (-0.1124529E-03)
 number of electron     736.0000016 magnetization     127.9999999
 augmentation part      277.8876495 magnetization      84.1581924

 Broyden mixing:
  rms(total) = 0.17081E-01    rms(broyden)= 0.17080E-01
  rms(prec ) = 0.17235E-01
  weight for this iteration     100.00

 eigenvalues of (default mixing * dielectric matrix)
  average eigenvalue GAMMA=   0.9437
  1.5060  1.5060  0.6200  0.6200  0.4667

 Free energy of the ion-electron system (eV)
  ---------------------------------------------------
  alpha Z        PSCENC =      2314.49656628
  Ewald energy   TEWEN  =    -57721.73143109
  -Hartree energ DENC   =    -30349.95823040
  -exchange      EXHF   =         0.00000000
  -V(xc)+E(xc)   XCENC  =      3229.26880284
  PAW double counting   =     92648.51111188   -95503.76839510
  entropy T*S    EENTRO =        -0.00000000
  eigenvalues    EBANDS =    -10549.51305863
  atomic energy  EATOM  =     95443.47970955
  Solvation  Ediel_sol  =         0.00000000
  ---------------------------------------------------
  free energy    TOTEN  =      -489.21492467 eV

  energy without entropy =     -489.21492467  energy(sigma->0) =     -489.21492467


--------------------------------------------------------------------------------------------------------




--------------------------------------- Iteration      1(  11)  ---------------------------------------


    POTLOK:  cpu time    1.0464: real time    1.0489
    SETDIJ:  cpu time    2.2879: real time    2.2894
     EDDAV:  cpu time  352.9989: real time  356.4094
       DOS:  cpu time    0.0025: real time    0.0025
    CHARGE:  cpu time    9.3422: real time    9.3825
    MIXING:  cpu time    0.0344: real time    0.0344
    --------------------------------------------
      LOOP:  cpu time  365.7122: real time  369.1670

 eigenvalue-minimisations  : 35560
 total energy-change (2. order) : 0.2584171E-04  (-0.4989645E-04)
 number of electron     736.0000016 magnetization     128.0000000
 augmentation part      277.8926856 magnetization      84.1583400

 Broyden mixing:
  rms(total) = 0.65640E-02    rms(broyden)= 0.65618E-02
  rms(prec ) = 0.66211E-02
  weight for this iteration     100.00

 eigenvalues of (default mixing * dielectric matrix)
  average eigenvalue GAMMA=   0.8993
  1.5155  1.5155  0.6439  0.6439  0.5386  0.5386

 Free energy of the ion-electron system (eV)
  ---------------------------------------------------
  alpha Z        PSCENC =      2314.49656628
  Ewald energy   TEWEN  =    -57721.73143109
  -Hartree energ DENC   =    -30350.19049518
  -exchange      EXHF   =         0.00000000
  -V(xc)+E(xc)   XCENC  =      3229.31371973
  PAW double counting   =     92668.93487719   -95524.41982858
  entropy T*S    EENTRO =        -0.00000000
  eigenvalues    EBANDS =    -10549.09801672
  atomic energy  EATOM  =     95443.47970955
  Solvation  Ediel_sol  =         0.00000000
  ---------------------------------------------------
  free energy    TOTEN  =      -489.21489883 eV

  energy without entropy =     -489.21489883  energy(sigma->0) =     -489.21489883


--------------------------------------------------------------------------------------------------------




--------------------------------------- Iteration      1(  12)  ---------------------------------------


    POTLOK:  cpu time    1.0502: real time    1.0567
    SETDIJ:  cpu time    2.2834: real time    2.3005
     EDDAV:  cpu time  395.2467: real time  399.4112
       DOS:  cpu time    0.0026: real time    0.0026
    CHARGE:  cpu time    9.4574: real time    9.4800
    MIXING:  cpu time    0.0366: real time    0.0369
    --------------------------------------------
      LOOP:  cpu time  408.0769: real time  412.2878

 eigenvalue-minimisations  : 41248
 total energy-change (2. order) :-0.1078480E-04  (-0.1089109E-04)
 number of electron     736.0000016 magnetization     128.0000001
 augmentation part      277.8952566 magnetization      84.1581675

 Broyden mixing:
  rms(total) = 0.55352E-02    rms(broyden)= 0.55336E-02
  rms(prec ) = 0.56204E-02
  weight for this iteration     100.00

 eigenvalues of (default mixing * dielectric matrix)
  average eigenvalue GAMMA=   0.9692
  1.4814  1.4814  1.0666  1.0666  0.5940  0.5940  0.5007

 Free energy of the ion-electron system (eV)
  ---------------------------------------------------
  alpha Z        PSCENC =      2314.49656628
  Ewald energy   TEWEN  =    -57721.73143109
  -Hartree energ DENC   =    -30350.19780515
  -exchange      EXHF   =         0.00000000
  -V(xc)+E(xc)   XCENC  =      3229.31375170
  PAW double counting   =     92671.81231043   -95527.30162125
  entropy T*S    EENTRO =        -0.00000000
  eigenvalues    EBANDS =    -10549.08639008
  atomic energy  EATOM  =     95443.47970955
  Solvation  Ediel_sol  =         0.00000000
  ---------------------------------------------------
  free energy    TOTEN  =      -489.21490961 eV

  energy without entropy =     -489.21490961  energy(sigma->0) =     -489.21490961


--------------------------------------------------------------------------------------------------------




--------------------------------------- Iteration      1(  13)  ---------------------------------------


    POTLOK:  cpu time    1.0278: real time    1.0500
    SETDIJ:  cpu time    2.2657: real time    2.3159
     EDDAV:  cpu time  270.3289: real time  273.1035
       DOS:  cpu time    0.0025: real time    0.0025
    --------------------------------------------
      LOOP:  cpu time  273.6249: real time  276.4718

 eigenvalue-minimisations  : 25000
 total energy-change (2. order) : 0.1077715E-06  (-0.3119800E-06)
 number of electron     736.0000016 magnetization     128.0000001
 augmentation part      277.8952566 magnetization      84.1581675

 Free energy of the ion-electron system (eV)
  ---------------------------------------------------
  alpha Z        PSCENC =      2314.49656628
  Ewald energy   TEWEN  =    -57721.73143109
  -Hartree energ DENC   =    -30350.16607507
  -exchange      EXHF   =         0.00000000
  -V(xc)+E(xc)   XCENC  =      3229.30681113
  PAW double counting   =     92673.93533246   -95529.40282209
  entropy T*S    EENTRO =        -0.00000000
  eigenvalues    EBANDS =    -10549.13300066
  atomic energy  EATOM  =     95443.47970955
  Solvation  Ediel_sol  =         0.00000000
  ---------------------------------------------------
  free energy    TOTEN  =      -489.21490950 eV

  energy without entropy =     -489.21490950  energy(sigma->0) =     -489.21490950


--------------------------------------------------------------------------------------------------------




 average (electrostatic) potential at core
  the test charge radii are     0.7079  0.7215  0.9698  0.9500
  (the norm of the test charge is              1.0000)
       1 -58.9489       2 -58.9479       3 -58.9486       4 -58.9487       5 -58.9474
       6 -58.9472       7 -58.9473       8 -58.9469       9 -58.9467      10 -58.9470
      11 -58.9464      12 -58.9526      13 -58.9501      14 -58.9486      15 -58.9479
      16 -58.9480      17 -69.8237      18 -69.8161      19 -69.8161      20 -69.8165
      21 -69.8164      22 -69.8177      23 -69.8164      24 -69.8168      25 -69.8173
      26 -69.8169      27 -69.8172      28 -69.8165      29 -69.8169      30 -69.8167
      31 -69.8168      32 -69.8166      33 -85.5794      34 -85.5793      35 -85.5792
      36 -85.5792      37 -85.5790      38 -85.5776      39 -85.5796      40 -85.5789
      41 -85.5770      42 -85.5792      43 -85.5768      44 -85.5792      45 -85.5755
      46 -85.5781      47 -85.5790      48 -85.5792      49 -85.6423      50 -85.6394
      51 -85.6416      52 -85.6393      53 -85.6408      54 -85.6428      55 -85.6394
      56 -85.6394      57 -78.5594      58 -78.5728      59 -78.5726      60 -78.5739
      61 -78.5732      62 -78.5739      63 -78.5733      64 -78.5737      65 -78.5731
      66 -78.5736      67 -78.5741      68 -78.5739      69 -78.5741      70 -78.5734
      71 -78.5740      72 -78.5732      73 -78.5831      74 -78.5823      75 -78.5833
      76 -78.5827      77 -78.5929      78 -78.5926      79 -78.5927      80 -78.5918
      81 -78.5921      82 -78.5921      83 -78.5940      84 -78.5923      85 -78.5821
      86 -78.5910      87 -78.5822      88 -78.5824
 
 
 
 E-fermi :   5.2310     XC(G=0): -10.4849     alpha+bet :-11.8156


 spin component 1

 k-point     1 :       0.0000    0.0000    0.0000
  band No.  band energies     occupation 
      1     -51.0554      1.00000
      2     -51.0549      1.00000
      3     -51.0546      1.00000
      4     -51.0543      1.00000
      5     -51.0538      1.00000
      6     -51.0537      1.00000
      7     -51.0534      1.00000
      8     -51.0533      1.00000
      9     -51.0530      1.00000
     10     -51.0524      1.00000
     11     -51.0522      1.00000
     12     -51.0518      1.00000
     13     -51.0515      1.00000
     14     -51.0508      1.00000
     15     -51.0499      1.00000
     16     -51.0490      1.00000
     17     -51.0475      1.00000
     18     -51.0451      1.00000
     19     -51.0450      1.00000
     20     -51.0446      1.00000
     21     -51.0446      1.00000
     22     -51.0443      1.00000
     23     -51.0441      1.00000
     24     -51.0440      1.00000
     25     -51.0404      1.00000
     26     -51.0403      1.00000
     27     -51.0400      1.00000
     28     -51.0397      1.00000
     29     -51.0397      1.00000
     30     -51.0396      1.00000
     31     -51.0394      1.00000
     32     -51.0338      1.00000
     33     -49.7042      1.00000
     34     -49.7032      1.00000
     35     -49.7028      1.00000
     36     -49.7027      1.00000
     37     -49.7026      1.00000
     38     -49.7023      1.00000
     39     -49.7021      1.00000
     40     -49.7020      1.00000
     41     -49.7018      1.00000
     42     -49.6953      1.00000
     43     -49.6951      1.00000
     44     -49.6947      1.00000
     45     -49.6944      1.00000
     46     -49.6944      1.00000
     47     -49.6942      1.00000
     48     -49.6941      1.00000
     49     -49.5979      1.00000
     50     -49.5972      1.00000
     51     -49.5969      1.00000
     52     -49.5968      1.00000
     53     -49.5967      1.00000
     54     -49.5967      1.00000
     55     -49.5962      1.00000
     56     -49.5959      1.00000
     57     -49.5958      1.00000
     58     -49.5958      1.00000
     59     -49.5956      1.00000
     60     -49.5954      1.00000
     61     -49.5952      1.00000
     62     -49.5949      1.00000
     63     -49.5948      1.00000
     64     -49.5827      1.00000
     65     -49.5667      1.00000
     66     -49.5660      1.00000
     67     -49.5657      1.00000
     68     -49.5656      1.00000
     69     -49.5655      1.00000
     70     -49.5652      1.00000
     71     -49.5645      1.00000
     72     -49.5642      1.00000
     73     -49.5641      1.00000
     74     -49.5639      1.00000
     75     -49.5638      1.00000
     76     -49.5636      1.00000
     77     -49.5635      1.00000
     78     -49.5633      1.00000
     79     -49.5630      1.00000
     80     -49.5559      1.00000
     81     -49.5555      1.00000
     82     -49.5553      1.00000
     83     -49.5553      1.00000
     84     -49.5549      1.00000
     85     -49.5547      1.00000
     86     -49.5547      1.00000
     87     -49.5544      1.00000
     88     -49.5510      1.00000
     89     -49.5472      1.00000
     90     -49.5409      1.00000
     91     -49.5407      1.00000
     92     -49.5402      1.00000
     93     -49.5399      1.00000
     94     -49.5398      1.00000
     95     -49.5397      1.00000
     96     -49.5396      1.00000
     97     -39.8694      1.00000
     98     -39.8663      1.00000
     99     -39.8653      1.00000
    100     -39.8650      1.00000
    101     -39.8649      1.00000
    102     -39.8648      1.00000
    103     -39.8643      1.00000
    104     -39.8643      1.00000
    105     -39.8641      1.00000
    106     -39.8640      1.00000
    107     -39.8640      1.00000
    108     -39.8638      1.00000
    109     -39.8637      1.00000
    110     -39.8635      1.00000
    111     -39.8634      1.00000
    112     -39.8631      1.00000
    113     -13.2263      1.00000
    114     -13.2252      1.00000
    115     -13.2113      1.00000
    116     -13.1845      1.00000
    117     -13.1030      1.00000
    118     -13.1002      1.00000
    119     -13.0993      1.00000
    120     -13.0941      1.00000
    121     -13.0870      1.00000
    122     -13.0817      1.00000
    123     -13.0804      1.00000
    124     -13.0784      1.00000
    125     -12.9893      1.00000
    126     -12.9785      1.00000
    127     -12.9437      1.00000
    128     -12.9422      1.00000
    129      -7.6446      1.00000
    130      -7.4081      1.00000
    131      -7.3267      1.00000
    132      -7.3265      1.00000
    133      -7.3106      1.00000
    134      -7.3104      1.00000
    135      -7.3092      1.00000
    136      -7.3079      1.00000
    137      -7.1691      1.00000
    138      -7.1572      1.00000
    139      -7.1240      1.00000
    140      -7.1238      1.00000
    141      -7.0379      1.00000
    142      -7.0208      1.00000
    143      -7.0013      1.00000
    144      -7.0008      1.00000
    145      -6.9405      1.00000
    146      -6.9401      1.00000
    147      -6.8863      1.00000
    148      -6.8860      1.00000
    149      -6.8645      1.00000
    150      -6.8609      1.00000
    151      -6.8334      1.00000
    152      -6.8030      1.00000
    153      -1.9360      1.00000
    154      -1.9350      1.00000
    155      -1.9105      1.00000
    156      -1.8936      1.00000
    157      -1.6679      1.00000
    158      -1.6670      1.00000
    159      -1.6598      1.00000
    160      -1.6579      1.00000
    161      -1.6010      1.00000
    162      -1.5986      1.00000
    163      -1.5875      1.00000
    164      -1.5867      1.00000
    165      -1.2992      1.00000
    166      -1.1757      1.00000
    167      -1.1744      1.00000
    168      -1.1148      1.00000
    169      -1.1133      1.00000
    170      -1.1079      1.00000
    171      -1.0502      1.00000
    172      -0.9817      1.00000
    173      -0.9660      1.00000
    174      -0.9611      1.00000
    175      -0.9579      1.00000
    176      -0.9576      1.00000
    177      -0.9473      1.00000
    178      -0.9452      1.00000
    179      -0.9237      1.00000
    180      -0.8736      1.00000
    181      -0.8716      1.00000
    182      -0.8037      1.00000
    183      -0.8033      1.00000
    184      -0.8031      1.00000
    185      -0.7758      1.00000
    186      -0.7744      1.00000
    187      -0.7743      1.00000
    188      -0.7613      1.00000
    189      -0.7173      1.00000
    190      -0.7171      1.00000
    191      -0.7071      1.00000
    192      -0.7055      1.00000
    193      -0.6988      1.00000
    194      -0.6987      1.00000
    195      -0.6080      1.00000
    196      -0.6079      1.00000
    197      -0.5615      1.00000
    198      -0.5613      1.00000
    199      -0.5496      1.00000
    200      -0.5479      1.00000
    201      -0.4088      1.00000
    202      -0.4080      1.00000
    203      -0.3576      1.00000
    204      -0.3484      1.00000
    205      -0.3297      1.00000
    206      -0.3285      1.00000
    207      -0.2984      1.00000
    208      -0.2979      1.00000
    209      -0.2821      1.00000
    210      -0.2692      1.00000
    211      -0.2628      1.00000
    212      -0.2553      1.00000
    213      -0.2551      1.00000
    214      -0.2093      1.00000
    215      -0.2086      1.00000
    216      -0.1886      1.00000
    217      -0.1875      1.00000
    218      -0.1873      1.00000
    219      -0.1758      1.00000
    220      -0.1579      1.00000
    221      -0.1258      1.00000
    222      -0.1256      1.00000
    223      -0.1097      1.00000
    224      -0.0709      1.00000
    225      -0.0702      1.00000
    226      -0.0597      1.00000
    227      -0.0426      1.00000
    228      -0.0174      1.00000
    229      -0.0166      1.00000
    230      -0.0123      1.00000
    231       0.0014      1.00000
    232       0.0020      1.00000
    233       0.0460      1.00000
    234       0.0492      1.00000
    235       0.0503      1.00000
    236       0.0912      1.00000
    237       0.0924      1.00000
    238       0.1186      1.00000
    239       0.1193      1.00000
    240       0.1565      1.00000
    241       0.1629      1.00000
    242       0.1760      1.00000
    243       0.1796      1.00000
    244       0.1816      1.00000
    245       0.1821      1.00000
    246       0.1864      1.00000
    247       0.1898      1.00000
    248       0.1921      1.00000
    249       0.1935      1.00000
    250       0.2003      1.00000
    251       0.2011      1.00000
    252       0.2382      1.00000
    253       0.2515      1.00000
    254       0.2570      1.00000
    255       0.2574      1.00000
    256       0.2767      1.00000
    257       0.3378      1.00000
    258       0.3480      1.00000
    259       0.3582      1.00000
    260       0.3587      1.00000
    261       0.3599      1.00000
    262       0.3602      1.00000
    263       0.3876      1.00000
    264       0.4011      1.00000
    265       0.4534      1.00000
    266       0.4536      1.00000
    267       0.5784      1.00000
    268       0.5789      1.00000
    269       0.5840      1.00000
    270       0.6026      1.00000
    271       0.6027      1.00000
    272       0.6057      1.00000
    273       0.6093      1.00000
    274       0.6401      1.00000
    275       0.6504      1.00000
    276       0.6509      1.00000
    277       0.6620      1.00000
    278       0.6620      1.00000
    279       0.6666      1.00000
    280       0.6739      1.00000
    281       0.6755      1.00000
    282       0.6763      1.00000
    283       0.6964      1.00000
    284       0.7227      1.00000
    285       0.7847      1.00000
    286       0.8197      1.00000
    287       0.8303      1.00000
    288       0.8324      1.00000
    289       0.8331      1.00000
    290       0.8611      1.00000
    291       0.8615      1.00000
    292       0.9105      1.00000
    293       0.9404      1.00000
    294       0.9472      1.00000
    295       0.9478      1.00000
    296       0.9831      1.00000
    297       1.0259      1.00000
    298       1.0710      1.00000
    299       1.2697      1.00000
    300       1.2983      1.00000
    301       1.2985      1.00000
    302       1.3119      1.00000
    303       1.3331      1.00000
    304       1.3337      1.00000
    305       1.3384      1.00000
    306       1.3849      1.00000
    307       1.4056      1.00000
    308       1.4289      1.00000
    309       1.4675      1.00000
    310       1.4677      1.00000
    311       1.4680      1.00000
    312       1.4818      1.00000
    313       1.5105      1.00000
    314       1.5108      1.00000
    315       1.5406      1.00000
    316       1.5607      1.00000
    317       1.5765      1.00000
    318       1.6476      1.00000
    319       1.6554      1.00000
    320       1.7566      1.00000
    321       1.7575      1.00000
    322       1.7632      1.00000
    323       1.7800      1.00000
    324       1.8018      1.00000
    325       1.8026      1.00000
    326       1.8098      1.00000
    327       1.8233      1.00000
    328       1.8360      1.00000
    329       1.8363      1.00000
    330       1.8464      1.00000
    331       1.8477      1.00000
    332       1.8773      1.00000
    333       1.8899      1.00000
    334       1.9471      1.00000
    335       1.9932      1.00000
    336       1.9940      1.00000
    337       2.0064      1.00000
    338       2.0068      1.00000
    339       2.0111      1.00000
    340       2.0195      1.00000
    341       2.0204      1.00000
    342       2.0220      1.00000
    343       2.0395      1.00000
    344       2.0471      1.00000
    345       2.0482      1.00000
    346       2.0577      1.00000
    347       2.0691      1.00000
    348       2.0697      1.00000
    349       2.0917      1.00000
    350       2.1132      1.00000
    351       2.1902      1.00000
    352       2.1927      1.00000
    353       2.2461      1.00000
    354       2.2467      1.00000
    355       2.2703      1.00000
    356       2.2722      1.00000
    357       2.2848      1.00000
    358       2.4277      1.00000
    359       2.4657      1.00000
    360       2.4665      1.00000
    361       2.4767      1.00000
    362       2.5028      1.00000
    363       2.5269      1.00000
    364       2.5537      1.00000
    365       2.5916      1.00000
    366       2.6260      1.00000
    367       2.6261      1.00000
    368       2.6564      1.00000
    369       2.7377      1.00000
    370       2.7382      1.00000
    371       2.7606      1.00000
    372       2.7610      1.00000
    373       2.8345      1.00000
    374       2.8731      1.00000
    375       2.9265      1.00000
    376       2.9344      1.00000
    377       2.9347      1.00000
    378       2.9691      1.00000
    379       3.0277      1.00000
    380       3.0284      1.00000
    381       3.0621      1.00000
    382       3.0980      1.00000
    383       3.3074      1.00000
    384       3.3097      1.00000
    385       3.3485      1.00000
    386       3.3768      1.00000
    387       3.4211      1.00000
    388       3.4212      1.00000
    389       3.4418      1.00000
    390       3.4584      1.00000
    391       3.4588      1.00000
    392       3.5322      1.00000
    393       3.7481      1.00000
    394       3.8081      1.00000
    395       3.8087      1.00000
    396       3.8146      1.00000
    397       3.8150      1.00000
    398       3.8815      1.00000
    399       3.8818      1.00000
    400       3.9318      1.00000
    401       3.9346      1.00000
    402       3.9395      1.00000
    403       3.9397      1.00000
    404       4.0380      1.00000
    405       4.0392      1.00000
    406       4.0690      1.00000
    407       4.1378      1.00000
    408       4.1497      1.00000
    409       4.1518      1.00000
    410       4.3135      1.00000
    411       4.3180      1.00000
    412       4.3368      1.00000
    413       4.3572      1.00000
    414       4.3577      1.00000
    415       4.4295      1.00000
    416       4.4436      1.00000
    417       4.4453      1.00000
    418       4.4545      1.00000
    419       4.4571      1.00000
    420       4.4580      1.00000
    421       4.6370      1.00000
    422       4.6371      1.00000
    423       4.7328      1.00000
    424       4.7335      1.00000
    425       4.7644      1.00000
    426       4.7653      1.00000
    427       4.7698      1.00000
    428       4.7712      1.00000
    429       4.8119      1.00000
    430       4.8536      1.00000
    431       4.8542      1.00000
    432       4.8577      1.00000
    433       7.3439      0.00000
    434       8.1296      0.00000
    435       8.4471      0.00000
    436       8.6425      0.00000
    437       8.6430      0.00000
    438       8.8604      0.00000
    439       9.0843      0.00000
    440       9.0852      0.00000
    441       9.2616      0.00000
    442       9.2734      0.00000
    443       9.2896      0.00000
    444       9.2912      0.00000
    445       9.7268      0.00000
    446       9.7714      0.00000
    447       9.7719      0.00000
    448       9.7909      0.00000
    449       9.8547      0.00000
    450       9.8553      0.00000
    451       9.8565      0.00000
    452       9.8773      0.00000
    453       9.8881      0.00000
    454      10.0609      0.00000
    455      10.0840      0.00000
    456      10.1366      0.00000
    457      10.1380      0.00000
    458      10.3047      0.00000
    459      10.3057      0.00000
    460      10.4177      0.00000
    461      10.5273      0.00000
    462      10.5707      0.00000
    463      10.5714      0.00000
    464      10.5715      0.00000
    465      10.5787      0.00000
    466      10.5789      0.00000
    467      10.6751      0.00000
    468      10.9763      0.00000
    469      11.0195      0.00000
    470      11.0202      0.00000
    471      11.0403      0.00000
    472      11.0414      0.00000
    473      11.0781      0.00000
    474      11.1284      0.00000
    475      11.1779      0.00000
    476      11.1897      0.00000
    477      11.2288      0.00000
    478      11.2498      0.00000
    479      11.2505      0.00000
    480      11.2886      0.00000
    481      11.3067      0.00000
    482      11.4175      0.00000
    483      11.4192      0.00000
    484      11.4590      0.00000
    485      11.5222      0.00000
    486      11.5225      0.00000
    487      11.5307      0.00000
    488      11.5778      0.00000
    489      11.6786      0.00000
    490      11.6796      0.00000
    491      11.7972      0.00000
    492      11.7979      0.00000
    493      11.8146      0.00000
    494      11.8146      0.00000
    495      11.8810      0.00000
    496      11.9400      0.00000
    497      11.9763      0.00000
    498      11.9779      0.00000
    499      11.9812      0.00000
    500      12.0275      0.00000
    501      12.0286      0.00000
    502      12.0574      0.00000
    503      12.1617      0.00000
    504      12.2433      0.00000
    505      12.2573      0.00000
    506      12.2576      0.00000
    507      12.3153      0.00000
    508      12.3163      0.00000
    509      12.3212      0.00000
    510      12.3487      0.00000
    511      12.4611      0.00000
    512      12.4801      0.00000
    513      12.5163      0.00000
    514      12.5167      0.00000
    515      12.6141      0.00000
    516      12.6147      0.00000
    517      12.6602      0.00000
    518      12.6622      0.00000
    519      12.6627      0.00000
    520      12.6891      0.00000
    521      12.7477      0.00000
    522      12.8309      0.00000
    523      12.8726      0.00000
    524      12.8729      0.00000
    525      12.8741      0.00000
    526      13.1203      0.00000
    527      13.1213      0.00000
    528      13.2021      0.00000
    529      13.3827      0.00000
    530      13.4113      0.00000
    531      13.4122      0.00000
    532      13.4353      0.00000
    533      13.4374      0.00000
    534      13.4584      0.00000
    535      13.5003      0.00000
    536      13.5164      0.00000
    537      13.5433      0.00000
    538      13.5601      0.00000

 k-point     2 :       0.3333    0.0000    0.0000
  band No.  band energies     occupation 
      1     -51.0553      1.00000
      2     -51.0547      1.00000
      3     -51.0545      1.00000
      4     -51.0541      1.00000
      5     -51.0541      1.00000
      6     -51.0540      1.00000
      7     -51.0538      1.00000
      8     -51.0535      1.00000
      9     -51.0528      1.00000
     10     -51.0521      1.00000
     11     -51.0519      1.00000
     12     -51.0516      1.00000
     13     -51.0511      1.00000
     14     -51.0510      1.00000
     15     -51.0502      1.00000
     16     -51.0493      1.00000
     17     -51.0474      1.00000
     18     -51.0450      1.00000
     19     -51.0449      1.00000
     20     -51.0447      1.00000
     21     -51.0445      1.00000
     22     -51.0443      1.00000
     23     -51.0442      1.00000
     24     -51.0441      1.00000
     25     -51.0404      1.00000
     26     -51.0403      1.00000
     27     -51.0400      1.00000
     28     -51.0397      1.00000
     29     -51.0397      1.00000
     30     -51.0396      1.00000
     31     -51.0394      1.00000
     32     -51.0338      1.00000
     33     -49.7042      1.00000
     34     -49.7032      1.00000
     35     -49.7028      1.00000
     36     -49.7027      1.00000
     37     -49.7026      1.00000
     38     -49.7023      1.00000
     39     -49.7021      1.00000
     40     -49.7020      1.00000
     41     -49.7018      1.00000
     42     -49.6953      1.00000
     43     -49.6951      1.00000
     44     -49.6947      1.00000
     45     -49.6944      1.00000
     46     -49.6944      1.00000
     47     -49.6942      1.00000
     48     -49.6941      1.00000
     49     -49.5978      1.00000
     50     -49.5973      1.00000
     51     -49.5971      1.00000
     52     -49.5968      1.00000
     53     -49.5967      1.00000
     54     -49.5964      1.00000
     55     -49.5962      1.00000
     56     -49.5959      1.00000
     57     -49.5958      1.00000
     58     -49.5958      1.00000
     59     -49.5956      1.00000
     60     -49.5954      1.00000
     61     -49.5952      1.00000
     62     -49.5949      1.00000
     63     -49.5948      1.00000
     64     -49.5827      1.00000
     65     -49.5666      1.00000
     66     -49.5661      1.00000
     67     -49.5658      1.00000
     68     -49.5656      1.00000
     69     -49.5655      1.00000
     70     -49.5649      1.00000
     71     -49.5646      1.00000
     72     -49.5643      1.00000
     73     -49.5641      1.00000
     74     -49.5639      1.00000
     75     -49.5637      1.00000
     76     -49.5636      1.00000
     77     -49.5635      1.00000
     78     -49.5633      1.00000
     79     -49.5630      1.00000
     80     -49.5559      1.00000
     81     -49.5555      1.00000
     82     -49.5553      1.00000
     83     -49.5553      1.00000
     84     -49.5549      1.00000
     85     -49.5547      1.00000
     86     -49.5547      1.00000
     87     -49.5544      1.00000
     88     -49.5510      1.00000
     89     -49.5472      1.00000
     90     -49.5409      1.00000
     91     -49.5407      1.00000
     92     -49.5402      1.00000
     93     -49.5399      1.00000
     94     -49.5398      1.00000
     95     -49.5397      1.00000
     96     -49.5396      1.00000
     97     -39.8694      1.00000
     98     -39.8663      1.00000
     99     -39.8653      1.00000
    100     -39.8650      1.00000
    101     -39.8649      1.00000
    102     -39.8648      1.00000
    103     -39.8644      1.00000
    104     -39.8643      1.00000
[...]
   0.314E-02 0.111E-01 -.259E+02   -.208E-02 -.919E-02 0.257E+02   -.643E-03 -.124E-02 0.252E+00   -.844E-04 -.111E-03 0.249E-03
   -.165E-01 0.753E-02 -.259E+02   0.165E-01 -.646E-02 0.257E+02   -.203E-04 -.858E-03 0.252E+00   -.130E-04 0.311E-04 0.244E-03
   -.993E-01 -.184E+00 -.262E+02   0.892E-01 0.171E+00 0.260E+02   0.114E-01 0.136E-01 0.260E+00   0.306E-03 0.334E-03 0.112E-03
   0.115E+00 0.356E-01 -.424E+02   -.106E+00 -.299E-01 0.423E+02   -.614E-02 -.436E-02 0.194E-01   -.279E-03 -.307E-03 0.126E-03
   -.201E-01 0.213E-01 -.421E+02   0.182E-01 -.202E-01 0.421E+02   0.727E-03 -.109E-02 0.118E-01   0.247E-03 0.755E-05 0.265E-03
   0.127E-01 0.115E-01 -.421E+02   -.121E-01 -.110E-01 0.421E+02   -.488E-03 -.810E-03 0.119E-01   -.890E-04 0.972E-04 0.293E-03
   0.197E-03 0.915E-02 -.421E+02   -.224E-03 -.822E-02 0.421E+02   -.191E-03 -.104E-02 0.111E-01   0.886E-04 0.644E-04 0.168E-03
   0.166E+02 0.144E+02 -.128E+03   -.170E+02 -.147E+02 0.132E+03   0.382E+00 0.350E+00 -.456E+01   -.651E-03 -.342E-03 0.321E-02
   0.158E+02 0.149E+02 -.126E+03   -.162E+02 -.153E+02 0.131E+03   0.389E+00 0.380E+00 -.462E+01   -.602E-04 0.465E-04 0.103E-02
   0.159E+02 0.149E+02 -.126E+03   -.163E+02 -.153E+02 0.131E+03   0.386E+00 0.380E+00 -.462E+01   -.115E-03 0.437E-04 0.113E-02
   0.159E+02 0.149E+02 -.126E+03   -.163E+02 -.153E+02 0.131E+03   0.387E+00 0.380E+00 -.463E+01   -.208E-03 -.763E-04 0.950E-03
   -.159E+02 -.149E+02 -.126E+03   0.163E+02 0.153E+02 0.131E+03   -.390E+00 -.379E+00 -.462E+01   -.144E-04 -.187E-03 0.109E-02
   -.159E+02 -.149E+02 -.126E+03   0.163E+02 0.152E+02 0.131E+03   -.385E+00 -.384E+00 -.462E+01   -.671E-05 0.461E-04 0.128E-02
   -.159E+02 -.149E+02 -.126E+03   0.163E+02 0.152E+02 0.131E+03   -.390E+00 -.380E+00 -.462E+01   -.247E-04 -.175E-03 0.133E-02
   -.159E+02 -.149E+02 -.126E+03   0.163E+02 0.153E+02 0.131E+03   -.388E+00 -.377E+00 -.462E+01   0.428E-03 0.345E-03 0.109E-02
   0.159E+02 -.149E+02 0.126E+03   -.163E+02 0.153E+02 -.131E+03   0.390E+00 -.379E+00 0.462E+01   -.198E-03 0.235E-04 -.116E-02
   0.159E+02 -.149E+02 0.126E+03   -.163E+02 0.153E+02 -.131E+03   0.390E+00 -.379E+00 0.462E+01   -.249E-04 -.599E-04 -.112E-02
   0.159E+02 -.149E+02 0.126E+03   -.163E+02 0.153E+02 -.131E+03   0.390E+00 -.380E+00 0.462E+01   -.181E-03 -.711E-04 -.116E-02
   0.159E+02 -.149E+02 0.126E+03   -.163E+02 0.153E+02 -.131E+03   0.389E+00 -.379E+00 0.463E+01   -.118E-03 -.841E-04 -.922E-03
   -.159E+02 0.149E+02 0.126E+03   0.162E+02 -.153E+02 -.131E+03   -.388E+00 0.380E+00 0.463E+01   0.875E-04 0.725E-05 -.115E-02
   -.159E+02 0.149E+02 0.126E+03   0.163E+02 -.153E+02 -.131E+03   -.385E+00 0.380E+00 0.462E+01   0.299E-03 -.208E-03 -.114E-02
   -.159E+02 0.149E+02 0.126E+03   0.162E+02 -.153E+02 -.131E+03   -.388E+00 0.380E+00 0.463E+01   0.104E-03 0.199E-03 -.113E-02
   -.159E+02 0.149E+02 0.126E+03   0.163E+02 -.153E+02 -.131E+03   -.385E+00 0.381E+00 0.462E+01   0.187E-03 -.169E-05 -.119E-02
   0.280E+02 0.282E+02 0.334E+02   -.283E+02 -.285E+02 -.339E+02   0.351E+00 0.354E+00 0.517E+00   -.241E-03 -.129E-03 -.791E-03
   0.280E+02 0.282E+02 0.334E+02   -.284E+02 -.285E+02 -.339E+02   0.350E+00 0.353E+00 0.518E+00   -.929E-04 -.159E-03 -.711E-03
   0.280E+02 0.282E+02 0.334E+02   -.283E+02 -.285E+02 -.339E+02   0.351E+00 0.352E+00 0.517E+00   -.154E-03 0.251E-04 -.787E-03
   0.280E+02 0.282E+02 0.334E+02   -.284E+02 -.286E+02 -.339E+02   0.350E+00 0.353E+00 0.518E+00   -.112E-03 0.606E-04 -.701E-03
   -.279E+02 -.282E+02 0.334E+02   0.283E+02 0.286E+02 -.339E+02   -.348E+00 -.354E+00 0.516E+00   0.110E-03 -.103E-04 -.795E-03
   -.279E+02 -.282E+02 0.335E+02   0.283E+02 0.286E+02 -.340E+02   -.350E+00 -.354E+00 0.514E+00   0.131E-03 0.143E-03 -.303E-03
   -.279E+02 -.282E+02 0.333E+02   0.283E+02 0.286E+02 -.339E+02   -.349E+00 -.354E+00 0.518E+00   0.135E-03 0.554E-04 -.755E-03
   -.279E+02 -.282E+02 0.333E+02   0.283E+02 0.286E+02 -.339E+02   -.349E+00 -.354E+00 0.516E+00   0.218E-03 0.436E-04 -.706E-03
   0.280E+02 -.284E+02 -.333E+02   -.283E+02 0.288E+02 0.338E+02   0.347E+00 -.339E+00 -.521E+00   -.343E-04 -.505E-03 0.730E-03
   0.279E+02 -.282E+02 -.333E+02   -.283E+02 0.286E+02 0.338E+02   0.350E+00 -.352E+00 -.519E+00   -.861E-04 0.388E-04 0.731E-03
   0.280E+02 -.280E+02 -.333E+02   -.283E+02 0.284E+02 0.338E+02   0.349E+00 -.369E+00 -.522E+00   -.195E-03 0.589E-03 0.885E-03
   0.279E+02 -.282E+02 -.333E+02   -.283E+02 0.286E+02 0.338E+02   0.350E+00 -.355E+00 -.519E+00   -.685E-04 0.961E-04 0.680E-03
   -.283E+02 0.282E+02 -.333E+02   0.286E+02 -.285E+02 0.338E+02   -.330E+00 0.353E+00 -.526E+00   -.508E-03 0.745E-04 0.887E-03
   -.279E+02 0.282E+02 -.334E+02   0.282E+02 -.285E+02 0.339E+02   -.359E+00 0.354E+00 -.517E+00   0.588E-03 -.162E-03 0.807E-03
   -.280E+02 0.282E+02 -.333E+02   0.284E+02 -.285E+02 0.339E+02   -.349E+00 0.353E+00 -.519E+00   0.913E-04 -.541E-04 0.756E-03
   -.280E+02 0.282E+02 -.334E+02   0.283E+02 -.285E+02 0.339E+02   -.352E+00 0.353E+00 -.518E+00   0.151E-03 -.557E-04 0.749E-03
   0.993E+01 0.225E+00 0.177E-01   -.100E+02 -.218E+00 -.150E-01   0.112E+00 -.125E-01 -.640E-02   0.131E-03 -.820E-04 0.107E-03
   0.989E+01 0.557E-01 -.129E-01   -.100E+02 -.555E-01 0.127E-01   0.115E+00 -.482E-03 0.236E-03   0.105E-03 -.103E-03 0.450E-04
   0.992E+01 -.127E+00 0.159E-01   -.100E+02 0.120E+00 -.136E-01   0.115E+00 0.116E-01 -.504E-02   0.982E-04 0.299E-04 -.329E-04
   0.989E+01 0.385E-01 -.126E-01   -.100E+02 -.395E-01 0.127E-01   0.115E+00 0.121E-02 0.464E-05   0.154E-03 0.925E-04 0.649E-04
   -.976E+01 0.477E-01 -.152E-01   0.988E+01 -.471E-01 0.161E-01   -.123E+00 -.457E-03 -.253E-02   -.243E-03 -.493E-04 -.398E-04
   -.101E+02 0.444E-01 0.887E-01   0.102E+02 -.466E-01 -.842E-01   -.991E-01 0.262E-02 -.984E-02   -.420E-04 -.488E-04 0.294E-04
   -.989E+01 0.473E-01 -.167E-02   0.100E+02 -.476E-01 0.138E-02   -.116E+00 0.320E-03 0.415E-03   -.260E-03 -.890E-04 -.669E-05
   -.991E+01 0.476E-01 0.716E-02   0.100E+02 -.477E-01 -.721E-02   -.114E+00 -.388E-04 -.117E-03   0.463E-04 -.629E-04 0.166E-04
   0.191E+02 0.186E+02 0.188E+03   -.181E+02 -.176E+02 -.186E+03   -.106E+01 -.106E+01 -.259E+01   0.140E-04 -.428E-03 0.328E-02
   0.190E+02 0.189E+02 0.185E+03   -.179E+02 -.179E+02 -.183E+03   -.106E+01 -.108E+01 -.241E+01   0.285E-03 0.544E-04 -.232E-03
   0.190E+02 0.189E+02 0.185E+03   -.180E+02 -.179E+02 -.183E+03   -.106E+01 -.109E+01 -.241E+01   0.187E-04 0.151E-03 -.115E-03
   0.190E+02 0.189E+02 0.185E+03   -.179E+02 -.179E+02 -.183E+03   -.106E+01 -.108E+01 -.241E+01   0.121E-03 -.370E-04 -.259E-03
   -.191E+02 -.190E+02 0.185E+03   0.180E+02 0.180E+02 -.183E+03   0.107E+01 0.109E+01 -.241E+01   -.307E-03 -.583E-03 -.330E-03
   -.188E+02 -.189E+02 0.185E+03   0.177E+02 0.179E+02 -.183E+03   0.106E+01 0.109E+01 -.240E+01   0.131E-03 -.378E-03 0.151E-03
   -.190E+02 -.187E+02 0.185E+03   0.180E+02 0.176E+02 -.183E+03   0.107E+01 0.108E+01 -.241E+01   -.190E-03 -.128E-03 -.439E-03
   -.188E+02 -.188E+02 0.185E+03   0.178E+02 0.177E+02 -.183E+03   0.106E+01 0.108E+01 -.241E+01   0.303E-03 0.178E-03 -.446E-04
   0.188E+02 -.189E+02 -.185E+03   -.177E+02 0.178E+02 0.182E+03   -.106E+01 0.108E+01 0.239E+01   -.305E-03 -.109E-03 -.511E-03
   0.190E+02 -.189E+02 -.185E+03   -.179E+02 0.178E+02 0.183E+03   -.107E+01 0.109E+01 0.241E+01   0.989E-04 -.219E-03 0.515E-03
   0.189E+02 -.189E+02 -.185E+03   -.178E+02 0.178E+02 0.183E+03   -.106E+01 0.109E+01 0.240E+01   -.139E-03 -.271E-03 -.508E-03
   0.189E+02 -.189E+02 -.185E+03   -.179E+02 0.178E+02 0.183E+03   -.107E+01 0.109E+01 0.241E+01   -.873E-04 -.252E-03 0.370E-03
   -.190E+02 0.189E+02 -.185E+03   0.180E+02 -.179E+02 0.183E+03   0.106E+01 -.108E+01 0.241E+01   -.718E-04 0.193E-04 -.469E-04
   -.190E+02 0.189E+02 -.185E+03   0.180E+02 -.178E+02 0.183E+03   0.106E+01 -.108E+01 0.240E+01   0.870E-04 -.239E-03 0.527E-04
   -.190E+02 0.189E+02 -.185E+03   0.180E+02 -.179E+02 0.183E+03   0.106E+01 -.109E+01 0.241E+01   -.701E-04 0.205E-03 -.234E-03
   -.190E+02 0.190E+02 -.185E+03   0.180E+02 -.179E+02 0.182E+03   0.106E+01 -.109E+01 0.240E+01   -.824E-04 0.168E-03 0.250E-03
   -.156E-01 -.109E-01 0.209E+03   0.614E-02 0.129E-01 -.211E+03   0.737E-02 -.125E-02 0.206E+01   0.731E-03 -.209E-03 -.122E-02
   0.379E-01 -.590E-01 0.209E+03   -.374E-01 0.578E-01 -.211E+03   -.639E-04 0.165E-02 0.206E+01   -.229E-03 -.325E-03 -.103E-02
   -.120E+00 -.219E+00 0.209E+03   0.117E+00 0.214E+00 -.211E+03   0.174E-02 0.436E-02 0.205E+01   0.262E-03 0.386E-03 -.144E-02
   0.723E-01 -.905E-01 0.209E+03   -.705E-01 0.843E-01 -.211E+03   -.122E-02 0.543E-02 0.206E+01   -.431E-03 0.148E-03 -.102E-02
   0.178E+00 0.686E-01 0.199E+03   -.174E+00 -.716E-01 -.201E+03   -.265E-02 0.293E-02 0.206E+01   -.680E-03 -.241E-04 -.148E-02
   -.474E-01 -.256E-01 0.199E+03   0.429E-01 0.310E-01 -.201E+03   0.395E-02 -.428E-02 0.205E+01   0.284E-03 -.266E-03 -.161E-02
   0.580E-01 -.105E+00 0.199E+03   -.511E-01 0.997E-01 -.201E+03   -.506E-02 0.457E-02 0.206E+01   -.786E-03 0.755E-04 -.149E-02
   0.247E-02 -.664E-01 0.199E+03   -.259E-02 0.639E-01 -.201E+03   0.402E-04 0.209E-02 0.206E+01   0.171E-03 0.275E-03 -.111E-02
   0.109E-01 -.447E-01 -.199E+03   -.874E-02 0.458E-01 0.201E+03   -.206E-02 -.529E-03 -.206E+01   0.488E-05 -.328E-03 0.170E-02
   -.518E-01 -.314E-01 -.199E+03   0.480E-01 0.333E-01 0.201E+03   0.232E-02 -.693E-03 -.206E+01   0.775E-03 -.608E-03 0.101E-02
   0.480E+00 -.171E+00 -.200E+03   -.451E+00 0.153E+00 0.202E+03   -.225E-01 0.135E-01 -.202E+01   -.101E-02 0.126E-02 0.569E-04
   -.139E+00 -.943E-01 -.199E+03   0.134E+00 0.902E-01 0.201E+03   0.388E-02 0.371E-02 -.206E+01   0.102E-02 0.160E-03 0.153E-02
   -.650E-01 -.860E-01 -.209E+03   0.664E-01 0.832E-01 0.211E+03   -.996E-03 0.246E-02 -.206E+01   -.439E-03 0.107E-03 0.122E-02
   -.920E+00 0.119E+01 -.210E+03   0.867E+00 -.113E+01 0.212E+03   0.619E-01 -.695E-01 -.205E+01   0.439E-03 -.394E-03 0.395E-03
   -.310E-01 -.648E-01 -.209E+03   0.316E-01 0.628E-01 0.211E+03   -.451E-03 0.203E-02 -.206E+01   -.139E-03 -.327E-04 0.106E-02
   -.144E-01 -.133E+00 -.209E+03   0.149E-01 0.127E+00 0.211E+03   -.558E-03 0.478E-02 -.206E+01   0.168E-03 0.554E-03 0.124E-02
 -----------------------------------------------------------------------------------------------
   -.805E-01 0.365E-01 0.139E+00   -.141E-12 -.255E-12 -.171E-12   0.809E-01 -.362E-01 -.141E+00   -.517E-03 -.182E-02 0.252E-02
 
 
 POSITION                                       TOTAL-FORCE (eV/Angst)
 -----------------------------------------------------------------------------------
      2.77841      5.21785      1.58925         0.000700      0.000328      0.000763
      8.33453      5.21785      1.58910         0.000066      0.000124      0.000303
      2.77841     10.77658      1.58925         0.000367     -0.000057      0.000937
      8.33453     10.77658      1.58910        -0.000137     -0.000561      0.001177
      0.00058      2.43861      1.89560        -0.000411      0.000001      0.001533
      5.55670      2.43861      1.89545         0.000025      0.000202      0.000625
      0.00058      7.99734      1.89560        -0.000594     -0.000123      0.000776
      5.55670      7.99734      1.89545         0.000050     -0.000002      0.000245
      2.78043      5.21797      8.30298         0.000020      0.000015     -0.000358
      8.33655      5.21797      8.30283         0.000335      0.000603     -0.001044
      2.78043     10.77670      8.30298        -0.000036      0.000263     -0.001014
      8.33655     10.77670      8.30283         0.001703      0.000143     -0.004711
      0.00259      2.43849      8.60933         0.002679      0.001114     -0.004554
      5.55871      2.43849      8.60919        -0.000931      0.000072     -0.000859
      0.00259      7.99722      8.60933         0.000014     -0.000213     -0.000925
      5.55871      7.99722      8.60919        -0.000129     -0.000025     -0.000266
     -1.37378      1.05960      8.17486        -0.030619      0.007391      0.101759
      4.17971      1.05960      8.18437         0.000895     -0.000155      0.002020
     -1.37640      6.61833      8.18451         0.000135     -0.000138      0.002073
      4.17971      6.61833      8.18437         0.000347     -0.000133      0.000460
      1.38116      3.81753      8.18442        -0.000421      0.000253      0.001266
      6.93728      3.81753      8.18427         0.001504     -0.001867      0.001872
      1.38116      9.37626      8.18442        -0.000200     -0.000215      0.001432
      6.93728      9.37626      8.18427         0.000090      0.000731      0.001107
      1.39985      1.03817      2.01416         0.000296      0.000221     -0.002610
      6.95597      1.03817      2.01401         0.000323      0.000173     -0.001717
      1.39985      6.59689      2.01416         0.000277     -0.000099     -0.001421
      6.95597      6.59689      2.01401         0.000027      0.000006     -0.000258
      4.15741      3.83897      2.01406        -0.000732     -0.000269     -0.000744
      9.71353      3.83897      2.01392         0.000131     -0.000078     -0.001377
      4.15741      9.39769      2.01406        -0.000505     -0.000093     -0.000690
      9.71353      9.39769      2.01392         0.000199      0.000174     -0.001359
      1.40044      3.83812      3.78391         0.000209      0.000264     -0.001014
      6.95656      3.83812      3.78377        -0.000355     -0.000034     -0.000333
      1.40044      9.39685      3.78391         0.000282     -0.000542     -0.000975
      6.95656      9.39685      3.78377        -0.000391     -0.000208     -0.000324
      4.15774      1.03891      3.78384         0.000558      0.000128     -0.001413
      9.71386      1.03891      3.78369        -0.000280      0.000046     -0.003389
      4.15774      6.59764      3.78384        -0.000023      0.000134     -0.000200
      9.71386      6.59764      3.78369         0.000123     -0.000003     -0.001235
     -1.37674      3.81828      6.41474        -0.000900      0.007702     -0.001569
      4.17938      3.81828      6.41460         0.000276      0.000704      0.000016
     -1.37674      9.37700      6.41474        -0.000227     -0.007167     -0.001894
      4.17938      9.37700      6.41460         0.000120     -0.000318     -0.000068
      1.38057      1.05876      6.41466         0.010271     -0.000244     -0.004389
      6.93668      1.05876      6.41452        -0.004690      0.000296      0.000646
      1.38057      6.61748      6.41466         0.000626     -0.000152     -0.000005
      6.93668      6.61748      6.41452        -0.000466     -0.000265      0.000152
      1.38227      3.82822      0.00001        -0.000756     -0.005720     -0.003616
      6.93839      3.82822     -0.00014         0.000221     -0.000346      0.000144
      1.38227      9.38694      0.00001        -0.000468      0.004852     -0.002769
      6.93839      9.38694     -0.00014         0.000116      0.000374      0.000152
      1.39874      1.04885     10.19857        -0.003829      0.000128     -0.001748
      6.95485      1.04885     10.19843         0.006852      0.000393     -0.005309
      1.39874      6.60758     10.19857        -0.000410     -0.000050      0.000118
      6.95485      6.60758     10.19843         0.000391     -0.000160     -0.000147
     -1.25763      1.18232      6.18371         0.005046      0.003518     -0.061106
      4.29848      1.18232      6.18356        -0.001286     -0.000147     -0.000159
     -1.25763      6.74104      6.18371        -0.000437      0.000373     -0.000276
      4.29848      6.74104      6.18356        -0.000315      0.000058      0.000122
      1.26131      3.69462      6.18369        -0.000602     -0.001400      0.000233
      6.81742      3.69462      6.18354         0.000687     -0.000329     -0.000928
      1.26131      9.25335      6.18369        -0.000525      0.000866      0.000147
      6.81742      9.25335      6.18354         0.000807      0.000127     -0.000225
      1.51970      0.91526      4.01489        -0.000511      0.000041      0.003022
      7.07582      0.91526      4.01474         0.000625     -0.000056      0.000877
      1.51970      6.47399      4.01489        -0.000437     -0.000070      0.000591
      7.07582      6.47399      4.01474        -0.000018     -0.000090      0.000039
      4.03864      3.96168      4.01487         0.000295     -0.000098      0.000327
      9.59476      3.96168      4.01472         0.000291     -0.000295      0.001651
      4.03864      9.52041      4.01487         0.000220      0.000236      0.000309
      9.59476      9.52041      4.01472         0.000360      0.000662      0.001590
      0.00035      5.21813      1.57032        -0.001393      0.000526      0.001659
      5.55647      5.21813      1.57017         0.000187      0.000163      0.000488
      0.00035     10.77686      1.57032        -0.000635     -0.000463      0.003004
      5.55647     10.77686      1.57017         0.000187     -0.000542      0.001185
      2.77849      2.43869      1.57537         0.000799     -0.000134      0.002004
      8.33461      2.43869      1.57522        -0.000286      0.000906      0.002132
      2.77849      7.99742      1.57537         0.001040     -0.000314      0.001214
      8.33461      7.99742      1.57522         0.000098     -0.000127      0.000505
      0.00252      5.21805      8.62321         0.000143      0.000348     -0.001864
      5.55864      5.21805      8.62307        -0.000741      0.000668     -0.000253
      0.00252     10.77678      8.62321         0.005347     -0.003694     -0.005951
      5.55864     10.77678      8.62307        -0.000972     -0.000265     -0.001651
      2.78066      2.43877      8.62826        -0.000057     -0.000237     -0.001785
      8.33677      2.43877      8.62811         0.009131     -0.007319     -0.009876
      2.78066      7.99750      8.62826         0.000036      0.000020     -0.000628
      8.33677      7.99750      8.62811         0.000198     -0.000533     -0.001669
 -----------------------------------------------------------------------------------
    total drift:                               -0.000074     -0.001438      0.000040


--------------------------------------------------------------------------------------------------------



  FREE ENERGIE OF THE ION-ELECTRON SYSTEM (eV)
  ---------------------------------------------------
  free  energy   TOTEN  =      -489.21490950 eV

  energy  without entropy=     -489.21490950  energy(sigma->0) =     -489.21490950
 


--------------------------------------------------------------------------------------------------------


    POTLOK:  cpu time    3.3422: real time    3.3463


--------------------------------------------------------------------------------------------------------


     LOOP+:  cpu time 5560.1525: real time 5614.2153
    4ORBIT:  cpu time    0.0000: real time    0.0000

 total amount of memory used by VASP MPI-rank0  1233264. kBytes
=======================================================================

   base      :      30000. kBytes
   nonl-proj :      75226. kBytes
   fftplans  :      85054. kBytes
   grid      :      64684. kBytes
   one-center:        466. kBytes
   wavefun   :     977834. kBytes
 
  
  
 General timing and accounting informations for this job:
 ========================================================
  
                  Total CPU time used (sec):     5657.673
                            User time (sec):     5599.994
                          System time (sec):       57.679
                         Elapsed time (sec):     5720.208
  
                   Maximum memory used (kb):     1434900.
                   Average memory used (kb):           0.
  
                          Minor page faults:       871745
                          Major page faults:           25
                 Voluntary context switches:        56770
