 224 224   0   0
  0.1357572E+02  0.1537960E-08  0.1537962E-08  0.1395899E-08  0.5000000E-15
  1.000000000000000E-004
  CAR 
 unknown system                          
     17.70017601    -54.43866748  301      5.25622551      1.00000000
    -54.439  0.0000E+00  0.0000E+00  0.0000E+00  0.0000E+00
    -54.198  0.0000E+00  0.0000E+00  0.0000E+00  0.0000E+00
    -53.958  0.0000E+00  0.0000E+00  0.0000E+00  0.0000E+00
    -53.717  0.0000E+00  0.0000E+00  0.0000E+00  0.0000E+00
    -53.477  0.0000E+00  0.0000E+00  0.0000E+00  0.0000E+00
    -53.236  0.0000E+00  0.0000E+00  0.0000E+00  0.0000E+00
    -52.996  0.0000E+00  0.0000E+00  0.0000E+00  0.0000E+00
    -52.755  0.0000E+00  0.0000E+00  0.0000E+00  0.0000E+00
    -52.515  0.0000E+00  0.0000E+00  0.0000E+00  0.0000E+00
    -52.275  0.0000E+00  0.0000E+00  0.0000E+00  0.0000E+00
    -52.034  0.0000E+00  0.0000E+00  0.0000E+00  0.0000E+00
    -51.794  0.0000E+00  0.0000E+00  0.0000E+00  0.0000E+00
    -51.553  0.0000E+00  0.0000E+00  0.0000E+00  0.0000E+00
    -51.313  0.1737E-03  0.0000E+00  0.4177E-04  0.0000E+00
    -51.072  0.2588E+03  0.0000E+00  0.6223E+02  0.0000E+00
    -50.832  0.7351E+01  0.0000E+00  0.6400E+02  0.0000E+00
    -50.591  0.0000E+00  0.0000E+00  0.6400E+02  0.0000E+00
    -50.351  0.0000E+00  0.0000E+00  0.6400E+02  0.0000E+00
    -50.110  0.0000E+00  0.0000E+00  0.6400E+02  0.0000E+00
    -49.870  0.7738E-07  0.0000E+00  0.6400E+02  0.0000E+00
    -49.629  0.3598E+03  0.0000E+00  0.1505E+03  0.0000E+00
    -49.389  0.1725E+03  0.0000E+00  0.1920E+03  0.0000E+00
    -49.148  0.0000E+00  0.0000E+00  0.1920E+03  0.0000E+00
    -48.908  0.0000E+00  0.0000E+00  0.1920E+03  0.0000E+00
    -48.668  0.0000E+00  0.0000E+00  0.1920E+03  0.0000E+00
    -48.427  0.0000E+00  0.0000E+00  0.1920E+03  0.0000E+00
    -48.187  0.0000E+00  0.0000E+00  0.1920E+03  0.0000E+00
    -47.946  0.0000E+00  0.0000E+00  0.1920E+03  0.0000E+00
    -47.706  0.0000E+00  0.0000E+00  0.1920E+03  0.0000E+00
    -47.465  0.0000E+00  0.0000E+00  0.1920E+03  0.0000E+00
    -47.225  0.0000E+00  0.0000E+00  0.1920E+03  0.0000E+00
    -46.984  0.0000E+00  0.0000E+00  0.1920E+03  0.0000E+00
    -46.744  0.0000E+00  0.0000E+00  0.1920E+03  0.0000E+00
    -46.503  0.0000E+00  0.1744E+00  0.1920E+03  0.4193E-01
    -46.263  0.0000E+00  0.2659E+03  0.1920E+03  0.6399E+02
    -46.022  0.0000E+00  0.1984E+01  0.1920E+03  0.6447E+02
    -45.782  0.0000E+00  0.5304E+03  0.1920E+03  0.1920E+03
    -45.542  0.0000E+00  0.1150E-01  0.1920E+03  0.1920E+03
    -45.301  0.0000E+00  0.0000E+00  0.1920E+03  0.1920E+03
    -45.061  0.0000E+00  0.0000E+00  0.1920E+03  0.1920E+03
    -44.820  0.0000E+00  0.0000E+00  0.1920E+03  0.1920E+03
    -44.580  0.0000E+00  0.0000E+00  0.1920E+03  0.1920E+03
    -44.339  0.0000E+00  0.0000E+00  0.1920E+03  0.1920E+03
    -44.099  0.0000E+00  0.0000E+00  0.1920E+03  0.1920E+03
    -43.858  0.0000E+00  0.0000E+00  0.1920E+03  0.1920E+03
    -43.618  0.0000E+00  0.0000E+00  0.1920E+03  0.1920E+03
    -43.377  0.0000E+00  0.0000E+00  0.1920E+03  0.1920E+03
    -43.137  0.0000E+00  0.0000E+00  0.1920E+03  0.1920E+03
    -42.896  0.0000E+00  0.0000E+00  0.1920E+03  0.1920E+03
    -42.656  0.0000E+00  0.0000E+00  0.1920E+03  0.1920E+03
    -42.416  0.0000E+00  0.0000E+00  0.1920E+03  0.1920E+03
    -42.175  0.0000E+00  0.0000E+00  0.1920E+03  0.1920E+03
    -41.935  0.0000E+00  0.0000E+00  0.1920E+03  0.1920E+03
    -41.694  0.0000E+00  0.0000E+00  0.1920E+03  0.1920E+03
    -41.454  0.0000E+00  0.0000E+00  0.1920E+03  0.1920E+03
    -41.213  0.0000E+00  0.0000E+00  0.1920E+03  0.1920E+03
    -40.973  0.0000E+00  0.0000E+00  0.1920E+03  0.1920E+03
    -40.732  0.0000E+00  0.0000E+00  0.1920E+03  0.1920E+03
    -40.492  0.0000E+00  0.0000E+00  0.1920E+03  0.1920E+03
    -40.251  0.0000E+00  0.0000E+00  0.1920E+03  0.1920E+03
    -40.011  0.0000E+00  0.0000E+00  0.1920E+03  0.1920E+03
    -39.770  0.4494E-02  0.4061E-02  0.1920E+03  0.1920E+03
    -39.530  0.2633E+03  0.2632E+03  0.2553E+03  0.2553E+03
    -39.290  0.2828E+01  0.2981E+01  0.2560E+03  0.2560E+03
    -39.049  0.0000E+00  0.0000E+00  0.2560E+03  0.2560E+03
    -38.809  0.0000E+00  0.0000E+00  0.2560E+03  0.2560E+03
    -38.568  0.0000E+00  0.0000E+00  0.2560E+03  0.2560E+03
    -38.328  0.0000E+00  0.0000E+00  0.2560E+03  0.2560E+03
    -38.087  0.0000E+00  0.0000E+00  0.2560E+03  0.2560E+03
    -37.847  0.0000E+00  0.0000E+00  0.2560E+03  0.2560E+03
    -37.606  0.0000E+00  0.0000E+00  0.2560E+03  0.2560E+03
    -37.366  0.0000E+00  0.0000E+00  0.2560E+03  0.2560E+03
    -37.125  0.0000E+00  0.0000E+00  0.2560E+03  0.2560E+03
    -36.885  0.0000E+00  0.0000E+00  0.2560E+03  0.2560E+03
    -36.644  0.0000E+00  0.0000E+00  0.2560E+03  0.2560E+03
    -36.404  0.0000E+00  0.0000E+00  0.2560E+03  0.2560E+03
    -36.163  0.0000E+00  0.0000E+00  0.2560E+03  0.2560E+03
    -35.923  0.0000E+00  0.0000E+00  0.2560E+03  0.2560E+03
    -35.683  0.0000E+00  0.0000E+00  0.2560E+03  0.2560E+03
    -35.442  0.0000E+00  0.0000E+00  0.2560E+03  0.2560E+03
    -35.202  0.0000E+00  0.0000E+00  0.2560E+03  0.2560E+03
    -34.961  0.0000E+00  0.0000E+00  0.2560E+03  0.2560E+03
    -34.721  0.0000E+00  0.0000E+00  0.2560E+03  0.2560E+03
    -34.480  0.0000E+00  0.0000E+00  0.2560E+03  0.2560E+03
    -34.240  0.0000E+00  0.0000E+00  0.2560E+03  0.2560E+03
    -33.999  0.0000E+00  0.0000E+00  0.2560E+03  0.2560E+03
    -33.759  0.0000E+00  0.0000E+00  0.2560E+03  0.2560E+03
    -33.518  0.0000E+00  0.0000E+00  0.2560E+03  0.2560E+03
    -33.278  0.0000E+00  0.0000E+00  0.2560E+03  0.2560E+03
    -33.037  0.0000E+00  0.0000E+00  0.2560E+03  0.2560E+03
    -32.797  0.0000E+00  0.0000E+00  0.2560E+03  0.2560E+03
    -32.557  0.0000E+00  0.0000E+00  0.2560E+03  0.2560E+03
    -32.316  0.0000E+00  0.0000E+00  0.2560E+03  0.2560E+03
    -32.076  0.0000E+00  0.0000E+00  0.2560E+03  0.2560E+03
    -31.835  0.0000E+00  0.0000E+00  0.2560E+03  0.2560E+03
    -31.595  0.0000E+00  0.0000E+00  0.2560E+03  0.2560E+03
    -31.354  0.0000E+00  0.0000E+00  0.2560E+03  0.2560E+03
    -31.114  0.0000E+00  0.0000E+00  0.2560E+03  0.2560E+03
    -30.873  0.0000E+00  0.0000E+00  0.2560E+03  0.2560E+03
    -30.633  0.0000E+00  0.0000E+00  0.2560E+03  0.2560E+03
    -30.392  0.0000E+00  0.0000E+00  0.2560E+03  0.2560E+03
    -30.152  0.0000E+00  0.0000E+00  0.2560E+03  0.2560E+03
    -29.911  0.0000E+00  0.0000E+00  0.2560E+03  0.2560E+03
    -29.671  0.0000E+00  0.0000E+00  0.2560E+03  0.2560E+03
    -29.431  0.0000E+00  0.0000E+00  0.2560E+03  0.2560E+03
    -29.190  0.0000E+00  0.0000E+00  0.2560E+03  0.2560E+03
    -28.950  0.0000E+00  0.0000E+00  0.2560E+03  0.2560E+03
    -28.709  0.0000E+00  0.0000E+00  0.2560E+03  0.2560E+03
    -28.469  0.0000E+00  0.0000E+00  0.2560E+03  0.2560E+03
    -28.228  0.0000E+00  0.0000E+00  0.2560E+03  0.2560E+03
    -27.988  0.0000E+00  0.0000E+00  0.2560E+03  0.2560E+03
    -27.747  0.0000E+00  0.0000E+00  0.2560E+03  0.2560E+03
    -27.507  0.0000E+00  0.0000E+00  0.2560E+03  0.2560E+03
    -27.266  0.0000E+00  0.0000E+00  0.2560E+03  0.2560E+03
    -27.026  0.0000E+00  0.0000E+00  0.2560E+03  0.2560E+03
    -26.785  0.0000E+00  0.0000E+00  0.2560E+03  0.2560E+03
    -26.545  0.0000E+00  0.0000E+00  0.2560E+03  0.2560E+03
    -26.305  0.0000E+00  0.0000E+00  0.2560E+03  0.2560E+03
    -26.064  0.0000E+00  0.0000E+00  0.2560E+03  0.2560E+03
    -25.824  0.0000E+00  0.0000E+00  0.2560E+03  0.2560E+03
    -25.583  0.0000E+00  0.0000E+00  0.2560E+03  0.2560E+03
    -25.343  0.0000E+00  0.0000E+00  0.2560E+03  0.2560E+03
    -25.102  0.0000E+00  0.0000E+00  0.2560E+03  0.2560E+03
    -24.862  0.0000E+00  0.0000E+00  0.2560E+03  0.2560E+03
    -24.621  0.0000E+00  0.0000E+00  0.2560E+03  0.2560E+03
    -24.381  0.0000E+00  0.0000E+00  0.2560E+03  0.2560E+03
    -24.140  0.0000E+00  0.0000E+00  0.2560E+03  0.2560E+03
    -23.900  0.0000E+00  0.0000E+00  0.2560E+03  0.2560E+03
    -23.659  0.0000E+00  0.0000E+00  0.2560E+03  0.2560E+03
    -23.419  0.0000E+00  0.0000E+00  0.2560E+03  0.2560E+03
    -23.179  0.0000E+00  0.0000E+00  0.2560E+03  0.2560E+03
    -22.938  0.0000E+00  0.0000E+00  0.2560E+03  0.2560E+03
    -22.698  0.0000E+00  0.0000E+00  0.2560E+03  0.2560E+03
    -22.457  0.0000E+00  0.0000E+00  0.2560E+03  0.2560E+03
    -22.217  0.0000E+00  0.0000E+00  0.2560E+03  0.2560E+03
    -21.976  0.0000E+00  0.0000E+00  0.2560E+03  0.2560E+03
    -21.736  0.0000E+00  0.0000E+00  0.2560E+03  0.2560E+03
    -21.495  0.0000E+00  0.0000E+00  0.2560E+03  0.2560E+03
    -21.255  0.0000E+00  0.0000E+00  0.2560E+03  0.2560E+03
    -21.014  0.0000E+00  0.0000E+00  0.2560E+03  0.2560E+03
    -20.774  0.0000E+00  0.0000E+00  0.2560E+03  0.2560E+03
    -20.533  0.0000E+00  0.0000E+00  0.2560E+03  0.2560E+03
    -20.293  0.0000E+00  0.0000E+00  0.2560E+03  0.2560E+03
    -20.052  0.0000E+00  0.0000E+00  0.2560E+03  0.2560E+03
    -19.812  0.0000E+00  0.0000E+00  0.2560E+03  0.2560E+03
    -19.572  0.0000E+00  0.0000E+00  0.2560E+03  0.2560E+03
    -19.331  0.0000E+00  0.0000E+00  0.2560E+03  0.2560E+03
    -19.091  0.0000E+00  0.0000E+00  0.2560E+03  0.2560E+03
    -18.850  0.0000E+00  0.0000E+00  0.2560E+03  0.2560E+03
    -18.610  0.0000E+00  0.0000E+00  0.2560E+03  0.2560E+03
    -18.369  0.0000E+00  0.0000E+00  0.2560E+03  0.2560E+03
    -18.129  0.0000E+00  0.0000E+00  0.2560E+03  0.2560E+03
    -17.888  0.0000E+00  0.0000E+00  0.2560E+03  0.2560E+03
    -17.648  0.0000E+00  0.0000E+00  0.2560E+03  0.2560E+03
    -17.407  0.0000E+00  0.0000E+00  0.2560E+03  0.2560E+03
    -17.167  0.0000E+00  0.0000E+00  0.2560E+03  0.2560E+03
    -16.926  0.0000E+00  0.0000E+00  0.2560E+03  0.2560E+03
    -16.686  0.0000E+00  0.0000E+00  0.2560E+03  0.2560E+03
    -16.446  0.0000E+00  0.0000E+00  0.2560E+03  0.2560E+03
    -16.205  0.0000E+00  0.0000E+00  0.2560E+03  0.2560E+03
    -15.965  0.0000E+00  0.0000E+00  0.2560E+03  0.2560E+03
    -15.724  0.0000E+00  0.0000E+00  0.2560E+03  0.2560E+03
    -15.484  0.0000E+00  0.0000E+00  0.2560E+03  0.2560E+03
    -15.243  0.0000E+00  0.0000E+00  0.2560E+03  0.2560E+03
    -15.003  0.0000E+00  0.0000E+00  0.2560E+03  0.2560E+03
    -14.762  0.0000E+00  0.0000E+00  0.2560E+03  0.2560E+03
    -14.522  0.0000E+00  0.0000E+00  0.2560E+03  0.2560E+03
    -14.281  0.0000E+00  0.0000E+00  0.2560E+03  0.2560E+03
    -14.041  0.0000E+00  0.0000E+00  0.2560E+03  0.2560E+03
    -13.800  0.0000E+00  0.0000E+00  0.2560E+03  0.2560E+03
    -13.560  0.0000E+00  0.0000E+00  0.2560E+03  0.2560E+03
    -13.320  0.0000E+00  0.0000E+00  0.2560E+03  0.2560E+03
    -13.079  0.0000E+00  0.0000E+00  0.2560E+03  0.2560E+03
    -12.839  0.4726E-01  0.0000E+00  0.2560E+03  0.2560E+03
    -12.598  0.1315E+03  0.7994E-03  0.2876E+03  0.2560E+03
    -12.358  0.1491E+01  0.1211E+03  0.2880E+03  0.2851E+03
    -12.117  0.0000E+00  0.1202E+02  0.2880E+03  0.2880E+03
    -11.877  0.0000E+00  0.0000E+00  0.2880E+03  0.2880E+03
    -11.636  0.0000E+00  0.0000E+00  0.2880E+03  0.2880E+03
    -11.396  0.0000E+00  0.0000E+00  0.2880E+03  0.2880E+03
    -11.155  0.0000E+00  0.0000E+00  0.2880E+03  0.2880E+03
    -10.915  0.0000E+00  0.0000E+00  0.2880E+03  0.2880E+03
    -10.674  0.0000E+00  0.0000E+00  0.2880E+03  0.2880E+03
    -10.434  0.0000E+00  0.0000E+00  0.2880E+03  0.2880E+03
    -10.194  0.0000E+00  0.0000E+00  0.2880E+03  0.2880E+03
     -9.953  0.0000E+00  0.0000E+00  0.2880E+03  0.2880E+03
     -9.713  0.0000E+00  0.0000E+00  0.2880E+03  0.2880E+03
     -9.472  0.0000E+00  0.0000E+00  0.2880E+03  0.2880E+03
     -9.232  0.0000E+00  0.0000E+00  0.2880E+03  0.2880E+03
     -8.991  0.0000E+00  0.0000E+00  0.2880E+03  0.2880E+03
     -8.751  0.0000E+00  0.0000E+00  0.2880E+03  0.2880E+03
     -8.510  0.0000E+00  0.0000E+00  0.2880E+03  0.2880E+03
     -8.270  0.0000E+00  0.0000E+00  0.2880E+03  0.2880E+03
     -8.029  0.2331E-10  0.0000E+00  0.2880E+03  0.2880E+03
     -7.789  0.8233E+00  0.2141E-07  0.2882E+03  0.2880E+03
     -7.548  0.1868E+02  0.2589E+01  0.2927E+03  0.2886E+03
     -7.308  0.2790E+02  0.2198E+02  0.2994E+03  0.2939E+03
     -7.067  0.5268E+02  0.3080E+02  0.3121E+03  0.3013E+03
     -6.827  0.1468E+03  0.4874E+02  0.3474E+03  0.3130E+03
     -6.587  0.1924E+02  0.1387E+03  0.3520E+03  0.3464E+03
     -6.346  0.0000E+00  0.2338E+02  0.3520E+03  0.3520E+03
     -6.106  0.0000E+00  0.1863E-04  0.3520E+03  0.3520E+03
     -5.865  0.0000E+00  0.0000E+00  0.3520E+03  0.3520E+03
     -5.625  0.0000E+00  0.0000E+00  0.3520E+03  0.3520E+03
     -5.384  0.0000E+00  0.0000E+00  0.3520E+03  0.3520E+03
     -5.144  0.0000E+00  0.0000E+00  0.3520E+03  0.3520E+03
     -4.903  0.0000E+00  0.0000E+00  0.3520E+03  0.3520E+03
     -4.663  0.0000E+00  0.0000E+00  0.3520E+03  0.3520E+03
     -4.422  0.0000E+00  0.0000E+00  0.3520E+03  0.3520E+03
     -4.182  0.0000E+00  0.0000E+00  0.3520E+03  0.3520E+03
     -3.941  0.0000E+00  0.0000E+00  0.3520E+03  0.3520E+03
     -3.701  0.0000E+00  0.0000E+00  0.3520E+03  0.3520E+03
     -3.461  0.0000E+00  0.0000E+00  0.3520E+03  0.3520E+03
     -3.220  0.0000E+00  0.0000E+00  0.3520E+03  0.3520E+03
     -2.980  0.0000E+00  0.0000E+00  0.3520E+03  0.3520E+03
     -2.739  0.0000E+00  0.0000E+00  0.3520E+03  0.3520E+03
     -2.499  0.0000E+00  0.0000E+00  0.3520E+03  0.3520E+03
     -2.258  0.0000E+00  0.0000E+00  0.3520E+03  0.3520E+03
     -2.018  0.0000E+00  0.0000E+00  0.3520E+03  0.3520E+03
     -1.777  0.2971E-12  0.0000E+00  0.3520E+03  0.3520E+03
     -1.537  0.1110E+01  0.0000E+00  0.3523E+03  0.3520E+03
     -1.296  0.9885E+02  0.0000E+00  0.3760E+03  0.3520E+03
     -1.056  0.3311E+02  0.0000E+00  0.3840E+03  0.3520E+03
     -0.815  0.1212E+02  0.0000E+00  0.3869E+03  0.3520E+03
     -0.575  0.8856E+02  0.5869E-05  0.4082E+03  0.3520E+03
     -0.335  0.2222E+03  0.3905E+01  0.4616E+03  0.3529E+03
     -0.094  0.2023E+03  0.2478E+02  0.5103E+03  0.3589E+03
      0.146  0.1771E+03  0.4081E+02  0.5529E+03  0.3687E+03
      0.387  0.1521E+03  0.4215E+02  0.5894E+03  0.3788E+03
      0.627  0.1204E+03  0.7167E+02  0.6184E+03  0.3961E+03
      0.868  0.5477E+02  0.6091E+02  0.6316E+03  0.4107E+03
      1.108  0.6905E+02  0.6500E+02  0.6482E+03  0.4264E+03
      1.349  0.7381E+02  0.6766E+02  0.6659E+03  0.4426E+03
      1.589  0.6798E+02  0.7767E+02  0.6823E+03  0.4613E+03
      1.830  0.1099E+03  0.1107E+03  0.7087E+03  0.4879E+03
      2.070  0.2137E+03  0.6287E+02  0.7601E+03  0.5030E+03
      2.311  0.1401E+03  0.3761E+02  0.7938E+03  0.5121E+03
      2.551  0.8467E+02  0.7722E+02  0.8141E+03  0.5307E+03
      2.791  0.6882E+02  0.1039E+03  0.8307E+03  0.5556E+03
      3.032  0.3541E+02  0.7081E+02  0.8392E+03  0.5727E+03
      3.272  0.4029E+02  0.1311E+03  0.8489E+03  0.6042E+03
      3.513  0.5194E+02  0.1178E+03  0.8614E+03  0.6325E+03
      3.753  0.6739E+02  0.2515E+02  0.8776E+03  0.6386E+03
      3.994  0.7949E+02  0.4369E+02  0.8967E+03  0.6491E+03
      4.234  0.8012E+02  0.1784E+03  0.9160E+03  0.6920E+03
      4.475  0.7594E+02  0.4833E+02  0.9342E+03  0.7036E+03
      4.715  0.2872E+02  0.1700E+01  0.9411E+03  0.7040E+03
      4.956  0.6467E+02  0.0000E+00  0.9567E+03  0.7040E+03
      5.196  0.1381E+02  0.0000E+00  0.9600E+03  0.7040E+03
      5.437  0.0000E+00  0.0000E+00  0.9600E+03  0.7040E+03
      5.677  0.0000E+00  0.0000E+00  0.9600E+03  0.7040E+03
      5.917  0.0000E+00  0.0000E+00  0.9600E+03  0.7040E+03
      6.158  0.0000E+00  0.8146E-07  0.9600E+03  0.7040E+03
      6.398  0.0000E+00  0.1028E+01  0.9600E+03  0.7042E+03
      6.639  0.0000E+00  0.1011E+02  0.9600E+03  0.7067E+03
      6.879  0.0000E+00  0.2649E+02  0.9600E+03  0.7130E+03
      7.120  0.2886E-16  0.6580E+02  0.9600E+03  0.7289E+03
      7.360  0.5778E-01  0.1114E+03  0.9600E+03  0.7556E+03
      7.601  0.1502E+01  0.1393E+03  0.9604E+03  0.7891E+03
      7.841  0.5129E+01  0.1182E+03  0.9616E+03  0.8176E+03
      8.082  0.7086E+01  0.1786E+03  0.9633E+03  0.8605E+03
      8.322  0.9300E+01  0.1458E+03  0.9655E+03  0.8956E+03
      8.563  0.1252E+02  0.6199E+02  0.9686E+03  0.9105E+03
      8.803  0.1449E+02  0.8254E+02  0.9720E+03  0.9303E+03
      9.044  0.2714E+02  0.7295E+02  0.9786E+03  0.9479E+03
      9.284  0.3346E+02  0.5733E+02  0.9866E+03  0.9616E+03
      9.524  0.3542E+02  0.2314E+02  0.9951E+03  0.9672E+03
      9.765  0.5318E+02  0.3405E+02  0.1008E+04  0.9754E+03
     10.005  0.5115E+02  0.2268E+02  0.1020E+04  0.9809E+03
     10.246  0.3382E+02  0.3882E+02  0.1028E+04  0.9902E+03
     10.486  0.2159E+02  0.4333E+02  0.1034E+04  0.1001E+04
     10.727  0.4557E+02  0.6118E+02  0.1045E+04  0.1015E+04
     10.967  0.3308E+02  0.4341E+02  0.1052E+04  0.1026E+04
     11.208  0.4369E+02  0.4017E+02  0.1063E+04  0.1035E+04
     11.448  0.7799E+02  0.3455E+02  0.1082E+04  0.1044E+04
     11.689  0.4275E+02  0.4375E+02  0.1092E+04  0.1054E+04
     11.929  0.6452E+02  0.5206E+02  0.1108E+04  0.1067E+04
     12.170  0.6674E+02  0.5736E+02  0.1124E+04  0.1081E+04
     12.410  0.6923E+02  0.5323E+02  0.1140E+04  0.1093E+04
     12.650  0.6097E+02  0.6703E+02  0.1155E+04  0.1109E+04
     12.891  0.5271E+02  0.7973E+02  0.1168E+04  0.1129E+04
     13.131  0.5844E+02  0.6445E+02  0.1182E+04  0.1144E+04
     13.372  0.4843E+02  0.6639E+02  0.1193E+04  0.1160E+04
     13.612  0.4014E+02  0.6456E+02  0.1203E+04  0.1176E+04
     13.853  0.1876E+02  0.5723E+02  0.1207E+04  0.1189E+04
     14.093  0.2481E+01  0.5293E+02  0.1208E+04  0.1202E+04
     14.334  0.0000E+00  0.2135E+02  0.1208E+04  0.1207E+04
     14.574  0.0000E+00  0.3078E+01  0.1208E+04  0.1208E+04
     14.815  0.0000E+00  0.3909E-05  0.1208E+04  0.1208E+04
     15.055  0.0000E+00  0.0000E+00  0.1208E+04  0.1208E+04
     15.296  0.0000E+00  0.0000E+00  0.1208E+04  0.1208E+04
     15.536  0.0000E+00  0.0000E+00  0.1208E+04  0.1208E+04
     15.776  0.0000E+00  0.0000E+00  0.1208E+04  0.1208E+04
     16.017  0.0000E+00  0.0000E+00  0.1208E+04  0.1208E+04
     16.257  0.0000E+00  0.0000E+00  0.1208E+04  0.1208E+04
     16.498  0.0000E+00  0.0000E+00  0.1208E+04  0.1208E+04
     16.738  0.0000E+00  0.0000E+00  0.1208E+04  0.1208E+04
     16.979  0.0000E+00  0.0000E+00  0.1208E+04  0.1208E+04
     17.219  0.0000E+00  0.0000E+00  0.1208E+04  0.1208E+04
     17.460  0.0000E+00  0.0000E+00  0.1208E+04  0.1208E+04
     17.700  0.0000E+00  0.0000E+00  0.1208E+04  0.1208E+04
