  224  224    1    2
  0.1357572E+02  0.1537960E-08  0.1537962E-08  0.1395899E-08  0.5000000E-15
  1.000000000000000E-004
  CAR 
 unknown system                          
   1664      8   1208
 
  0.0000000E+00  0.0000000E+00  0.0000000E+00  0.1250000E+00
    1      -51.159627    -46.406709   1.000000   1.000000
    2      -51.142732    -46.391942   1.000000   1.000000
    3      -51.142430    -46.391610   1.000000   1.000000
    4      -51.142368    -46.391550   1.000000   1.000000
    5      -51.142005    -46.391171   1.000000   1.000000
    6      -51.141962    -46.391085   1.000000   1.000000
    7      -51.141870    -46.391032   1.000000   1.000000
    8      -51.141797    -46.390876   1.000000   1.000000
    9      -51.141753    -46.390859   1.000000   1.000000
   10      -51.141681    -46.390654   1.000000   1.000000
   11      -51.141467    -46.390539   1.000000   1.000000
   12      -51.141453    -46.390471   1.000000   1.000000
   13      -51.141326    -46.390376   1.000000   1.000000
   14      -51.141257    -46.390356   1.000000   1.000000
   15      -51.141163    -46.390225   1.000000   1.000000
   16      -51.141134    -46.390150   1.000000   1.000000
   17      -51.141065    -46.390115   1.000000   1.000000
   18      -51.140993    -46.390007   1.000000   1.000000
   19      -51.140851    -46.389884   1.000000   1.000000
   20      -51.140774    -46.389814   1.000000   1.000000
   21      -51.140737    -46.389760   1.000000   1.000000
   22      -51.140728    -46.389737   1.000000   1.000000
   23      -51.140718    -46.389725   1.000000   1.000000
   24      -51.140671    -46.389717   1.000000   1.000000
   25      -51.140654    -46.389697   1.000000   1.000000
   26      -51.140651    -46.389675   1.000000   1.000000
   27      -51.140607    -46.389636   1.000000   1.000000
   28      -51.140596    -46.389609   1.000000   1.000000
   29      -51.140537    -46.389576   1.000000   1.000000
   30      -51.140493    -46.389411   1.000000   1.000000
   31      -51.140441    -46.389305   1.000000   1.000000
   32      -51.140431    -46.389302   1.000000   1.000000
   33      -51.140188    -46.389113   1.000000   1.000000
   34      -51.140170    -46.389104   1.000000   1.000000
   35      -51.140148    -46.389049   1.000000   1.000000
   36      -51.140111    -46.388865   1.000000   1.000000
   37      -51.140014    -46.388774   1.000000   1.000000
   38      -51.140001    -46.388719   1.000000   1.000000
   39      -51.139999    -46.388715   1.000000   1.000000
   40      -51.139913    -46.388672   1.000000   1.000000
   41      -51.139892    -46.388667   1.000000   1.000000
   42      -51.139841    -46.388625   1.000000   1.000000
   43      -51.139834    -46.388621   1.000000   1.000000
   44      -51.139829    -46.388600   1.000000   1.000000
   45      -51.139818    -46.388571   1.000000   1.000000
   46      -51.139775    -46.388560   1.000000   1.000000
   47      -51.139651    -46.388467   1.000000   1.000000
   48      -51.139505    -46.388260   1.000000   1.000000
   49      -51.139460    -46.388236   1.000000   1.000000
   50      -51.139444    -46.388144   1.000000   1.000000
   51      -51.139375    -46.388069   1.000000   1.000000
   52      -51.139296    -46.388018   1.000000   1.000000
   53      -51.139184    -46.387948   1.000000   1.000000
   54      -51.139179    -46.387896   1.000000   1.000000
   55      -51.138958    -46.387746   1.000000   1.000000
   56      -51.138884    -46.387582   1.000000   1.000000
   57      -51.138832    -46.387563   1.000000   1.000000
   58      -51.138759    -46.387449   1.000000   1.000000
   59      -51.138719    -46.387396   1.000000   1.000000
   60      -51.138649    -46.387309   1.000000   1.000000
   61      -51.138299    -46.386958   1.000000   1.000000
   62      -51.138253    -46.386904   1.000000   1.000000
   63      -51.137991    -46.386637   1.000000   1.000000
   64      -51.121039    -46.371860   1.000000   1.000000
   65      -49.662493    -45.943013   1.000000   1.000000
   66      -49.661463    -45.942239   1.000000   1.000000
   67      -49.648857    -45.930314   1.000000   1.000000
   68      -49.648846    -45.930224   1.000000   1.000000
   69      -49.648752    -45.929926   1.000000   1.000000
   70      -49.648547    -45.929866   1.000000   1.000000
   71      -49.648370    -45.929801   1.000000   1.000000
   72      -49.648298    -45.929686   1.000000   1.000000
   73      -49.648090    -45.929447   1.000000   1.000000
   74      -49.647993    -45.929362   1.000000   1.000000
   75      -49.647916    -45.929351   1.000000   1.000000
   76      -49.647825    -45.929290   1.000000   1.000000
   77      -49.647758    -45.929238   1.000000   1.000000
   78      -49.647716    -45.929233   1.000000   1.000000
   79      -49.647666    -45.929094   1.000000   1.000000
   80      -49.647656    -45.929036   1.000000   1.000000
   81      -49.647587    -45.928976   1.000000   1.000000
   82      -49.647542    -45.928914   1.000000   1.000000
   83      -49.647460    -45.928884   1.000000   1.000000
   84      -49.647308    -45.928822   1.000000   1.000000
   85      -49.647291    -45.928772   1.000000   1.000000
   86      -49.647240    -45.928762   1.000000   1.000000
   87      -49.647142    -45.928660   1.000000   1.000000
   88      -49.647101    -45.928508   1.000000   1.000000
   89      -49.646985    -45.928485   1.000000   1.000000
   90      -49.646976    -45.928473   1.000000   1.000000
   91      -49.646908    -45.928438   1.000000   1.000000
   92      -49.646900    -45.928403   1.000000   1.000000
   93      -49.646885    -45.928288   1.000000   1.000000
   94      -49.646837    -45.928224   1.000000   1.000000
   95      -49.646769    -45.928197   1.000000   1.000000
   96      -49.646754    -45.928151   1.000000   1.000000
   97      -49.646749    -45.928072   1.000000   1.000000
   98      -49.646709    -45.928060   1.000000   1.000000
   99      -49.646678    -45.928043   1.000000   1.000000
  100      -49.646671    -45.928018   1.000000   1.000000
  101      -49.646580    -45.928004   1.000000   1.000000
  102      -49.646563    -45.927978   1.000000   1.000000
  103      -49.646552    -45.927972   1.000000   1.000000
  104      -49.646534    -45.927945   1.000000   1.000000
  105      -49.646496    -45.927931   1.000000   1.000000
  106      -49.646469    -45.927853   1.000000   1.000000
  107      -49.646340    -45.927818   1.000000   1.000000
  108      -49.646316    -45.927808   1.000000   1.000000
  109      -49.646265    -45.927798   1.000000   1.000000
  110      -49.646259    -45.927787   1.000000   1.000000
  111      -49.646256    -45.927739   1.000000   1.000000
  112      -49.646180    -45.927673   1.000000   1.000000
  113      -49.646131    -45.927627   1.000000   1.000000
  114      -49.646063    -45.927619   1.000000   1.000000
  115      -49.646058    -45.927598   1.000000   1.000000
  116      -49.646020    -45.927544   1.000000   1.000000
  117      -49.645997    -45.927513   1.000000   1.000000
  118      -49.645952    -45.927491   1.000000   1.000000
  119      -49.645937    -45.927457   1.000000   1.000000
  120      -49.645894    -45.927421   1.000000   1.000000
  121      -49.645849    -45.927405   1.000000   1.000000
  122      -49.645804    -45.927391   1.000000   1.000000
  123      -49.645782    -45.927384   1.000000   1.000000
  124      -49.645752    -45.927372   1.000000   1.000000
  125      -49.645724    -45.927353   1.000000   1.000000
  126      -49.645695    -45.927324   1.000000   1.000000
  127      -49.645660    -45.927286   1.000000   1.000000
  128      -49.645647    -45.927248   1.000000   1.000000
  129      -49.645566    -45.927204   1.000000   1.000000
  130      -49.645552    -45.927140   1.000000   1.000000
  131      -49.645539    -45.927114   1.000000   1.000000
  132      -49.645488    -45.927075   1.000000   1.000000
  133      -49.645443    -45.927026   1.000000   1.000000
  134      -49.645441    -45.926989   1.000000   1.000000
  135      -49.645429    -45.926949   1.000000   1.000000
  136      -49.645376    -45.926868   1.000000   1.000000
  137      -49.645338    -45.926854   1.000000   1.000000
  138      -49.645280    -45.926847   1.000000   1.000000
  139      -49.645190    -45.926838   1.000000   1.000000
  140      -49.645132    -45.926795   1.000000   1.000000
  141      -49.645107    -45.926784   1.000000   1.000000
  142      -49.645084    -45.926724   1.000000   1.000000
  143      -49.645064    -45.926714   1.000000   1.000000
  144      -49.645012    -45.926685   1.000000   1.000000
  145      -49.644968    -45.926663   1.000000   1.000000
  146      -49.644965    -45.926652   1.000000   1.000000
  147      -49.644909    -45.926600   1.000000   1.000000
  148      -49.644899    -45.926571   1.000000   1.000000
  149      -49.644818    -45.926554   1.000000   1.000000
  150      -49.644791    -45.926543   1.000000   1.000000
  151      -49.644744    -45.926478   1.000000   1.000000
  152      -49.644740    -45.926456   1.000000   1.000000
  153      -49.644710    -45.926395   1.000000   1.000000
  154      -49.644710    -45.926378   1.000000   1.000000
  155      -49.644693    -45.926327   1.000000   1.000000
  156      -49.644637    -45.926295   1.000000   1.000000
  157      -49.644559    -45.926287   1.000000   1.000000
  158      -49.644533    -45.926279   1.000000   1.000000
  159      -49.644462    -45.926219   1.000000   1.000000
  160      -49.644417    -45.926151   1.000000   1.000000
  161      -49.644376    -45.926139   1.000000   1.000000
  162      -49.644360    -45.926118   1.000000   1.000000
  163      -49.644328    -45.926073   1.000000   1.000000
  164      -49.644302    -45.926007   1.000000   1.000000
  165      -49.644237    -45.925948   1.000000   1.000000
  166      -49.644191    -45.925932   1.000000   1.000000
  167      -49.644176    -45.925923   1.000000   1.000000
  168      -49.644127    -45.925901   1.000000   1.000000
  169      -49.644080    -45.925822   1.000000   1.000000
  170      -49.644000    -45.925766   1.000000   1.000000
  171      -49.643969    -45.925724   1.000000   1.000000
  172      -49.643955    -45.925666   1.000000   1.000000
  173      -49.643937    -45.925615   1.000000   1.000000
  174      -49.643914    -45.925567   1.000000   1.000000
  175      -49.643805    -45.925528   1.000000   1.000000
  176      -49.643734    -45.925448   1.000000   1.000000
  177      -49.643673    -45.925436   1.000000   1.000000
  178      -49.643628    -45.925402   1.000000   1.000000
  179      -49.643497    -45.925294   1.000000   1.000000
  180      -49.643453    -45.925231   1.000000   1.000000
  181      -49.643383    -45.925137   1.000000   1.000000
  182      -49.643327    -45.925058   1.000000   1.000000
  183      -49.643161    -45.925007   1.000000   1.000000
  184      -49.643085    -45.924965   1.000000   1.000000
  185      -49.643024    -45.924768   1.000000   1.000000
  186      -49.642985    -45.924680   1.000000   1.000000
  187      -49.642697    -45.924609   1.000000   1.000000
  188      -49.642669    -45.924490   1.000000   1.000000
  189      -49.642353    -45.924385   1.000000   1.000000
  190      -49.642170    -45.924146   1.000000   1.000000
  191      -49.629741    -45.912239   1.000000   1.000000
  192      -49.628778    -45.911445   1.000000   1.000000
  193      -39.641259    -39.640343   1.000000   1.000000
  194      -39.641063    -39.640144   1.000000   1.000000
  195      -39.634651    -39.633783   1.000000   1.000000
  196      -39.633641    -39.632768   1.000000   1.000000
  197      -39.633543    -39.632668   1.000000   1.000000
  198      -39.633516    -39.632642   1.000000   1.000000
  199      -39.633295    -39.632421   1.000000   1.000000
  200      -39.633277    -39.632404   1.000000   1.000000
  201      -39.633258    -39.632384   1.000000   1.000000
  202      -39.632843    -39.631969   1.000000   1.000000
  203      -39.628667    -39.627830   1.000000   1.000000
  204      -39.627930    -39.627093   1.000000   1.000000
  205      -39.627804    -39.626965   1.000000   1.000000
  206      -39.627782    -39.626943   1.000000   1.000000
  207      -39.627764    -39.626925   1.000000   1.000000
  208      -39.627752    -39.626913   1.000000   1.000000
  209      -39.627694    -39.626856   1.000000   1.000000
  210      -39.626954    -39.626114   1.000000   1.000000
  211      -39.617816    -39.617049   1.000000   1.000000
  212      -39.616930    -39.616157   1.000000   1.000000
  213      -39.616113    -39.615335   1.000000   1.000000
  214      -39.616014    -39.615236   1.000000   1.000000
  215      -39.615917    -39.615141   1.000000   1.000000
  216      -39.615799    -39.615024   1.000000   1.000000
  217      -39.615717    -39.614936   1.000000   1.000000
  218      -39.615588    -39.614808   1.000000   1.000000
  219      -39.615350    -39.614576   1.000000   1.000000
  220      -39.615316    -39.614546   1.000000   1.000000
  221      -39.615283    -39.614514   1.000000   1.000000
  222      -39.615260    -39.614487   1.000000   1.000000
  223      -39.615253    -39.614483   1.000000   1.000000
  224      -39.615200    -39.614432   1.000000   1.000000
  225      -39.615169    -39.614400   1.000000   1.000000
  226      -39.615162    -39.614394   1.000000   1.000000
  227      -39.615008    -39.614238   1.000000   1.000000
  228      -39.614984    -39.614216   1.000000   1.000000
  229      -39.614947    -39.614178   1.000000   1.000000
  230      -39.614941    -39.614172   1.000000   1.000000
  231      -39.614864    -39.614095   1.000000   1.000000
  232      -39.614840    -39.614069   1.000000   1.000000
  233      -39.614580    -39.613818   1.000000   1.000000
  234      -39.614514    -39.613752   1.000000   1.000000
  235      -39.614251    -39.613493   1.000000   1.000000
  236      -39.614213    -39.613453   1.000000   1.000000
  237      -39.613480    -39.612710   1.000000   1.000000
  238      -39.612737    -39.611960   1.000000   1.000000
  239      -39.604662    -39.603943   1.000000   1.000000
  240      -39.603892    -39.603172   1.000000   1.000000
  241      -39.603843    -39.603123   1.000000   1.000000
  242      -39.603813    -39.603093   1.000000   1.000000
  243      -39.603801    -39.603081   1.000000   1.000000
  244      -39.603783    -39.603063   1.000000   1.000000
  245      -39.603659    -39.602938   1.000000   1.000000
  246      -39.602998    -39.602276   1.000000   1.000000
  247      -39.600088    -39.599381   1.000000   1.000000
  248      -39.599714    -39.599008   1.000000   1.000000
  249      -39.599679    -39.598972   1.000000   1.000000
  250      -39.599667    -39.598960   1.000000   1.000000
  251      -39.599449    -39.598743   1.000000   1.000000
  252      -39.599423    -39.598717   1.000000   1.000000
  253      -39.599320    -39.598612   1.000000   1.000000
  254      -39.598284    -39.597571   1.000000   1.000000
  255      -39.593285    -39.592602   1.000000   1.000000
  256      -39.593059    -39.592373   1.000000   1.000000
  257      -12.747192    -12.467717   1.000000   1.000000
  258      -12.747180    -12.467709   1.000000   1.000000
  259      -12.719456    -12.439694   1.000000   1.000000
  260      -12.719451    -12.439693   1.000000   1.000000
  261      -12.719441    -12.439689   1.000000   1.000000
  262      -12.719420    -12.439658   1.000000   1.000000
  263      -12.719253    -12.439489   1.000000   1.000000
  264      -12.719181    -12.439426   1.000000   1.000000
  265      -12.719169    -12.439426   1.000000   1.000000
  266      -12.719164    -12.439422   1.000000   1.000000
  267      -12.697185    -12.417011   1.000000   1.000000
  268      -12.697166    -12.416988   1.000000   1.000000
  269      -12.694793    -12.415180   1.000000   1.000000
  270      -12.694745    -12.415138   1.000000   1.000000
  271      -12.694728    -12.415120   1.000000   1.000000
  272      -12.694712    -12.415099   1.000000   1.000000
  273      -12.692403    -12.413327   1.000000   1.000000
  274      -12.692337    -12.413284   1.000000   1.000000
  275      -12.691252    -12.411207   1.000000   1.000000
  276      -12.691231    -12.411197   1.000000   1.000000
  277      -12.691229    -12.411195   1.000000   1.000000
  278      -12.691178    -12.411174   1.000000   1.000000
  279      -12.672700    -12.392684   1.000000   1.000000
  280      -12.672669    -12.392649   1.000000   1.000000
  281      -12.672652    -12.392644   1.000000   1.000000
  282      -12.672647    -12.392624   1.000000   1.000000
  283      -12.667614    -12.388721   1.000000   1.000000
  284      -12.667594    -12.388698   1.000000   1.000000
  285      -12.667581    -12.388692   1.000000   1.000000
  286      -12.667576    -12.388678   1.000000   1.000000
  287      -12.654527    -12.374571   1.000000   1.000000
  288      -12.643748    -12.366021   1.000000   1.000000
  289       -7.800057     -7.599060   1.000000   1.000000
  290       -7.748214     -7.551490   1.000000   1.000000
  291       -7.506059     -7.319463   1.000000   1.000000
  292       -7.505695     -7.319351   1.000000   1.000000
  293       -7.505554     -7.319169   1.000000   1.000000
  294       -7.505343     -7.319006   1.000000   1.000000
  295       -7.500964     -7.308906   1.000000   1.000000
  296       -7.500775     -7.308776   1.000000   1.000000
  297       -7.500597     -7.308546   1.000000   1.000000
  298       -7.500225     -7.308411   1.000000   1.000000
  299       -7.315194     -7.117733   1.000000   1.000000
  300       -7.315171     -7.117717   1.000000   1.000000
  301       -7.298034     -7.094746   1.000000   1.000000
  302       -7.297793     -7.094532   1.000000   1.000000
  303       -7.295838     -7.092534   1.000000   1.000000
  304       -7.295593     -7.092314   1.000000   1.000000
  305       -7.269209     -7.061916   1.000000   1.000000
  306       -7.269208     -7.061914   1.000000   1.000000
  307       -7.088671     -6.893873   1.000000   1.000000
  308       -7.084679     -6.893857   1.000000   1.000000
  309       -7.084669     -6.893856   1.000000   1.000000
  310       -7.084654     -6.893839   1.000000   1.000000
  311       -7.084638     -6.796835   1.000000   1.000000
  312       -7.046558     -6.783722   1.000000   1.000000
  313       -7.000177     -6.768324   1.000000   1.000000
  314       -7.000065     -6.768304   1.000000   1.000000
  315       -6.999923     -6.767991   1.000000   1.000000
  316       -6.999842     -6.767919   1.000000   1.000000
  317       -6.999742     -6.766295   1.000000   1.000000
  318       -6.999621     -6.766258   1.000000   1.000000
  319       -6.999512     -6.766229   1.000000   1.000000
  320       -6.999483     -6.766089   1.000000   1.000000
  321       -6.994355     -6.765922   1.000000   1.000000
  322       -6.994310     -6.765838   1.000000   1.000000
  323       -6.994045     -6.765701   1.000000   1.000000
  324       -6.994013     -6.765541   1.000000   1.000000
  325       -6.955767     -6.745063   1.000000   1.000000
  326       -6.955755     -6.744999   1.000000   1.000000
  327       -6.955738     -6.744791   1.000000   1.000000
  328       -6.955725     -6.744704   1.000000   1.000000
  329       -6.948378     -6.697553   1.000000   1.000000
  330       -6.948311     -6.697505   1.000000   1.000000
  331       -6.928750     -6.689206   1.000000   1.000000
  332       -6.928690     -6.689114   1.000000   1.000000
  333       -6.928443     -6.688882   1.000000   1.000000
  334       -6.928426     -6.688859   1.000000   1.000000
  335       -6.911387     -6.640036   1.000000   1.000000
  336       -6.911321     -6.639721   1.000000   1.000000
  337       -6.886819     -6.639194   1.000000   1.000000
  338       -6.886645     -6.639173   1.000000   1.000000
  339       -6.884665     -6.639037   1.000000   1.000000
  340       -6.884486     -6.638974   1.000000   1.000000
  341       -6.877073     -6.638928   1.000000   1.000000
  342       -6.877060     -6.638863   1.000000   1.000000
  343       -6.876959     -6.638836   1.000000   1.000000
  344       -6.876843     -6.638695   1.000000   1.000000
  345       -6.876750     -6.637212   1.000000   1.000000
  346       -6.876657     -6.637097   1.000000   1.000000
  347       -6.876505     -6.628061   1.000000   1.000000
  348       -6.876367     -6.627911   1.000000   1.000000
  349       -6.832582     -6.586620   1.000000   1.000000
  350       -6.832581     -6.586617   1.000000   1.000000
  351       -6.794261     -6.499085   1.000000   1.000000
  352       -6.794238     -6.499059   1.000000   1.000000
  353       -1.525502     -0.414582   1.000000   1.000000
  354       -1.467856     -0.414564   1.000000   1.000000
  355       -1.467688     -0.414456   1.000000   1.000000
  356       -1.467607     -0.414436   1.000000   1.000000
  357       -1.467463      0.026241   1.000000   1.000000
  358       -1.460314      0.026322   1.000000   1.000000
  359       -1.460306      0.026422   1.000000   1.000000
  360       -1.460179      0.026511   1.000000   1.000000
  361       -1.460172      0.037782   1.000000   1.000000
  362       -1.421357      0.037889   1.000000   1.000000
  363       -1.421346      0.037900   1.000000   1.000000
  364       -1.382868      0.037986   1.000000   1.000000
  365       -1.382795      0.038129   1.000000   1.000000
  366       -1.382724      0.038194   1.000000   1.000000
  367       -1.382656      0.038260   1.000000   1.000000
  368       -1.332705      0.038325   1.000000   1.000000
  369       -1.332645      0.102900   1.000000   1.000000
  370       -1.332606      0.102914   1.000000   1.000000
  371       -1.332577      0.207344   1.000000   1.000000
  372       -1.332397      0.207457   1.000000   1.000000
  373       -1.332374      0.207647   1.000000   1.000000
  374       -1.332318      0.207764   1.000000   1.000000
  375       -1.332278      0.304172   1.000000   1.000000
  376       -1.292530      0.392490   1.000000   1.000000
  377       -1.292488      0.392556   1.000000   1.000000
  378       -1.292434      0.392661   1.000000   1.000000
  379       -1.292400      0.392706   1.000000   1.000000
  380       -1.256786      0.490891   1.000000   1.000000
  381       -1.256774      0.490910   1.000000   1.000000
  382       -1.232166      0.497549   1.000000   1.000000
  383       -1.232147      0.497670   1.000000   1.000000
  384       -1.220377      0.497734   1.000000   1.000000
  385       -0.822760      0.497848   1.000000   1.000000
  386       -0.822730      0.510667   1.000000   1.000000
  387       -0.822664      0.510702   1.000000   1.000000
  388       -0.822627      0.531199   1.000000   1.000000
  389       -0.722667      0.531217   1.000000   1.000000
  390       -0.722614      0.531292   1.000000   1.000000
  391       -0.699181      0.531306   1.000000   1.000000
  392       -0.699084      0.574149   1.000000   1.000000
  393       -0.698968      0.574244   1.000000   1.000000
  394       -0.698930      0.574345   1.000000   1.000000
  395       -0.688450      0.574374   1.000000   1.000000
  396       -0.688421      0.574384   1.000000   1.000000
  397       -0.688177      0.574411   1.000000   1.000000
  398       -0.688147      0.574524   1.000000   1.000000
  399       -0.666687      0.574643   1.000000   1.000000
  400       -0.666672      0.638622   1.000000   1.000000
  401       -0.666404      0.666312   1.000000   1.000000
  402       -0.666364      0.666328   1.000000   1.000000
  403       -0.651979      0.733093   1.000000   1.000000
  404       -0.651871      0.733113   1.000000   1.000000
  405       -0.651787      0.931379   1.000000   1.000000
  406       -0.651752      0.932556   1.000000   1.000000
  407       -0.589413      0.935600   1.000000   1.000000
  408       -0.589391      0.935657   1.000000   1.000000
  409       -0.576987      0.948842   1.000000   1.000000
  410       -0.576893      0.948895   1.000000   1.000000
  411       -0.576168      0.949004   1.000000   1.000000
  412       -0.576086      0.949076   1.000000   1.000000
  413       -0.553418      0.985760   1.000000   1.000000
  414       -0.553325      0.985961   1.000000   1.000000
  415       -0.553083      0.986455   1.000000   1.000000
  416       -0.552962      0.986663   1.000000   1.000000
  417       -0.497618      0.992782   1.000000   1.000000
  418       -0.496865      0.992968   1.000000   1.000000
  419       -0.472893      1.008935   1.000000   1.000000
  420       -0.472668      1.008942   1.000000   1.000000
  421       -0.461617      1.008960   1.000000   1.000000
  422       -0.461509      1.008964   1.000000   1.000000
  423       -0.461251      1.018475   1.000000   1.000000
  424       -0.461115      1.049089   1.000000   1.000000
  425       -0.459798      1.049134   1.000000   1.000000
  426       -0.459695      1.051656   1.000000   1.000000
  427       -0.459436      1.051701   1.000000   1.000000
  428       -0.459325      1.051773   1.000000   1.000000
  429       -0.410021      1.051833   1.000000   1.000000
  430       -0.409986      1.078661   1.000000   1.000000
  431       -0.407689      1.078811   1.000000   1.000000
  432       -0.407546      1.078856   1.000000   1.000000
  433       -0.407485      1.078952   1.000000   1.000000
  434       -0.407395      1.079385   1.000000   1.000000
  435       -0.407361      1.079569   1.000000   1.000000
  436       -0.407257      1.080171   1.000000   1.000000
  437       -0.383326      1.080390   1.000000   1.000000
  438       -0.383264      1.192845   1.000000   1.000000
  439       -0.378173      1.192892   1.000000   1.000000
  440       -0.369152      1.376469   1.000000   1.000000
  441       -0.369137      1.390363   1.000000   1.000000
  442       -0.368757      1.391168   1.000000   1.000000
  443       -0.368723      1.391207   1.000000   1.000000
  444       -0.368621      1.391313   1.000000   1.000000
  445       -0.368610      1.391379   1.000000   1.000000
  446       -0.368250      1.437318   1.000000   1.000000
  447       -0.368245      1.450212   1.000000   1.000000
  448       -0.353527      1.526243   1.000000   1.000000
  449       -0.353514      1.526392   1.000000   1.000000
  450       -0.349030      1.526437   1.000000   1.000000
  451       -0.341772      1.526550   1.000000   1.000000
  452       -0.335887      1.528867   1.000000   1.000000
  453       -0.335799      1.528942   1.000000   1.000000
  454       -0.335456      1.528962   1.000000   1.000000
  455       -0.335377      1.529098   1.000000   1.000000
  456       -0.334241      1.557913   1.000000   1.000000
  457       -0.334188      1.558067   1.000000   1.000000
  458       -0.333927      1.558574   1.000000   1.000000
  459       -0.333881      1.558754   1.000000   1.000000
  460       -0.324259      1.566624   1.000000   1.000000
  461       -0.324219      1.566729   1.000000   1.000000
  462       -0.323855      1.566930   1.000000   1.000000
  463       -0.323823      1.566979   1.000000   1.000000
  464       -0.321647      1.568172   1.000000   1.000000
  465       -0.321634      1.568281   1.000000   1.000000
  466       -0.321188      1.568428   1.000000   1.000000
  467       -0.321161      1.568659   1.000000   1.000000
  468       -0.303830      1.586596   1.000000   1.000000
  469       -0.295899      1.586645   1.000000   1.000000
  470       -0.288196      1.695706   1.000000   1.000000
  471       -0.287884      1.695727   1.000000   1.000000
  472       -0.287774      1.740838   1.000000   1.000000
  473       -0.287540      1.740966   1.000000   1.000000
  474       -0.280376      1.741272   1.000000   1.000000
  475       -0.280370      1.741385   1.000000   1.000000
  476       -0.275060      1.746873   1.000000   1.000000
  477       -0.275048      1.746883   1.000000   1.000000
  478       -0.274815      1.746912   1.000000   1.000000
  479       -0.274798      1.746944   1.000000   1.000000
  480       -0.241912      1.779033   1.000000   1.000000
  481       -0.241712      1.780620   1.000000   1.000000
  482       -0.241640      1.780652   1.000000   1.000000
  483       -0.241555      1.836812   1.000000   1.000000
  484       -0.241351      1.836926   1.000000   1.000000
  485       -0.241281      1.837328   1.000000   1.000000
  486       -0.241204      1.837413   1.000000   1.000000
  487       -0.241058      1.837736   1.000000   1.000000
  488       -0.207370      1.837839   1.000000   1.000000
  489       -0.207364      1.838427   1.000000   1.000000
  490       -0.200158      1.838543   1.000000   1.000000
  491       -0.199768      1.866212   1.000000   1.000000
  492       -0.199329      1.866414   1.000000   1.000000
  493       -0.198945      1.913299   1.000000   1.000000
  494       -0.194017      1.913467   1.000000   1.000000
  495       -0.193972      1.913497   1.000000   1.000000
  496       -0.163987      1.913549   1.000000   1.000000
  497       -0.163916      1.913565   1.000000   1.000000
  498       -0.163783      1.913641   1.000000   1.000000
  499       -0.163705      1.913745   1.000000   1.000000
  500       -0.156699      1.913850   1.000000   1.000000
  501       -0.156551      1.926199   1.000000   1.000000
  502       -0.156233      1.926738   1.000000   1.000000
  503       -0.156071      1.927317   1.000000   1.000000
  504       -0.139031      1.927906   1.000000   1.000000
  505       -0.139002      2.133229   1.000000   1.000000
  506       -0.138832      2.133268   1.000000   1.000000
  507       -0.138797      2.191260   1.000000   1.000000
  508       -0.090955      2.193184   1.000000   1.000000
  509       -0.090927      2.300612   1.000000   1.000000
  510       -0.082591      2.300712   1.000000   1.000000
  511       -0.082496      2.301145   1.000000   1.000000
  512       -0.082466      2.301229   1.000000   1.000000