 144 144   0   0
  0.1325381E+02  0.1546422E-08  0.1214491E-08  0.1054520E-08  0.5000000E-15
  1.000000000000000E-004
  CAR 
 unknown system                          
     17.00859711    -54.87052316  301      5.08864300      1.00000000
    -54.871  0.0000E+00  0.0000E+00  0.0000E+00  0.0000E+00
    -54.631  0.0000E+00  0.0000E+00  0.0000E+00  0.0000E+00
    -54.391  0.0000E+00  0.0000E+00  0.0000E+00  0.0000E+00
    -54.152  0.0000E+00  0.0000E+00  0.0000E+00  0.0000E+00
    -53.912  0.0000E+00  0.0000E+00  0.0000E+00  0.0000E+00
    -53.673  0.0000E+00  0.0000E+00  0.0000E+00  0.0000E+00
    -53.433  0.0000E+00  0.0000E+00  0.0000E+00  0.0000E+00
    -53.193  0.0000E+00  0.0000E+00  0.0000E+00  0.0000E+00
    -52.954  0.0000E+00  0.0000E+00  0.0000E+00  0.0000E+00
    -52.714  0.0000E+00  0.0000E+00  0.0000E+00  0.0000E+00
    -52.475  0.0000E+00  0.0000E+00  0.0000E+00  0.0000E+00
    -52.235  0.0000E+00  0.0000E+00  0.0000E+00  0.0000E+00
    -51.995  0.0000E+00  0.0000E+00  0.0000E+00  0.0000E+00
    -51.756  0.3707E-03  0.0000E+00  0.8881E-04  0.0000E+00
    -51.516  0.4985E+02  0.0000E+00  0.1195E+02  0.0000E+00
    -51.277  0.8657E+02  0.0000E+00  0.3269E+02  0.0000E+00
    -51.037  0.1382E+02  0.0000E+00  0.3600E+02  0.0000E+00
    -50.797  0.0000E+00  0.0000E+00  0.3600E+02  0.0000E+00
    -50.558  0.0000E+00  0.0000E+00  0.3600E+02  0.0000E+00
    -50.318  0.1337E-03  0.0000E+00  0.3600E+02  0.0000E+00
    -50.079  0.6740E+02  0.0000E+00  0.5215E+02  0.0000E+00
    -49.839  0.2085E+03  0.0000E+00  0.1021E+03  0.0000E+00
    -49.599  0.2459E+02  0.0000E+00  0.1080E+03  0.0000E+00
    -49.360  0.0000E+00  0.0000E+00  0.1080E+03  0.0000E+00
    -49.120  0.0000E+00  0.0000E+00  0.1080E+03  0.0000E+00
    -48.881  0.0000E+00  0.0000E+00  0.1080E+03  0.0000E+00
    -48.641  0.0000E+00  0.0000E+00  0.1080E+03  0.0000E+00
    -48.401  0.0000E+00  0.0000E+00  0.1080E+03  0.0000E+00
    -48.162  0.0000E+00  0.0000E+00  0.1080E+03  0.0000E+00
    -47.922  0.0000E+00  0.0000E+00  0.1080E+03  0.0000E+00
    -47.683  0.0000E+00  0.0000E+00  0.1080E+03  0.0000E+00
    -47.443  0.0000E+00  0.0000E+00  0.1080E+03  0.0000E+00
    -47.203  0.0000E+00  0.0000E+00  0.1080E+03  0.0000E+00
    -46.964  0.0000E+00  0.6738E-01  0.1080E+03  0.1614E-01
    -46.724  0.0000E+00  0.5096E+02  0.1080E+03  0.1222E+02
    -46.485  0.0000E+00  0.9555E+02  0.1080E+03  0.3512E+02
    -46.245  0.0000E+00  0.1463E+03  0.1080E+03  0.7017E+02
    -46.005  0.0000E+00  0.1579E+03  0.1080E+03  0.1080E+03
    -45.766  0.0000E+00  0.4351E-02  0.1080E+03  0.1080E+03
    -45.526  0.0000E+00  0.0000E+00  0.1080E+03  0.1080E+03
    -45.287  0.0000E+00  0.0000E+00  0.1080E+03  0.1080E+03
    -45.047  0.0000E+00  0.0000E+00  0.1080E+03  0.1080E+03
    -44.807  0.0000E+00  0.0000E+00  0.1080E+03  0.1080E+03
    -44.568  0.0000E+00  0.0000E+00  0.1080E+03  0.1080E+03
    -44.328  0.0000E+00  0.0000E+00  0.1080E+03  0.1080E+03
    -44.089  0.0000E+00  0.0000E+00  0.1080E+03  0.1080E+03
    -43.849  0.0000E+00  0.0000E+00  0.1080E+03  0.1080E+03
    -43.609  0.0000E+00  0.0000E+00  0.1080E+03  0.1080E+03
    -43.370  0.0000E+00  0.0000E+00  0.1080E+03  0.1080E+03
    -43.130  0.0000E+00  0.0000E+00  0.1080E+03  0.1080E+03
    -42.891  0.0000E+00  0.0000E+00  0.1080E+03  0.1080E+03
    -42.651  0.0000E+00  0.0000E+00  0.1080E+03  0.1080E+03
    -42.411  0.0000E+00  0.0000E+00  0.1080E+03  0.1080E+03
    -42.172  0.0000E+00  0.0000E+00  0.1080E+03  0.1080E+03
    -41.932  0.0000E+00  0.0000E+00  0.1080E+03  0.1080E+03
    -41.693  0.0000E+00  0.0000E+00  0.1080E+03  0.1080E+03
    -41.453  0.0000E+00  0.0000E+00  0.1080E+03  0.1080E+03
    -41.213  0.0000E+00  0.0000E+00  0.1080E+03  0.1080E+03
    -40.974  0.0000E+00  0.0000E+00  0.1080E+03  0.1080E+03
    -40.734  0.1778E-08  0.5853E-09  0.1080E+03  0.1080E+03
    -40.495  0.3005E+02  0.2681E+02  0.1152E+03  0.1144E+03
    -40.255  0.4665E+02  0.5033E+02  0.1264E+03  0.1265E+03
    -40.016  0.1001E+03  0.1000E+03  0.1504E+03  0.1504E+03
    -39.776  0.2355E+02  0.2319E+02  0.1560E+03  0.1560E+03
    -39.536  0.0000E+00  0.0000E+00  0.1560E+03  0.1560E+03
    -39.297  0.0000E+00  0.0000E+00  0.1560E+03  0.1560E+03
    -39.057  0.0000E+00  0.0000E+00  0.1560E+03  0.1560E+03
    -38.818  0.0000E+00  0.0000E+00  0.1560E+03  0.1560E+03
    -38.578  0.0000E+00  0.0000E+00  0.1560E+03  0.1560E+03
    -38.338  0.0000E+00  0.0000E+00  0.1560E+03  0.1560E+03
    -38.099  0.0000E+00  0.0000E+00  0.1560E+03  0.1560E+03
    -37.859  0.0000E+00  0.0000E+00  0.1560E+03  0.1560E+03
    -37.620  0.0000E+00  0.0000E+00  0.1560E+03  0.1560E+03
    -37.380  0.0000E+00  0.0000E+00  0.1560E+03  0.1560E+03
    -37.140  0.0000E+00  0.0000E+00  0.1560E+03  0.1560E+03
    -36.901  0.0000E+00  0.0000E+00  0.1560E+03  0.1560E+03
    -36.661  0.0000E+00  0.0000E+00  0.1560E+03  0.1560E+03
    -36.422  0.0000E+00  0.0000E+00  0.1560E+03  0.1560E+03
    -36.182  0.0000E+00  0.0000E+00  0.1560E+03  0.1560E+03
    -35.942  0.0000E+00  0.0000E+00  0.1560E+03  0.1560E+03
    -35.703  0.0000E+00  0.0000E+00  0.1560E+03  0.1560E+03
    -35.463  0.0000E+00  0.0000E+00  0.1560E+03  0.1560E+03
    -35.224  0.0000E+00  0.0000E+00  0.1560E+03  0.1560E+03
    -34.984  0.0000E+00  0.0000E+00  0.1560E+03  0.1560E+03
    -34.744  0.0000E+00  0.0000E+00  0.1560E+03  0.1560E+03
    -34.505  0.0000E+00  0.0000E+00  0.1560E+03  0.1560E+03
    -34.265  0.0000E+00  0.0000E+00  0.1560E+03  0.1560E+03
    -34.026  0.0000E+00  0.0000E+00  0.1560E+03  0.1560E+03
    -33.786  0.0000E+00  0.0000E+00  0.1560E+03  0.1560E+03
    -33.546  0.0000E+00  0.0000E+00  0.1560E+03  0.1560E+03
    -33.307  0.0000E+00  0.0000E+00  0.1560E+03  0.1560E+03
    -33.067  0.0000E+00  0.0000E+00  0.1560E+03  0.1560E+03
    -32.828  0.0000E+00  0.0000E+00  0.1560E+03  0.1560E+03
    -32.588  0.0000E+00  0.0000E+00  0.1560E+03  0.1560E+03
    -32.348  0.0000E+00  0.0000E+00  0.1560E+03  0.1560E+03
    -32.109  0.0000E+00  0.0000E+00  0.1560E+03  0.1560E+03
    -31.869  0.0000E+00  0.0000E+00  0.1560E+03  0.1560E+03
    -31.630  0.0000E+00  0.0000E+00  0.1560E+03  0.1560E+03
    -31.390  0.0000E+00  0.0000E+00  0.1560E+03  0.1560E+03
    -31.150  0.0000E+00  0.0000E+00  0.1560E+03  0.1560E+03
    -30.911  0.0000E+00  0.0000E+00  0.1560E+03  0.1560E+03
    -30.671  0.0000E+00  0.0000E+00  0.1560E+03  0.1560E+03
    -30.432  0.0000E+00  0.0000E+00  0.1560E+03  0.1560E+03
    -30.192  0.0000E+00  0.0000E+00  0.1560E+03  0.1560E+03
    -29.952  0.0000E+00  0.0000E+00  0.1560E+03  0.1560E+03
    -29.713  0.0000E+00  0.0000E+00  0.1560E+03  0.1560E+03
    -29.473  0.0000E+00  0.0000E+00  0.1560E+03  0.1560E+03
    -29.234  0.0000E+00  0.0000E+00  0.1560E+03  0.1560E+03
    -28.994  0.0000E+00  0.0000E+00  0.1560E+03  0.1560E+03
    -28.754  0.0000E+00  0.0000E+00  0.1560E+03  0.1560E+03
    -28.515  0.0000E+00  0.0000E+00  0.1560E+03  0.1560E+03
    -28.275  0.0000E+00  0.0000E+00  0.1560E+03  0.1560E+03
    -28.036  0.0000E+00  0.0000E+00  0.1560E+03  0.1560E+03
    -27.796  0.0000E+00  0.0000E+00  0.1560E+03  0.1560E+03
    -27.556  0.0000E+00  0.0000E+00  0.1560E+03  0.1560E+03
    -27.317  0.0000E+00  0.0000E+00  0.1560E+03  0.1560E+03
    -27.077  0.0000E+00  0.0000E+00  0.1560E+03  0.1560E+03
    -26.838  0.0000E+00  0.0000E+00  0.1560E+03  0.1560E+03
    -26.598  0.0000E+00  0.0000E+00  0.1560E+03  0.1560E+03
    -26.358  0.0000E+00  0.0000E+00  0.1560E+03  0.1560E+03
    -26.119  0.0000E+00  0.0000E+00  0.1560E+03  0.1560E+03
    -25.879  0.0000E+00  0.0000E+00  0.1560E+03  0.1560E+03
    -25.640  0.0000E+00  0.0000E+00  0.1560E+03  0.1560E+03
    -25.400  0.0000E+00  0.0000E+00  0.1560E+03  0.1560E+03
    -25.160  0.0000E+00  0.0000E+00  0.1560E+03  0.1560E+03
    -24.921  0.0000E+00  0.0000E+00  0.1560E+03  0.1560E+03
    -24.681  0.0000E+00  0.0000E+00  0.1560E+03  0.1560E+03
    -24.442  0.0000E+00  0.0000E+00  0.1560E+03  0.1560E+03
    -24.202  0.0000E+00  0.0000E+00  0.1560E+03  0.1560E+03
    -23.963  0.0000E+00  0.0000E+00  0.1560E+03  0.1560E+03
    -23.723  0.0000E+00  0.0000E+00  0.1560E+03  0.1560E+03
    -23.483  0.0000E+00  0.0000E+00  0.1560E+03  0.1560E+03
    -23.244  0.0000E+00  0.0000E+00  0.1560E+03  0.1560E+03
    -23.004  0.0000E+00  0.0000E+00  0.1560E+03  0.1560E+03
    -22.765  0.0000E+00  0.0000E+00  0.1560E+03  0.1560E+03
    -22.525  0.0000E+00  0.0000E+00  0.1560E+03  0.1560E+03
    -22.285  0.0000E+00  0.0000E+00  0.1560E+03  0.1560E+03
    -22.046  0.0000E+00  0.0000E+00  0.1560E+03  0.1560E+03
    -21.806  0.0000E+00  0.0000E+00  0.1560E+03  0.1560E+03
    -21.567  0.0000E+00  0.0000E+00  0.1560E+03  0.1560E+03
    -21.327  0.0000E+00  0.0000E+00  0.1560E+03  0.1560E+03
    -21.087  0.0000E+00  0.0000E+00  0.1560E+03  0.1560E+03
    -20.848  0.0000E+00  0.0000E+00  0.1560E+03  0.1560E+03
    -20.608  0.0000E+00  0.0000E+00  0.1560E+03  0.1560E+03
    -20.369  0.0000E+00  0.0000E+00  0.1560E+03  0.1560E+03
    -20.129  0.0000E+00  0.0000E+00  0.1560E+03  0.1560E+03
    -19.889  0.0000E+00  0.0000E+00  0.1560E+03  0.1560E+03
    -19.650  0.0000E+00  0.0000E+00  0.1560E+03  0.1560E+03
    -19.410  0.0000E+00  0.0000E+00  0.1560E+03  0.1560E+03
    -19.171  0.0000E+00  0.0000E+00  0.1560E+03  0.1560E+03
    -18.931  0.0000E+00  0.0000E+00  0.1560E+03  0.1560E+03
    -18.691  0.0000E+00  0.0000E+00  0.1560E+03  0.1560E+03
    -18.452  0.0000E+00  0.0000E+00  0.1560E+03  0.1560E+03
    -18.212  0.0000E+00  0.0000E+00  0.1560E+03  0.1560E+03
    -17.973  0.0000E+00  0.0000E+00  0.1560E+03  0.1560E+03
    -17.733  0.0000E+00  0.0000E+00  0.1560E+03  0.1560E+03
    -17.493  0.0000E+00  0.0000E+00  0.1560E+03  0.1560E+03
    -17.254  0.0000E+00  0.0000E+00  0.1560E+03  0.1560E+03
    -17.014  0.0000E+00  0.0000E+00  0.1560E+03  0.1560E+03
    -16.775  0.0000E+00  0.0000E+00  0.1560E+03  0.1560E+03
    -16.535  0.0000E+00  0.0000E+00  0.1560E+03  0.1560E+03
    -16.295  0.0000E+00  0.0000E+00  0.1560E+03  0.1560E+03
    -16.056  0.0000E+00  0.0000E+00  0.1560E+03  0.1560E+03
    -15.816  0.0000E+00  0.0000E+00  0.1560E+03  0.1560E+03
    -15.577  0.0000E+00  0.0000E+00  0.1560E+03  0.1560E+03
    -15.337  0.0000E+00  0.0000E+00  0.1560E+03  0.1560E+03
    -15.097  0.0000E+00  0.0000E+00  0.1560E+03  0.1560E+03
    -14.858  0.0000E+00  0.0000E+00  0.1560E+03  0.1560E+03
    -14.618  0.0000E+00  0.0000E+00  0.1560E+03  0.1560E+03
    -14.379  0.0000E+00  0.0000E+00  0.1560E+03  0.1560E+03
    -14.139  0.0000E+00  0.0000E+00  0.1560E+03  0.1560E+03
    -13.899  0.1230E-02  0.0000E+00  0.1560E+03  0.1560E+03
    -13.660  0.2217E+02  0.5617E-13  0.1613E+03  0.1560E+03
    -13.420  0.2773E+02  0.1784E+01  0.1680E+03  0.1564E+03
    -13.181  0.8945E+01  0.4446E+02  0.1701E+03  0.1671E+03
    -12.941  0.3148E+02  0.4553E+01  0.1776E+03  0.1682E+03
    -12.701  0.9848E+01  0.4209E+02  0.1800E+03  0.1783E+03
    -12.462  0.0000E+00  0.7275E+01  0.1800E+03  0.1800E+03
    -12.222  0.0000E+00  0.0000E+00  0.1800E+03  0.1800E+03
    -11.983  0.0000E+00  0.0000E+00  0.1800E+03  0.1800E+03
    -11.743  0.0000E+00  0.0000E+00  0.1800E+03  0.1800E+03
    -11.503  0.0000E+00  0.0000E+00  0.1800E+03  0.1800E+03
    -11.264  0.0000E+00  0.0000E+00  0.1800E+03  0.1800E+03
    -11.024  0.0000E+00  0.0000E+00  0.1800E+03  0.1800E+03
    -10.785  0.0000E+00  0.0000E+00  0.1800E+03  0.1800E+03
    -10.545  0.0000E+00  0.0000E+00  0.1800E+03  0.1800E+03
    -10.305  0.0000E+00  0.0000E+00  0.1800E+03  0.1800E+03
    -10.066  0.0000E+00  0.0000E+00  0.1800E+03  0.1800E+03
     -9.826  0.0000E+00  0.0000E+00  0.1800E+03  0.1800E+03
     -9.587  0.0000E+00  0.0000E+00  0.1800E+03  0.1800E+03
     -9.347  0.0000E+00  0.0000E+00  0.1800E+03  0.1800E+03
     -9.107  0.0000E+00  0.0000E+00  0.1800E+03  0.1800E+03
     -8.868  0.0000E+00  0.0000E+00  0.1800E+03  0.1800E+03
     -8.628  0.0000E+00  0.0000E+00  0.1800E+03  0.1800E+03
     -8.389  0.0000E+00  0.0000E+00  0.1800E+03  0.1800E+03
     -8.149  0.0000E+00  0.0000E+00  0.1800E+03  0.1800E+03
     -7.909  0.2269E-02  0.0000E+00  0.1800E+03  0.1800E+03
     -7.670  0.9411E+01  0.1697E-01  0.1823E+03  0.1800E+03
     -7.430  0.2311E+02  0.1199E+02  0.1878E+03  0.1829E+03
     -7.191  0.5574E+02  0.2860E+02  0.2011E+03  0.1897E+03
     -6.951  0.5800E+02  0.5990E+02  0.2150E+03  0.2041E+03
     -6.712  0.3986E+01  0.4643E+02  0.2160E+03  0.2152E+03
     -6.472  0.0000E+00  0.3323E+01  0.2160E+03  0.2160E+03
     -6.232  0.0000E+00  0.0000E+00  0.2160E+03  0.2160E+03
     -5.993  0.0000E+00  0.0000E+00  0.2160E+03  0.2160E+03
     -5.753  0.0000E+00  0.0000E+00  0.2160E+03  0.2160E+03
     -5.514  0.0000E+00  0.0000E+00  0.2160E+03  0.2160E+03
     -5.274  0.0000E+00  0.0000E+00  0.2160E+03  0.2160E+03
     -5.034  0.0000E+00  0.0000E+00  0.2160E+03  0.2160E+03
     -4.795  0.0000E+00  0.0000E+00  0.2160E+03  0.2160E+03
     -4.555  0.0000E+00  0.0000E+00  0.2160E+03  0.2160E+03
     -4.316  0.0000E+00  0.0000E+00  0.2160E+03  0.2160E+03
     -4.076  0.0000E+00  0.0000E+00  0.2160E+03  0.2160E+03
     -3.836  0.0000E+00  0.0000E+00  0.2160E+03  0.2160E+03
     -3.597  0.0000E+00  0.0000E+00  0.2160E+03  0.2160E+03
     -3.357  0.0000E+00  0.0000E+00  0.2160E+03  0.2160E+03
     -3.118  0.0000E+00  0.0000E+00  0.2160E+03  0.2160E+03
     -2.878  0.1614E-13  0.0000E+00  0.2160E+03  0.2160E+03
     -2.638  0.8372E+00  0.0000E+00  0.2162E+03  0.2160E+03
     -2.399  0.1030E+02  0.0000E+00  0.2187E+03  0.2160E+03
     -2.159  0.2047E+02  0.0000E+00  0.2236E+03  0.2160E+03
     -1.920  0.1868E+01  0.0000E+00  0.2240E+03  0.2160E+03
     -1.680  0.3457E+02  0.0000E+00  0.2323E+03  0.2160E+03
     -1.440  0.1951E+02  0.4376E-15  0.2370E+03  0.2160E+03
     -1.201  0.4421E+02  0.8626E-01  0.2476E+03  0.2160E+03
     -0.961  0.4962E+02  0.4412E+01  0.2595E+03  0.2171E+03
     -0.722  0.7500E+02  0.1408E+02  0.2774E+03  0.2205E+03
     -0.482  0.1033E+03  0.1531E+02  0.3022E+03  0.2241E+03
     -0.242  0.8551E+02  0.1956E+02  0.3227E+03  0.2288E+03
     -0.003  0.1105E+03  0.4126E+02  0.3491E+03  0.2387E+03
      0.237  0.6979E+02  0.3395E+02  0.3658E+03  0.2468E+03
      0.476  0.3825E+02  0.4212E+02  0.3750E+03  0.2569E+03
      0.716  0.4570E+02  0.3373E+02  0.3860E+03  0.2650E+03
      0.956  0.4868E+02  0.5294E+02  0.3976E+03  0.2777E+03
      1.195  0.5552E+02  0.6045E+02  0.4109E+03  0.2922E+03
      1.435  0.6432E+02  0.4442E+02  0.4263E+03  0.3028E+03
      1.674  0.1008E+03  0.4008E+02  0.4505E+03  0.3124E+03
      1.914  0.5251E+02  0.3845E+02  0.4631E+03  0.3216E+03
      2.154  0.3878E+02  0.3739E+02  0.4724E+03  0.3306E+03
      2.393  0.4653E+02  0.3828E+02  0.4835E+03  0.3398E+03
      2.633  0.4784E+02  0.4940E+02  0.4950E+03  0.3516E+03
      2.872  0.4350E+02  0.6291E+02  0.5054E+03  0.3667E+03
      3.112  0.4015E+02  0.5879E+02  0.5150E+03  0.3808E+03
      3.352  0.4744E+02  0.4794E+02  0.5264E+03  0.3922E+03
      3.591  0.5251E+02  0.2994E+02  0.5390E+03  0.3994E+03
      3.831  0.4542E+02  0.6130E+02  0.5498E+03  0.4141E+03
      4.070  0.3198E+02  0.7335E+02  0.5575E+03  0.4317E+03
      4.310  0.4243E+02  0.1373E+01  0.5677E+03  0.4320E+03
      4.550  0.2361E+02  0.0000E+00  0.5733E+03  0.4320E+03
      4.789  0.1023E+02  0.0000E+00  0.5758E+03  0.4320E+03
      5.029  0.9000E+00  0.0000E+00  0.5760E+03  0.4320E+03
      5.268  0.0000E+00  0.0000E+00  0.5760E+03  0.4320E+03
      5.508  0.0000E+00  0.0000E+00  0.5760E+03  0.4320E+03
      5.748  0.0000E+00  0.0000E+00  0.5760E+03  0.4320E+03
      5.987  0.0000E+00  0.4875E-11  0.5760E+03  0.4320E+03
      6.227  0.0000E+00  0.1437E+00  0.5760E+03  0.4320E+03
      6.466  0.0000E+00  0.8135E+01  0.5760E+03  0.4340E+03
      6.706  0.0000E+00  0.3024E+02  0.5760E+03  0.4412E+03
      6.946  0.7326E-12  0.4340E+02  0.5760E+03  0.4516E+03
      7.185  0.1071E+00  0.7318E+02  0.5760E+03  0.4692E+03
      7.425  0.1311E+00  0.8083E+02  0.5761E+03  0.4885E+03
      7.664  0.8933E+00  0.6538E+02  0.5763E+03  0.5042E+03
      7.904  0.3500E+01  0.8790E+02  0.5771E+03  0.5253E+03
      8.144  0.4267E+01  0.7131E+02  0.5781E+03  0.5423E+03
      8.383  0.7032E+01  0.5444E+02  0.5798E+03  0.5554E+03
      8.623  0.1636E+02  0.3720E+02  0.5837E+03  0.5643E+03
      8.862  0.2528E+02  0.3918E+02  0.5898E+03  0.5737E+03
      9.102  0.1924E+02  0.1938E+02  0.5944E+03  0.5783E+03
      9.341  0.2537E+02  0.1389E+02  0.6005E+03  0.5817E+03
      9.581  0.3123E+02  0.2059E+02  0.6080E+03  0.5866E+03
      9.821  0.2662E+02  0.3000E+02  0.6143E+03  0.5938E+03
     10.060  0.2967E+02  0.2654E+02  0.6215E+03  0.6001E+03
     10.300  0.2276E+02  0.3471E+02  0.6269E+03  0.6085E+03
     10.539  0.2038E+02  0.3546E+02  0.6318E+03  0.6170E+03
     10.779  0.2852E+02  0.2796E+02  0.6386E+03  0.6236E+03
     11.019  0.3898E+02  0.2243E+02  0.6480E+03  0.6290E+03
     11.258  0.3939E+02  0.2157E+02  0.6574E+03  0.6342E+03
     11.498  0.3727E+02  0.3230E+02  0.6663E+03  0.6419E+03
     11.737  0.4484E+02  0.3875E+02  0.6771E+03  0.6512E+03
     11.977  0.3851E+02  0.4258E+02  0.6863E+03  0.6614E+03
     12.217  0.3855E+02  0.5196E+02  0.6955E+03  0.6739E+03
     12.456  0.3988E+02  0.4681E+02  0.7051E+03  0.6851E+03
     12.696  0.3654E+02  0.3598E+02  0.7138E+03  0.6937E+03
     12.935  0.3440E+02  0.4127E+02  0.7221E+03  0.7036E+03
     13.175  0.2286E+02  0.3975E+02  0.7276E+03  0.7131E+03
     13.415  0.1814E+01  0.3421E+02  0.7280E+03  0.7213E+03
     13.654  0.0000E+00  0.2404E+02  0.7280E+03  0.7271E+03
     13.894  0.0000E+00  0.3878E+01  0.7280E+03  0.7280E+03
     14.133  0.0000E+00  0.3742E-05  0.7280E+03  0.7280E+03
     14.373  0.0000E+00  0.0000E+00  0.7280E+03  0.7280E+03
     14.613  0.0000E+00  0.0000E+00  0.7280E+03  0.7280E+03
     14.852  0.0000E+00  0.0000E+00  0.7280E+03  0.7280E+03
     15.092  0.0000E+00  0.0000E+00  0.7280E+03  0.7280E+03
     15.331  0.0000E+00  0.0000E+00  0.7280E+03  0.7280E+03
     15.571  0.0000E+00  0.0000E+00  0.7280E+03  0.7280E+03
     15.811  0.0000E+00  0.0000E+00  0.7280E+03  0.7280E+03
     16.050  0.0000E+00  0.0000E+00  0.7280E+03  0.7280E+03
     16.290  0.0000E+00  0.0000E+00  0.7280E+03  0.7280E+03
     16.529  0.0000E+00  0.0000E+00  0.7280E+03  0.7280E+03
     16.769  0.0000E+00  0.0000E+00  0.7280E+03  0.7280E+03
     17.009  0.0000E+00  0.0000E+00  0.7280E+03  0.7280E+03
