  224  224    1    2
  0.1357572E+02  0.1537960E-08  0.1537962E-08  0.1395899E-08  0.5000000E-15
  1.000000000000000E-004
  CAR 
 unknown system                          
   1664      8   1208
 
  0.0000000E+00  0.0000000E+00  0.0000000E+00  0.1250000E+00
    1      -51.142975    -46.392238   1.000000   1.000000
    2      -51.142734    -46.391829   1.000000   1.000000
    3      -51.142537    -46.391573   1.000000   1.000000
    4      -51.142152    -46.391109   1.000000   1.000000
    5      -51.141983    -46.390957   1.000000   1.000000
    6      -51.141610    -46.390926   1.000000   1.000000
    7      -51.141401    -46.390637   1.000000   1.000000
    8      -51.141322    -46.390561   1.000000   1.000000
    9      -51.141244    -46.390454   1.000000   1.000000
   10      -51.141181    -46.390438   1.000000   1.000000
   11      -51.141162    -46.390316   1.000000   1.000000
   12      -51.141085    -46.390243   1.000000   1.000000
   13      -51.141034    -46.390219   1.000000   1.000000
   14      -51.140959    -46.390079   1.000000   1.000000
   15      -51.140917    -46.390047   1.000000   1.000000
   16      -51.140888    -46.389985   1.000000   1.000000
   17      -51.140831    -46.389945   1.000000   1.000000
   18      -51.140822    -46.389873   1.000000   1.000000
   19      -51.140776    -46.389759   1.000000   1.000000
   20      -51.140730    -46.389747   1.000000   1.000000
   21      -51.140696    -46.389677   1.000000   1.000000
   22      -51.140647    -46.389625   1.000000   1.000000
   23      -51.140582    -46.389594   1.000000   1.000000
   24      -51.140547    -46.389577   1.000000   1.000000
   25      -51.140543    -46.389518   1.000000   1.000000
   26      -51.140502    -46.389484   1.000000   1.000000
   27      -51.140477    -46.389461   1.000000   1.000000
   28      -51.140436    -46.389460   1.000000   1.000000
   29      -51.140424    -46.389389   1.000000   1.000000
   30      -51.140404    -46.389305   1.000000   1.000000
   31      -51.140341    -46.389249   1.000000   1.000000
   32      -51.140288    -46.389242   1.000000   1.000000
   33      -51.140277    -46.389177   1.000000   1.000000
   34      -51.140254    -46.389147   1.000000   1.000000
   35      -51.140235    -46.389088   1.000000   1.000000
   36      -51.140199    -46.388987   1.000000   1.000000
   37      -51.140170    -46.388944   1.000000   1.000000
   38      -51.140162    -46.388916   1.000000   1.000000
   39      -51.140136    -46.388886   1.000000   1.000000
   40      -51.140133    -46.388862   1.000000   1.000000
   41      -51.140115    -46.388853   1.000000   1.000000
   42      -51.140018    -46.388847   1.000000   1.000000
   43      -51.139997    -46.388755   1.000000   1.000000
   44      -51.139953    -46.388722   1.000000   1.000000
   45      -51.139880    -46.388673   1.000000   1.000000
   46      -51.139845    -46.388575   1.000000   1.000000
   47      -51.139817    -46.388562   1.000000   1.000000
   48      -51.139808    -46.388523   1.000000   1.000000
   49      -51.139776    -46.388488   1.000000   1.000000
   50      -51.139721    -46.388417   1.000000   1.000000
   51      -51.139698    -46.388376   1.000000   1.000000
   52      -51.139654    -46.388313   1.000000   1.000000
   53      -51.139595    -46.388283   1.000000   1.000000
   54      -51.139579    -46.388228   1.000000   1.000000
   55      -51.139541    -46.388139   1.000000   1.000000
   56      -51.139421    -46.388043   1.000000   1.000000
   57      -51.139336    -46.387985   1.000000   1.000000
   58      -51.139289    -46.387909   1.000000   1.000000
   59      -51.139117    -46.387731   1.000000   1.000000
   60      -51.138656    -46.387426   1.000000   1.000000
   61      -51.138515    -46.387341   1.000000   1.000000
   62      -51.138279    -46.387026   1.000000   1.000000
   63      -51.138048    -46.386745   1.000000   1.000000
   64      -51.137836    -46.386428   1.000000   1.000000
   65      -49.649203    -45.930734   1.000000   1.000000
   66      -49.649143    -45.930325   1.000000   1.000000
   67      -49.648653    -45.930025   1.000000   1.000000
   68      -49.648486    -45.929847   1.000000   1.000000
   69      -49.648230    -45.929602   1.000000   1.000000
   70      -49.647683    -45.929512   1.000000   1.000000
   71      -49.647608    -45.929243   1.000000   1.000000
   72      -49.647566    -45.929219   1.000000   1.000000
   73      -49.647523    -45.929198   1.000000   1.000000
   74      -49.647499    -45.929038   1.000000   1.000000
   75      -49.647490    -45.928893   1.000000   1.000000
   76      -49.647380    -45.928783   1.000000   1.000000
   77      -49.647371    -45.928761   1.000000   1.000000
   78      -49.647354    -45.928745   1.000000   1.000000
   79      -49.647320    -45.928688   1.000000   1.000000
   80      -49.647315    -45.928649   1.000000   1.000000
   81      -49.647266    -45.928641   1.000000   1.000000
   82      -49.647250    -45.928611   1.000000   1.000000
   83      -49.647148    -45.928604   1.000000   1.000000
   84      -49.647090    -45.928584   1.000000   1.000000
   85      -49.647082    -45.928572   1.000000   1.000000
   86      -49.647031    -45.928543   1.000000   1.000000
   87      -49.647027    -45.928483   1.000000   1.000000
   88      -49.646987    -45.928475   1.000000   1.000000
   89      -49.646972    -45.928379   1.000000   1.000000
   90      -49.646920    -45.928363   1.000000   1.000000
   91      -49.646893    -45.928312   1.000000   1.000000
   92      -49.646869    -45.928277   1.000000   1.000000
   93      -49.646825    -45.928246   1.000000   1.000000
   94      -49.646794    -45.928217   1.000000   1.000000
   95      -49.646789    -45.928192   1.000000   1.000000
   96      -49.646788    -45.928179   1.000000   1.000000
   97      -49.646736    -45.928165   1.000000   1.000000
   98      -49.646687    -45.928142   1.000000   1.000000
   99      -49.646672    -45.928087   1.000000   1.000000
  100      -49.646616    -45.928054   1.000000   1.000000
  101      -49.646599    -45.928018   1.000000   1.000000
  102      -49.646564    -45.927976   1.000000   1.000000
  103      -49.646514    -45.927945   1.000000   1.000000
  104      -49.646462    -45.927930   1.000000   1.000000
  105      -49.646456    -45.927889   1.000000   1.000000
  106      -49.646439    -45.927886   1.000000   1.000000
  107      -49.646345    -45.927823   1.000000   1.000000
  108      -49.646333    -45.927803   1.000000   1.000000
  109      -49.646268    -45.927745   1.000000   1.000000
  110      -49.646244    -45.927671   1.000000   1.000000
  111      -49.646167    -45.927637   1.000000   1.000000
  112      -49.646131    -45.927609   1.000000   1.000000
  113      -49.646083    -45.927513   1.000000   1.000000
  114      -49.646054    -45.927457   1.000000   1.000000
  115      -49.646028    -45.927418   1.000000   1.000000
  116      -49.646014    -45.927404   1.000000   1.000000
  117      -49.645974    -45.927393   1.000000   1.000000
  118      -49.645939    -45.927365   1.000000   1.000000
  119      -49.645932    -45.927352   1.000000   1.000000
  120      -49.645870    -45.927346   1.000000   1.000000
  121      -49.645808    -45.927309   1.000000   1.000000
  122      -49.645785    -45.927255   1.000000   1.000000
  123      -49.645730    -45.927242   1.000000   1.000000
  124      -49.645705    -45.927237   1.000000   1.000000
  125      -49.645704    -45.927200   1.000000   1.000000
  126      -49.645659    -45.927168   1.000000   1.000000
  127      -49.645616    -45.927157   1.000000   1.000000
  128      -49.645598    -45.927151   1.000000   1.000000
  129      -49.645546    -45.927098   1.000000   1.000000
  130      -49.645539    -45.927081   1.000000   1.000000
  131      -49.645499    -45.927065   1.000000   1.000000
  132      -49.645435    -45.927059   1.000000   1.000000
  133      -49.645418    -45.927024   1.000000   1.000000
  134      -49.645412    -45.926995   1.000000   1.000000
  135      -49.645339    -45.926968   1.000000   1.000000
  136      -49.645321    -45.926962   1.000000   1.000000
  137      -49.645313    -45.926936   1.000000   1.000000
  138      -49.645300    -45.926910   1.000000   1.000000
  139      -49.645284    -45.926887   1.000000   1.000000
  140      -49.645235    -45.926862   1.000000   1.000000
  141      -49.645219    -45.926802   1.000000   1.000000
  142      -49.645213    -45.926784   1.000000   1.000000
  143      -49.645188    -45.926755   1.000000   1.000000
  144      -49.645157    -45.926738   1.000000   1.000000
  145      -49.645095    -45.926645   1.000000   1.000000
  146      -49.645080    -45.926621   1.000000   1.000000
  147      -49.645075    -45.926607   1.000000   1.000000
  148      -49.645065    -45.926584   1.000000   1.000000
  149      -49.645047    -45.926578   1.000000   1.000000
  150      -49.644957    -45.926549   1.000000   1.000000
  151      -49.644942    -45.926543   1.000000   1.000000
  152      -49.644886    -45.926525   1.000000   1.000000
  153      -49.644863    -45.926493   1.000000   1.000000
  154      -49.644803    -45.926466   1.000000   1.000000
  155      -49.644778    -45.926454   1.000000   1.000000
  156      -49.644773    -45.926447   1.000000   1.000000
  157      -49.644754    -45.926432   1.000000   1.000000
  158      -49.644715    -45.926416   1.000000   1.000000
  159      -49.644637    -45.926407   1.000000   1.000000
  160      -49.644597    -45.926387   1.000000   1.000000
  161      -49.644555    -45.926382   1.000000   1.000000
  162      -49.644517    -45.926357   1.000000   1.000000
  163      -49.644476    -45.926335   1.000000   1.000000
  164      -49.644465    -45.926322   1.000000   1.000000
  165      -49.644440    -45.926302   1.000000   1.000000
  166      -49.644396    -45.926186   1.000000   1.000000
  167      -49.644365    -45.926171   1.000000   1.000000
  168      -49.644361    -45.926141   1.000000   1.000000
  169      -49.644316    -45.926134   1.000000   1.000000
  170      -49.644227    -45.926074   1.000000   1.000000
  171      -49.644220    -45.926037   1.000000   1.000000
  172      -49.644175    -45.925999   1.000000   1.000000
  173      -49.644124    -45.925987   1.000000   1.000000
  174      -49.644076    -45.925901   1.000000   1.000000
  175      -49.644061    -45.925839   1.000000   1.000000
  176      -49.644021    -45.925824   1.000000   1.000000
  177      -49.643987    -45.925790   1.000000   1.000000
  178      -49.643968    -45.925779   1.000000   1.000000
  179      -49.643934    -45.925703   1.000000   1.000000
  180      -49.643878    -45.925593   1.000000   1.000000
  181      -49.643855    -45.925565   1.000000   1.000000
  182      -49.643680    -45.925538   1.000000   1.000000
  183      -49.643664    -45.925456   1.000000   1.000000
  184      -49.643570    -45.925400   1.000000   1.000000
  185      -49.643551    -45.925339   1.000000   1.000000
  186      -49.643518    -45.925174   1.000000   1.000000
  187      -49.643274    -45.925042   1.000000   1.000000
  188      -49.643174    -45.924958   1.000000   1.000000
  189      -49.642821    -45.924619   1.000000   1.000000
  190      -49.642641    -45.924452   1.000000   1.000000
  191      -49.642044    -45.924250   1.000000   1.000000
  192      -49.641747    -45.924104   1.000000   1.000000
  193      -39.641189    -39.640273   1.000000   1.000000
  194      -39.641060    -39.640143   1.000000   1.000000
  195      -39.634090    -39.633224   1.000000   1.000000
  196      -39.633537    -39.632665   1.000000   1.000000
  197      -39.633470    -39.632598   1.000000   1.000000
  198      -39.633425    -39.632553   1.000000   1.000000
  199      -39.633416    -39.632544   1.000000   1.000000
  200      -39.633400    -39.632527   1.000000   1.000000
  201      -39.633338    -39.632465   1.000000   1.000000
  202      -39.632868    -39.631994   1.000000   1.000000
  203      -39.628155    -39.627322   1.000000   1.000000
  204      -39.627925    -39.627087   1.000000   1.000000
  205      -39.627865    -39.627027   1.000000   1.000000
  206      -39.627777    -39.626939   1.000000   1.000000
  207      -39.627752    -39.626915   1.000000   1.000000
  208      -39.627653    -39.626816   1.000000   1.000000
  209      -39.627541    -39.626704   1.000000   1.000000
  210      -39.627307    -39.626465   1.000000   1.000000
  211      -39.616982    -39.616222   1.000000   1.000000
  212      -39.616541    -39.615768   1.000000   1.000000
  213      -39.616062    -39.615286   1.000000   1.000000
  214      -39.616048    -39.615271   1.000000   1.000000
  215      -39.616039    -39.615261   1.000000   1.000000
  216      -39.615742    -39.614964   1.000000   1.000000
  217      -39.615670    -39.614895   1.000000   1.000000
  218      -39.615606    -39.614835   1.000000   1.000000
  219      -39.615570    -39.614792   1.000000   1.000000
  220      -39.615266    -39.614497   1.000000   1.000000
  221      -39.615255    -39.614486   1.000000   1.000000
  222      -39.615239    -39.614472   1.000000   1.000000
  223      -39.615232    -39.614465   1.000000   1.000000
  224      -39.615206    -39.614438   1.000000   1.000000
  225      -39.615141    -39.614372   1.000000   1.000000
  226      -39.615054    -39.614288   1.000000   1.000000
  227      -39.615036    -39.614269   1.000000   1.000000
  228      -39.615018    -39.614250   1.000000   1.000000
  229      -39.614965    -39.614197   1.000000   1.000000
  230      -39.614928    -39.614159   1.000000   1.000000
  231      -39.614914    -39.614147   1.000000   1.000000
  232      -39.614847    -39.614079   1.000000   1.000000
  233      -39.614754    -39.613987   1.000000   1.000000
  234      -39.614494    -39.613726   1.000000   1.000000
  235      -39.614259    -39.613500   1.000000   1.000000
  236      -39.614252    -39.613495   1.000000   1.000000
  237      -39.613692    -39.612931   1.000000   1.000000
  238      -39.613096    -39.612322   1.000000   1.000000
  239      -39.604291    -39.603576   1.000000   1.000000
  240      -39.603990    -39.603271   1.000000   1.000000
  241      -39.603931    -39.603212   1.000000   1.000000
  242      -39.603836    -39.603118   1.000000   1.000000
  243      -39.603805    -39.603087   1.000000   1.000000
  244      -39.603722    -39.603004   1.000000   1.000000
  245      -39.603673    -39.602954   1.000000   1.000000
  246      -39.603433    -39.602710   1.000000   1.000000
  247      -39.600041    -39.599337   1.000000   1.000000
  248      -39.599629    -39.598924   1.000000   1.000000
  249      -39.599562    -39.598857   1.000000   1.000000
  250      -39.599540    -39.598835   1.000000   1.000000
  251      -39.599527    -39.598821   1.000000   1.000000
  252      -39.599503    -39.598798   1.000000   1.000000
  253      -39.599368    -39.598663   1.000000   1.000000
  254      -39.598835    -39.598123   1.000000   1.000000
  255      -39.593293    -39.592611   1.000000   1.000000
  256      -39.593100    -39.592416   1.000000   1.000000
  257      -12.747210    -12.467740   1.000000   1.000000
  258      -12.747199    -12.467728   1.000000   1.000000
  259      -12.719666    -12.439917   1.000000   1.000000
  260      -12.719425    -12.439664   1.000000   1.000000
  261      -12.719346    -12.439595   1.000000   1.000000
  262      -12.719337    -12.439581   1.000000   1.000000
  263      -12.719325    -12.439574   1.000000   1.000000
  264      -12.719323    -12.439572   1.000000   1.000000
  265      -12.719232    -12.439489   1.000000   1.000000
  266      -12.718987    -12.439232   1.000000   1.000000
  267      -12.697183    -12.417011   1.000000   1.000000
  268      -12.697176    -12.417003   1.000000   1.000000
  269      -12.694773    -12.415163   1.000000   1.000000
  270      -12.694770    -12.415162   1.000000   1.000000
  271      -12.694747    -12.415139   1.000000   1.000000
  272      -12.694745    -12.415137   1.000000   1.000000
  273      -12.692384    -12.413316   1.000000   1.000000
  274      -12.692357    -12.413309   1.000000   1.000000
  275      -12.691263    -12.411231   1.000000   1.000000
  276      -12.691260    -12.411229   1.000000   1.000000
  277      -12.691240    -12.411207   1.000000   1.000000
  278      -12.691143    -12.411130   1.000000   1.000000
  279      -12.672857    -12.392836   1.000000   1.000000
  280      -12.672696    -12.392685   1.000000   1.000000
  281      -12.672640    -12.392628   1.000000   1.000000
  282      -12.672464    -12.392449   1.000000   1.000000
  283      -12.667782    -12.388882   1.000000   1.000000
  284      -12.667628    -12.388742   1.000000   1.000000
  285      -12.667573    -12.388687   1.000000   1.000000
  286      -12.667391    -12.388497   1.000000   1.000000
  287      -12.654515    -12.374562   1.000000   1.000000
  288      -12.643741    -12.366016   1.000000   1.000000
  289       -7.800035     -7.599035   1.000000   1.000000
  290       -7.748243     -7.551521   1.000000   1.000000
  291       -7.506286     -7.319949   1.000000   1.000000
  292       -7.505379     -7.319126   1.000000   1.000000
  293       -7.505341     -7.319087   1.000000   1.000000
  294       -7.504707     -7.318394   1.000000   1.000000
  295       -7.501612     -7.309533   1.000000   1.000000
  296       -7.500959     -7.308817   1.000000   1.000000
  297       -7.500912     -7.308771   1.000000   1.000000
  298       -7.500052     -7.307981   1.000000   1.000000
  299       -7.315216     -7.117762   1.000000   1.000000
  300       -7.315150     -7.117683   1.000000   1.000000
  301       -7.296886     -7.093621   1.000000   1.000000
  302       -7.296828     -7.093545   1.000000   1.000000
  303       -7.296793     -7.093509   1.000000   1.000000
  304       -7.296747     -7.093452   1.000000   1.000000
  305       -7.269259     -7.061971   1.000000   1.000000
  306       -7.269187     -7.061882   1.000000   1.000000
  307       -7.088764     -6.893895   1.000000   1.000000
  308       -7.084683     -6.893864   1.000000   1.000000
  309       -7.084664     -6.893851   1.000000   1.000000
  310       -7.084648     -6.893799   1.000000   1.000000
  311       -7.084549     -6.796771   1.000000   1.000000
  312       -7.046589     -6.783864   1.000000   1.000000
  313       -7.001306     -6.768850   1.000000   1.000000
  314       -6.999981     -6.767980   1.000000   1.000000
  315       -6.999908     -6.767927   1.000000   1.000000
  316       -6.999789     -6.767881   1.000000   1.000000
  317       -6.999763     -6.766874   1.000000   1.000000
  318       -6.999736     -6.766218   1.000000   1.000000
  319       -6.999625     -6.766146   1.000000   1.000000
  320       -6.998487     -6.766095   1.000000   1.000000
  321       -6.994864     -6.766052   1.000000   1.000000
  322       -6.994160     -6.766030   1.000000   1.000000
  323       -6.994028     -6.765914   1.000000   1.000000
  324       -6.993354     -6.764485   1.000000   1.000000
  325       -6.955828     -6.745584   1.000000   1.000000
  326       -6.955787     -6.744879   1.000000   1.000000
  327       -6.955773     -6.744843   1.000000   1.000000
  328       -6.955728     -6.744102   1.000000   1.000000
  329       -6.948343     -6.697499   1.000000   1.000000
  330       -6.948261     -6.697475   1.000000   1.000000
  331       -6.929350     -6.689788   1.000000   1.000000
  332       -6.928650     -6.689085   1.000000   1.000000
  333       -6.928596     -6.689044   1.000000   1.000000
  334       -6.927806     -6.688278   1.000000   1.000000
  335       -6.911319     -6.640763   1.000000   1.000000
  336       -6.911281     -6.639696   1.000000   1.000000
  337       -6.885743     -6.639206   1.000000   1.000000
  338       -6.885726     -6.639070   1.000000   1.000000
  339       -6.885641     -6.639059   1.000000   1.000000
  340       -6.885636     -6.638995   1.000000   1.000000
  341       -6.878090     -6.638918   1.000000   1.000000
  342       -6.876957     -6.638602   1.000000   1.000000
  343       -6.876842     -6.638366   1.000000   1.000000
  344       -6.876803     -6.638361   1.000000   1.000000
  345       -6.876786     -6.637623   1.000000   1.000000
  346       -6.876685     -6.637045   1.000000   1.000000
  347       -6.876647     -6.628068   1.000000   1.000000
  348       -6.875238     -6.627884   1.000000   1.000000
  349       -6.832578     -6.586613   1.000000   1.000000
  350       -6.832547     -6.586592   1.000000   1.000000
  351       -6.794269     -6.499090   1.000000   1.000000
  352       -6.794205     -6.499047   1.000000   1.000000
  353       -1.525515     -0.414592   1.000000   1.000000
  354       -1.467957     -0.414569   1.000000   1.000000
  355       -1.467680     -0.414462   1.000000   1.000000
  356       -1.467579     -0.414440   1.000000   1.000000
  357       -1.467478      0.026159   1.000000   1.000000
  358       -1.460313      0.026299   1.000000   1.000000
  359       -1.460288      0.026412   1.000000   1.000000
  360       -1.460191      0.026566   1.000000   1.000000
  361       -1.460175      0.037453   1.000000   1.000000
  362       -1.421394      0.037845   1.000000   1.000000
  363       -1.421322      0.038010   1.000000   1.000000
  364       -1.382803      0.038060   1.000000   1.000000
  365       -1.382792      0.038121   1.000000   1.000000
  366       -1.382752      0.038123   1.000000   1.000000
  367       -1.382740      0.038289   1.000000   1.000000
  368       -1.332814      0.038542   1.000000   1.000000
  369       -1.332769      0.102883   1.000000   1.000000
  370       -1.332558      0.102926   1.000000   1.000000
  371       -1.332517      0.207535   1.000000   1.000000
  372       -1.332471      0.207536   1.000000   1.000000
  373       -1.332428      0.207545   1.000000   1.000000
  374       -1.332223      0.207575   1.000000   1.000000
  375       -1.332166      0.304166   1.000000   1.000000
  376       -1.292745      0.392401   1.000000   1.000000
  377       -1.292509      0.392532   1.000000   1.000000
  378       -1.292363      0.392679   1.000000   1.000000
  379       -1.292268      0.392773   1.000000   1.000000
  380       -1.256790      0.490880   1.000000   1.000000
  381       -1.256780      0.490904   1.000000   1.000000
  382       -1.232201      0.497343   1.000000   1.000000
  383       -1.232123      0.497662   1.000000   1.000000
  384       -1.220378      0.497743   1.000000   1.000000
  385       -0.822762      0.498015   1.000000   1.000000
  386       -0.822742      0.510645   1.000000   1.000000
  387       -0.822681      0.510695   1.000000   1.000000
  388       -0.822602      0.531192   1.000000   1.000000
  389       -0.722694      0.531218   1.000000   1.000000
  390       -0.722611      0.531279   1.000000   1.000000
  391       -0.699169      0.531290   1.000000   1.000000
  392       -0.699106      0.573455   1.000000   1.000000
  393       -0.698983      0.574175   1.000000   1.000000
  394       -0.698889      0.574318   1.000000   1.000000
  395       -0.688471      0.574370   1.000000   1.000000
  396       -0.688438      0.574438   1.000000   1.000000
  397       -0.688239      0.574460   1.000000   1.000000
  398       -0.688102      0.574550   1.000000   1.000000
  399       -0.666821      0.575342   1.000000   1.000000
  400       -0.666648      0.638616   1.000000   1.000000
  401       -0.666531      0.666296   1.000000   1.000000
  402       -0.666275      0.666346   1.000000   1.000000
  403       -0.652028      0.733085   1.000000   1.000000
  404       -0.651894      0.733107   1.000000   1.000000
  405       -0.651765      0.931374   1.000000   1.000000
  406       -0.651648      0.932539   1.000000   1.000000
  407       -0.589436      0.935588   1.000000   1.000000
  408       -0.589386      0.935652   1.000000   1.000000
  409       -0.576596      0.948829   1.000000   1.000000
  410       -0.576583      0.948886   1.000000   1.000000
  411       -0.576494      0.949026   1.000000   1.000000
  412       -0.576480      0.949092   1.000000   1.000000
  413       -0.553577      0.986130   1.000000   1.000000
  414       -0.553251      0.986166   1.000000   1.000000
  415       -0.553038      0.986240   1.000000   1.000000
  416       -0.552967      0.986280   1.000000   1.000000
  417       -0.497624      0.992788   1.000000   1.000000
  418       -0.496874      0.992987   1.000000   1.000000
  419       -0.472905      1.008868   1.000000   1.000000
  420       -0.472679      1.008939   1.000000   1.000000
  421       -0.461677      1.008954   1.000000   1.000000
  422       -0.461431      1.009009   1.000000   1.000000
  423       -0.461261      1.018473   1.000000   1.000000
  424       -0.461179      1.049063   1.000000   1.000000
  425       -0.459866      1.049115   1.000000   1.000000
  426       -0.459606      1.051602   1.000000   1.000000
  427       -0.459388      1.051663   1.000000   1.000000
  428       -0.459304      1.051864   1.000000   1.000000
  429       -0.410056      1.051899   1.000000   1.000000
  430       -0.409953      1.078608   1.000000   1.000000
  431       -0.407641      1.078658   1.000000   1.000000
  432       -0.407572      1.078870   1.000000   1.000000
  433       -0.407446      1.078980   1.000000   1.000000
  434       -0.407405      1.079827   1.000000   1.000000
  435       -0.407368      1.079883   1.000000   1.000000
  436       -0.407313      1.079963   1.000000   1.000000
  437       -0.383305      1.079997   1.000000   1.000000
  438       -0.383263      1.192847   1.000000   1.000000
  439       -0.378174      1.192882   1.000000   1.000000
  440       -0.369212      1.376460   1.000000   1.000000
  441       -0.368916      1.390361   1.000000   1.000000
  442       -0.368775      1.391020   1.000000   1.000000
  443       -0.368762      1.391238   1.000000   1.000000
  444       -0.368680      1.391321   1.000000   1.000000
  445       -0.368664      1.391536   1.000000   1.000000
  446       -0.368459      1.437311   1.000000   1.000000
  447       -0.368185      1.450206   1.000000   1.000000
  448       -0.353536      1.526323   1.000000   1.000000
  449       -0.353527      1.526349   1.000000   1.000000
  450       -0.349045      1.526383   1.000000   1.000000
  451       -0.341785      1.526523   1.000000   1.000000
  452       -0.335799      1.528859   1.000000   1.000000
  453       -0.335771      1.528904   1.000000   1.000000
  454       -0.335463      1.528971   1.000000   1.000000
  455       -0.335344      1.529031   1.000000   1.000000
  456       -0.334225      1.558241   1.000000   1.000000
  457       -0.334191      1.558320   1.000000   1.000000
  458       -0.334035      1.558344   1.000000   1.000000
  459       -0.333998      1.558355   1.000000   1.000000
  460       -0.324271      1.566526   1.000000   1.000000
  461       -0.324241      1.566693   1.000000   1.000000
  462       -0.323938      1.566909   1.000000   1.000000
  463       -0.323813      1.567188   1.000000   1.000000
  464       -0.321641      1.568113   1.000000   1.000000
  465       -0.321635      1.568262   1.000000   1.000000
  466       -0.321234      1.568378   1.000000   1.000000
  467       -0.321033      1.568834   1.000000   1.000000
  468       -0.303828      1.586614   1.000000   1.000000
  469       -0.295900      1.586662   1.000000   1.000000
  470       -0.288055      1.695667   1.000000   1.000000
  471       -0.287917      1.695768   1.000000   1.000000
  472       -0.287736      1.740890   1.000000   1.000000
  473       -0.287687      1.740922   1.000000   1.000000
  474       -0.280407      1.741168   1.000000   1.000000
  475       -0.280357      1.741369   1.000000   1.000000
  476       -0.275068      1.746855   1.000000   1.000000
  477       -0.275034      1.746868   1.000000   1.000000
  478       -0.274824      1.746895   1.000000   1.000000
  479       -0.274809      1.746908   1.000000   1.000000
  480       -0.241777      1.779031   1.000000   1.000000
  481       -0.241749      1.780611   1.000000   1.000000
  482       -0.241556      1.780651   1.000000   1.000000
  483       -0.241504      1.836481   1.000000   1.000000
  484       -0.241389      1.836889   1.000000   1.000000
  485       -0.241360      1.837260   1.000000   1.000000
  486       -0.241275      1.837503   1.000000   1.000000
  487       -0.241029      1.837763   1.000000   1.000000
  488       -0.207391      1.838119   1.000000   1.000000
  489       -0.207385      1.838427   1.000000   1.000000
  490       -0.199636      1.838470   1.000000   1.000000
  491       -0.199599      1.866211   1.000000   1.000000
  492       -0.199508      1.866414   1.000000   1.000000
  493       -0.199485      1.913337   1.000000   1.000000
  494       -0.194077      1.913399   1.000000   1.000000
  495       -0.193937      1.913492   1.000000   1.000000
  496       -0.164146      1.913544   1.000000   1.000000
  497       -0.163845      1.913628   1.000000   1.000000
  498       -0.163778      1.913665   1.000000   1.000000
  499       -0.163730      1.913713   1.000000   1.000000
  500       -0.156813      1.913849   1.000000   1.000000
  501       -0.156410      1.926908   1.000000   1.000000
  502       -0.156181      1.927029   1.000000   1.000000
  503       -0.156124      1.927059   1.000000   1.000000
  504       -0.139049      1.927136   1.000000   1.000000
  505       -0.139018      2.133208   1.000000   1.000000
  506       -0.138854      2.133288   1.000000   1.000000
  507       -0.138786      2.191256   1.000000   1.000000
  508       -0.091021      2.193184   1.000000   1.000000
  509       -0.090896      2.300570   1.000000   1.000000
  510       -0.082647      2.300791   1.000000   1.000000
  511       -0.082527      2.300982   1.000000   1.000000
  512       -0.082464      2.301467   1.000000   1.000000