 144 144   0   0
  0.1325381E+02  0.1546422E-08  0.1214491E-08  0.1054520E-08  0.5000000E-15
  1.000000000000000E-004
  CAR 
 unknown system                          
     16.99234469    -54.87110168  301      5.07498983      1.00000000
    -54.871  0.0000E+00  0.0000E+00  0.0000E+00  0.0000E+00
    -54.632  0.0000E+00  0.0000E+00  0.0000E+00  0.0000E+00
    -54.392  0.0000E+00  0.0000E+00  0.0000E+00  0.0000E+00
    -54.152  0.0000E+00  0.0000E+00  0.0000E+00  0.0000E+00
    -53.913  0.0000E+00  0.0000E+00  0.0000E+00  0.0000E+00
    -53.673  0.0000E+00  0.0000E+00  0.0000E+00  0.0000E+00
    -53.434  0.0000E+00  0.0000E+00  0.0000E+00  0.0000E+00
    -53.194  0.0000E+00  0.0000E+00  0.0000E+00  0.0000E+00
    -52.955  0.0000E+00  0.0000E+00  0.0000E+00  0.0000E+00
    -52.715  0.0000E+00  0.0000E+00  0.0000E+00  0.0000E+00
    -52.476  0.0000E+00  0.0000E+00  0.0000E+00  0.0000E+00
    -52.236  0.0000E+00  0.0000E+00  0.0000E+00  0.0000E+00
    -51.997  0.0000E+00  0.0000E+00  0.0000E+00  0.0000E+00
    -51.757  0.3185E-03  0.0000E+00  0.7629E-04  0.0000E+00
    -51.517  0.4981E+02  0.0000E+00  0.1193E+02  0.0000E+00
    -51.278  0.8594E+02  0.0000E+00  0.3252E+02  0.0000E+00
    -51.038  0.1453E+02  0.0000E+00  0.3600E+02  0.0000E+00
    -50.799  0.0000E+00  0.0000E+00  0.3600E+02  0.0000E+00
    -50.559  0.0000E+00  0.0000E+00  0.3600E+02  0.0000E+00
    -50.320  0.1094E-03  0.0000E+00  0.3600E+02  0.0000E+00
    -50.080  0.6649E+02  0.0000E+00  0.5193E+02  0.0000E+00
    -49.841  0.2081E+03  0.0000E+00  0.1018E+03  0.0000E+00
    -49.601  0.2598E+02  0.0000E+00  0.1080E+03  0.0000E+00
    -49.362  0.0000E+00  0.0000E+00  0.1080E+03  0.0000E+00
    -49.122  0.0000E+00  0.0000E+00  0.1080E+03  0.0000E+00
    -48.882  0.0000E+00  0.0000E+00  0.1080E+03  0.0000E+00
    -48.643  0.0000E+00  0.0000E+00  0.1080E+03  0.0000E+00
    -48.403  0.0000E+00  0.0000E+00  0.1080E+03  0.0000E+00
    -48.164  0.0000E+00  0.0000E+00  0.1080E+03  0.0000E+00
    -47.924  0.0000E+00  0.0000E+00  0.1080E+03  0.0000E+00
    -47.685  0.0000E+00  0.0000E+00  0.1080E+03  0.0000E+00
    -47.445  0.0000E+00  0.0000E+00  0.1080E+03  0.0000E+00
    -47.206  0.0000E+00  0.0000E+00  0.1080E+03  0.0000E+00
    -46.966  0.0000E+00  0.5466E-01  0.1080E+03  0.1309E-01
    -46.727  0.0000E+00  0.5084E+02  0.1080E+03  0.1219E+02
    -46.487  0.0000E+00  0.9507E+02  0.1080E+03  0.3496E+02
    -46.247  0.0000E+00  0.1442E+03  0.1080E+03  0.6951E+02
    -46.008  0.0000E+00  0.1607E+03  0.1080E+03  0.1080E+03
    -45.768  0.0000E+00  0.5891E-02  0.1080E+03  0.1080E+03
    -45.529  0.0000E+00  0.0000E+00  0.1080E+03  0.1080E+03
    -45.289  0.0000E+00  0.0000E+00  0.1080E+03  0.1080E+03
    -45.050  0.0000E+00  0.0000E+00  0.1080E+03  0.1080E+03
    -44.810  0.0000E+00  0.0000E+00  0.1080E+03  0.1080E+03
    -44.571  0.0000E+00  0.0000E+00  0.1080E+03  0.1080E+03
    -44.331  0.0000E+00  0.0000E+00  0.1080E+03  0.1080E+03
    -44.092  0.0000E+00  0.0000E+00  0.1080E+03  0.1080E+03
    -43.852  0.0000E+00  0.0000E+00  0.1080E+03  0.1080E+03
    -43.612  0.0000E+00  0.0000E+00  0.1080E+03  0.1080E+03
    -43.373  0.0000E+00  0.0000E+00  0.1080E+03  0.1080E+03
    -43.133  0.0000E+00  0.0000E+00  0.1080E+03  0.1080E+03
    -42.894  0.0000E+00  0.0000E+00  0.1080E+03  0.1080E+03
    -42.654  0.0000E+00  0.0000E+00  0.1080E+03  0.1080E+03
    -42.415  0.0000E+00  0.0000E+00  0.1080E+03  0.1080E+03
    -42.175  0.0000E+00  0.0000E+00  0.1080E+03  0.1080E+03
    -41.936  0.0000E+00  0.0000E+00  0.1080E+03  0.1080E+03
    -41.696  0.0000E+00  0.0000E+00  0.1080E+03  0.1080E+03
    -41.457  0.0000E+00  0.0000E+00  0.1080E+03  0.1080E+03
    -41.217  0.0000E+00  0.0000E+00  0.1080E+03  0.1080E+03
    -40.978  0.0000E+00  0.0000E+00  0.1080E+03  0.1080E+03
    -40.738  0.6887E-09  0.2212E-09  0.1080E+03  0.1080E+03
    -40.498  0.2720E+02  0.2391E+02  0.1145E+03  0.1137E+03
    -40.259  0.4579E+02  0.4934E+02  0.1255E+03  0.1255E+03
    -40.019  0.9933E+02  0.9936E+02  0.1493E+03  0.1493E+03
    -39.780  0.2806E+02  0.2777E+02  0.1560E+03  0.1560E+03
    -39.540  0.0000E+00  0.0000E+00  0.1560E+03  0.1560E+03
    -39.301  0.0000E+00  0.0000E+00  0.1560E+03  0.1560E+03
    -39.061  0.0000E+00  0.0000E+00  0.1560E+03  0.1560E+03
    -38.822  0.0000E+00  0.0000E+00  0.1560E+03  0.1560E+03
    -38.582  0.0000E+00  0.0000E+00  0.1560E+03  0.1560E+03
    -38.343  0.0000E+00  0.0000E+00  0.1560E+03  0.1560E+03
    -38.103  0.0000E+00  0.0000E+00  0.1560E+03  0.1560E+03
    -37.863  0.0000E+00  0.0000E+00  0.1560E+03  0.1560E+03
    -37.624  0.0000E+00  0.0000E+00  0.1560E+03  0.1560E+03
    -37.384  0.0000E+00  0.0000E+00  0.1560E+03  0.1560E+03
    -37.145  0.0000E+00  0.0000E+00  0.1560E+03  0.1560E+03
    -36.905  0.0000E+00  0.0000E+00  0.1560E+03  0.1560E+03
    -36.666  0.0000E+00  0.0000E+00  0.1560E+03  0.1560E+03
    -36.426  0.0000E+00  0.0000E+00  0.1560E+03  0.1560E+03
    -36.187  0.0000E+00  0.0000E+00  0.1560E+03  0.1560E+03
    -35.947  0.0000E+00  0.0000E+00  0.1560E+03  0.1560E+03
    -35.708  0.0000E+00  0.0000E+00  0.1560E+03  0.1560E+03
    -35.468  0.0000E+00  0.0000E+00  0.1560E+03  0.1560E+03
    -35.228  0.0000E+00  0.0000E+00  0.1560E+03  0.1560E+03
    -34.989  0.0000E+00  0.0000E+00  0.1560E+03  0.1560E+03
    -34.749  0.0000E+00  0.0000E+00  0.1560E+03  0.1560E+03
    -34.510  0.0000E+00  0.0000E+00  0.1560E+03  0.1560E+03
    -34.270  0.0000E+00  0.0000E+00  0.1560E+03  0.1560E+03
    -34.031  0.0000E+00  0.0000E+00  0.1560E+03  0.1560E+03
    -33.791  0.0000E+00  0.0000E+00  0.1560E+03  0.1560E+03
    -33.552  0.0000E+00  0.0000E+00  0.1560E+03  0.1560E+03
    -33.312  0.0000E+00  0.0000E+00  0.1560E+03  0.1560E+03
    -33.073  0.0000E+00  0.0000E+00  0.1560E+03  0.1560E+03
    -32.833  0.0000E+00  0.0000E+00  0.1560E+03  0.1560E+03
    -32.593  0.0000E+00  0.0000E+00  0.1560E+03  0.1560E+03
    -32.354  0.0000E+00  0.0000E+00  0.1560E+03  0.1560E+03
    -32.114  0.0000E+00  0.0000E+00  0.1560E+03  0.1560E+03
    -31.875  0.0000E+00  0.0000E+00  0.1560E+03  0.1560E+03
    -31.635  0.0000E+00  0.0000E+00  0.1560E+03  0.1560E+03
    -31.396  0.0000E+00  0.0000E+00  0.1560E+03  0.1560E+03
    -31.156  0.0000E+00  0.0000E+00  0.1560E+03  0.1560E+03
    -30.917  0.0000E+00  0.0000E+00  0.1560E+03  0.1560E+03
    -30.677  0.0000E+00  0.0000E+00  0.1560E+03  0.1560E+03
    -30.438  0.0000E+00  0.0000E+00  0.1560E+03  0.1560E+03
    -30.198  0.0000E+00  0.0000E+00  0.1560E+03  0.1560E+03
    -29.958  0.0000E+00  0.0000E+00  0.1560E+03  0.1560E+03
    -29.719  0.0000E+00  0.0000E+00  0.1560E+03  0.1560E+03
    -29.479  0.0000E+00  0.0000E+00  0.1560E+03  0.1560E+03
    -29.240  0.0000E+00  0.0000E+00  0.1560E+03  0.1560E+03
    -29.000  0.0000E+00  0.0000E+00  0.1560E+03  0.1560E+03
    -28.761  0.0000E+00  0.0000E+00  0.1560E+03  0.1560E+03
    -28.521  0.0000E+00  0.0000E+00  0.1560E+03  0.1560E+03
    -28.282  0.0000E+00  0.0000E+00  0.1560E+03  0.1560E+03
    -28.042  0.0000E+00  0.0000E+00  0.1560E+03  0.1560E+03
    -27.803  0.0000E+00  0.0000E+00  0.1560E+03  0.1560E+03
    -27.563  0.0000E+00  0.0000E+00  0.1560E+03  0.1560E+03
    -27.323  0.0000E+00  0.0000E+00  0.1560E+03  0.1560E+03
    -27.084  0.0000E+00  0.0000E+00  0.1560E+03  0.1560E+03
    -26.844  0.0000E+00  0.0000E+00  0.1560E+03  0.1560E+03
    -26.605  0.0000E+00  0.0000E+00  0.1560E+03  0.1560E+03
    -26.365  0.0000E+00  0.0000E+00  0.1560E+03  0.1560E+03
    -26.126  0.0000E+00  0.0000E+00  0.1560E+03  0.1560E+03
    -25.886  0.0000E+00  0.0000E+00  0.1560E+03  0.1560E+03
    -25.647  0.0000E+00  0.0000E+00  0.1560E+03  0.1560E+03
    -25.407  0.0000E+00  0.0000E+00  0.1560E+03  0.1560E+03
    -25.168  0.0000E+00  0.0000E+00  0.1560E+03  0.1560E+03
    -24.928  0.0000E+00  0.0000E+00  0.1560E+03  0.1560E+03
    -24.688  0.0000E+00  0.0000E+00  0.1560E+03  0.1560E+03
    -24.449  0.0000E+00  0.0000E+00  0.1560E+03  0.1560E+03
    -24.209  0.0000E+00  0.0000E+00  0.1560E+03  0.1560E+03
    -23.970  0.0000E+00  0.0000E+00  0.1560E+03  0.1560E+03
    -23.730  0.0000E+00  0.0000E+00  0.1560E+03  0.1560E+03
    -23.491  0.0000E+00  0.0000E+00  0.1560E+03  0.1560E+03
    -23.251  0.0000E+00  0.0000E+00  0.1560E+03  0.1560E+03
    -23.012  0.0000E+00  0.0000E+00  0.1560E+03  0.1560E+03
    -22.772  0.0000E+00  0.0000E+00  0.1560E+03  0.1560E+03
    -22.533  0.0000E+00  0.0000E+00  0.1560E+03  0.1560E+03
    -22.293  0.0000E+00  0.0000E+00  0.1560E+03  0.1560E+03
    -22.053  0.0000E+00  0.0000E+00  0.1560E+03  0.1560E+03
    -21.814  0.0000E+00  0.0000E+00  0.1560E+03  0.1560E+03
    -21.574  0.0000E+00  0.0000E+00  0.1560E+03  0.1560E+03
    -21.335  0.0000E+00  0.0000E+00  0.1560E+03  0.1560E+03
    -21.095  0.0000E+00  0.0000E+00  0.1560E+03  0.1560E+03
    -20.856  0.0000E+00  0.0000E+00  0.1560E+03  0.1560E+03
    -20.616  0.0000E+00  0.0000E+00  0.1560E+03  0.1560E+03
    -20.377  0.0000E+00  0.0000E+00  0.1560E+03  0.1560E+03
    -20.137  0.0000E+00  0.0000E+00  0.1560E+03  0.1560E+03
    -19.898  0.0000E+00  0.0000E+00  0.1560E+03  0.1560E+03
    -19.658  0.0000E+00  0.0000E+00  0.1560E+03  0.1560E+03
    -19.418  0.0000E+00  0.0000E+00  0.1560E+03  0.1560E+03
    -19.179  0.0000E+00  0.0000E+00  0.1560E+03  0.1560E+03
    -18.939  0.0000E+00  0.0000E+00  0.1560E+03  0.1560E+03
    -18.700  0.0000E+00  0.0000E+00  0.1560E+03  0.1560E+03
    -18.460  0.0000E+00  0.0000E+00  0.1560E+03  0.1560E+03
    -18.221  0.0000E+00  0.0000E+00  0.1560E+03  0.1560E+03
    -17.981  0.0000E+00  0.0000E+00  0.1560E+03  0.1560E+03
    -17.742  0.0000E+00  0.0000E+00  0.1560E+03  0.1560E+03
    -17.502  0.0000E+00  0.0000E+00  0.1560E+03  0.1560E+03
    -17.263  0.0000E+00  0.0000E+00  0.1560E+03  0.1560E+03
    -17.023  0.0000E+00  0.0000E+00  0.1560E+03  0.1560E+03
    -16.783  0.0000E+00  0.0000E+00  0.1560E+03  0.1560E+03
    -16.544  0.0000E+00  0.0000E+00  0.1560E+03  0.1560E+03
    -16.304  0.0000E+00  0.0000E+00  0.1560E+03  0.1560E+03
    -16.065  0.0000E+00  0.0000E+00  0.1560E+03  0.1560E+03
    -15.825  0.0000E+00  0.0000E+00  0.1560E+03  0.1560E+03
    -15.586  0.0000E+00  0.0000E+00  0.1560E+03  0.1560E+03
    -15.346  0.0000E+00  0.0000E+00  0.1560E+03  0.1560E+03
    -15.107  0.0000E+00  0.0000E+00  0.1560E+03  0.1560E+03
    -14.867  0.0000E+00  0.0000E+00  0.1560E+03  0.1560E+03
    -14.628  0.0000E+00  0.0000E+00  0.1560E+03  0.1560E+03
    -14.388  0.0000E+00  0.0000E+00  0.1560E+03  0.1560E+03
    -14.148  0.0000E+00  0.0000E+00  0.1560E+03  0.1560E+03
    -13.909  0.4201E-03  0.0000E+00  0.1560E+03  0.1560E+03
    -13.669  0.2084E+02  0.6321E-14  0.1610E+03  0.1560E+03
    -13.430  0.2890E+02  0.1099E+01  0.1679E+03  0.1563E+03
    -13.190  0.7423E+01  0.4367E+02  0.1697E+03  0.1667E+03
    -12.951  0.3164E+02  0.5715E+01  0.1773E+03  0.1681E+03
    -12.711  0.1139E+02  0.4048E+02  0.1800E+03  0.1778E+03
    -12.472  0.0000E+00  0.9226E+01  0.1800E+03  0.1800E+03
    -12.232  0.0000E+00  0.0000E+00  0.1800E+03  0.1800E+03
    -11.993  0.0000E+00  0.0000E+00  0.1800E+03  0.1800E+03
    -11.753  0.0000E+00  0.0000E+00  0.1800E+03  0.1800E+03
    -11.513  0.0000E+00  0.0000E+00  0.1800E+03  0.1800E+03
    -11.274  0.0000E+00  0.0000E+00  0.1800E+03  0.1800E+03
    -11.034  0.0000E+00  0.0000E+00  0.1800E+03  0.1800E+03
    -10.795  0.0000E+00  0.0000E+00  0.1800E+03  0.1800E+03
    -10.555  0.0000E+00  0.0000E+00  0.1800E+03  0.1800E+03
    -10.316  0.0000E+00  0.0000E+00  0.1800E+03  0.1800E+03
    -10.076  0.0000E+00  0.0000E+00  0.1800E+03  0.1800E+03
     -9.837  0.0000E+00  0.0000E+00  0.1800E+03  0.1800E+03
     -9.597  0.0000E+00  0.0000E+00  0.1800E+03  0.1800E+03
     -9.358  0.0000E+00  0.0000E+00  0.1800E+03  0.1800E+03
     -9.118  0.0000E+00  0.0000E+00  0.1800E+03  0.1800E+03
     -8.878  0.0000E+00  0.0000E+00  0.1800E+03  0.1800E+03
     -8.639  0.0000E+00  0.0000E+00  0.1800E+03  0.1800E+03
     -8.399  0.0000E+00  0.0000E+00  0.1800E+03  0.1800E+03
     -8.160  0.0000E+00  0.0000E+00  0.1800E+03  0.1800E+03
     -7.920  0.8542E-03  0.0000E+00  0.1800E+03  0.1800E+03
     -7.681  0.8599E+01  0.7402E-02  0.1821E+03  0.1800E+03
     -7.441  0.2237E+02  0.1114E+02  0.1874E+03  0.1827E+03
     -7.202  0.5375E+02  0.2719E+02  0.2003E+03  0.1892E+03
     -6.962  0.6056E+02  0.5857E+02  0.2148E+03  0.2032E+03
     -6.723  0.5012E+01  0.4919E+02  0.2160E+03  0.2150E+03
     -6.483  0.0000E+00  0.4181E+01  0.2160E+03  0.2160E+03
     -6.244  0.0000E+00  0.0000E+00  0.2160E+03  0.2160E+03
     -6.004  0.0000E+00  0.0000E+00  0.2160E+03  0.2160E+03
     -5.764  0.0000E+00  0.0000E+00  0.2160E+03  0.2160E+03
     -5.525  0.0000E+00  0.0000E+00  0.2160E+03  0.2160E+03
     -5.285  0.0000E+00  0.0000E+00  0.2160E+03  0.2160E+03
     -5.046  0.0000E+00  0.0000E+00  0.2160E+03  0.2160E+03
     -4.806  0.0000E+00  0.0000E+00  0.2160E+03  0.2160E+03
     -4.567  0.0000E+00  0.0000E+00  0.2160E+03  0.2160E+03
     -4.327  0.0000E+00  0.0000E+00  0.2160E+03  0.2160E+03
     -4.088  0.0000E+00  0.0000E+00  0.2160E+03  0.2160E+03
     -3.848  0.0000E+00  0.0000E+00  0.2160E+03  0.2160E+03
     -3.609  0.0000E+00  0.0000E+00  0.2160E+03  0.2160E+03
     -3.369  0.0000E+00  0.0000E+00  0.2160E+03  0.2160E+03
     -3.129  0.0000E+00  0.0000E+00  0.2160E+03  0.2160E+03
     -2.890  0.1056E-14  0.0000E+00  0.2160E+03  0.2160E+03
     -2.650  0.4387E+00  0.0000E+00  0.2161E+03  0.2160E+03
     -2.411  0.1069E+02  0.0000E+00  0.2187E+03  0.2160E+03
     -2.171  0.1937E+02  0.0000E+00  0.2233E+03  0.2160E+03
     -1.932  0.2924E+01  0.0000E+00  0.2240E+03  0.2160E+03
     -1.692  0.3324E+02  0.0000E+00  0.2320E+03  0.2160E+03
     -1.453  0.1852E+02  0.2575E-16  0.2364E+03  0.2160E+03
     -1.213  0.4469E+02  0.4299E-01  0.2471E+03  0.2160E+03
     -0.974  0.4826E+02  0.4306E+01  0.2587E+03  0.2170E+03
     -0.734  0.7417E+02  0.1353E+02  0.2764E+03  0.2203E+03
     -0.494  0.1016E+03  0.1496E+02  0.3008E+03  0.2239E+03
     -0.255  0.8553E+02  0.1860E+02  0.3213E+03  0.2283E+03
     -0.015  0.1104E+03  0.4148E+02  0.3477E+03  0.2383E+03
      0.224  0.7250E+02  0.3402E+02  0.3651E+03  0.2464E+03
      0.464  0.3949E+02  0.4114E+02  0.3745E+03  0.2563E+03
      0.703  0.4560E+02  0.3460E+02  0.3855E+03  0.2646E+03
      0.943  0.4866E+02  0.5124E+02  0.3971E+03  0.2768E+03
      1.182  0.5467E+02  0.6145E+02  0.4102E+03  0.2915E+03
      1.422  0.6298E+02  0.4440E+02  0.4253E+03  0.3022E+03
      1.661  0.1004E+03  0.4091E+02  0.4494E+03  0.3120E+03
      1.901  0.5586E+02  0.3807E+02  0.4627E+03  0.3211E+03
      2.141  0.3760E+02  0.3770E+02  0.4717E+03  0.3301E+03
      2.380  0.4665E+02  0.3798E+02  0.4829E+03  0.3392E+03
      2.620  0.4766E+02  0.4785E+02  0.4943E+03  0.3507E+03
      2.859  0.4401E+02  0.6355E+02  0.5049E+03  0.3659E+03
      3.099  0.4041E+02  0.5879E+02  0.5146E+03  0.3800E+03
      3.338  0.4596E+02  0.4952E+02  0.5256E+03  0.3919E+03
      3.578  0.5299E+02  0.2851E+02  0.5383E+03  0.3987E+03
      3.817  0.4631E+02  0.5961E+02  0.5494E+03  0.4130E+03
      4.057  0.3172E+02  0.7760E+02  0.5570E+03  0.4316E+03
      4.296  0.4284E+02  0.1847E+01  0.5672E+03  0.4320E+03
      4.536  0.2447E+02  0.0000E+00  0.5731E+03  0.4320E+03
      4.776  0.1094E+02  0.0000E+00  0.5757E+03  0.4320E+03
      5.015  0.1275E+01  0.0000E+00  0.5760E+03  0.4320E+03
      5.255  0.0000E+00  0.0000E+00  0.5760E+03  0.4320E+03
      5.494  0.0000E+00  0.0000E+00  0.5760E+03  0.4320E+03
      5.734  0.0000E+00  0.0000E+00  0.5760E+03  0.4320E+03
      5.973  0.0000E+00  0.3286E-12  0.5760E+03  0.4320E+03
      6.213  0.0000E+00  0.1002E+00  0.5760E+03  0.4320E+03
      6.452  0.0000E+00  0.7449E+01  0.5760E+03  0.4338E+03
      6.692  0.0000E+00  0.2914E+02  0.5760E+03  0.4408E+03
      6.931  0.4050E-13  0.4187E+02  0.5760E+03  0.4508E+03
      7.171  0.7168E-01  0.7138E+02  0.5760E+03  0.4679E+03
      7.411  0.1623E+00  0.8157E+02  0.5761E+03  0.4875E+03
      7.650  0.7664E+00  0.6535E+02  0.5762E+03  0.5031E+03
      7.890  0.3345E+01  0.8794E+02  0.5770E+03  0.5242E+03
      8.129  0.4294E+01  0.7243E+02  0.5781E+03  0.5415E+03
      8.369  0.6686E+01  0.5540E+02  0.5797E+03  0.5548E+03
      8.608  0.1563E+02  0.3705E+02  0.5834E+03  0.5637E+03
      8.848  0.2561E+02  0.4044E+02  0.5895E+03  0.5734E+03
      9.087  0.1939E+02  0.2020E+02  0.5942E+03  0.5782E+03
      9.327  0.2447E+02  0.1311E+02  0.6001E+03  0.5813E+03
      9.566  0.3076E+02  0.2051E+02  0.6074E+03  0.5863E+03
      9.806  0.2712E+02  0.2964E+02  0.6139E+03  0.5934E+03
     10.046  0.3001E+02  0.2652E+02  0.6211E+03  0.5997E+03
     10.285  0.2283E+02  0.3361E+02  0.6266E+03  0.6078E+03
     10.525  0.2049E+02  0.3666E+02  0.6315E+03  0.6165E+03
     10.764  0.2756E+02  0.2753E+02  0.6381E+03  0.6231E+03
     11.004  0.3904E+02  0.2332E+02  0.6474E+03  0.6287E+03
     11.243  0.3921E+02  0.2095E+02  0.6568E+03  0.6337E+03
     11.483  0.3776E+02  0.3199E+02  0.6659E+03  0.6414E+03
     11.722  0.4395E+02  0.3896E+02  0.6764E+03  0.6507E+03
     11.962  0.3923E+02  0.4199E+02  0.6858E+03  0.6608E+03
     12.201  0.3808E+02  0.5140E+02  0.6949E+03  0.6731E+03
     12.441  0.3960E+02  0.4756E+02  0.7044E+03  0.6845E+03
     12.681  0.3721E+02  0.3612E+02  0.7133E+03  0.6931E+03
     12.920  0.3458E+02  0.4100E+02  0.7216E+03  0.7030E+03
     13.160  0.2433E+02  0.4055E+02  0.7274E+03  0.7127E+03
     13.399  0.2360E+01  0.3373E+02  0.7280E+03  0.7208E+03
     13.639  0.0000E+00  0.2532E+02  0.7280E+03  0.7268E+03
     13.878  0.0000E+00  0.4914E+01  0.7280E+03  0.7280E+03
     14.118  0.0000E+00  0.3759E-05  0.7280E+03  0.7280E+03
     14.357  0.0000E+00  0.0000E+00  0.7280E+03  0.7280E+03
     14.597  0.0000E+00  0.0000E+00  0.7280E+03  0.7280E+03
     14.836  0.0000E+00  0.0000E+00  0.7280E+03  0.7280E+03
     15.076  0.0000E+00  0.0000E+00  0.7280E+03  0.7280E+03
     15.316  0.0000E+00  0.0000E+00  0.7280E+03  0.7280E+03
     15.555  0.0000E+00  0.0000E+00  0.7280E+03  0.7280E+03
     15.795  0.0000E+00  0.0000E+00  0.7280E+03  0.7280E+03
     16.034  0.0000E+00  0.0000E+00  0.7280E+03  0.7280E+03
     16.274  0.0000E+00  0.0000E+00  0.7280E+03  0.7280E+03
     16.513  0.0000E+00  0.0000E+00  0.7280E+03  0.7280E+03
     16.753  0.0000E+00  0.0000E+00  0.7280E+03  0.7280E+03
     16.992  0.0000E+00  0.0000E+00  0.7280E+03  0.7280E+03
