 120 120   0   0
  0.1228332E+02  0.1173587E-08  0.1121847E-08  0.1119562E-08  0.5000000E-15
  1.000000000000000E-004
  CAR 
 unknown system                          
     16.73053484    -54.73110278  301      4.40340235      1.00000000
    -54.731  0.0000E+00  0.0000E+00  0.0000E+00  0.0000E+00
    -54.493  0.0000E+00  0.0000E+00  0.0000E+00  0.0000E+00
    -54.255  0.0000E+00  0.0000E+00  0.0000E+00  0.0000E+00
    -54.016  0.0000E+00  0.0000E+00  0.0000E+00  0.0000E+00
    -53.778  0.0000E+00  0.0000E+00  0.0000E+00  0.0000E+00
    -53.540  0.0000E+00  0.0000E+00  0.0000E+00  0.0000E+00
    -53.302  0.0000E+00  0.0000E+00  0.0000E+00  0.0000E+00
    -53.064  0.0000E+00  0.0000E+00  0.0000E+00  0.0000E+00
    -52.825  0.0000E+00  0.0000E+00  0.0000E+00  0.0000E+00
    -52.587  0.0000E+00  0.0000E+00  0.0000E+00  0.0000E+00
    -52.349  0.0000E+00  0.0000E+00  0.0000E+00  0.0000E+00
    -52.111  0.0000E+00  0.0000E+00  0.0000E+00  0.0000E+00
    -51.873  0.0000E+00  0.0000E+00  0.0000E+00  0.0000E+00
    -51.634  0.2468E-03  0.0000E+00  0.5878E-04  0.0000E+00
    -51.396  0.9782E+02  0.0000E+00  0.2330E+02  0.0000E+00
    -51.158  0.2936E+01  0.0000E+00  0.2400E+02  0.0000E+00
    -50.920  0.0000E+00  0.0000E+00  0.2400E+02  0.0000E+00
    -50.682  0.0000E+00  0.0000E+00  0.2400E+02  0.0000E+00
    -50.443  0.2379E-09  0.0000E+00  0.2400E+02  0.0000E+00
    -50.205  0.4287E+02  0.0000E+00  0.3421E+02  0.0000E+00
    -49.967  0.1320E+03  0.0000E+00  0.6565E+02  0.0000E+00
    -49.729  0.2668E+02  0.0000E+00  0.7200E+02  0.0000E+00
    -49.491  0.0000E+00  0.0000E+00  0.7200E+02  0.0000E+00
    -49.252  0.0000E+00  0.0000E+00  0.7200E+02  0.0000E+00
    -49.014  0.0000E+00  0.0000E+00  0.7200E+02  0.0000E+00
    -48.776  0.0000E+00  0.0000E+00  0.7200E+02  0.0000E+00
    -48.538  0.0000E+00  0.0000E+00  0.7200E+02  0.0000E+00
    -48.300  0.0000E+00  0.0000E+00  0.7200E+02  0.0000E+00
    -48.061  0.0000E+00  0.0000E+00  0.7200E+02  0.0000E+00
    -47.823  0.0000E+00  0.0000E+00  0.7200E+02  0.0000E+00
    -47.585  0.0000E+00  0.0000E+00  0.7200E+02  0.0000E+00
    -47.347  0.0000E+00  0.0000E+00  0.7200E+02  0.0000E+00
    -47.109  0.0000E+00  0.0000E+00  0.7200E+02  0.0000E+00
    -46.870  0.0000E+00  0.6054E-01  0.7200E+02  0.1442E-01
    -46.632  0.0000E+00  0.1006E+03  0.7200E+02  0.2397E+02
    -46.394  0.0000E+00  0.9528E+02  0.7200E+02  0.4667E+02
    -46.156  0.0000E+00  0.1063E+03  0.7200E+02  0.7200E+02
    -45.918  0.0000E+00  0.0000E+00  0.7200E+02  0.7200E+02
    -45.679  0.0000E+00  0.0000E+00  0.7200E+02  0.7200E+02
    -45.441  0.0000E+00  0.0000E+00  0.7200E+02  0.7200E+02
    -45.203  0.0000E+00  0.0000E+00  0.7200E+02  0.7200E+02
    -44.965  0.0000E+00  0.0000E+00  0.7200E+02  0.7200E+02
    -44.726  0.0000E+00  0.0000E+00  0.7200E+02  0.7200E+02
    -44.488  0.0000E+00  0.0000E+00  0.7200E+02  0.7200E+02
    -44.250  0.0000E+00  0.0000E+00  0.7200E+02  0.7200E+02
    -44.012  0.0000E+00  0.0000E+00  0.7200E+02  0.7200E+02
    -43.774  0.0000E+00  0.0000E+00  0.7200E+02  0.7200E+02
    -43.535  0.0000E+00  0.0000E+00  0.7200E+02  0.7200E+02
    -43.297  0.0000E+00  0.0000E+00  0.7200E+02  0.7200E+02
    -43.059  0.0000E+00  0.0000E+00  0.7200E+02  0.7200E+02
    -42.821  0.0000E+00  0.0000E+00  0.7200E+02  0.7200E+02
    -42.583  0.0000E+00  0.0000E+00  0.7200E+02  0.7200E+02
    -42.344  0.0000E+00  0.0000E+00  0.7200E+02  0.7200E+02
    -42.106  0.0000E+00  0.0000E+00  0.7200E+02  0.7200E+02
    -41.868  0.0000E+00  0.0000E+00  0.7200E+02  0.7200E+02
    -41.630  0.0000E+00  0.0000E+00  0.7200E+02  0.7200E+02
    -41.392  0.0000E+00  0.0000E+00  0.7200E+02  0.7200E+02
    -41.153  0.0000E+00  0.0000E+00  0.7200E+02  0.7200E+02
    -40.915  0.0000E+00  0.0000E+00  0.7200E+02  0.7200E+02
    -40.677  0.2377E-03  0.7182E-04  0.7200E+02  0.7200E+02
    -40.439  0.9879E+02  0.9730E+02  0.9553E+02  0.9518E+02
    -40.201  0.1025E+03  0.1040E+03  0.1200E+03  0.1200E+03
    -39.962  0.1670E+00  0.1678E+00  0.1200E+03  0.1200E+03
    -39.724  0.0000E+00  0.0000E+00  0.1200E+03  0.1200E+03
    -39.486  0.0000E+00  0.0000E+00  0.1200E+03  0.1200E+03
    -39.248  0.0000E+00  0.0000E+00  0.1200E+03  0.1200E+03
    -39.010  0.0000E+00  0.0000E+00  0.1200E+03  0.1200E+03
    -38.771  0.0000E+00  0.0000E+00  0.1200E+03  0.1200E+03
    -38.533  0.0000E+00  0.0000E+00  0.1200E+03  0.1200E+03
    -38.295  0.0000E+00  0.0000E+00  0.1200E+03  0.1200E+03
    -38.057  0.0000E+00  0.0000E+00  0.1200E+03  0.1200E+03
    -37.819  0.0000E+00  0.0000E+00  0.1200E+03  0.1200E+03
    -37.580  0.0000E+00  0.0000E+00  0.1200E+03  0.1200E+03
    -37.342  0.0000E+00  0.0000E+00  0.1200E+03  0.1200E+03
    -37.104  0.0000E+00  0.0000E+00  0.1200E+03  0.1200E+03
    -36.866  0.0000E+00  0.0000E+00  0.1200E+03  0.1200E+03
    -36.627  0.0000E+00  0.0000E+00  0.1200E+03  0.1200E+03
    -36.389  0.0000E+00  0.0000E+00  0.1200E+03  0.1200E+03
    -36.151  0.0000E+00  0.0000E+00  0.1200E+03  0.1200E+03
    -35.913  0.0000E+00  0.0000E+00  0.1200E+03  0.1200E+03
    -35.675  0.0000E+00  0.0000E+00  0.1200E+03  0.1200E+03
    -35.436  0.0000E+00  0.0000E+00  0.1200E+03  0.1200E+03
    -35.198  0.0000E+00  0.0000E+00  0.1200E+03  0.1200E+03
    -34.960  0.0000E+00  0.0000E+00  0.1200E+03  0.1200E+03
    -34.722  0.0000E+00  0.0000E+00  0.1200E+03  0.1200E+03
    -34.484  0.0000E+00  0.0000E+00  0.1200E+03  0.1200E+03
    -34.245  0.0000E+00  0.0000E+00  0.1200E+03  0.1200E+03
    -34.007  0.0000E+00  0.0000E+00  0.1200E+03  0.1200E+03
    -33.769  0.0000E+00  0.0000E+00  0.1200E+03  0.1200E+03
    -33.531  0.0000E+00  0.0000E+00  0.1200E+03  0.1200E+03
    -33.293  0.0000E+00  0.0000E+00  0.1200E+03  0.1200E+03
    -33.054  0.0000E+00  0.0000E+00  0.1200E+03  0.1200E+03
    -32.816  0.0000E+00  0.0000E+00  0.1200E+03  0.1200E+03
    -32.578  0.0000E+00  0.0000E+00  0.1200E+03  0.1200E+03
    -32.340  0.0000E+00  0.0000E+00  0.1200E+03  0.1200E+03
    -32.102  0.0000E+00  0.0000E+00  0.1200E+03  0.1200E+03
    -31.863  0.0000E+00  0.0000E+00  0.1200E+03  0.1200E+03
    -31.625  0.0000E+00  0.0000E+00  0.1200E+03  0.1200E+03
    -31.387  0.0000E+00  0.0000E+00  0.1200E+03  0.1200E+03
    -31.149  0.0000E+00  0.0000E+00  0.1200E+03  0.1200E+03
    -30.911  0.0000E+00  0.0000E+00  0.1200E+03  0.1200E+03
    -30.672  0.0000E+00  0.0000E+00  0.1200E+03  0.1200E+03
    -30.434  0.0000E+00  0.0000E+00  0.1200E+03  0.1200E+03
    -30.196  0.0000E+00  0.0000E+00  0.1200E+03  0.1200E+03
    -29.958  0.0000E+00  0.0000E+00  0.1200E+03  0.1200E+03
    -29.720  0.0000E+00  0.0000E+00  0.1200E+03  0.1200E+03
    -29.481  0.0000E+00  0.0000E+00  0.1200E+03  0.1200E+03
    -29.243  0.0000E+00  0.0000E+00  0.1200E+03  0.1200E+03
    -29.005  0.0000E+00  0.0000E+00  0.1200E+03  0.1200E+03
    -28.767  0.0000E+00  0.0000E+00  0.1200E+03  0.1200E+03
    -28.529  0.0000E+00  0.0000E+00  0.1200E+03  0.1200E+03
    -28.290  0.0000E+00  0.0000E+00  0.1200E+03  0.1200E+03
    -28.052  0.0000E+00  0.0000E+00  0.1200E+03  0.1200E+03
    -27.814  0.0000E+00  0.0000E+00  0.1200E+03  0.1200E+03
    -27.576  0.0000E+00  0.0000E+00  0.1200E+03  0.1200E+03
    -27.337  0.0000E+00  0.0000E+00  0.1200E+03  0.1200E+03
    -27.099  0.0000E+00  0.0000E+00  0.1200E+03  0.1200E+03
    -26.861  0.0000E+00  0.0000E+00  0.1200E+03  0.1200E+03
    -26.623  0.0000E+00  0.0000E+00  0.1200E+03  0.1200E+03
    -26.385  0.0000E+00  0.0000E+00  0.1200E+03  0.1200E+03
    -26.146  0.0000E+00  0.0000E+00  0.1200E+03  0.1200E+03
    -25.908  0.0000E+00  0.0000E+00  0.1200E+03  0.1200E+03
    -25.670  0.0000E+00  0.0000E+00  0.1200E+03  0.1200E+03
    -25.432  0.0000E+00  0.0000E+00  0.1200E+03  0.1200E+03
    -25.194  0.0000E+00  0.0000E+00  0.1200E+03  0.1200E+03
    -24.955  0.0000E+00  0.0000E+00  0.1200E+03  0.1200E+03
    -24.717  0.0000E+00  0.0000E+00  0.1200E+03  0.1200E+03
    -24.479  0.0000E+00  0.0000E+00  0.1200E+03  0.1200E+03
    -24.241  0.0000E+00  0.0000E+00  0.1200E+03  0.1200E+03
    -24.003  0.0000E+00  0.0000E+00  0.1200E+03  0.1200E+03
    -23.764  0.0000E+00  0.0000E+00  0.1200E+03  0.1200E+03
    -23.526  0.0000E+00  0.0000E+00  0.1200E+03  0.1200E+03
    -23.288  0.0000E+00  0.0000E+00  0.1200E+03  0.1200E+03
    -23.050  0.0000E+00  0.0000E+00  0.1200E+03  0.1200E+03
    -22.812  0.0000E+00  0.0000E+00  0.1200E+03  0.1200E+03
    -22.573  0.0000E+00  0.0000E+00  0.1200E+03  0.1200E+03
    -22.335  0.0000E+00  0.0000E+00  0.1200E+03  0.1200E+03
    -22.097  0.0000E+00  0.0000E+00  0.1200E+03  0.1200E+03
    -21.859  0.0000E+00  0.0000E+00  0.1200E+03  0.1200E+03
    -21.621  0.0000E+00  0.0000E+00  0.1200E+03  0.1200E+03
    -21.382  0.0000E+00  0.0000E+00  0.1200E+03  0.1200E+03
    -21.144  0.0000E+00  0.0000E+00  0.1200E+03  0.1200E+03
    -20.906  0.0000E+00  0.0000E+00  0.1200E+03  0.1200E+03
    -20.668  0.0000E+00  0.0000E+00  0.1200E+03  0.1200E+03
    -20.430  0.0000E+00  0.0000E+00  0.1200E+03  0.1200E+03
    -20.191  0.0000E+00  0.0000E+00  0.1200E+03  0.1200E+03
    -19.953  0.0000E+00  0.0000E+00  0.1200E+03  0.1200E+03
    -19.715  0.0000E+00  0.0000E+00  0.1200E+03  0.1200E+03
    -19.477  0.0000E+00  0.0000E+00  0.1200E+03  0.1200E+03
    -19.238  0.0000E+00  0.0000E+00  0.1200E+03  0.1200E+03
    -19.000  0.0000E+00  0.0000E+00  0.1200E+03  0.1200E+03
    -18.762  0.0000E+00  0.0000E+00  0.1200E+03  0.1200E+03
    -18.524  0.0000E+00  0.0000E+00  0.1200E+03  0.1200E+03
    -18.286  0.0000E+00  0.0000E+00  0.1200E+03  0.1200E+03
    -18.047  0.0000E+00  0.0000E+00  0.1200E+03  0.1200E+03
    -17.809  0.0000E+00  0.0000E+00  0.1200E+03  0.1200E+03
    -17.571  0.0000E+00  0.0000E+00  0.1200E+03  0.1200E+03
    -17.333  0.0000E+00  0.0000E+00  0.1200E+03  0.1200E+03
    -17.095  0.0000E+00  0.0000E+00  0.1200E+03  0.1200E+03
    -16.856  0.0000E+00  0.0000E+00  0.1200E+03  0.1200E+03
    -16.618  0.0000E+00  0.0000E+00  0.1200E+03  0.1200E+03
    -16.380  0.0000E+00  0.0000E+00  0.1200E+03  0.1200E+03
    -16.142  0.0000E+00  0.0000E+00  0.1200E+03  0.1200E+03
    -15.904  0.0000E+00  0.0000E+00  0.1200E+03  0.1200E+03
    -15.665  0.0000E+00  0.0000E+00  0.1200E+03  0.1200E+03
    -15.427  0.0000E+00  0.0000E+00  0.1200E+03  0.1200E+03
    -15.189  0.0000E+00  0.0000E+00  0.1200E+03  0.1200E+03
    -14.951  0.0000E+00  0.0000E+00  0.1200E+03  0.1200E+03
    -14.713  0.0000E+00  0.0000E+00  0.1200E+03  0.1200E+03
    -14.474  0.0000E+00  0.0000E+00  0.1200E+03  0.1200E+03
    -14.236  0.0000E+00  0.0000E+00  0.1200E+03  0.1200E+03
    -13.998  0.0000E+00  0.0000E+00  0.1200E+03  0.1200E+03
    -13.760  0.1200E-08  0.0000E+00  0.1200E+03  0.1200E+03
    -13.522  0.8732E+01  0.1899E-15  0.1221E+03  0.1200E+03
    -13.283  0.5997E+02  0.3135E+00  0.1364E+03  0.1201E+03
    -13.045  0.3205E+02  0.6697E+02  0.1440E+03  0.1360E+03
    -12.807  0.2820E-03  0.3347E+02  0.1440E+03  0.1440E+03
    -12.569  0.0000E+00  0.3566E-04  0.1440E+03  0.1440E+03
    -12.331  0.0000E+00  0.0000E+00  0.1440E+03  0.1440E+03
    -12.092  0.0000E+00  0.0000E+00  0.1440E+03  0.1440E+03
    -11.854  0.0000E+00  0.0000E+00  0.1440E+03  0.1440E+03
    -11.616  0.0000E+00  0.0000E+00  0.1440E+03  0.1440E+03
    -11.378  0.0000E+00  0.0000E+00  0.1440E+03  0.1440E+03
    -11.140  0.0000E+00  0.0000E+00  0.1440E+03  0.1440E+03
    -10.901  0.0000E+00  0.0000E+00  0.1440E+03  0.1440E+03
    -10.663  0.0000E+00  0.0000E+00  0.1440E+03  0.1440E+03
    -10.425  0.0000E+00  0.0000E+00  0.1440E+03  0.1440E+03
    -10.187  0.0000E+00  0.0000E+00  0.1440E+03  0.1440E+03
     -9.948  0.0000E+00  0.0000E+00  0.1440E+03  0.1440E+03
     -9.710  0.0000E+00  0.0000E+00  0.1440E+03  0.1440E+03
     -9.472  0.0000E+00  0.0000E+00  0.1440E+03  0.1440E+03
     -9.234  0.0000E+00  0.0000E+00  0.1440E+03  0.1440E+03
     -8.996  0.0000E+00  0.0000E+00  0.1440E+03  0.1440E+03
     -8.757  0.0000E+00  0.0000E+00  0.1440E+03  0.1440E+03
     -8.519  0.0000E+00  0.0000E+00  0.1440E+03  0.1440E+03
     -8.281  0.0000E+00  0.0000E+00  0.1440E+03  0.1440E+03
     -8.043  0.0000E+00  0.0000E+00  0.1440E+03  0.1440E+03
     -7.805  0.1137E-01  0.2330E-15  0.1440E+03  0.1440E+03
     -7.566  0.1835E+02  0.1284E+00  0.1484E+03  0.1440E+03
     -7.328  0.4808E+02  0.2887E+02  0.1598E+03  0.1509E+03
     -7.090  0.3343E+02  0.4936E+02  0.1678E+03  0.1627E+03
     -6.852  0.8771E+00  0.2173E+02  0.1680E+03  0.1678E+03
     -6.614  0.0000E+00  0.6691E+00  0.1680E+03  0.1680E+03
     -6.375  0.0000E+00  0.0000E+00  0.1680E+03  0.1680E+03
     -6.137  0.0000E+00  0.0000E+00  0.1680E+03  0.1680E+03
     -5.899  0.0000E+00  0.0000E+00  0.1680E+03  0.1680E+03
     -5.661  0.0000E+00  0.0000E+00  0.1680E+03  0.1680E+03
     -5.423  0.0000E+00  0.0000E+00  0.1680E+03  0.1680E+03
     -5.184  0.0000E+00  0.0000E+00  0.1680E+03  0.1680E+03
     -4.946  0.0000E+00  0.0000E+00  0.1680E+03  0.1680E+03
     -4.708  0.0000E+00  0.0000E+00  0.1680E+03  0.1680E+03
     -4.470  0.0000E+00  0.0000E+00  0.1680E+03  0.1680E+03
     -4.232  0.0000E+00  0.0000E+00  0.1680E+03  0.1680E+03
     -3.993  0.0000E+00  0.0000E+00  0.1680E+03  0.1680E+03
     -3.755  0.0000E+00  0.0000E+00  0.1680E+03  0.1680E+03
     -3.517  0.0000E+00  0.0000E+00  0.1680E+03  0.1680E+03
     -3.279  0.0000E+00  0.0000E+00  0.1680E+03  0.1680E+03
     -3.041  0.0000E+00  0.0000E+00  0.1680E+03  0.1680E+03
     -2.802  0.0000E+00  0.0000E+00  0.1680E+03  0.1680E+03
     -2.564  0.0000E+00  0.0000E+00  0.1680E+03  0.1680E+03
     -2.326  0.0000E+00  0.0000E+00  0.1680E+03  0.1680E+03
     -2.088  0.2122E-05  0.0000E+00  0.1680E+03  0.1680E+03
     -1.849  0.7892E+01  0.0000E+00  0.1699E+03  0.1680E+03
     -1.611  0.5816E+02  0.0000E+00  0.1837E+03  0.1680E+03
     -1.373  0.4165E+02  0.0000E+00  0.1937E+03  0.1680E+03
     -1.135  0.3249E+02  0.0000E+00  0.2014E+03  0.1680E+03
     -0.897  0.5383E+02  0.2155E-08  0.2142E+03  0.1680E+03
     -0.658  0.5340E+02  0.1764E+01  0.2269E+03  0.1684E+03
     -0.420  0.6690E+02  0.1718E+02  0.2429E+03  0.1725E+03
     -0.182  0.5446E+02  0.3875E+02  0.2558E+03  0.1817E+03
      0.056  0.3440E+02  0.3520E+02  0.2640E+03  0.1901E+03
      0.294  0.5507E+02  0.2270E+02  0.2772E+03  0.1955E+03
      0.533  0.4776E+02  0.4865E+02  0.2885E+03  0.2071E+03
      0.771  0.3248E+02  0.4850E+02  0.2963E+03  0.2187E+03
      1.009  0.4985E+02  0.6840E+02  0.3081E+03  0.2350E+03
      1.247  0.4888E+02  0.2636E+02  0.3198E+03  0.2413E+03
      1.485  0.5439E+02  0.2287E+02  0.3327E+03  0.2467E+03
      1.724  0.6192E+02  0.3805E+02  0.3475E+03  0.2558E+03
      1.962  0.3418E+02  0.4600E+02  0.3556E+03  0.2667E+03
      2.200  0.2442E+02  0.2957E+02  0.3615E+03  0.2738E+03
      2.438  0.1357E+02  0.3580E+02  0.3647E+03  0.2823E+03
      2.676  0.3760E+02  0.2536E+02  0.3736E+03  0.2883E+03
      2.915  0.3864E+02  0.4570E+02  0.3828E+03  0.2992E+03
      3.153  0.3030E+02  0.4177E+02  0.3901E+03  0.3092E+03
      3.391  0.4375E+02  0.1462E+02  0.4005E+03  0.3126E+03
      3.629  0.5340E+02  0.3036E+02  0.4132E+03  0.3199E+03
      3.867  0.4739E+02  0.5712E+02  0.4245E+03  0.3335E+03
      4.106  0.2939E+02  0.1056E+02  0.4315E+03  0.3360E+03
      4.344  0.2122E+01  0.9699E-05  0.4320E+03  0.3360E+03
      4.582  0.0000E+00  0.0000E+00  0.4320E+03  0.3360E+03
      4.820  0.0000E+00  0.0000E+00  0.4320E+03  0.3360E+03
      5.058  0.0000E+00  0.0000E+00  0.4320E+03  0.3360E+03
      5.297  0.0000E+00  0.0000E+00  0.4320E+03  0.3360E+03
      5.535  0.0000E+00  0.0000E+00  0.4320E+03  0.3360E+03
      5.773  0.0000E+00  0.0000E+00  0.4320E+03  0.3360E+03
      6.011  0.0000E+00  0.3547E-02  0.4320E+03  0.3360E+03
      6.249  0.0000E+00  0.1882E+01  0.4320E+03  0.3364E+03
      6.488  0.0000E+00  0.1344E+02  0.4320E+03  0.3397E+03
      6.726  0.0000E+00  0.2691E+02  0.4320E+03  0.3461E+03
      6.964  0.0000E+00  0.2507E+02  0.4320E+03  0.3520E+03
      7.202  0.7441E-05  0.5726E+02  0.4320E+03  0.3657E+03
      7.441  0.1551E+00  0.7598E+02  0.4320E+03  0.3838E+03
      7.679  0.7241E+00  0.2948E+02  0.4322E+03  0.3908E+03
      7.917  0.1480E+01  0.4116E+02  0.4326E+03  0.4006E+03
      8.155  0.4813E+01  0.7769E+02  0.4337E+03  0.4191E+03
      8.393  0.7025E+01  0.5067E+02  0.4354E+03  0.4312E+03
      8.632  0.1573E+02  0.3881E+01  0.4391E+03  0.4321E+03
      8.870  0.2387E+02  0.1124E+01  0.4448E+03  0.4324E+03
      9.108  0.1969E+02  0.4473E+01  0.4495E+03  0.4334E+03
      9.346  0.1943E+02  0.1061E+02  0.4541E+03  0.4360E+03
      9.584  0.1990E+02  0.2086E+02  0.4589E+03  0.4409E+03
      9.823  0.2440E+02  0.2876E+02  0.4647E+03  0.4478E+03
     10.061  0.2207E+02  0.3012E+02  0.4699E+03  0.4550E+03
     10.299  0.1785E+02  0.3012E+02  0.4742E+03  0.4621E+03
     10.537  0.2464E+02  0.2580E+02  0.4801E+03  0.4683E+03
     10.775  0.1515E+02  0.2595E+02  0.4837E+03  0.4745E+03
     11.014  0.2717E+02  0.2443E+02  0.4901E+03  0.4803E+03
     11.252  0.4543E+02  0.1022E+02  0.5010E+03  0.4827E+03
     11.490  0.4870E+02  0.2574E+02  0.5126E+03  0.4888E+03
     11.728  0.3542E+02  0.3014E+02  0.5210E+03  0.4960E+03
     11.966  0.2027E+02  0.5671E+02  0.5258E+03  0.5095E+03
     12.205  0.2083E+02  0.4450E+02  0.5308E+03  0.5201E+03
     12.443  0.2984E+02  0.2688E+02  0.5379E+03  0.5265E+03
     12.681  0.3270E+02  0.2369E+02  0.5457E+03  0.5322E+03
     12.919  0.1880E+02  0.2764E+02  0.5502E+03  0.5388E+03
     13.157  0.7609E+01  0.3305E+02  0.5520E+03  0.5466E+03
     13.396  0.8781E-01  0.1847E+02  0.5520E+03  0.5510E+03
     13.634  0.0000E+00  0.4057E+01  0.5520E+03  0.5520E+03
     13.872  0.0000E+00  0.4362E-05  0.5520E+03  0.5520E+03
     14.110  0.0000E+00  0.0000E+00  0.5520E+03  0.5520E+03
     14.348  0.0000E+00  0.0000E+00  0.5520E+03  0.5520E+03
     14.587  0.0000E+00  0.0000E+00  0.5520E+03  0.5520E+03
     14.825  0.0000E+00  0.0000E+00  0.5520E+03  0.5520E+03
     15.063  0.0000E+00  0.0000E+00  0.5520E+03  0.5520E+03
     15.301  0.0000E+00  0.0000E+00  0.5520E+03  0.5520E+03
     15.540  0.0000E+00  0.0000E+00  0.5520E+03  0.5520E+03
     15.778  0.0000E+00  0.0000E+00  0.5520E+03  0.5520E+03
     16.016  0.0000E+00  0.0000E+00  0.5520E+03  0.5520E+03
     16.254  0.0000E+00  0.0000E+00  0.5520E+03  0.5520E+03
     16.492  0.0000E+00  0.0000E+00  0.5520E+03  0.5520E+03
     16.731  0.0000E+00  0.0000E+00  0.5520E+03  0.5520E+03
