 vasp.5.4.4.18Apr17-6-g9f103f2a35 (build Oct 25 2017 14:42:18) complex          
  
 executed on             LinuxIFC date 2021.04.16  13:57:32
 running on   48 total cores
 distrk:  each k-point on   24 cores,    2 groups
 distr:  one band on NCORES_PER_BAND=   6 cores,    4 groups


--------------------------------------------------------------------------------------------------------


 INCAR:
 POTCAR:    PAW_PBE Li_sv 10Sep2004               
 POTCAR:    PAW_PBE O 08Apr2002                   
 POTCAR:    PAW_PBE S 06Sep2000                   
 POTCAR:    PAW_PBE Fe_pv 02Aug2007               

 ----------------------------------------------------------------------------- 
|                                                                             |
|           W    W    AA    RRRRR   N    N  II  N    N   GGGG   !!!           |
|           W    W   A  A   R    R  NN   N  II  NN   N  G    G  !!!           |
|           W    W  A    A  R    R  N N  N  II  N N  N  G       !!!           |
|           W WW W  AAAAAA  RRRRR   N  N N  II  N  N N  G  GGG   !            |
|           WW  WW  A    A  R   R   N   NN  II  N   NN  G    G                |
|           W    W  A    A  R    R  N    N  II  N    N   GGGG   !!!           |
|                                                                             |
|      You have enabled k-point parallelism (KPAR>1).                         |
|      This developmental code was originally  written by Paul Kent at ORNL,  |
|      and carefully double checked in Vienna.                                |
|      GW as well as linear response parallelism added by Martijn Marsman     |
|      and Georg Kresse.                                                      |
|      Carefully verify results versus KPAR=1.                                |
|      Report problems to Paul Kent and Vienna.                               |
|                                                                             |
 ----------------------------------------------------------------------------- 

 POTCAR:    PAW_PBE Li_sv 10Sep2004               
  local pseudopotential read in
  atomic valenz-charges read in
  non local Contribution for L=           0  read in
    real space projection operators read in
  non local Contribution for L=           0  read in
    real space projection operators read in
  non local Contribution for L=           1  read in
    real space projection operators read in
    PAW grid and wavefunctions read in
 
   number of l-projection  operators is LMAX  =           3
   number of lm-projection operators is LMMAX =           5
 
 POTCAR:    PAW_PBE O 08Apr2002                   
  local pseudopotential read in
  partial core-charges read in
  partial kinetic energy density read in
  kinetic energy density of atom read in
  atomic valenz-charges read in
  non local Contribution for L=           0  read in
    real space projection operators read in
  non local Contribution for L=           0  read in
    real space projection operators read in
  non local Contribution for L=           1  read in
    real space projection operators read in
  non local Contribution for L=           1  read in
    real space projection operators read in
    PAW grid and wavefunctions read in
 
   number of l-projection  operators is LMAX  =           4
   number of lm-projection operators is LMMAX =           8
 
 POTCAR:    PAW_PBE S 06Sep2000                   
  local pseudopotential read in
  partial core-charges read in
  partial kinetic energy density read in
  atomic valenz-charges read in
  non local Contribution for L=           0  read in
    real space projection operators read in
  non local Contribution for L=           0  read in
    real space projection operators read in
  non local Contribution for L=           1  read in
    real space projection operators read in
  non local Contribution for L=           1  read in
    real space projection operators read in
    PAW grid and wavefunctions read in
 
   number of l-projection  operators is LMAX  =           4
   number of lm-projection operators is LMMAX =           8
 
 POTCAR:    PAW_PBE Fe_pv 02Aug2007               
  local pseudopotential read in
  partial core-charges read in
  partial kinetic energy density read in
  atomic valenz-charges read in
  non local Contribution for L=           1  read in
    real space projection operators read in
  non local Contribution for L=           1  read in
    real space projection operators read in
  non local Contribution for L=           2  read in
    real space projection operators read in
  non local Contribution for L=           2  read in
    real space projection operators read in
  non local Contribution for L=           0  read in
    real space projection operators read in
  non local Contribution for L=           0  read in
    real space projection operators read in
    PAW grid and wavefunctions read in
 
   number of l-projection  operators is LMAX  =           6
   number of lm-projection operators is LMMAX =          18
 

 ----------------------------------------------------------------------------- 
|                                                                             |
|  ADVICE TO THIS USER RUNNING 'VASP/VAMP'   (HEAR YOUR MASTER'S VOICE ...):  |
|                                                                             |
|      You have a (more or less) 'large supercell' and for larger cells       |
|      it might be more efficient to use real space projection opertators     |
|      So try LREAL= Auto  in the INCAR   file.                               |
|      Mind:          For very  accurate calculation you might also keep the  |
|      reciprocal projection scheme          (i.e. LREAL=.FALSE.)             |
|                                                                             |
 ----------------------------------------------------------------------------- 

  PAW_PBE Li_sv 10Sep2004               :
 energy of atom  1       EATOM= -202.7858
 kinetic energy error for atom=    0.0072 (will be added to EATOM!!)
  PAW_PBE O 08Apr2002                   :
 energy of atom  2       EATOM= -432.3788
 kinetic energy error for atom=    0.0129 (will be added to EATOM!!)
  PAW_PBE S 06Sep2000                   :
 energy of atom  3       EATOM= -276.8230
 kinetic energy error for atom=    0.0008 (will be added to EATOM!!)
  PAW_PBE Fe_pv 02Aug2007               :
 energy of atom  4       EATOM=-2457.4239
 kinetic energy error for atom=    0.0041 (will be added to EATOM!!)
 
 
 POSCAR: # Compound: Li48O24S24Fe24. Old comment:
  positions in direct lattice
  No initial velocities read in
 exchange correlation table for  LEXCH =        8
   RHO(1)=    0.500       N(1)  =     2000
   RHO(2)=  100.500       N(2)  =     4000
 


--------------------------------------------------------------------------------------------------------


 ion  position               nearest neighbor table
   1  0.035  0.363  0.356-  51 1.97  49 1.97  73 2.64
   2  0.369  0.363  0.356-  49 1.97  50 1.97  74 2.65
   3  0.702  0.363  0.356-  50 1.97  51 1.97  75 2.65
   4  0.035  0.863  0.356-  54 1.97  52 1.97  76 2.65
   5  0.369  0.863  0.356-  52 1.97  53 1.97  77 2.65
   6  0.702  0.863  0.356-  53 1.97  54 1.97  78 2.65
   7  0.035  0.363  0.856-  57 1.97  55 1.97  79 2.65
   8  0.369  0.363  0.856-  55 1.97  56 1.97  80 2.65
   9  0.702  0.363  0.856-  56 1.97  57 1.97  81 2.65
  10  0.035  0.863  0.856-  60 1.97  58 1.97  82 2.65
  11  0.369  0.863  0.856-  58 1.97  59 1.97  83 2.65
  12  0.702  0.863  0.856-  59 1.97  60 1.97  84 2.65
  13  0.035  0.113  0.144-  63 1.97  61 1.97  85 2.65
  14  0.369  0.113  0.144-  61 1.97  62 1.97  86 2.65
  15  0.702  0.113  0.144-  62 1.97  63 1.97  87 2.65
  16  0.035  0.613  0.144-  66 1.97  64 1.97  88 2.65
  17  0.369  0.613  0.144-  64 1.97  65 1.97  89 2.65
  18  0.702  0.613  0.144-  65 1.97  66 1.97  90 2.65
  19  0.035  0.113  0.644-  69 1.97  67 1.97  91 2.65
  20  0.369  0.113  0.644-  67 1.97  68 1.97  92 2.65
  21  0.702  0.113  0.644-  68 1.97  69 1.97  93 2.65
  22  0.035  0.613  0.644-  72 1.97  70 1.97  94 2.65
  23  0.369  0.613  0.644-  70 1.97  71 1.97  95 2.65
  24  0.702  0.613  0.644-  71 1.97  72 1.97  96 2.65
  25  0.202  0.219  0.272-  61 1.99  49 2.02  85 2.55  86 2.55
  26  0.535  0.219  0.272-  62 1.99  50 2.02  86 2.55  87 2.55
  27  0.869  0.219  0.272-  63 1.99  51 2.02  87 2.55  85 2.55
  28  0.202  0.719  0.272-  64 1.99  52 2.02  88 2.55  89 2.55
  29  0.535  0.719  0.272-  65 1.99  53 2.02  89 2.55  90 2.55
  30  0.869  0.719  0.272-  66 1.99  54 2.02  90 2.55  88 2.55
  31  0.202  0.219  0.772-  67 1.99  55 2.02  91 2.55  92 2.55
  32  0.535  0.219  0.772-  68 1.99  56 2.02  92 2.55  93 2.55
  33  0.869  0.219  0.772-  69 1.99  57 2.02  93 2.55  91 2.55
  34  0.202  0.719  0.772-  70 1.99  58 2.02  94 2.55  95 2.55
  35  0.535  0.719  0.772-  71 1.99  59 2.02  95 2.55  96 2.55
  36  0.869  0.719  0.772-  72 1.99  60 2.02  96 2.55  94 2.55
  37  0.202  0.469  0.228-  49 1.99  64 2.02  73 2.55  74 2.55
  38  0.535  0.469  0.228-  50 1.99  65 2.02  74 2.55  75 2.55
  39  0.869  0.469  0.228-  51 1.99  66 2.02  75 2.55  73 2.55
  40  0.202  0.969  0.228-  52 1.99  61 2.02  76 2.55  77 2.55
  41  0.535  0.969  0.228-  53 1.99  62 2.02  77 2.55  78 2.55
  42  0.869  0.969  0.228-  54 1.99  63 2.02  78 2.55  76 2.55
  43  0.202  0.469  0.728-  55 1.99  70 2.02  79 2.55  80 2.55
  44  0.535  0.469  0.728-  56 1.99  71 2.02  80 2.55  81 2.55
  45  0.869  0.469  0.728-  57 1.99  72 2.02  81 2.55  79 2.55
  46  0.202  0.969  0.728-  58 1.99  67 2.02  82 2.55  83 2.55
  47  0.535  0.969  0.728-  59 1.99  68 2.02  83 2.55  84 2.55
  48  0.869  0.969  0.728-  60 1.99  69 2.02  84 2.55  82 2.55
  49  0.202  0.368  0.374-   2 1.97   1 1.97  37 1.99 100 2.01  25 2.02 115 2.02
  50  0.535  0.368  0.374-   3 1.97   2 1.97  38 1.99 101 2.01  26 2.02 116 2.02
  51  0.869  0.368  0.374-   3 1.97   1 1.97  39 1.99 102 2.01  27 2.02 117 2.02
  52  0.202  0.868  0.374-   5 1.97   4 1.97  40 1.99  97 2.01  28 2.02 118 2.02
  53  0.535  0.868  0.374-   6 1.97   5 1.97  41 1.99  98 2.01  29 2.02 119 2.02
  54  0.869  0.868  0.374-   4 1.97   6 1.97  42 1.99  99 2.01  30 2.02 120 2.02
  55  0.202  0.368  0.874-   8 1.97   7 1.97  43 1.99 106 2.01  31 2.02 109 2.02
  56  0.535  0.368  0.874-   9 1.97   8 1.97  44 1.99 107 2.01  32 2.02 110 2.02
  57  0.869  0.368  0.874-   7 1.97   9 1.97  45 1.99 108 2.01  33 2.02 111 2.02
  58  0.202  0.868  0.874-  11 1.97  10 1.97  46 1.99 103 2.01  34 2.02 112 2.02
  59  0.535  0.868  0.874-  12 1.97  11 1.97  47 1.99 104 2.01  35 2.02 113 2.02
  60  0.869  0.868  0.874-  10 1.97  12 1.97  48 1.99 105 2.01  36 2.02 114 2.02
  61  0.202  0.118  0.126-  14 1.97  13 1.97  25 1.99 109 2.01  40 2.02 103 2.02
  62  0.535  0.118  0.126-  15 1.97  14 1.97  26 1.99 110 2.01  41 2.02 104 2.02
  63  0.869  0.118  0.126-  13 1.97  15 1.97  27 1.99 111 2.01  42 2.02 105 2.02
  64  0.202  0.618  0.126-  17 1.97  16 1.97  28 1.99 112 2.01  37 2.02 106 2.02
  65  0.535  0.618  0.126-  18 1.97  17 1.97  29 1.99 113 2.01  38 2.02 107 2.02
  66  0.869  0.618  0.126-  16 1.97  18 1.97  30 1.99 114 2.01  39 2.02 108 2.02
  67  0.202  0.118  0.626-  20 1.97  19 1.97  31 1.99 115 2.01  46 2.02  97 2.02
  68  0.535  0.118  0.626-  21 1.97  20 1.97  32 1.99 116 2.01  47 2.02  98 2.02
  69  0.869  0.118  0.626-  19 1.97  21 1.97  33 1.99 117 2.01  48 2.02  99 2.02
  70  0.202  0.618  0.626-  23 1.97  22 1.97  34 1.99 118 2.01  43 2.02 100 2.02
  71  0.535  0.618  0.626-  24 1.97  23 1.97  35 1.99 119 2.01  44 2.02 101 2.02
  72  0.869  0.618  0.626-  22 1.97  24 1.97  36 1.99 120 2.01  45 2.02 102 2.02
  73  0.035  0.370  0.120-  37 2.55  39 2.55 111 2.56 109 2.56   1 2.64
  74  0.369  0.370  0.120-  38 2.55  37 2.55 109 2.56 110 2.56   2 2.65
  75  0.702  0.370  0.120-  39 2.55  38 2.55 110 2.56 111 2.56   3 2.65
  76  0.035  0.870  0.120-  40 2.55  42 2.55 114 2.56 112 2.56   4 2.65
  77  0.369  0.870  0.120-  41 2.55  40 2.55 112 2.56 113 2.56   5 2.65
  78  0.702  0.870  0.120-  42 2.55  41 2.55 113 2.56 114 2.56   6 2.65
  79  0.035  0.370  0.620-  43 2.55  45 2.55 117 2.56 115 2.56   7 2.65
  80  0.369  0.370  0.620-  44 2.55  43 2.55 115 2.56 116 2.56   8 2.65
  81  0.702  0.370  0.620-  45 2.55  44 2.55 116 2.56 117 2.56   9 2.65
  82  0.035  0.870  0.620-  46 2.55  48 2.55 120 2.56 118 2.56  10 2.65
  83  0.369  0.870  0.620-  47 2.55  46 2.55 118 2.56 119 2.56  11 2.65
  84  0.702  0.870  0.620-  48 2.55  47 2.55 119 2.56 120 2.56  12 2.65
  85  0.035  0.120  0.380-  25 2.55  27 2.55  99 2.56  97 2.56  13 2.65
  86  0.369  0.120  0.380-  26 2.55  25 2.55  97 2.56  98 2.56  14 2.65
  87  0.702  0.120  0.380-  27 2.55  26 2.55  98 2.56  99 2.56  15 2.65
  88  0.035  0.620  0.380-  28 2.55  30 2.55 102 2.56 100 2.56  16 2.65
  89  0.369  0.620  0.380-  29 2.55  28 2.55 100 2.56 101 2.56  17 2.65
  90  0.702  0.620  0.380-  30 2.55  29 2.55 101 2.56 102 2.56  18 2.65
  91  0.035  0.120  0.880-  31 2.55  33 2.55 105 2.56 103 2.56  19 2.65
  92  0.369  0.120  0.880-  32 2.55  31 2.55 103 2.56 104 2.56  20 2.65
  93  0.702  0.120  0.880-  33 2.55  32 2.55 104 2.56 105 2.56  21 2.65
  94  0.035  0.620  0.880-  34 2.55  36 2.55 108 2.56 106 2.56  22 2.65
  95  0.369  0.620  0.880-  35 2.55  34 2.55 106 2.56 107 2.56  23 2.65
  96  0.702  0.620  0.880-  36 2.55  35 2.55 107 2.56 108 2.56  24 2.65
  97  0.202  0.012  0.480-  52 2.01  67 2.02  86 2.56  85 2.56
  98  0.535  0.012  0.480-  53 2.01  68 2.02  87 2.56  86 2.56
  99  0.869  0.012  0.480-  54 2.01  69 2.02  85 2.56  87 2.56
 100  0.202  0.512  0.480-  49 2.01  70 2.02  89 2.56  88 2.56
 101  0.535  0.512  0.480-  50 2.01  71 2.02  90 2.56  89 2.56
 102  0.869  0.512  0.480-  51 2.01  72 2.02  88 2.56  90 2.56
 103  0.202  0.012  0.980-  58 2.01  61 2.02  92 2.56  91 2.56
 104  0.535  0.012  0.980-  59 2.01  62 2.02  93 2.56  92 2.56
 105  0.869  0.012  0.980-  60 2.01  63 2.02  91 2.56  93 2.56
 106  0.202  0.512  0.980-  55 2.01  64 2.02  95 2.56  94 2.56
 107  0.535  0.512  0.980-  56 2.01  65 2.02  96 2.56  95 2.56
 108  0.869  0.512  0.980-  57 2.01  66 2.02  94 2.56  96 2.56
 109  0.202  0.262  0.020-  61 2.01  55 2.02  74 2.56  73 2.56
 110  0.535  0.262  0.020-  62 2.01  56 2.02  75 2.56  74 2.56
 111  0.869  0.262  0.020-  63 2.01  57 2.02  73 2.56  75 2.56
 112  0.202  0.762  0.020-  64 2.01  58 2.02  77 2.56  76 2.56
 113  0.535  0.762  0.020-  65 2.01  59 2.02  78 2.56  77 2.56
 114  0.869  0.762  0.020-  66 2.01  60 2.02  76 2.56  78 2.56
 115  0.202  0.262  0.520-  67 2.01  49 2.02  80 2.56  79 2.56
 116  0.535  0.262  0.520-  68 2.01  50 2.02  81 2.56  80 2.56
 117  0.869  0.262  0.520-  69 2.01  51 2.02  79 2.56  81 2.56
 118  0.202  0.762  0.520-  70 2.01  52 2.02  83 2.56  82 2.56
 119  0.535  0.762  0.520-  71 2.01  53 2.02  84 2.56  83 2.56
 120  0.869  0.762  0.520-  72 2.01  54 2.02  82 2.56  84 2.56
 

IMPORTANT INFORMATION: All symmetrisations will be switched off!
NOSYMM: (Re-)initialisation of all symmetry stuff for point group C_1.

 
 
 KPOINTS: # No comment                            

Automatic generation of k-mesh.
Space group operators:
 irot       det(A)        alpha          n_x          n_y          n_z        tau_x        tau_y        tau_z
    1     1.000000     0.000000     1.000000     0.000000     0.000000     0.000000     0.000000     0.000000
 
 Subroutine IBZKPT returns following result:
 ===========================================
 
 Found     14 irreducible k-points:
 
 Following reciprocal coordinates:
            Coordinates               Weight
  0.000000  0.000000  0.000000      1.000000
  0.333333  0.000000  0.000000      2.000000
  0.000000  0.333333  0.000000      2.000000
  0.333333  0.333333  0.000000      2.000000
 -0.333333  0.333333  0.000000      2.000000
  0.000000  0.000000  0.333333      2.000000
  0.333333  0.000000  0.333333      2.000000
 -0.333333  0.000000  0.333333      2.000000
  0.000000  0.333333  0.333333      2.000000
  0.333333  0.333333  0.333333      2.000000
 -0.333333  0.333333  0.333333      2.000000
 -0.000000 -0.333333  0.333333      2.000000
  0.333333 -0.333333  0.333333      2.000000
 -0.333333 -0.333333  0.333333      2.000000
 
 Following cartesian coordinates:
            Coordinates               Weight
  0.000000  0.000000  0.000000      1.000000
  0.028403 -0.000139  0.000000      2.000000
  0.000145  0.029713  0.000000      2.000000
  0.028548  0.029574  0.000000      2.000000
 -0.028257  0.029851  0.000000      2.000000
  0.000000  0.000000  0.029774      2.000000
  0.028403 -0.000139  0.029774      2.000000
 -0.028403  0.000139  0.029774      2.000000
  0.000145  0.029713  0.029774      2.000000
  0.028548  0.029574  0.029774      2.000000
 -0.028257  0.029851  0.029774      2.000000
 -0.000145 -0.029713  0.029774      2.000000
  0.028257 -0.029851  0.029774      2.000000
 -0.028548 -0.029574  0.029774      2.000000
 


--------------------------------------------------------------------------------------------------------




 Dimension of arrays:
   k-points           NKPTS =     14   k-points in BZ     NKDIM =     14   number of bands    NBANDS=    552
   number of dos      NEDOS =    301   number of ions     NIONS =    120
   non local maximal  LDIM  =      6   non local SUM 2l+1 LMDIM =     18
   total plane-waves  NPLWV = 903168
   max r-space proj   IRMAX =      1   max aug-charges    IRDMAX= 154614
   dimension x,y,z NGX =    98 NGY =   96 NGZ =   96
   dimension x,y,z NGXF=   196 NGYF=  192 NGZF=  192
   support grid    NGXF=   392 NGYF=  384 NGZF=  384
   ions per type =              48  24  24  24
   NGX,Y,Z   is equivalent  to a cutoff of  13.88, 14.23, 14.26 a.u.
   NGXF,Y,Z  is equivalent  to a cutoff of  27.76, 28.45, 28.51 a.u.

 SYSTEM =  unknown system                          
 POSCAR =  # Compound: Li48O24S24Fe24. Old comment:

 Startparameter for this run:
   NWRITE =      1    write-flag & timer
   PREC   = accura    normal or accurate (medium, high low for compatibility)
   ISTART =      0    job   : 0-new  1-cont  2-samecut
   ICHARG =      1    charge: 1-file 2-atom 10-const
   ISPIN  =      2    spin polarized calculation?
   LNONCOLLINEAR =      F non collinear calculations
   LSORBIT =      F    spin-orbit coupling
   INIWAV =      1    electr: 0-lowe 1-rand  2-diag
   LASPH  =      T    aspherical Exc in radial PAW
   METAGGA=      F    non-selfconsistent MetaGGA calc.

 Electronic Relaxation 1
   ENCUT  =  650.0 eV  47.77 Ry    6.91 a.u.  24.40 23.32 23.27*2*pi/ulx,y,z
   ENINI  =  650.0     initial cutoff
   ENAUG  =  628.9 eV  augmentation charge cutoff
   NELM   =    200;   NELMIN=  8; NELMDL=  0     # of ELM steps 
   EDIFF  = 0.1E-05   stopping-criterion for ELM
   LREAL  =      F    real-space projection
   NLSPLINE    = F    spline interpolate recip. space projectors
   LCOMPAT=      F    compatible to vasp.4.4
   GGA_COMPAT  = T    GGA compatible to vasp.4.4-vasp.4.6
   LMAXPAW     = -100 max onsite density
   LMAXMIX     =    4 max onsite mixed and CHGCAR
   VOSKOWN=      0    Vosko Wilk Nusair interpolation
   ROPT   =    0.00000   0.00000   0.00000   0.00000
 Ionic relaxation
   EDIFFG = 0.1E-04   stopping-criterion for IOM
   NSW    =      0    number of steps for IOM
   NBLOCK =      1;   KBLOCK =      1    inner block; outer block 
   IBRION =     -1    ionic relax: 0-MD 1-quasi-New 2-CG
   NFREE  =      0    steps in history (QN), initial steepest desc. (CG)
   ISIF   =      3    stress and relaxation
   IWAVPR =     10    prediction:  0-non 1-charg 2-wave 3-comb
   ISYM   =      0    0-nonsym 1-usesym 2-fastsym
   LCORR  =      T    Harris-Foulkes like correction to forces

   POTIM  = 0.5000    time-step for ionic-motion
   TEIN   =    0.0    initial temperature
   TEBEG  =    0.0;   TEEND  =   0.0 temperature during run
   SMASS  =  -3.00    Nose mass-parameter (am)
   estimated Nose-frequenzy (Omega)   =  0.10E-29 period in steps =****** mass=  -0.315E-26a.u.
   SCALEE = 1.0000    scale energy and forces
   NPACO  =    256;   APACO  = 16.0  distance and # of slots for P.C.
   PSTRESS=    0.0 pullay stress

  Mass of Ions in am
   POMASS =   7.01 16.00 32.07 55.85
  Ionic Valenz
   ZVAL   =   3.00  6.00  6.00 14.00
  Atomic Wigner-Seitz radii
   RWIGS  =  -1.00 -1.00 -1.00 -1.00
  virtual crystal weights 
   VCA    =   1.00  1.00  1.00  1.00
   NELECT =     768.0000    total number of electrons
   NUPDOWN=      -1.0000    fix difference up-down

 DOS related values:
   EMIN   =  10.00;   EMAX   =-10.00  energy-range for DOS
   EFERMI =   0.00
   ISMEAR =     0;   SIGMA  =   0.05  broadening in eV -4-tet -1-fermi 0-gaus

 Electronic relaxation 2 (details)
   IALGO  =     38    algorithm
   LDIAG  =      T    sub-space diagonalisation (order eigenvalues)
   LSUBROT=      F    optimize rotation matrix (better conditioning)
   TURBO    =      0    0=normal 1=particle mesh
   IRESTART =      0    0=no restart 2=restart with 2 vectors
   NREBOOT  =      0    no. of reboots
   NMIN     =      0    reboot dimension
   EREF     =   0.00    reference energy to select bands
   IMIX   =      4    mixing-type and parameters
     AMIX     =   0.40;   BMIX     =  1.00
     AMIX_MAG =   1.60;   BMIX_MAG =  1.00
     AMIN     =   0.10
     WC   =   100.;   INIMIX=   1;  MIXPRE=   1;  MAXMIX= -45

 Intra band minimization:
   WEIMIN = 0.0000     energy-eigenvalue tresh-hold
   EBREAK =  0.45E-09  absolut break condition
   DEPER  =   0.30     relativ break condition  

   TIME   =   0.40     timestep for ELM

  volume/ion in A,a.u.               =      12.28        82.89
  Fermi-wavevector in a.u.,A,eV,Ry     =   1.317335  2.489402 23.611165  1.735372
  Thomas-Fermi vector in A             =   2.447383
 
 Write flags
   LWAVE        =      F    write WAVECAR
   LDOWNSAMPLE  =      F    k-point downsampling of WAVECAR
   LCHARG       =      T    write CHGCAR
   LVTOT        =      F    write LOCPOT, total local potential
   LVHAR        =      F    write LOCPOT, Hartree potential only
   LELF         =      F    write electronic localiz. function (ELF)
   LORBIT       =      0    0 simple, 1 ext, 2 COOP (PROOUT), +10 PAW based schemes


 Dipole corrections
   LMONO  =      F    monopole corrections only (constant potential shift)
   LDIPOL =      F    correct potential (dipole corrections)
   IDIPOL =      0    1-x, 2-y, 3-z, 4-all directions 
   EPSILON=  1.0000000 bulk dielectric constant

 LDA+U is selected, type is set to LDAUTYPE =  2
   angular momentum for each species LDAUL =    -1   -1   -1    2
   U (eV)           for each species LDAUU =   0.0  0.0  0.0  4.0
   J (eV)           for each species LDAUJ =   0.0  0.0  0.0  0.0
 Exchange correlation treatment:
   GGA     =    PE    GGA type
   LEXCH   =     8    internal setting for exchange type
   VOSKOWN=      0    Vosko Wilk Nusair interpolation
   LHFCALC =     F    Hartree Fock is set to
   LHFONE  =     F    Hartree Fock one center treatment
   AEXX    =    0.0000 exact exchange contribution

 Linear response parameters
   LEPSILON=     F    determine dielectric tensor
   LRPA    =     F    only Hartree local field effects (RPA)
   LNABLA  =     F    use nabla operator in PAW spheres
   LVEL    =     F    velocity operator in full k-point grid
   LINTERFAST=   F  fast interpolation
   KINTER  =     0    interpolate to denser k-point grid
   CSHIFT  =0.1000    complex shift for real part using Kramers Kronig
   OMEGAMAX=  -1.0    maximum frequency
   DEG_THRESHOLD= 0.2000000E-02 threshold for treating states as degnerate
   RTIME   =   -0.100 relaxation time in fs
  (WPLASMAI=    0.000 imaginary part of plasma frequency in eV, 0.658/RTIME)
   DFIELD  = 0.0000000 0.0000000 0.0000000 field for delta impulse in time
 
 Orbital magnetization related:
   ORBITALMAG=     F  switch on orbital magnetization
   LCHIMAG   =     F  perturbation theory with respect to B field
   DQ        =  0.001000  dq finite difference perturbation B field
   LLRAUG    =     F  two centre corrections for induced B field



--------------------------------------------------------------------------------------------------------


 Static calculation
 charge density and potential will be updated during run
 spin polarized calculation
 Variant of blocked Davidson
 Davidson routine will perform the subspace rotation
 perform sub-space diagonalisation
    after iterative eigenvector-optimisation
 modified Broyden-mixing scheme, WC =      100.0
 initial mixing is a Kerker type mixing with AMIX =  0.4000 and BMIX =      1.0000
 Hartree-type preconditioning will be used
 using additional bands          168
 reciprocal scheme for non local part
 use partial core corrections
 calculate Harris-corrections to forces 
   (improved forces if not selfconsistent)
 use gradient corrections 
 use of overlap-Matrix (Vanderbilt PP)
 Gauss-broadening in eV      SIGMA  =   0.05


--------------------------------------------------------------------------------------------------------


  energy-cutoff  :      650.00
  volume of cell :     1474.00
      direct lattice vectors                 reciprocal lattice vectors
    11.735727240 -0.057442860  0.000000000     0.085207850 -0.000416288  0.000000000
     0.054807880 11.218334900  0.000000000     0.000436302  0.089137657  0.000000000
     0.000000000  0.000000000 11.195620100     0.000000000  0.000000000  0.089320644

  length of vectors
    11.735867822 11.218468783 11.195620100     0.085208867  0.089138725  0.089320644


 
 k-points in units of 2pi/SCALE and weight: # No comment                            
   0.00000000  0.00000000  0.00000000       0.037
   0.02840262 -0.00013876  0.00000000       0.074
   0.00014543  0.02971255  0.00000000       0.074
   0.02854805  0.02957379  0.00000000       0.074
  -0.02825718  0.02985132  0.00000000       0.074
   0.00000000  0.00000000  0.02977355       0.074
   0.02840262 -0.00013876  0.02977355       0.074
  -0.02840262  0.00013876  0.02977355       0.074
   0.00014543  0.02971255  0.02977355       0.074
   0.02854805  0.02957379  0.02977355       0.074
  -0.02825718  0.02985132  0.02977355       0.074
  -0.00014543 -0.02971255  0.02977355       0.074
   0.02825718 -0.02985132  0.02977355       0.074
  -0.02854805 -0.02957379  0.02977355       0.074
 
 k-points in reciprocal lattice and weights: # No comment                            
   0.00000000  0.00000000  0.00000000       0.037
   0.33333333  0.00000000  0.00000000       0.074
   0.00000000  0.33333333  0.00000000       0.074
   0.33333333  0.33333333  0.00000000       0.074
  -0.33333333  0.33333333  0.00000000       0.074
   0.00000000  0.00000000  0.33333333       0.074
   0.33333333  0.00000000  0.33333333       0.074
  -0.33333333  0.00000000  0.33333333       0.074
   0.00000000  0.33333333  0.33333333       0.074
   0.33333333  0.33333333  0.33333333       0.074
  -0.33333333  0.33333333  0.33333333       0.074
  -0.00000000 -0.33333333  0.33333333       0.074
   0.33333333 -0.33333333  0.33333333       0.074
  -0.33333333 -0.33333333  0.33333333       0.074
 
 position of ions in fractional coordinates (direct lattice) 
   0.03541706  0.36277547  0.35558828
   0.36875039  0.36277547  0.35648149
   0.70208372  0.36277547  0.35648149
   0.03541706  0.86277547  0.35648149
   0.36875039  0.86277547  0.35648149
   0.70208372  0.86277547  0.35648149
   0.03541706  0.36277547  0.85648149
   0.36875039  0.36277547  0.85648149
   0.70208372  0.36277547  0.85648149
   0.03541706  0.86277547  0.85648149
   0.36875039  0.86277547  0.85648149
   0.70208372  0.86277547  0.85648149
   0.03541706  0.11277547  0.14351851
   0.36875039  0.11277547  0.14351851
   0.70208372  0.11277547  0.14351851
   0.03541706  0.61277547  0.14351851
   0.36875039  0.61277547  0.14351851
   0.70208372  0.61277547  0.14351851
   0.03541706  0.11277547  0.64351851
   0.36875039  0.11277547  0.64351851
   0.70208372  0.11277547  0.64351851
   0.03541706  0.61277547  0.64351851
   0.36875039  0.61277547  0.64351851
   0.70208372  0.61277547  0.64351851
   0.20209458  0.21898060  0.27246215
   0.53542792  0.21898060  0.27246215
   0.86876125  0.21898060  0.27246215
   0.20209458  0.71898060  0.27246215
   0.53542792  0.71898060  0.27246215
   0.86876125  0.71898060  0.27246215
   0.20209458  0.21898060  0.77246215
   0.53542792  0.21898060  0.77246215
   0.86876125  0.21898060  0.77246215
   0.20209458  0.71898060  0.77246215
   0.53542792  0.71898060  0.77246215
   0.86876125  0.71898060  0.77246215
   0.20209458  0.46898060  0.22753785
   0.53542792  0.46898060  0.22753785
   0.86876125  0.46898060  0.22753785
   0.20209458  0.96898060  0.22753785
   0.53542792  0.96898060  0.22753785
   0.86876125  0.96898060  0.22753785
   0.20209458  0.46898060  0.72753785
   0.53542792  0.46898060  0.72753785
   0.86876125  0.46898060  0.72753785
   0.20209458  0.96898060  0.72753785
   0.53542792  0.96898060  0.72753785
   0.86876125  0.96898060  0.72753785
   0.20209064  0.36769237  0.37376509
   0.53542398  0.36769237  0.37376509
   0.86875731  0.36769237  0.37376509
   0.20209064  0.86769237  0.37376509
   0.53542398  0.86769237  0.37376509
   0.86875731  0.86769237  0.37376509
   0.20209064  0.36769237  0.87376509
   0.53542398  0.36769237  0.87376509
   0.86875731  0.36769237  0.87376509
   0.20209064  0.86769237  0.87376509
   0.53542398  0.86769237  0.87376509
   0.86875731  0.86769237  0.87376509
   0.20209064  0.11769237  0.12623491
   0.53542398  0.11769237  0.12623491
   0.86875731  0.11769237  0.12623491
   0.20209064  0.61769237  0.12623491
   0.53542398  0.61769237  0.12623491
   0.86875731  0.61769237  0.12623491
   0.20209064  0.11769237  0.62623491
   0.53542398  0.11769237  0.62623491
   0.86875731  0.11769237  0.62623491
   0.20209064  0.61769237  0.62623491
   0.53542398  0.61769237  0.62623491
   0.86875731  0.61769237  0.62623491
   0.03542751  0.37011947  0.12029448
   0.36876084  0.37011947  0.12029448
   0.70209418  0.37011947  0.12029448
   0.03542751  0.87011947  0.12029448
   0.36876084  0.87011947  0.12029448
   0.70209418  0.87011947  0.12029448
   0.03542751  0.37011947  0.62029448
   0.36876084  0.37011947  0.62029448
   0.70209418  0.37011947  0.62029448
   0.03542751  0.87011947  0.62029448
   0.36876084  0.87011947  0.62029448
   0.70209418  0.87011947  0.62029448
   0.03542751  0.12011947  0.37970552
   0.36876084  0.12011947  0.37970552
   0.70209418  0.12011947  0.37970552
   0.03542751  0.62011947  0.37970552
   0.36876084  0.62011947  0.37970552
   0.70209418  0.62011947  0.37970552
   0.03542751  0.12011947  0.87970552
   0.36876084  0.12011947  0.87970552
   0.70209418  0.12011947  0.87970552
   0.03542751  0.62011947  0.87970552
   0.36876084  0.62011947  0.87970552
   0.70209418  0.62011947  0.87970552
   0.20209387  0.01225309  0.48003463
   0.53542720  0.01225309  0.48003463
   0.86876054  0.01225309  0.48003463
   0.20209387  0.51225309  0.48003463
   0.53542720  0.51225309  0.48003463
   0.86876054  0.51225309  0.48003463
   0.20209387  0.01225309  0.98003463
   0.53542720  0.01225309  0.98003463
   0.86876054  0.01225309  0.98003463
   0.20209387  0.51225309  0.98003463
   0.53542720  0.51225309  0.98003463
   0.86876054  0.51225309  0.98003463
   0.20209387  0.26225309  0.01996537
   0.53542720  0.26225309  0.01996537
   0.86876054  0.26225309  0.01996537
   0.20209387  0.76225309  0.01996537
   0.53542720  0.76225309  0.01996537
   0.86876054  0.76225309  0.01996537
   0.20209387  0.26225309  0.51996537
   0.53542720  0.26225309  0.51996537
   0.86876054  0.26225309  0.51996537
   0.20209387  0.76225309  0.51996537
   0.53542720  0.76225309  0.51996537
   0.86876054  0.76225309  0.51996537
 
 position of ions in cartesian coordinates  (Angst):
   0.43552787  4.06770226  3.98103128
   4.34743695  4.04855464  3.99103128
   8.25934603  4.02940702  3.99103128
   0.46293181  9.67686971  3.99103128
   4.37484089  9.65772209  3.99103128
   8.28674997  9.63857447  3.99103128
   0.43552787  4.06770226  9.58884133
   4.34743695  4.04855464  9.58884133
   8.25934603  4.02940702  9.58884133
   0.46293181  9.67686971  9.58884133
   4.37484089  9.65772209  9.58884133
   8.28674997  9.63857447  9.58884133
   0.42182590  1.26311853  1.60677877
   4.33373498  1.24397091  1.60677877
   8.24564406  1.22482329  1.60677877
   0.44922984  6.87228598  1.60677877
   4.36113892  6.85313836  1.60677877
   8.27304800  6.83399074  1.60677877
   0.42182590  1.26311853  7.20458882
   4.33373498  1.24397091  7.20458882
   8.24564406  1.22482329  7.20458882
   0.44922984  6.87228598  7.20458882
   4.36113892  6.85313836  7.20458882
   8.27304800  6.83399074  7.20458882
   2.38372877  2.44498882  3.05038272
   6.29563785  2.42584120  3.05038272
  10.20754693  2.40669358  3.05038272
   2.41113271  8.05415627  3.05038272
   6.32304179  8.03500865  3.05038272
  10.23495087  8.01586103  3.05038272
   2.38372877  2.44498882  8.64819277
   6.29563785  2.42584120  8.64819277
  10.20754693  2.40669358  8.64819277
   2.41113271  8.05415627  8.64819277
   6.32304179  8.03500865  8.64819277
  10.23495087  8.01586103  8.64819277
   2.39743074  5.24957254  2.54742733
   6.30933982  5.23042492  2.54742733
  10.22124890  5.21127730  2.54742733
   2.42483468 10.85873999  2.54742733
   6.33674376 10.83959237  2.54742733
  10.24865284 10.82044475  2.54742733
   2.39743074  5.24957254  8.14523738
   6.30933982  5.23042492  8.14523738
  10.22124890  5.21127730  8.14523738
   2.42483468 10.85873999  8.14523738
   6.33674376 10.83959237  8.14523738
  10.24865284 10.82044475  8.14523738
   2.39183311  4.11328754  4.18453195
   6.30374219  4.09413992  4.18453195
  10.21565127  4.07499230  4.18453195
   2.41923705  9.72245499  4.18453195
   6.33114613  9.70330737  4.18453195
  10.24305521  9.68415975  4.18453195
   2.39183311  4.11328754  9.78234200
   6.30374219  4.09413992  9.78234200
  10.21565127  4.07499230  9.78234200
   2.41923705  9.72245499  9.78234200
   6.33114613  9.70330737  9.78234200
  10.24305521  9.68415975  9.78234200
   2.37813114  1.30870381  1.41327810
   6.29004022  1.28955619  1.41327810
  10.20194930  1.27040857  1.41327810
   2.40553508  6.91787126  1.41327810
   6.31744416  6.89872364  1.41327810
  10.22935324  6.87957602  1.41327810
   2.37813114  1.30870381  7.01108815
   6.29004022  1.28955619  7.01108815
  10.20194930  1.27040857  7.01108815
   2.40553508  6.91787126  7.01108815
   6.31744416  6.89872364  7.01108815
  10.22935324  6.87957602  7.01108815
   0.43605306  4.15008905  1.34677124
   4.34796214  4.13094143  1.34677124
   8.25987122  4.11179381  1.34677124
   0.46345700  9.75925650  1.34677124
   4.37536608  9.74010888  1.34677124
   8.28727516  9.72096126  1.34677124
   0.43605306  4.15008905  6.94458129
   4.34796214  4.13094143  6.94458129
   8.25987122  4.11179381  6.94458129
   0.46345700  9.75925650  6.94458129
   4.37536608  9.74010888  6.94458129
   8.28727516  9.72096126  6.94458129
   0.42235109  1.34550533  4.25103881
   4.33426017  1.32635771  4.25103881
   8.24616925  1.30721009  4.25103881
   0.44975503  6.95467278  4.25103881
   4.36166411  6.93552516  4.25103881
   8.27357319  6.91637754  4.25103881
   0.42235109  1.34550533  9.84884886
   4.33426017  1.32635771  9.84884886
   8.24616925  1.30721009  9.84884886
   0.44975503  6.95467278  9.84884886
   4.36166411  6.93552516  9.84884886
   8.27357319  6.91637754  9.84884886
   2.37239010  0.12585042  5.37428530
   6.28429918  0.10670280  5.37428530
  10.19620826  0.08755518  5.37428530
   2.39979404  5.73501787  5.37428530
   6.31170312  5.71587025  5.37428530
  10.22361220  5.69672263  5.37428530
   2.37239010  0.12585042 10.97209535
   6.28429918  0.10670280 10.97209535
  10.19620826  0.08755518 10.97209535
   2.39979404  5.73501787 10.97209535
   6.31170312  5.71587025 10.97209535
  10.22361220  5.69672263 10.97209535
   2.38609207  2.93043414  0.22352475
   6.29800115  2.91128652  0.22352475
  10.20991023  2.89213890  0.22352475
   2.41349601  8.53960159  0.22352475
   6.32540509  8.52045397  0.22352475
  10.23731417  8.50130635  0.22352475
   2.38609207  2.93043414  5.82133480
   6.29800115  2.91128652  5.82133480
  10.20991023  2.89213890  5.82133480
   2.41349601  8.53960159  5.82133480
   6.32540509  8.52045397  5.82133480
  10.23731417  8.50130635  5.82133480
 


--------------------------------------------------------------------------------------------------------


 k-point  1 :   0.0000 0.0000 0.0000  plane waves:   55469
 k-point  2 :   0.3333 0.0000 0.0000  plane waves:   55443
 k-point  3 :   0.0000 0.3333 0.0000  plane waves:   55474
 k-point  4 :   0.3333 0.3333 0.0000  plane waves:   55456
 k-point  5 :  -0.3333 0.3333 0.0000  plane waves:   55456
 k-point  6 :   0.0000 0.0000 0.3333  plane waves:   55522
 k-point  7 :   0.3333 0.0000 0.3333  plane waves:   55468
 k-point  8 :  -0.3333 0.0000 0.3333  plane waves:   55468
 k-point  9 :   0.0000 0.3333 0.3333  plane waves:   55433
 k-point 10 :   0.3333 0.3333 0.3333  plane waves:   55444
 k-point 11 :  -0.3333 0.3333 0.3333  plane waves:   55444
 k-point 12 :  -0.0000-0.3333 0.3333  plane waves:   55433
 k-point 13 :   0.3333-0.3333 0.3333  plane waves:   55444
 k-point 14 :  -0.3333-0.3333 0.3333  plane waves:   55444

 maximum and minimum number of plane-waves per node :      9314     9185

 maximum number of plane-waves:     55522
 maximum index in each direction: 
   IXMAX=   24   IYMAX=   23   IZMAX=   23
   IXMIN=  -24   IYMIN=  -23   IZMIN=  -23


 parallel 3D FFT for wavefunctions:
    minimum data exchange during FFTs selected (reduces bandwidth)
 parallel 3D FFT for charge:
    minimum data exchange during FFTs selected (reduces bandwidth)


 total amount of memory used by VASP MPI-rank0   801761. kBytes
=======================================================================

   base      :      30000. kBytes
   nonl-proj :      92491. kBytes
   fftplans  :      50318. kBytes
   grid      :      44712. kBytes
   one-center:        622. kBytes
   wavefun   :     583618. kBytes
 
     INWAV:  cpu time    0.0000: real time    0.0000
 Broyden mixing: mesh for mixing (old mesh)
   NGX = 49   NGY = 47   NGZ = 47
  (NGX  =196   NGY  =192   NGZ  =192)
  gives a total of 108241 points

 initial charge density was supplied:
 number of electron     768.0000015 magnetization      96.0009074
 keeping initial charge density in first step


--------------------------------------------------------------------------------------------------------


 Maximum index for augmentation-charges         7847 (set IRDMAX)


--------------------------------------------------------------------------------------------------------


 First call to EWALD:  gamma=   0.156
 Maximum number of real-space cells 3x 3x 3
 Maximum number of reciprocal cells 3x 3x 3

    FEWALD:  cpu time    0.0067: real time    0.0067


--------------------------------------- Iteration      1(   1)  ---------------------------------------


    POTLOK:  cpu time    0.4826: real time    0.4910
    SETDIJ:  cpu time    1.4769: real time    1.4813
     EDDAV:  cpu time  219.6232: real time  224.1067
       DOS:  cpu time    0.0055: real time    0.0055
    --------------------------------------------
      LOOP:  cpu time  221.5882: real time  226.0845

 eigenvalue-minimisations  : 32400
 total energy-change (2. order) : 0.1004336E+05  (-0.4138219E+05)
 number of electron     768.0000015 magnetization      96.0009074
 augmentation part      768.0000015 magnetization      96.0009074

 Free energy of the ion-electron system (eV)
  ---------------------------------------------------
  alpha Z        PSCENC =      1915.67052055
  Ewald energy   TEWEN  =    -48532.97697725
  -Hartree energ DENC   =    -28982.66465032
  -exchange      EXHF   =         0.00000000
  -V(xc)+E(xc)   XCENC  =      3297.26330039
  PAW double counting   =     81710.32686745   -84426.12035439
  entropy T*S    EENTRO =        -0.01840523
  eigenvalues    EBANDS =      -670.08026032
  atomic energy  EATOM  =     85731.96378919
  Solvation  Ediel_sol  =         0.00000000
  ---------------------------------------------------
  free energy    TOTEN  =     10043.36383008 eV

  energy without entropy =    10043.38223530  energy(sigma->0) =    10043.37303269


--------------------------------------------------------------------------------------------------------




--------------------------------------- Iteration      1(   2)  ---------------------------------------


     EDDAV:  cpu time  211.1097: real time  215.1794
       DOS:  cpu time    0.0051: real time    0.0051
    --------------------------------------------
      LOOP:  cpu time  211.1147: real time  215.1844

 eigenvalue-minimisations  : 30912
 total energy-change (2. order) :-0.9006300E+04  (-0.8363382E+04)
 number of electron     768.0000015 magnetization      96.0009074
 augmentation part      768.0000015 magnetization      96.0009074

 Free energy of the ion-electron system (eV)
  ---------------------------------------------------
  alpha Z        PSCENC =      1915.67052055
  Ewald energy   TEWEN  =    -48532.97697725
  -Hartree energ DENC   =    -28982.66465032
  -exchange      EXHF   =         0.00000000
  -V(xc)+E(xc)   XCENC  =      3297.26330039
  PAW double counting   =     81710.32686745   -84426.12035439
  entropy T*S    EENTRO =        -0.05223513
  eigenvalues    EBANDS =     -9676.34657159
  atomic energy  EATOM  =     85731.96378919
  Solvation  Ediel_sol  =         0.00000000
  ---------------------------------------------------
  free energy    TOTEN  =      1037.06368891 eV

  energy without entropy =     1037.11592403  energy(sigma->0) =     1037.08980647


--------------------------------------------------------------------------------------------------------




--------------------------------------- Iteration      1(   3)  ---------------------------------------


     EDDAV:  cpu time  231.2340: real time  235.9620
       DOS:  cpu time    0.0023: real time    0.0023
    --------------------------------------------
      LOOP:  cpu time  231.2363: real time  235.9643

 eigenvalue-minimisations  : 34696
 total energy-change (2. order) :-0.1436816E+04  (-0.1296164E+04)
 number of electron     768.0000015 magnetization      96.0009074
 augmentation part      768.0000015 magnetization      96.0009074

 Free energy of the ion-electron system (eV)
  ---------------------------------------------------
  alpha Z        PSCENC =      1915.67052055
  Ewald energy   TEWEN  =    -48532.97697725
  -Hartree energ DENC   =    -28982.66465032
  -exchange      EXHF   =         0.00000000
  -V(xc)+E(xc)   XCENC  =      3297.26330039
  PAW double counting   =     81710.32686745   -84426.12035439
  entropy T*S    EENTRO =        -0.00000000
  eigenvalues    EBANDS =    -11113.21511820
  atomic energy  EATOM  =     85731.96378919
  Solvation  Ediel_sol  =         0.00000000
  ---------------------------------------------------
  free energy    TOTEN  =      -399.75262257 eV

  energy without entropy =     -399.75262257  energy(sigma->0) =     -399.75262257


--------------------------------------------------------------------------------------------------------




--------------------------------------- Iteration      1(   4)  ---------------------------------------


     EDDAV:  cpu time  262.1830: real time  268.1770
       DOS:  cpu time    0.0024: real time    0.0024
    --------------------------------------------
      LOOP:  cpu time  262.1853: real time  268.1794

 eigenvalue-minimisations  : 41040
 total energy-change (2. order) :-0.1905530E+03  (-0.1883981E+03)
 number of electron     768.0000015 magnetization      96.0009074
 augmentation part      768.0000015 magnetization      96.0009074

 Free energy of the ion-electron system (eV)
  ---------------------------------------------------
  alpha Z        PSCENC =      1915.67052055
  Ewald energy   TEWEN  =    -48532.97697725
  -Hartree energ DENC   =    -28982.66465032
  -exchange      EXHF   =         0.00000000
  -V(xc)+E(xc)   XCENC  =      3297.26330039
  PAW double counting   =     81710.32686745   -84426.12035439
  entropy T*S    EENTRO =        -0.00000000
  eigenvalues    EBANDS =    -11303.76808087
  atomic energy  EATOM  =     85731.96378919
  Solvation  Ediel_sol  =         0.00000000
  ---------------------------------------------------
  free energy    TOTEN  =      -590.30558525 eV

  energy without entropy =     -590.30558525  energy(sigma->0) =     -590.30558525


--------------------------------------------------------------------------------------------------------




--------------------------------------- Iteration      1(   5)  ---------------------------------------


     EDDAV:  cpu time  335.7722: real time  341.9410
       DOS:  cpu time    0.0031: real time    0.0031
    CHARGE:  cpu time    5.5993: real time    5.6450
    MIXING:  cpu time    0.0137: real time    0.0216
    --------------------------------------------
      LOOP:  cpu time  341.3884: real time  347.6108

 eigenvalue-minimisations  : 54432
 total energy-change (2. order) :-0.2513591E+02  (-0.2489795E+02)
 number of electron     768.0000015 magnetization      96.0005841
 augmentation part      246.8399350 magnetization      62.9158979

 Broyden mixing:
  rms(total) = 0.27734E+00    rms(broyden)= 0.27718E+00
  rms(prec ) = 0.28157E+00
  weight for this iteration     100.00

 Free energy of the ion-electron system (eV)
  ---------------------------------------------------
  alpha Z        PSCENC =      1915.67052055
  Ewald energy   TEWEN  =    -48532.97697725
  -Hartree energ DENC   =    -28982.66465032
  -exchange      EXHF   =         0.00000000
  -V(xc)+E(xc)   XCENC  =      3297.26330039
  PAW double counting   =     81710.32686745   -84426.12035439
  entropy T*S    EENTRO =        -0.00000000
  eigenvalues    EBANDS =    -11328.90399267
  atomic energy  EATOM  =     85731.96378919
  Solvation  Ediel_sol  =         0.00000000
  ---------------------------------------------------
  free energy    TOTEN  =      -615.44149704 eV

  energy without entropy =     -615.44149704  energy(sigma->0) =     -615.44149704


--------------------------------------------------------------------------------------------------------




--------------------------------------- Iteration      1(   6)  ---------------------------------------


    POTLOK:  cpu time    0.4779: real time    0.4920
    SETDIJ:  cpu time    1.3377: real time    1.4754
     EDDAV:  cpu time  269.8756: real time  275.3996
       DOS:  cpu time    0.0021: real time    0.0021
    CHARGE:  cpu time    5.5633: real time    5.6684
    MIXING:  cpu time    0.0190: real time    0.0259
    --------------------------------------------
      LOOP:  cpu time  277.2757: real time  283.0635

 eigenvalue-minimisations  : 42328
 total energy-change (2. order) :-0.9460024E+00  (-0.9742980E+00)
 number of electron     768.0000015 magnetization      96.0004370
 augmentation part      245.7238191 magnetization      63.0629366

 Broyden mixing:
  rms(total) = 0.11995E+00    rms(broyden)= 0.11980E+00
  rms(prec ) = 0.12143E+00
  weight for this iteration     100.00

 eigenvalues of (default mixing * dielectric matrix)
  average eigenvalue GAMMA=   0.6644
  0.6644

 Free energy of the ion-electron system (eV)
  ---------------------------------------------------
  alpha Z        PSCENC =      1915.67052055
  Ewald energy   TEWEN  =    -48532.97697725
  -Hartree energ DENC   =    -28976.51427760
  -exchange      EXHF   =         0.00000000
  -V(xc)+E(xc)   XCENC  =      3296.38869042
  PAW double counting   =     81551.10956731   -84263.00450662
  entropy T*S    EENTRO =        -0.00000000
  eigenvalues    EBANDS =    -11339.02430541
  atomic energy  EATOM  =     85731.96378919
  Solvation  Ediel_sol  =         0.00000000
  ---------------------------------------------------
  free energy    TOTEN  =      -616.38749940 eV

  energy without entropy =     -616.38749940  energy(sigma->0) =     -616.38749940


--------------------------------------------------------------------------------------------------------




--------------------------------------- Iteration      1(   7)  ---------------------------------------


    POTLOK:  cpu time    0.4889: real time    0.4917
    SETDIJ:  cpu time    1.4009: real time    1.5010
     EDDAV:  cpu time  306.5746: real time  312.6133
       DOS:  cpu time    0.0022: real time    0.0022
    CHARGE:  cpu time    5.6274: real time    5.6683
    MIXING:  cpu time    0.0217: real time    0.0296
    --------------------------------------------
      LOOP:  cpu time  314.1156: real time  320.3060

 eigenvalue-minimisations  : 49464
 total energy-change (2. order) :-0.4801178E-01  (-0.4768200E-01)
 number of electron     768.0000015 magnetization      96.0003795
 augmentation part      245.5253539 magnetization      63.0184569

 Broyden mixing:
  rms(total) = 0.83376E-01    rms(broyden)= 0.83320E-01
  rms(prec ) = 0.85033E-01
  weight for this iteration     100.00

 eigenvalues of (default mixing * dielectric matrix)
  average eigenvalue GAMMA=   0.5841
  0.5841  0.5841

 Free energy of the ion-electron system (eV)
  ---------------------------------------------------
  alpha Z        PSCENC =      1915.67052055
  Ewald energy   TEWEN  =    -48532.97697725
  -Hartree energ DENC   =    -28978.48989169
  -exchange      EXHF   =         0.00000000
  -V(xc)+E(xc)   XCENC  =      3296.64388915
  PAW double counting   =     81590.05212556   -84302.88418081
  entropy T*S    EENTRO =        -0.00000000
  eigenvalues    EBANDS =    -11336.41478589
  atomic energy  EATOM  =     85731.96378919
  Solvation  Ediel_sol  =         0.00000000
  ---------------------------------------------------
  free energy    TOTEN  =      -616.43551118 eV

  energy without entropy =     -616.43551118  energy(sigma->0) =     -616.43551118


--------------------------------------------------------------------------------------------------------




--------------------------------------- Iteration      1(   8)  ---------------------------------------


    POTLOK:  cpu time    0.4802: real time    0.4898
    SETDIJ:  cpu time    1.4722: real time    1.5086
     EDDAV:  cpu time  296.4951: real time  302.9926
       DOS:  cpu time    0.0022: real time    0.0022
    CHARGE:  cpu time    5.4666: real time    5.6438
    MIXING:  cpu time    0.0186: real time    0.0245
    --------------------------------------------
      LOOP:  cpu time  303.9349: real time  310.6616

 eigenvalue-minimisations  : 47288
 total energy-change (2. order) :-0.1493869E-03  (-0.1739710E-02)
 number of electron     768.0000015 magnetization      96.0003535
 augmentation part      245.4884960 magnetization      63.0151425

 Broyden mixing:
  rms(total) = 0.72271E-01    rms(broyden)= 0.72266E-01
  rms(prec ) = 0.73805E-01
  weight for this iteration     100.00

 eigenvalues of (default mixing * dielectric matrix)
  average eigenvalue GAMMA=   0.5448
  0.6194  0.6194  0.3957

 Free energy of the ion-electron system (eV)
  ---------------------------------------------------
  alpha Z        PSCENC =      1915.67052055
  Ewald energy   TEWEN  =    -48532.97697725
  -Hartree energ DENC   =    -28979.24201367
  -exchange      EXHF   =         0.00000000
  -V(xc)+E(xc)   XCENC  =      3296.74637028
  PAW double counting   =     81610.76182142   -84324.14436264
  entropy T*S    EENTRO =        -0.00000000
  eigenvalues    EBANDS =    -11335.21480845
  atomic energy  EATOM  =     85731.96378919
  Solvation  Ediel_sol  =         0.00000000
  ---------------------------------------------------
  free energy    TOTEN  =      -616.43566057 eV

  energy without entropy =     -616.43566057  energy(sigma->0) =     -616.43566057


--------------------------------------------------------------------------------------------------------




--------------------------------------- Iteration      1(   9)  ---------------------------------------


    POTLOK:  cpu time    0.4736: real time    0.4877
    SETDIJ:  cpu time    1.4343: real time    1.4738
     EDDAV:  cpu time  305.8975: real time  312.4395
       DOS:  cpu time    0.0065: real time    0.0072
    CHARGE:  cpu time    5.5271: real time    5.6862
    MIXING:  cpu time    0.0210: real time    0.0292
    --------------------------------------------
      LOOP:  cpu time  313.3601: real time  320.1236

 eigenvalue-minimisations  : 49248
 total energy-change (2. order) : 0.6259431E-03  (-0.1042030E-03)
 number of electron     768.0000015 magnetization      96.0003531
 augmentation part      245.4937852 magnetization      63.0125453

 Broyden mixing:
  rms(total) = 0.65900E-01    rms(broyden)= 0.65899E-01
  rms(prec ) = 0.67283E-01
  weight for this iteration     100.00

 eigenvalues of (default mixing * dielectric matrix)
  average eigenvalue GAMMA=   0.4807
  0.6181  0.6181  0.3432  0.3432

 Free energy of the ion-electron system (eV)
  ---------------------------------------------------
  alpha Z        PSCENC =      1915.67052055
  Ewald energy   TEWEN  =    -48532.97697725
  -Hartree energ DENC   =    -28979.43615978
  -exchange      EXHF   =         0.00000000
  -V(xc)+E(xc)   XCENC  =      3296.79162704
  PAW double counting   =     81618.06435861   -84331.66589878
  entropy T*S    EENTRO =        -0.00000000
  eigenvalues    EBANDS =    -11334.84629422
  atomic energy  EATOM  =     85731.96378919
  Solvation  Ediel_sol  =         0.00000000
  ---------------------------------------------------
  free energy    TOTEN  =      -616.43503463 eV

  energy without entropy =     -616.43503463  energy(sigma->0) =     -616.43503463


--------------------------------------------------------------------------------------------------------




--------------------------------------- Iteration      1(  10)  ---------------------------------------


    POTLOK:  cpu time    0.4873: real time    0.5034
    SETDIJ:  cpu time    1.4685: real time    1.4932
     EDDAV:  cpu time  301.6233: real time  307.6048
       DOS:  cpu time    0.0022: real time    0.0022
    CHARGE:  cpu time    5.5775: real time    5.6482
    MIXING:  cpu time    0.0171: real time    0.0228
    --------------------------------------------
      LOOP:  cpu time  309.1759: real time  315.2747

 eigenvalue-minimisations  : 48448
 total energy-change (2. order) : 0.1609699E-04  (-0.1092170E-04)
 number of electron     768.0000015 magnetization      96.0002926
 augmentation part      245.4982538 magnetization      63.0121939

 Broyden mixing:
  rms(total) = 0.65541E-01    rms(broyden)= 0.65541E-01
  rms(prec ) = 0.66892E-01
  weight for this iteration     100.00

 eigenvalues of (default mixing * dielectric matrix)
  average eigenvalue GAMMA=   0.5013
  0.7812  0.7812  0.4395  0.4395  0.0653

 Free energy of the ion-electron system (eV)
  ---------------------------------------------------
  alpha Z        PSCENC =      1915.67052055
  Ewald energy   TEWEN  =    -48532.97697725
  -Hartree energ DENC   =    -28979.44109877
  -exchange      EXHF   =         0.00000000
  -V(xc)+E(xc)   XCENC  =      3296.79261116
  PAW double counting   =     81618.18001854   -84331.78506890
  entropy T*S    EENTRO =        -0.00000000
  eigenvalues    EBANDS =    -11334.83881306
  atomic energy  EATOM  =     85731.96378919
  Solvation  Ediel_sol  =         0.00000000
  ---------------------------------------------------
  free energy    TOTEN  =      -616.43501853 eV

  energy without entropy =     -616.43501853  energy(sigma->0) =     -616.43501853


--------------------------------------------------------------------------------------------------------




--------------------------------------- Iteration      1(  11)  ---------------------------------------


    POTLOK:  cpu time    0.4741: real time    0.4843
    SETDIJ:  cpu time    1.4293: real time    1.4610
     EDDAV:  cpu time  290.9583: real time  297.2103
       DOS:  cpu time    0.0020: real time    0.0020
    CHARGE:  cpu time    5.6910: real time    5.7566
    MIXING:  cpu time    0.0275: real time    0.0342
    --------------------------------------------
      LOOP:  cpu time  298.5822: real time  304.9484

 eigenvalue-minimisations  : 46288
 total energy-change (2. order) : 0.1044075E-02  (-0.1345930E-04)
 number of electron     768.0000015 magnetization      96.0002316
 augmentation part      245.5046683 magnetization      63.0111811

 Broyden mixing:
  rms(total) = 0.53092E-01    rms(broyden)= 0.53092E-01
  rms(prec ) = 0.54166E-01
  weight for this iteration     100.00

 eigenvalues of (default mixing * dielectric matrix)
  average eigenvalue GAMMA=   0.5721
  0.9646  0.9646  0.5079  0.5079  0.4238  0.0639

 Free energy of the ion-electron system (eV)
  ---------------------------------------------------
  alpha Z        PSCENC =      1915.67052055
  Ewald energy   TEWEN  =    -48532.97697725
  -Hartree energ DENC   =    -28979.98267999
  -exchange      EXHF   =         0.00000000
  -V(xc)+E(xc)   XCENC  =      3296.88894795
  PAW double counting   =     81636.04069817   -84350.15408583
  entropy T*S    EENTRO =        -0.00000000
  eigenvalues    EBANDS =    -11333.88418725
  atomic energy  EATOM  =     85731.96378919
  Solvation  Ediel_sol  =         0.00000000
  ---------------------------------------------------
  free energy    TOTEN  =      -616.43397445 eV

  energy without entropy =     -616.43397445  energy(sigma->0) =     -616.43397445


--------------------------------------------------------------------------------------------------------




--------------------------------------- Iteration      1(  12)  ---------------------------------------


    POTLOK:  cpu time    0.5004: real time    0.5107
    SETDIJ:  cpu time    1.4955: real time    1.4996
     EDDAV:  cpu time  293.5217: real time  299.8686
       DOS:  cpu time    0.0020: real time    0.0020
    CHARGE:  cpu time    5.5613: real time    5.6639
    MIXING:  cpu time    0.0193: real time    0.0259
    --------------------------------------------
      LOOP:  cpu time  301.1002: real time  307.5707

 eigenvalue-minimisations  : 46696
 total energy-change (2. order) : 0.7112932E-03  (-0.3890524E-04)
 number of electron     768.0000015 magnetization      96.0001682
 augmentation part      245.5174432 magnetization      63.0111792

 Broyden mixing:
  rms(total) = 0.40622E-01    rms(broyden)= 0.40622E-01
  rms(prec ) = 0.41400E-01
  weight for this iteration     100.00

 eigenvalues of (default mixing * dielectric matrix)
  average eigenvalue GAMMA=   0.6789
  1.2734  1.2734  0.6027  0.6027  0.4678  0.4678  0.0647

 Free energy of the ion-electron system (eV)
  ---------------------------------------------------
  alpha Z        PSCENC =      1915.67052055
  Ewald energy   TEWEN  =    -48532.97697725
  -Hartree energ DENC   =    -28980.58697082
  -exchange      EXHF   =         0.00000000
  -V(xc)+E(xc)   XCENC  =      3296.98139592
  PAW double counting   =     81653.34373820   -84367.93117579
  entropy T*S    EENTRO =        -0.00000000
  eigenvalues    EBANDS =    -11332.89758317
  atomic energy  EATOM  =     85731.96378919
  Solvation  Ediel_sol  =         0.00000000
  ---------------------------------------------------
  free energy    TOTEN  =      -616.43326316 eV

  energy without entropy =     -616.43326316  energy(sigma->0) =     -616.43326316


--------------------------------------------------------------------------------------------------------




--------------------------------------- Iteration      1(  13)  ---------------------------------------


    POTLOK:  cpu time    0.4772: real time    0.4903
    SETDIJ:  cpu time    1.4140: real time    1.4687
     EDDAV:  cpu time  306.8645: real time  313.3184
       DOS:  cpu time    0.0027: real time    0.0028
    CHARGE:  cpu time    5.5377: real time    5.7017
    MIXING:  cpu time    0.0164: real time    0.0240
    --------------------------------------------
      LOOP:  cpu time  314.3124: real time  321.0059

 eigenvalue-minimisations  : 49096
 total energy-change (2. order) : 0.4737091E-03  (-0.1353328E-04)
 number of electron     768.0000015 magnetization      96.0001399
 augmentation part      245.5233666 magnetization      63.0119536

 Broyden mixing:
  rms(total) = 0.28625E-01    rms(broyden)= 0.28625E-01
  rms(prec ) = 0.29148E-01
  weight for this iteration     100.00

 eigenvalues of (default mixing * dielectric matrix)
  average eigenvalue GAMMA=   0.7124
  1.4525  1.4525  0.6751  0.6751  0.4741  0.4741  0.4310  0.0647

 Free energy of the ion-electron system (eV)
  ---------------------------------------------------
  alpha Z        PSCENC =      1915.67052055
  Ewald energy   TEWEN  =    -48532.97697725
  -Hartree energ DENC   =    -28981.21147355
  -exchange      EXHF   =         0.00000000
  -V(xc)+E(xc)   XCENC  =      3297.07249122
  PAW double counting   =     81670.17932633   -84385.18487173
  entropy T*S    EENTRO =        -0.00000000
  eigenvalues    EBANDS =    -11331.94559421
  atomic energy  EATOM  =     85731.96378919
  Solvation  Ediel_sol  =         0.00000000
  ---------------------------------------------------
  free energy    TOTEN  =      -616.43278945 eV

  energy without entropy =     -616.43278945  energy(sigma->0) =     -616.43278945


--------------------------------------------------------------------------------------------------------




--------------------------------------- Iteration      1(  14)  ---------------------------------------


    POTLOK:  cpu time    0.4735: real time    0.4830
    SETDIJ:  cpu time    1.3969: real time    1.4654
     EDDAV:  cpu time  262.9091: real time  268.0970
       DOS:  cpu time    0.0021: real time    0.0026
    CHARGE:  cpu time    5.5624: real time    5.7320
    MIXING:  cpu time    0.0260: real time    0.0384
    --------------------------------------------
      LOOP:  cpu time  270.3700: real time  275.8183

 eigenvalue-minimisations  : 41048
 total energy-change (2. order) : 0.1189453E-03  (-0.1058312E-04)
 number of electron     768.0000015 magnetization      96.0000987
 augmentation part      245.5280336 magnetization      63.0105961

 Broyden mixing:
  rms(total) = 0.23803E-01    rms(broyden)= 0.23803E-01
  rms(prec ) = 0.24211E-01
  weight for this iteration     100.00

 eigenvalues of (default mixing * dielectric matrix)
  average eigenvalue GAMMA=   0.7992
  1.7624  1.7624  0.8246  0.8246  0.5331  0.5331  0.4441  0.4441  0.0647

 Free energy of the ion-electron system (eV)
  ---------------------------------------------------
  alpha Z        PSCENC =      1915.67052055
  Ewald energy   TEWEN  =    -48532.97697725
  -Hartree energ DENC   =    -28981.47577275
  -exchange      EXHF   =         0.00000000
  -V(xc)+E(xc)   XCENC  =      3297.10839350
  PAW double counting   =     81676.95400474   -84392.10478845
  entropy T*S    EENTRO =        -0.00000000
  eigenvalues    EBANDS =    -11331.57184004
  atomic energy  EATOM  =     85731.96378919
  Solvation  Ediel_sol  =         0.00000000
  ---------------------------------------------------
  free energy    TOTEN  =      -616.43267051 eV

  energy without entropy =     -616.43267051  energy(sigma->0) =     -616.43267051


--------------------------------------------------------------------------------------------------------




--------------------------------------- Iteration      1(  15)  ---------------------------------------


    POTLOK:  cpu time    0.4768: real time    0.4788
    SETDIJ:  cpu time    1.4205: real time    1.4633
     EDDAV:  cpu time  242.1949: real time  247.1995
       DOS:  cpu time    0.0021: real time    0.0021
    CHARGE:  cpu time    5.5755: real time    5.6551
    MIXING:  cpu time    0.0299: real time    0.0394
    --------------------------------------------
      LOOP:  cpu time  249.6996: real time  254.8382

 eigenvalue-minimisations  : 37184
 total energy-change (2. order) : 0.1406730E-03  (-0.4216719E-05)
 number of electron     768.0000015 magnetization      96.0000392
 augmentation part      245.5312345 magnetization      63.0109196

 Broyden mixing:
  rms(total) = 0.16353E-01    rms(broyden)= 0.16353E-01
  rms(prec ) = 0.16624E-01
  weight for this iteration     100.00

 eigenvalues of (default mixing * dielectric matrix)
  average eigenvalue GAMMA=   0.9266
  2.3534  2.3534  0.9534  0.9534  0.6069  0.6069  0.4693  0.4693  0.4347  0.0647

 Free energy of the ion-electron system (eV)
  ---------------------------------------------------
  alpha Z        PSCENC =      1915.67052055
  Ewald energy   TEWEN  =    -48532.97697725
  -Hartree energ DENC   =    -28981.85301208
  -exchange      EXHF   =         0.00000000
  -V(xc)+E(xc)   XCENC  =      3297.16066071
  PAW double counting   =     81686.66991887   -84402.01262157
  entropy T*S    EENTRO =        -0.00000000
  eigenvalues    EBANDS =    -11331.05480825
  atomic energy  EATOM  =     85731.96378919
  Solvation  Ediel_sol  =         0.00000000
  ---------------------------------------------------
  free energy    TOTEN  =      -616.43252983 eV

  energy without entropy =     -616.43252983  energy(sigma->0) =     -616.43252983


--------------------------------------------------------------------------------------------------------




--------------------------------------- Iteration      1(  16)  ---------------------------------------


    POTLOK:  cpu time    0.4872: real time    0.5021
    SETDIJ:  cpu time    1.3900: real time    1.4519
     EDDAV:  cpu time  275.2735: real time  281.2861
       DOS:  cpu time    0.0020: real time    0.0020
    CHARGE:  cpu time    5.6067: real time    5.6893
    MIXING:  cpu time    0.0329: real time    0.0488
    --------------------------------------------
      LOOP:  cpu time  282.7922: real time  288.9803

 eigenvalue-minimisations  : 43304
 total energy-change (2. order) : 0.1083685E-03  (-0.1090973E-04)
 number of electron     768.0000015 magnetization      96.0000106
 augmentation part      245.5366739 magnetization      63.0108005

 Broyden mixing:
  rms(total) = 0.60851E-02    rms(broyden)= 0.60834E-02
  rms(prec ) = 0.61603E-02
  weight for this iteration     100.00

 eigenvalues of (default mixing * dielectric matrix)
  average eigenvalue GAMMA=   0.9567
  2.5518  2.5518  1.0262  1.0262  0.6771  0.6771  0.5103  0.5103  0.4640  0.4640
  0.0647

 Free energy of the ion-electron system (eV)
  ---------------------------------------------------
  alpha Z        PSCENC =      1915.67052055
  Ewald energy   TEWEN  =    -48532.97697725
  -Hartree energ DENC   =    -28982.41259142
  -exchange      EXHF   =         0.00000000
  -V(xc)+E(xc)   XCENC  =      3297.23336247
  PAW double counting   =     81700.25939487   -84415.85255521
  entropy T*S    EENTRO =        -0.00000000
  eigenvalues    EBANDS =    -11330.31736467
  atomic energy  EATOM  =     85731.96378919
  Solvation  Ediel_sol  =         0.00000000
  ---------------------------------------------------
  free energy    TOTEN  =      -616.43242147 eV

  energy without entropy =     -616.43242147  energy(sigma->0) =     -616.43242147


--------------------------------------------------------------------------------------------------------




--------------------------------------- Iteration      1(  17)  ---------------------------------------


    POTLOK:  cpu time    0.4892: real time    0.4914
    SETDIJ:  cpu time    1.4598: real time    1.4606
     EDDAV:  cpu time  295.0766: real time  301.4340
       DOS:  cpu time    0.0021: real time    0.0021
    CHARGE:  cpu time    5.5854: real time    5.6614
    MIXING:  cpu time    0.0395: real time    0.0503
    --------------------------------------------
      LOOP:  cpu time  302.6526: real time  309.0997

 eigenvalue-minimisations  : 46856
 total energy-change (2. order) : 0.1144658E-04  (-0.9885060E-05)
 number of electron     768.0000015 magnetization      96.0000079
 augmentation part      245.5411855 magnetization      63.0108030

 Broyden mixing:
  rms(total) = 0.19254E-02    rms(broyden)= 0.19199E-02
  rms(prec ) = 0.19363E-02
  weight for this iteration     100.00

 eigenvalues of (default mixing * dielectric matrix)
  average eigenvalue GAMMA=   0.9218
  2.5409  2.5409  1.0636  1.0636  0.6997  0.6997  0.0647  0.5192  0.5192  0.4835
  0.4835  0.3835

 Free energy of the ion-electron system (eV)
  ---------------------------------------------------
  alpha Z        PSCENC =      1915.67052055
  Ewald energy   TEWEN  =    -48532.97697725
  -Hartree energ DENC   =    -28982.68093819
  -exchange      EXHF   =         0.00000000
  -V(xc)+E(xc)   XCENC  =      3297.26954757
  PAW double counting   =     81707.19634575   -84422.93371351
  entropy T*S    EENTRO =        -0.00000000
  eigenvalues    EBANDS =    -11329.94098413
  atomic energy  EATOM  =     85731.96378919
  Solvation  Ediel_sol  =         0.00000000
  ---------------------------------------------------
  free energy    TOTEN  =      -616.43241002 eV

  energy without entropy =     -616.43241002  energy(sigma->0) =     -616.43241002


--------------------------------------------------------------------------------------------------------




--------------------------------------- Iteration      1(  18)  ---------------------------------------


    POTLOK:  cpu time    0.4738: real time    0.4826
    SETDIJ:  cpu time    1.4579: real time    1.4731
     EDDAV:  cpu time  257.9051: real time  262.5187
       DOS:  cpu time    0.0021: real time    0.0021
    CHARGE:  cpu time    5.5464: real time    5.6477
    MIXING:  cpu time    0.0260: real time    0.0308
    --------------------------------------------
      LOOP:  cpu time  265.4114: real time  270.1551

 eigenvalue-minimisations  : 40280
 total energy-change (2. order) :-0.1030203E-05  (-0.1790572E-05)
 number of electron     768.0000015 magnetization      96.0000077
 augmentation part      245.5431234 magnetization      63.0107569

 Broyden mixing:
  rms(total) = 0.18019E-02    rms(broyden)= 0.17966E-02
  rms(prec ) = 0.18408E-02
  weight for this iteration     100.00

 eigenvalues of (default mixing * dielectric matrix)
  average eigenvalue GAMMA=   0.8686
  2.5672  2.5672  1.0654  1.0654  0.6986  0.6986  0.5175  0.5175  0.4681  0.4681
  0.0647  0.3073  0.2860

 Free energy of the ion-electron system (eV)
  ---------------------------------------------------
  alpha Z        PSCENC =      1915.67052055
  Ewald energy   TEWEN  =    -48532.97697725
  -Hartree energ DENC   =    -28982.70196330
  -exchange      EXHF   =         0.00000000
  -V(xc)+E(xc)   XCENC  =      3297.27286848
  PAW double counting   =     81707.89764080   -84423.64910540
  entropy T*S    EENTRO =        -0.00000000
  eigenvalues    EBANDS =    -11329.90918412
  atomic energy  EATOM  =     85731.96378919
  Solvation  Ediel_sol  =         0.00000000
  ---------------------------------------------------
  free energy    TOTEN  =      -616.43241105 eV

  energy without entropy =     -616.43241105  energy(sigma->0) =     -616.43241105


--------------------------------------------------------------------------------------------------------




--------------------------------------- Iteration      1(  19)  ---------------------------------------


    POTLOK:  cpu time    0.4756: real time    0.4802
    SETDIJ:  cpu time    1.4396: real time    1.4612
     EDDAV:  cpu time  171.6515: real time  175.4938
       DOS:  cpu time    0.0020: real time    0.0021
    --------------------------------------------
      LOOP:  cpu time  173.5686: real time  177.4373

 eigenvalue-minimisations  : 22744
 total energy-change (2. order) : 0.1694571E-06  (-0.5296366E-07)
 number of electron     768.0000015 magnetization      96.0000077
 augmentation part      245.5431234 magnetization      63.0107569

 Free energy of the ion-electron system (eV)
  ---------------------------------------------------
  alpha Z        PSCENC =      1915.67052055
  Ewald energy   TEWEN  =    -48532.97697725
  -Hartree energ DENC   =    -28982.70450972
  -exchange      EXHF   =         0.00000000
  -V(xc)+E(xc)   XCENC  =      3297.27278626
  PAW double counting   =     81707.88481572   -84423.63502803
  entropy T*S    EENTRO =        -0.00000000
  eigenvalues    EBANDS =    -11329.90780761
  atomic energy  EATOM  =     85731.96378919
  Solvation  Ediel_sol  =         0.00000000
  ---------------------------------------------------
  free energy    TOTEN  =      -616.43241088 eV

  energy without entropy =     -616.43241088  energy(sigma->0) =     -616.43241088


--------------------------------------------------------------------------------------------------------




 average (electrostatic) potential at core
  the test charge radii are     0.7079  0.7215  0.9698  0.9500
  (the norm of the test charge is              1.0000)
       1 -59.3906       2 -59.3900       3 -59.3900       4 -59.3897       5 -59.3902
       6 -59.3903       7 -59.3905       8 -59.3907       9 -59.3908      10 -59.3908
      11 -59.3906      12 -59.3910      13 -59.3913      14 -59.3910      15 -59.3910
      16 -59.3915      17 -59.3907      18 -59.3909      19 -59.3894      20 -59.3901
      21 -59.3902      22 -59.3896      23 -59.3902      24 -59.3902      25 -59.5927
      26 -59.5931      27 -59.5933      28 -59.5927      29 -59.5920      30 -59.5930
      31 -59.5928      32 -59.5929      33 -59.5935      34 -59.5924      35 -59.5930
      36 -59.5924      37 -59.5949      38 -59.5926      39 -59.5950      40 -59.5937
      41 -59.5929      42 -59.5919      43 -59.5921      44 -59.5922      45 -59.5917
      46 -59.5926      47 -59.5918      48 -59.5920      49 -70.1760      50 -70.1768
      51 -70.1760      52 -70.1767      53 -70.1768      54 -70.1768      55 -70.1778
      56 -70.1772      57 -70.1778      58 -70.1773      59 -70.1772      60 -70.1773
      61 -70.1779      62 -70.1773      63 -70.1778      64 -70.1778      65 -70.1772
      66 -70.1778      67 -70.1763      68 -70.1768      69 -70.1763      70 -70.1764
      71 -70.1768      72 -70.1764      73 -86.0092      74 -86.0047      75 -86.0047
      76 -86.0043      77 -86.0043      78 -86.0043      79 -85.9997      80 -86.0036
      81 -86.0036      82 -86.0040      83 -86.0039      84 -86.0039      85 -86.0035
      86 -86.0038      87 -86.0038      88 -86.0036      89 -86.0038      90 -86.0038
      91 -86.0046      92 -86.0044      93 -86.0044      94 -86.0046      95 -86.0044
      96 -86.0044      97 -79.0581      98 -79.0582      99 -79.0581     100 -79.0572
     101 -79.0581     102 -79.0572     103 -79.0588     104 -79.0587     105 -79.0588
     106 -79.0595     107 -79.0587     108 -79.0595     109 -79.0600     110 -79.0588
     111 -79.0600     112 -79.0588     113 -79.0587     114 -79.0588     115 -79.0568
     116 -79.0581     117 -79.0568     118 -79.0582     119 -79.0582     120 -79.0582
 
 
 
 E-fermi :   4.4034     XC(G=0): -10.1825     alpha+bet :-12.6708


 spin component 1

 k-point     1 :       0.0000    0.0000    0.0000
  band No.  band energies     occupation 
      1     -51.4828      1.00000
      2     -51.4828      1.00000
      3     -51.4823      1.00000
      4     -51.4817      1.00000
      5     -51.4812      1.00000
      6     -51.4811      1.00000
      7     -51.4673      1.00000
      8     -51.4672      1.00000
      9     -51.4670      1.00000
     10     -51.4670      1.00000
     11     -51.4666      1.00000
     12     -51.4666      1.00000
     13     -51.4661      1.00000
     14     -51.4660      1.00000
     15     -51.4656      1.00000
     16     -51.4655      1.00000
     17     -51.4654      1.00000
     18     -51.4654      1.00000
     19     -51.4516      1.00000
     20     -51.4516      1.00000
     21     -51.4511      1.00000
     22     -51.4505      1.00000
     23     -51.4499      1.00000
     24     -51.4499      1.00000
     25     -50.2024      1.00000
     26     -50.2021      1.00000
     27     -50.2013      1.00000
     28     -50.2011      1.00000
     29     -50.2007      1.00000
     30     -50.2001      1.00000
     31     -50.1997      1.00000
     32     -50.1995      1.00000
     33     -50.1994      1.00000
     34     -50.1993      1.00000
     35     -50.1987      1.00000
     36     -50.1986      1.00000
     37     -50.1984      1.00000
     38     -50.1983      1.00000
     39     -50.1980      1.00000
     40     -50.1979      1.00000
     41     -50.1975      1.00000
     42     -50.1973      1.00000
     43     -50.1968      1.00000
     44     -50.1966      1.00000
     45     -50.1960      1.00000
     46     -50.1956      1.00000
     47     -50.1951      1.00000
     48     -50.1946      1.00000
     49     -50.0077      1.00000
     50     -50.0076      1.00000
     51     -50.0070      1.00000
     52     -50.0065      1.00000
     53     -50.0059      1.00000
     54     -50.0058      1.00000
     55     -49.9915      1.00000
     56     -49.9915      1.00000
     57     -49.9912      1.00000
     58     -49.9912      1.00000
     59     -49.9908      1.00000
     60     -49.9908      1.00000
     61     -49.9903      1.00000
     62     -49.9902      1.00000
     63     -49.9897      1.00000
     64     -49.9897      1.00000
     65     -49.9895      1.00000
     66     -49.9895      1.00000
     67     -49.9749      1.00000
     68     -49.9748      1.00000
     69     -49.9743      1.00000
     70     -49.9737      1.00000
     71     -49.9731      1.00000
     72     -49.9730      1.00000
     73     -40.5236      1.00000
     74     -40.5228      1.00000
     75     -40.5213      1.00000
     76     -40.5206      1.00000
     77     -40.5202      1.00000
     78     -40.5202      1.00000
     79     -40.5149      1.00000
     80     -40.5139      1.00000
     81     -40.5139      1.00000
     82     -40.5133      1.00000
     83     -40.5131      1.00000
     84     -40.5126      1.00000
     85     -40.5125      1.00000
     86     -40.5125      1.00000
     87     -40.5123      1.00000
     88     -40.5121      1.00000
     89     -40.5117      1.00000
     90     -40.5114      1.00000
     91     -40.5049      1.00000
     92     -40.5046      1.00000
     93     -40.5040      1.00000
     94     -40.5040      1.00000
     95     -40.5038      1.00000
     96     -40.5037      1.00000
     97     -40.3058      1.00000
     98     -40.3054      1.00000
     99     -40.3054      1.00000
    100     -40.3053      1.00000
    101     -40.3051      1.00000
    102     -40.3050      1.00000
    103     -40.3049      1.00000
    104     -40.3048      1.00000
    105     -40.3048      1.00000
    106     -40.3047      1.00000
    107     -40.3046      1.00000
    108     -40.3045      1.00000
    109     -40.3044      1.00000
    110     -40.3043      1.00000
    111     -40.3042      1.00000
    112     -40.3042      1.00000
    113     -40.3041      1.00000
    114     -40.3040      1.00000
    115     -40.3040      1.00000
    116     -40.3039      1.00000
    117     -40.3037      1.00000
    118     -40.3034      1.00000
    119     -40.3030      1.00000
    120     -40.3027      1.00000
    121     -13.5425      1.00000
    122     -13.5424      1.00000
    123     -13.5121      1.00000
    124     -13.5119      1.00000
    125     -13.5115      1.00000
    126     -13.4889      1.00000
    127     -13.3748      1.00000
    128     -13.3745      1.00000
    129     -13.3745      1.00000
    130     -13.3744      1.00000
    131     -13.3730      1.00000
    132     -13.3729      1.00000
    133     -13.3728      1.00000
    134     -13.3725      1.00000
    135     -13.3406      1.00000
    136     -13.3404      1.00000
    137     -13.3368      1.00000
    138     -13.3367      1.00000
    139     -13.2385      1.00000
    140     -13.2385      1.00000
    141     -13.2018      1.00000
    142     -13.2017      1.00000
    143     -13.1975      1.00000
[...]
   0.192E+00 0.306E+02 -.266E+03   -.202E+00 -.320E+02 0.274E+03   0.106E-01 0.140E+01 -.824E+01   0.786E-04 -.178E-03 0.127E-03
   0.144E+00 0.305E+02 -.266E+03   -.151E+00 -.319E+02 0.274E+03   0.705E-02 0.140E+01 -.824E+01   -.993E-04 -.116E-03 -.236E-04
   0.167E+00 0.305E+02 -.266E+03   -.176E+00 -.319E+02 0.274E+03   0.897E-02 0.140E+01 -.824E+01   -.229E-04 -.143E-03 0.172E-03
   0.189E+00 0.305E+02 -.266E+03   -.200E+00 -.319E+02 0.274E+03   0.107E-01 0.140E+01 -.824E+01   0.985E-04 -.143E-03 0.251E-04
   0.187E+00 0.305E+02 -.266E+03   -.197E+00 -.319E+02 0.274E+03   0.106E-01 0.140E+01 -.824E+01   -.524E-04 -.181E-03 0.120E-03
   0.167E+00 0.305E+02 -.266E+03   -.176E+00 -.319E+02 0.274E+03   0.895E-02 0.140E+01 -.824E+01   0.372E-04 -.190E-03 0.213E-03
   0.146E+00 0.305E+02 -.266E+03   -.154E+00 -.319E+02 0.274E+03   0.714E-02 0.140E+01 -.824E+01   0.352E-04 -.272E-03 0.504E-04
   0.186E+00 0.306E+02 -.266E+03   -.196E+00 -.320E+02 0.274E+03   0.105E-01 0.140E+01 -.824E+01   -.638E-05 -.575E-04 0.115E-03
   0.167E+00 0.305E+02 -.266E+03   -.176E+00 -.319E+02 0.274E+03   0.896E-02 0.140E+01 -.824E+01   0.967E-05 -.150E-03 0.165E-03
   0.148E+00 0.306E+02 -.266E+03   -.156E+00 -.320E+02 0.274E+03   0.731E-02 0.140E+01 -.824E+01   -.556E-04 -.113E-03 0.230E-03
   -.121E+00 -.245E+02 -.149E+03   0.124E+00 0.251E+02 0.150E+03   -.299E-02 -.545E+00 -.114E+01   -.244E-04 0.109E-03 -.754E-03
   -.149E+00 -.245E+02 -.149E+03   0.153E+00 0.251E+02 0.150E+03   -.439E-02 -.546E+00 -.115E+01   0.744E-05 0.101E-03 -.470E-03
   -.925E-01 -.245E+02 -.149E+03   0.946E-01 0.251E+02 0.150E+03   -.167E-02 -.546E+00 -.115E+01   0.337E-05 0.436E-04 -.448E-03
   -.121E+00 -.245E+02 -.149E+03   0.124E+00 0.251E+02 0.150E+03   -.295E-02 -.546E+00 -.115E+01   -.796E-04 0.104E-03 -.529E-03
   -.124E+00 -.245E+02 -.149E+03   0.127E+00 0.251E+02 0.150E+03   -.328E-02 -.546E+00 -.114E+01   -.450E-05 0.292E-04 -.519E-03
   -.117E+00 -.245E+02 -.149E+03   0.120E+00 0.251E+02 0.150E+03   -.287E-02 -.546E+00 -.114E+01   0.358E-04 0.174E-03 -.427E-03
   -.121E+00 -.245E+02 -.149E+03   0.124E+00 0.251E+02 0.150E+03   -.294E-02 -.546E+00 -.113E+01   0.814E-05 0.108E-03 -.677E-03
   -.955E-01 -.245E+02 -.149E+03   0.976E-01 0.251E+02 0.150E+03   -.197E-02 -.546E+00 -.114E+01   0.503E-04 0.804E-04 -.373E-03
   -.146E+00 -.245E+02 -.149E+03   0.150E+00 0.251E+02 0.150E+03   -.407E-02 -.546E+00 -.114E+01   -.192E-04 0.479E-04 -.414E-03
   -.121E+00 -.245E+02 -.149E+03   0.124E+00 0.251E+02 0.150E+03   -.298E-02 -.546E+00 -.114E+01   -.378E-04 0.136E-03 -.379E-03
   -.117E+00 -.245E+02 -.149E+03   0.120E+00 0.251E+02 0.150E+03   -.292E-02 -.546E+00 -.114E+01   0.164E-04 0.102E-03 -.426E-03
   -.125E+00 -.245E+02 -.149E+03   0.127E+00 0.251E+02 0.150E+03   -.309E-02 -.546E+00 -.114E+01   0.453E-04 0.664E-04 -.356E-03
   -.121E+00 -.246E+02 0.149E+03   0.124E+00 0.251E+02 -.150E+03   -.303E-02 -.546E+00 0.114E+01   -.149E-04 0.155E-03 0.450E-03
   -.118E+00 -.245E+02 0.149E+03   0.121E+00 0.251E+02 -.150E+03   -.275E-02 -.546E+00 0.114E+01   -.782E-05 0.104E-03 0.422E-03
   -.123E+00 -.245E+02 0.149E+03   0.126E+00 0.251E+02 -.150E+03   -.330E-02 -.546E+00 0.114E+01   -.608E-06 0.115E-03 0.434E-03
   -.121E+00 -.245E+02 0.149E+03   0.123E+00 0.250E+02 -.150E+03   -.301E-02 -.545E+00 0.114E+01   -.122E-04 0.977E-04 0.392E-03
   -.118E+00 -.245E+02 0.149E+03   0.121E+00 0.251E+02 -.150E+03   -.267E-02 -.546E+00 0.114E+01   0.227E-04 0.981E-04 0.440E-03
   -.123E+00 -.245E+02 0.149E+03   0.126E+00 0.251E+02 -.150E+03   -.338E-02 -.545E+00 0.114E+01   -.191E-04 0.923E-04 0.428E-03
   -.121E+00 -.245E+02 0.149E+03   0.124E+00 0.251E+02 -.150E+03   -.305E-02 -.545E+00 0.115E+01   -.309E-04 -.398E-04 0.461E-03
   -.122E+00 -.245E+02 0.149E+03   0.125E+00 0.251E+02 -.150E+03   -.332E-02 -.545E+00 0.115E+01   0.709E-05 0.954E-04 0.448E-03
   -.120E+00 -.245E+02 0.149E+03   0.122E+00 0.251E+02 -.150E+03   -.267E-02 -.546E+00 0.115E+01   0.150E-04 0.767E-04 0.481E-03
   -.121E+00 -.245E+02 0.149E+03   0.124E+00 0.251E+02 -.150E+03   -.300E-02 -.547E+00 0.115E+01   -.211E-04 0.781E-04 0.505E-03
   -.122E+00 -.245E+02 0.149E+03   0.125E+00 0.251E+02 -.150E+03   -.326E-02 -.546E+00 0.115E+01   -.181E-04 0.439E-04 0.442E-03
   -.120E+00 -.245E+02 0.149E+03   0.122E+00 0.251E+02 -.150E+03   -.272E-02 -.546E+00 0.115E+01   0.817E-04 0.602E-04 0.391E-03
   -.549E-01 -.160E+02 0.821E+02   0.605E-01 0.171E+02 -.833E+02   -.556E-02 -.114E+01 0.122E+01   -.157E-03 -.135E-04 0.472E-03
   -.780E-01 -.160E+02 0.821E+02   0.831E-01 0.171E+02 -.834E+02   -.542E-02 -.114E+01 0.122E+01   0.120E-03 0.386E-04 0.471E-03
   -.101E+00 -.160E+02 0.821E+02   0.106E+00 0.171E+02 -.833E+02   -.510E-02 -.114E+01 0.122E+01   -.513E-04 -.407E-05 0.504E-03
   0.140E+00 -.158E+02 0.821E+02   -.145E+00 0.169E+02 -.833E+02   0.934E-03 -.114E+01 0.122E+01   -.337E-03 -.132E-03 0.416E-03
   -.780E-01 -.159E+02 0.821E+02   0.830E-01 0.171E+02 -.834E+02   -.543E-02 -.114E+01 0.122E+01   0.151E-03 -.187E-06 0.420E-03
   -.294E+00 -.158E+02 0.821E+02   0.309E+00 0.169E+02 -.833E+02   -.115E-01 -.114E+01 0.122E+01   0.766E-04 -.152E-03 0.357E-03
   -.897E-01 -.159E+02 0.822E+02   0.951E-01 0.171E+02 -.834E+02   -.518E-02 -.114E+01 0.122E+01   -.211E-03 -.791E-04 0.284E-03
   -.780E-01 -.159E+02 0.822E+02   0.830E-01 0.171E+02 -.834E+02   -.542E-02 -.114E+01 0.122E+01   0.116E-03 0.453E-04 0.396E-03
   -.657E-01 -.159E+02 0.822E+02   0.709E-01 0.171E+02 -.834E+02   -.545E-02 -.114E+01 0.122E+01   -.383E-04 0.671E-04 0.345E-03
   -.112E+00 -.160E+02 0.822E+02   0.123E+00 0.171E+02 -.835E+02   -.969E-02 -.115E+01 0.122E+01   -.226E-03 -.254E-04 0.435E-03
   -.779E-01 -.160E+02 0.822E+02   0.831E-01 0.171E+02 -.834E+02   -.543E-02 -.114E+01 0.122E+01   0.461E-04 -.116E-03 0.347E-03
   -.441E-01 -.160E+02 0.822E+02   0.435E-01 0.171E+02 -.835E+02   -.969E-03 -.115E+01 0.122E+01   0.372E-04 -.107E-03 0.463E-03
   -.139E+00 -.159E+02 -.820E+02   0.155E+00 0.171E+02 0.833E+02   -.143E-01 -.114E+01 -.121E+01   -.199E-03 0.771E-04 -.342E-03
   -.780E-01 -.159E+02 -.821E+02   0.830E-01 0.171E+02 0.834E+02   -.542E-02 -.114E+01 -.122E+01   0.178E-03 -.688E-05 -.386E-03
   -.167E-01 -.159E+02 -.820E+02   0.107E-01 0.171E+02 0.833E+02   0.369E-02 -.114E+01 -.121E+01   -.639E-05 0.249E-04 -.337E-03
   -.898E-01 -.160E+02 -.821E+02   0.949E-01 0.171E+02 0.834E+02   -.505E-02 -.114E+01 -.122E+01   -.164E-03 0.585E-04 -.448E-03
   -.780E-01 -.160E+02 -.822E+02   0.831E-01 0.171E+02 0.834E+02   -.543E-02 -.114E+01 -.122E+01   0.751E-04 0.535E-04 -.383E-03
   -.661E-01 -.160E+02 -.821E+02   0.714E-01 0.171E+02 0.834E+02   -.561E-02 -.114E+01 -.122E+01   0.357E-04 -.108E-04 -.489E-03
   0.214E+00 -.161E+02 -.821E+02   -.224E+00 0.173E+02 0.833E+02   0.532E-02 -.115E+01 -.122E+01   -.527E-03 0.807E-04 -.590E-03
   -.781E-01 -.160E+02 -.822E+02   0.831E-01 0.171E+02 0.834E+02   -.547E-02 -.114E+01 -.122E+01   0.253E-03 -.401E-04 -.417E-03
   -.371E+00 -.161E+02 -.821E+02   0.392E+00 0.173E+02 0.833E+02   -.160E-01 -.115E+01 -.122E+01   0.147E-03 0.124E-03 -.630E-03
   -.609E-01 -.159E+02 -.822E+02   0.665E-01 0.171E+02 0.834E+02   -.554E-02 -.114E+01 -.122E+01   -.859E-04 0.853E-04 -.385E-03
   -.779E-01 -.159E+02 -.822E+02   0.831E-01 0.171E+02 0.834E+02   -.543E-02 -.114E+01 -.122E+01   0.676E-04 -.808E-06 -.373E-03
   -.945E-01 -.159E+02 -.822E+02   0.994E-01 0.171E+02 0.834E+02   -.510E-02 -.114E+01 -.122E+01   -.148E-03 0.960E-04 -.253E-03
 -----------------------------------------------------------------------------------------------
   -.812E-01 -.194E+01 0.183E-01   0.112E-12 -.309E-12 0.568E-13   0.815E-01 0.194E+01 -.182E-01   -.971E-03 -.133E-02 -.217E-03
 
 
 POSITION                                       TOTAL-FORCE (eV/Angst)
 -----------------------------------------------------------------------------------
      0.43553      4.06770      3.98103         0.000115     -0.000330      0.018121
      4.34744      4.04855      3.99103         0.001865     -0.000056      0.000112
      8.25935      4.02941      3.99103        -0.000089     -0.000027      0.000116
      0.46293      9.67687      3.99103         0.000105      0.000010     -0.000187
      4.37484      9.65772      3.99103         0.002010     -0.000073     -0.000017
      8.28675      9.63857      3.99103        -0.000227     -0.000040     -0.000015
      0.43553      4.06770      9.58884         0.000112     -0.000076     -0.002932
      4.34744      4.04855      9.58884         0.002163     -0.000051     -0.000350
      8.25935      4.02941      9.58884        -0.000384     -0.000016     -0.000345
      0.46293      9.67687      9.58884         0.000107     -0.000044     -0.000155
      4.37484      9.65772      9.58884         0.002036     -0.000052     -0.000214
      8.28675      9.63857      9.58884        -0.000255     -0.000023     -0.000204
      0.42183      1.26312      1.60678         0.000108     -0.001318      0.000291
      4.33373      1.24397      1.60678         0.002164     -0.000125      0.000267
      8.24564      1.22482      1.60678        -0.000390     -0.000096      0.000264
      0.44923      6.87229      1.60678         0.000126      0.001334      0.000287
      4.36114      6.85314      1.60678         0.002153      0.000013      0.000267
      8.27305      6.83399      1.60678        -0.000378      0.000048      0.000262
      0.42183      1.26312      7.20459         0.000120      0.000840     -0.000177
      4.33373      1.24397      7.20459         0.001926     -0.000026     -0.000006
      8.24564      1.22482      7.20459        -0.000142     -0.000001     -0.000011
      0.44923      6.87229      7.20459         0.000104     -0.001031     -0.000175
      4.36114      6.85314      7.20459         0.001943     -0.000111     -0.000007
      8.27305      6.83399      7.20459        -0.000162     -0.000087     -0.000013
      2.38373      2.44499      3.05038         0.002567     -0.001949      0.000776
      6.29564      2.42584      3.05038        -0.000185     -0.000019      0.000210
     10.20755      2.40669      3.05038        -0.002950     -0.001931      0.000771
      2.41113      8.05416      3.05038        -0.000267      0.000148      0.000283
      6.32304      8.03501      3.05038        -0.000182      0.000044      0.000158
     10.23495      8.01586      3.05038        -0.000095      0.000159      0.000290
      2.38373      2.44499      8.64819        -0.000575      0.000379     -0.000803
      6.29564      2.42584      8.64819        -0.000181      0.000196     -0.000296
     10.20755      2.40669      8.64819         0.000214      0.000373     -0.000788
      2.41113      8.05416      8.64819        -0.000074      0.000076     -0.000348
      6.32304      8.03501      8.64819        -0.000181      0.000141     -0.000241
     10.23495      8.01586      8.64819        -0.000287      0.000078     -0.000329
      2.39743      5.24957      2.54743         0.003876      0.002158     -0.000386
      6.30934      5.23042      2.54743        -0.000180      0.000245      0.000347
     10.22125      5.21128      2.54743        -0.004221      0.002192     -0.000384
      2.42483     10.85874      2.54743        -0.000291      0.000064      0.000425
      6.33674     10.83959      2.54743        -0.000179      0.000127      0.000241
     10.24865     10.82044      2.54743        -0.000076      0.000056      0.000427
      2.39743      5.24957      8.14524        -0.000981     -0.000306     -0.000682
      6.30934      5.23042      8.14524        -0.000178     -0.000031     -0.000215
     10.22125      5.21128      8.14524         0.000611     -0.000317     -0.000704
      2.42483     10.85874      8.14524        -0.000088      0.000154     -0.000221
      6.33674     10.83959      8.14524        -0.000181      0.000058     -0.000126
     10.24865     10.82044      8.14524        -0.000276      0.000149     -0.000233
      2.39183      4.11329      4.18453        -0.002241     -0.000013     -0.005645
      6.30374      4.09414      4.18453        -0.000021     -0.000035     -0.000197
     10.21565      4.07499      4.18453         0.002035     -0.000050     -0.005598
      2.41924      9.72245      4.18453         0.000178     -0.000121      0.000098
      6.33115      9.70331      4.18453        -0.000016      0.000014      0.000084
     10.24306      9.68416      4.18453        -0.000400     -0.000146      0.000171
      2.39183      4.11329      9.78234        -0.000450      0.000012      0.002634
      6.30374      4.09414      9.78234        -0.000021     -0.000013      0.000603
     10.21565      4.07499      9.78234         0.000235      0.000031      0.002632
      2.41924      9.72245      9.78234        -0.000049     -0.000027      0.000262
      6.33115      9.70331      9.78234        -0.000008     -0.000018      0.000350
     10.24306      9.68416      9.78234        -0.000177      0.000006      0.000285
      2.37813      1.30870      1.41328        -0.000426      0.001119     -0.000288
      6.29004      1.28956      1.41328        -0.000017      0.000165     -0.000379
     10.20195      1.27041      1.41328         0.000222      0.001121     -0.000351
      2.40554      6.91787      1.41328        -0.000462     -0.001069     -0.000299
      6.31744      6.89872      1.41328        -0.000014     -0.000156     -0.000405
     10.22935      6.87958      1.41328         0.000234     -0.001092     -0.000363
      2.37813      1.30870      7.01109         0.000455     -0.001033      0.000207
      6.29004      1.28956      7.01109        -0.000018     -0.000163     -0.000028
     10.20195      1.27041      7.01109        -0.000680     -0.001003      0.000202
      2.40554      6.91787      7.01109         0.000416      0.000843      0.000217
      6.31744      6.89872      7.01109        -0.000015      0.000107     -0.000013
     10.22935      6.87958      7.01109        -0.000619      0.000881      0.000185
      0.43605      4.15009      1.34677        -0.000159      0.000097     -0.000107
      4.34796      4.13094      1.34677        -0.000708     -0.000101     -0.000301
      8.25987      4.11179      1.34677         0.000372     -0.000093     -0.000300
      0.46346      9.75926      1.34677        -0.000163     -0.000103     -0.000399
      4.37537      9.74011      1.34677        -0.000280     -0.000082     -0.000217
      8.28728      9.72096      1.34677        -0.000058     -0.000081     -0.000223
      0.43605      4.15009      6.94458        -0.000161     -0.000021      0.003526
      4.34796      4.13094      6.94458         0.000245     -0.000065      0.000046
      8.25987      4.11179      6.94458        -0.000581     -0.000060      0.000046
      0.46346      9.75926      6.94458        -0.000160     -0.000073      0.000019
      4.37537      9.74011      6.94458        -0.000095     -0.000083      0.000061
      8.28728      9.72096      6.94458        -0.000238     -0.000082      0.000056
      0.42235      1.34551      4.25104        -0.000171     -0.000284     -0.002055
      4.33426      1.32636      4.25104        -0.000035     -0.000185     -0.000199
      8.24617      1.30721      4.25104        -0.000296     -0.000184     -0.000202
      0.44976      6.95467      4.25104        -0.000163      0.000201     -0.001743
      4.36166      6.93553      4.25104         0.000044      0.000068     -0.000158
      8.27357      6.91638      4.25104        -0.000380      0.000075     -0.000156
      0.42235      1.34551      9.84885        -0.000161      0.000274      0.001116
      4.33426      1.32636      9.84885        -0.000312      0.000022      0.000366
      8.24617      1.30721      9.84885        -0.000022      0.000015      0.000364
      0.44976      6.95467      9.84885        -0.000165     -0.000442      0.001119
      4.36166      6.93553      9.84885        -0.000321     -0.000181      0.000354
      8.27357      6.91638      9.84885        -0.000015     -0.000191      0.000356
      2.37239      0.12585      5.37429        -0.000142      0.000495     -0.000011
      6.28430      0.10670      5.37429        -0.000231      0.000104     -0.000004
     10.19621      0.08756      5.37429        -0.000240      0.000478     -0.000018
      2.39979      5.73502      5.37429        -0.003884     -0.002764     -0.000493
      6.31170      5.71587      5.37429        -0.000230     -0.000007      0.000123
     10.22361      5.69672      5.37429         0.003468     -0.002820     -0.000511
      2.37239      0.12585     10.97210        -0.000064     -0.000325     -0.000137
      6.28430      0.10670     10.97210        -0.000231     -0.000001      0.000070
     10.19621      0.08756     10.97210        -0.000326     -0.000336     -0.000116
      2.39979      5.73502     10.97210         0.001226      0.001085     -0.000819
      6.31170      5.71587     10.97210        -0.000229      0.000158     -0.000073
     10.22361      5.69672     10.97210        -0.001596      0.001083     -0.000786
      2.38609      2.93043      0.22352         0.001867     -0.001148     -0.001052
      6.29800      2.91129      0.22352        -0.000231     -0.000083     -0.000253
     10.20991      2.89214      0.22352        -0.002266     -0.001151     -0.001027
      2.41350      8.53960      0.22352        -0.000104      0.000386     -0.000216
      6.32541      8.52045      0.22352        -0.000230      0.000100     -0.000047
     10.23731      8.50131      0.22352        -0.000277      0.000365     -0.000191
      2.38609      2.93043      5.82133        -0.005472      0.002944     -0.001761
      6.29800      2.91129      5.82133        -0.000226      0.000199      0.000116
     10.20991      2.89214      5.82133         0.005111      0.002876     -0.001778
      2.41350      8.53960      5.82133         0.000016     -0.000175     -0.000004
      6.32541      8.52045      5.82133        -0.000228      0.000008     -0.000075
     10.23731      8.50131      5.82133        -0.000406     -0.000176     -0.000020
 -----------------------------------------------------------------------------------
    total drift:                               -0.000671      0.001442     -0.000055


--------------------------------------------------------------------------------------------------------



  FREE ENERGIE OF THE ION-ELECTRON SYSTEM (eV)
  ---------------------------------------------------
  free  energy   TOTEN  =      -616.43241088 eV

  energy  without entropy=     -616.43241088  energy(sigma->0) =     -616.43241088
 


--------------------------------------------------------------------------------------------------------


    POTLOK:  cpu time    1.9366: real time    1.9913


--------------------------------------------------------------------------------------------------------


     LOOP+:  cpu time 5615.8737: real time 5729.7450
    4ORBIT:  cpu time    0.0000: real time    0.0000

 total amount of memory used by VASP MPI-rank0   801761. kBytes
=======================================================================

   base      :      30000. kBytes
   nonl-proj :      92491. kBytes
   fftplans  :      50318. kBytes
   grid      :      44712. kBytes
   one-center:        622. kBytes
   wavefun   :     583618. kBytes
 
  
  
 General timing and accounting informations for this job:
 ========================================================
  
                  Total CPU time used (sec):     5714.871
                            User time (sec):     5639.145
                          System time (sec):       75.726
                         Elapsed time (sec):     5832.289
  
                   Maximum memory used (kb):      976812.
                   Average memory used (kb):           0.
  
                          Minor page faults:       566149
                          Major page faults:            4
                 Voluntary context switches:        60445
