<?xml version="1.0" encoding="ISO-8859-1"?>
<modeling>
 <generator>
  <i name="program" type="string">vasp </i>
  <i name="version" type="string">5.4.4.18Apr17-6-g9f103f2a35  </i>
  <i name="subversion" type="string">(build Oct 25 2017 14:42:18) complex            parallel </i>
  <i name="platform" type="string">LinuxIFC </i>
  <i name="date" type="string">2021 04 16 </i>
  <i name="time" type="string">13:57:32 </i>
 </generator>
 <incar>
  <i type="string" name="PREC">accurate</i>
  <i type="string" name="ALGO"> normal</i>
  <i type="logical" name="ADDGRID"> T  </i>
  <i type="int" name="ISPIN">     2</i>
  <i type="int" name="ICHARG">     1</i>
  <i type="int" name="NELM">   200</i>
  <i type="int" name="NELMIN">     8</i>
  <i name="EDIFF">      0.00000100</i>
  <i type="int" name="ISIF">     3</i>
  <i type="int" name="ISYM">     0</i>
  <i name="ENCUT">    650.00000000</i>
  <v name="MAGMOM">      0.60000000      0.60000000      0.60000000      0.60000000      0.60000000      0.60000000      0.60000000      0.60000000      0.60000000      0.60000000      0.60000000      0.60000000      0.60000000      0.60000000      0.60000000      0.60000000      0.60000000      0.60000000      0.60000000      0.60000000
      0.60000000      0.60000000      0.60000000      0.60000000      0.60000000      0.60000000      0.60000000      0.60000000      0.60000000      0.60000000      0.60000000      0.60000000      0.60000000      0.60000000      0.60000000      0.60000000      0.60000000      0.60000000      0.60000000      0.60000000
      0.60000000      0.60000000      0.60000000      0.60000000      0.60000000      0.60000000      0.60000000      0.60000000      0.60000000      0.60000000      0.60000000      0.60000000      0.60000000      0.60000000      0.60000000      0.60000000      0.60000000      0.60000000      0.60000000      0.60000000
      0.60000000      0.60000000      0.60000000      0.60000000      0.60000000      0.60000000      0.60000000      0.60000000      0.60000000      0.60000000      0.60000000      0.60000000      0.60000000      0.60000000      0.60000000      0.60000000      0.60000000      0.60000000      0.60000000      0.60000000
      0.60000000      0.60000000      0.60000000      0.60000000      0.60000000      0.60000000      0.60000000      0.60000000      0.60000000      0.60000000      0.60000000      0.60000000      0.60000000      0.60000000      0.60000000      0.60000000      5.00000000      5.00000000      5.00000000      5.00000000
      5.00000000      5.00000000      5.00000000      5.00000000      5.00000000      5.00000000      5.00000000      5.00000000      5.00000000      5.00000000      5.00000000      5.00000000      5.00000000      5.00000000      5.00000000      5.00000000      5.00000000      5.00000000      5.00000000      5.00000000
</v>
  <i type="logical" name="LREAL"> F  </i>
  <i type="int" name="ISMEAR">     0</i>
  <i name="SIGMA">      0.05000000</i>
  <i type="int" name="NWRITE">     1</i>
  <i type="int" name="LMAXMIX">     4</i>
  <i type="logical" name="LWAVE"> F  </i>
  <i type="logical" name="LASPH"> T  </i>
  <v type="int" name="KPOINT_BSE">    -1     0     0     0</v>
  <i type="int" name="NELM">   200</i>
  <i type="string" name="GGA"> pe</i>
  <i type="logical" name="LDAU"> T  </i>
  <v type="int" name="LDAUTYPE">     2</v>
  <v type="int" name="LDAUL">    -1    -1    -1     2</v>
  <v name="LDAUU">      0.00000000      0.00000000      0.00000000      4.00000000</v>
  <v name="LDAUJ">      0.00000000      0.00000000      0.00000000      0.00000000</v>
  <i type="logical" name="LASPH"> T  </i>
 </incar>
 <structure name="primitive_cell" >
  <crystal>
   <varray name="basis" >
    <v>      11.73572724      -0.05744286       0.00000000 </v>
    <v>       0.05480788      11.21833490       0.00000000 </v>
    <v>       0.00000000       0.00000000      11.19562010 </v>
   </varray>
   <i name="volume">   1473.99817718 </i>
   <varray name="rec_basis" >
    <v>       0.08520785      -0.00041629       0.00000000 </v>
    <v>       0.00043630       0.08913766       0.00000000 </v>
    <v>       0.00000000       0.00000000       0.08932064 </v>
   </varray>
  </crystal>
  <varray name="positions" >
   <v>       0.03541706       0.36277547       0.35558828 </v>
   <v>      -0.13124269       0.36769238       0.37376509 </v>
   <v>       0.20209064       0.36769238       0.37376509 </v>
   <v>       0.03542751       0.37011947       0.12029448 </v>
   <v>      -0.13123875       0.21898060       0.27246215 </v>
   <v>       0.20209458       0.21898060       0.27246215 </v>
   <v>      -0.13123875       0.46898060       0.22753785 </v>
   <v>       0.20209458       0.46898060       0.22753785 </v>
   <v>       0.03542751       0.12011947       0.37970552 </v>
   <v>       0.03542751      -0.37988053       0.37970552 </v>
   <v>      -0.13123946       0.26225309      -0.48003463 </v>
   <v>       0.20209387       0.26225309      -0.48003463 </v>
   <v>      -0.13123946      -0.48774691       0.48003463 </v>
   <v>       0.20209387      -0.48774691       0.48003463 </v>
   <v>       0.03542751       0.37011947      -0.37970552 </v>
   <v>       0.03541706       0.11277547       0.14351851 </v>
   <v>       0.03541706      -0.38722453       0.14351851 </v>
   <v>       0.36875039       0.36277547       0.35648149 </v>
   <v>      -0.29791628       0.36277547       0.35648149 </v>
   <v>      -0.13124269       0.11769238       0.12623491 </v>
   <v>       0.20209064       0.11769238       0.12623491 </v>
   <v>       0.03541706       0.11277547      -0.35648149 </v>
   <v>       0.03541706      -0.38722453      -0.35648149 </v>
   <v>      -0.13124269      -0.38230762       0.12623491 </v>
   <v>       0.20209064      -0.38230762       0.12623491 </v>
   <v>      -0.13123946       0.26225309       0.01996537 </v>
   <v>       0.20209387       0.26225309       0.01996537 </v>
   <v>      -0.13124269       0.11769238      -0.37376509 </v>
   <v>       0.20209064       0.11769238      -0.37376509 </v>
   <v>      -0.13123875      -0.28101940       0.27246215 </v>
   <v>       0.20209458      -0.28101940       0.27246215 </v>
   <v>      -0.13124269      -0.38230762      -0.37376509 </v>
   <v>       0.20209064      -0.38230762      -0.37376509 </v>
   <v>      -0.13123946       0.01225309       0.48003463 </v>
   <v>       0.20209387       0.01225309       0.48003463 </v>
   <v>      -0.29790582       0.37011947       0.12029448 </v>
   <v>       0.36876084       0.37011947       0.12029448 </v>
   <v>      -0.13123875       0.46898060      -0.27246215 </v>
   <v>       0.20209458       0.46898060      -0.27246215 </v>
   <v>      -0.29790582       0.12011947       0.37970552 </v>
   <v>       0.36876084       0.12011947       0.37970552 </v>
   <v>      -0.29790582      -0.37988053       0.37970552 </v>
   <v>       0.36876084      -0.37988053       0.37970552 </v>
   <v>      -0.29790582       0.37011947      -0.37970552 </v>
   <v>       0.36876084       0.37011947      -0.37970552 </v>
   <v>      -0.13123946      -0.48774691      -0.01996537 </v>
   <v>       0.20209387      -0.48774691      -0.01996537 </v>
   <v>      -0.13123875      -0.03101940       0.22753785 </v>
   <v>       0.20209458      -0.03101940       0.22753785 </v>
   <v>      -0.13123946      -0.23774691      -0.48003463 </v>
   <v>       0.20209387      -0.23774691      -0.48003463 </v>
   <v>      -0.13123875       0.21898060      -0.22753785 </v>
   <v>       0.20209458       0.21898060      -0.22753785 </v>
   <v>       0.36875039      -0.38722453       0.14351851 </v>
   <v>      -0.29791628       0.11277547       0.14351851 </v>
   <v>       0.36875039       0.11277547       0.14351851 </v>
   <v>      -0.29791628      -0.38722453       0.14351851 </v>
   <v>       0.03541706       0.36277547      -0.14351851 </v>
   <v>       0.03541706      -0.13722453       0.35648149 </v>
   <v>      -0.13124269       0.36769238      -0.12623491 </v>
   <v>       0.20209064       0.36769238      -0.12623491 </v>
   <v>       0.36875039      -0.38722453      -0.35648149 </v>
   <v>      -0.29791628       0.11277547      -0.35648149 </v>
   <v>       0.36875039       0.11277547      -0.35648149 </v>
   <v>      -0.29791628      -0.38722453      -0.35648149 </v>
   <v>      -0.46457602       0.36769238       0.37376509 </v>
   <v>      -0.13124269      -0.13230762       0.37376509 </v>
   <v>       0.20209064      -0.13230762       0.37376509 </v>
   <v>       0.03542751       0.12011947      -0.12029448 </v>
   <v>       0.03542751      -0.37988053      -0.12029448 </v>
   <v>      -0.13123946       0.01225309      -0.01996537 </v>
   <v>       0.20209387       0.01225309      -0.01996537 </v>
   <v>       0.03542751      -0.12988053       0.12029448 </v>
   <v>      -0.46457208       0.21898060       0.27246215 </v>
   <v>      -0.46457208       0.46898060       0.22753785 </v>
   <v>      -0.13123946      -0.23774691       0.01996537 </v>
   <v>       0.20209387      -0.23774691       0.01996537 </v>
   <v>      -0.46457280       0.26225309      -0.48003463 </v>
   <v>      -0.46457280      -0.48774691       0.48003463 </v>
   <v>       0.03542751      -0.12988053      -0.37970552 </v>
   <v>      -0.13123875      -0.03101940      -0.27246215 </v>
   <v>       0.20209458      -0.03101940      -0.27246215 </v>
   <v>      -0.13123875      -0.28101940      -0.22753785 </v>
   <v>       0.20209458      -0.28101940      -0.22753785 </v>
   <v>       0.36875039       0.36277547      -0.14351851 </v>
   <v>      -0.29791628       0.36277547      -0.14351851 </v>
   <v>       0.36875039      -0.13722453       0.35648149 </v>
   <v>      -0.29791628      -0.13722453       0.35648149 </v>
   <v>      -0.46457602       0.11769238       0.12623491 </v>
   <v>      -0.46457602      -0.38230762       0.12623491 </v>
   <v>      -0.46457280       0.26225309       0.01996537 </v>
   <v>      -0.29790582       0.12011947      -0.12029448 </v>
   <v>       0.36876084       0.12011947      -0.12029448 </v>
   <v>      -0.46457602       0.11769238      -0.37376509 </v>
   <v>      -0.46457208      -0.28101940       0.27246215 </v>
   <v>      -0.46457602      -0.38230762      -0.37376509 </v>
   <v>      -0.46457280       0.01225309       0.48003463 </v>
   <v>      -0.29790582      -0.37988053      -0.12029448 </v>
   <v>       0.36876084      -0.37988053      -0.12029448 </v>
   <v>      -0.29790582      -0.12988053       0.12029448 </v>
   <v>       0.36876084      -0.12988053       0.12029448 </v>
   <v>      -0.46457208       0.46898060      -0.27246215 </v>
   <v>      -0.29790582      -0.12988053      -0.37970552 </v>
   <v>       0.36876084      -0.12988053      -0.37970552 </v>
   <v>      -0.46457280      -0.48774691      -0.01996537 </v>
   <v>      -0.46457208      -0.03101940       0.22753785 </v>
   <v>      -0.46457280      -0.23774691      -0.48003463 </v>
   <v>      -0.46457208       0.21898060      -0.22753785 </v>
   <v>       0.03541706      -0.13722453      -0.14351851 </v>
   <v>      -0.46457602       0.36769238      -0.12623491 </v>
   <v>      -0.13124269      -0.13230762      -0.12623491 </v>
   <v>       0.20209064      -0.13230762      -0.12623491 </v>
   <v>      -0.46457602      -0.13230762       0.37376509 </v>
   <v>      -0.46457280       0.01225309      -0.01996537 </v>
   <v>      -0.46457280      -0.23774691       0.01996537 </v>
   <v>      -0.46457208      -0.03101940      -0.27246215 </v>
   <v>      -0.46457208      -0.28101940      -0.22753785 </v>
   <v>       0.36875039      -0.13722453      -0.14351851 </v>
   <v>      -0.29791628      -0.13722453      -0.14351851 </v>
   <v>      -0.46457602      -0.13230762      -0.12623491 </v>
  </varray>
 </structure>
 <varray name="primitive_index" >
  <v type="int" >        1 </v>
  <v type="int" >       51 </v>
  <v type="int" >       49 </v>
  <v type="int" >       73 </v>
  <v type="int" >       27 </v>
  <v type="int" >       25 </v>
  <v type="int" >       39 </v>
  <v type="int" >       37 </v>
  <v type="int" >       85 </v>
  <v type="int" >       88 </v>
  <v type="int" >      117 </v>
  <v type="int" >      115 </v>
  <v type="int" >      102 </v>
  <v type="int" >      100 </v>
  <v type="int" >       79 </v>
  <v type="int" >       13 </v>
  <v type="int" >       16 </v>
  <v type="int" >        2 </v>
  <v type="int" >        3 </v>
  <v type="int" >       63 </v>
  <v type="int" >       61 </v>
  <v type="int" >       19 </v>
  <v type="int" >       22 </v>
  <v type="int" >       66 </v>
  <v type="int" >       64 </v>
  <v type="int" >      111 </v>
  <v type="int" >      109 </v>
  <v type="int" >       69 </v>
  <v type="int" >       67 </v>
  <v type="int" >       30 </v>
  <v type="int" >       28 </v>
  <v type="int" >       72 </v>
  <v type="int" >       70 </v>
  <v type="int" >       99 </v>
  <v type="int" >       97 </v>
  <v type="int" >       75 </v>
  <v type="int" >       74 </v>
  <v type="int" >       45 </v>
  <v type="int" >       43 </v>
  <v type="int" >       87 </v>
  <v type="int" >       86 </v>
  <v type="int" >       90 </v>
  <v type="int" >       89 </v>
  <v type="int" >       81 </v>
  <v type="int" >       80 </v>
  <v type="int" >      108 </v>
  <v type="int" >      106 </v>
  <v type="int" >       42 </v>
  <v type="int" >       40 </v>
  <v type="int" >      120 </v>
  <v type="int" >      118 </v>
  <v type="int" >       33 </v>
  <v type="int" >       31 </v>
  <v type="int" >       17 </v>
  <v type="int" >       15 </v>
  <v type="int" >       14 </v>
  <v type="int" >       18 </v>
  <v type="int" >        7 </v>
  <v type="int" >        4 </v>
  <v type="int" >       57 </v>
  <v type="int" >       55 </v>
  <v type="int" >       23 </v>
  <v type="int" >       21 </v>
  <v type="int" >       20 </v>
  <v type="int" >       24 </v>
  <v type="int" >       50 </v>
  <v type="int" >       54 </v>
  <v type="int" >       52 </v>
  <v type="int" >       91 </v>
  <v type="int" >       94 </v>
  <v type="int" >      105 </v>
  <v type="int" >      103 </v>
  <v type="int" >       76 </v>
  <v type="int" >       26 </v>
  <v type="int" >       38 </v>
  <v type="int" >      114 </v>
  <v type="int" >      112 </v>
  <v type="int" >      116 </v>
  <v type="int" >      101 </v>
  <v type="int" >       82 </v>
  <v type="int" >       48 </v>
  <v type="int" >       46 </v>
  <v type="int" >       36 </v>
  <v type="int" >       34 </v>
  <v type="int" >        8 </v>
  <v type="int" >        9 </v>
  <v type="int" >        5 </v>
  <v type="int" >        6 </v>
  <v type="int" >       62 </v>
  <v type="int" >       65 </v>
  <v type="int" >      110 </v>
  <v type="int" >       93 </v>
  <v type="int" >       92 </v>
  <v type="int" >       68 </v>
  <v type="int" >       29 </v>
  <v type="int" >       71 </v>
  <v type="int" >       98 </v>
  <v type="int" >       96 </v>
  <v type="int" >       95 </v>
  <v type="int" >       78 </v>
  <v type="int" >       77 </v>
  <v type="int" >       44 </v>
  <v type="int" >       84 </v>
  <v type="int" >       83 </v>
  <v type="int" >      107 </v>
  <v type="int" >       41 </v>
  <v type="int" >      119 </v>
  <v type="int" >       32 </v>
  <v type="int" >       10 </v>
  <v type="int" >       56 </v>
  <v type="int" >       60 </v>
  <v type="int" >       58 </v>
  <v type="int" >       53 </v>
  <v type="int" >      104 </v>
  <v type="int" >      113 </v>
  <v type="int" >       47 </v>
  <v type="int" >       35 </v>
  <v type="int" >       11 </v>
  <v type="int" >       12 </v>
  <v type="int" >       59 </v>
 </varray>
 <kpoints>
  <generation param="Gamma">
   <v type="int" name="divisions">       3        3        3 </v>
   <v name="usershift">      0.00000000       0.00000000       0.00000000 </v>
   <v name="genvec1">      0.33333333       0.00000000       0.00000000 </v>
   <v name="genvec2">     -0.00000000       0.33333333       0.00000000 </v>
   <v name="genvec3">      0.00000000       0.00000000       0.33333333 </v>
   <v name="shift">      0.00000000       0.00000000       0.00000000 </v>
  </generation>
  <varray name="kpointlist" >
   <v>       0.00000000       0.00000000       0.00000000 </v>
   <v>       0.33333333       0.00000000       0.00000000 </v>
   <v>       0.00000000       0.33333333       0.00000000 </v>
   <v>       0.33333333       0.33333333       0.00000000 </v>
   <v>      -0.33333333       0.33333333       0.00000000 </v>
   <v>       0.00000000       0.00000000       0.33333333 </v>
   <v>       0.33333333       0.00000000       0.33333333 </v>
   <v>      -0.33333333       0.00000000       0.33333333 </v>
   <v>       0.00000000       0.33333333       0.33333333 </v>
   <v>       0.33333333       0.33333333       0.33333333 </v>
   <v>      -0.33333333       0.33333333       0.33333333 </v>
   <v>      -0.00000000      -0.33333333       0.33333333 </v>
   <v>       0.33333333      -0.33333333       0.33333333 </v>
   <v>      -0.33333333      -0.33333333       0.33333333 </v>
  </varray>
  <varray name="weights" >
   <v>       0.03703704 </v>
   <v>       0.07407407 </v>
   <v>       0.07407407 </v>
   <v>       0.07407407 </v>
   <v>       0.07407407 </v>
   <v>       0.07407407 </v>
   <v>       0.07407407 </v>
   <v>       0.07407407 </v>
   <v>       0.07407407 </v>
   <v>       0.07407407 </v>
   <v>       0.07407407 </v>
   <v>       0.07407407 </v>
   <v>       0.07407407 </v>
   <v>       0.07407407 </v>
  </varray>
 </kpoints>
 <parameters>
  <separator name="general" >
   <i type="string" name="SYSTEM">unknown system</i>
   <i type="logical" name="LCOMPAT"> F  </i>
  </separator>
  <separator name="electronic" >
   <i type="string" name="PREC">accura</i>
   <i name="ENMAX">    650.00000000</i>
   <i name="ENAUG">    628.94500000</i>
   <i name="EDIFF">      0.00000100</i>
   <i type="int" name="IALGO">    38</i>
   <i type="int" name="IWAVPR">    10</i>
   <i type="int" name="NBANDS">   552</i>
   <i name="NELECT">    768.00000000</i>
   <i type="int" name="TURBO">     0</i>
   <i type="int" name="IRESTART">     0</i>
   <i type="int" name="NREBOOT">     0</i>
   <i type="int" name="NMIN">     0</i>
   <i name="EREF">      0.00000000</i>
   <separator name="electronic smearing" >
    <i type="int" name="ISMEAR">     0</i>
    <i name="SIGMA">      0.05000000</i>
    <i name="KSPACING">      0.50000000</i>
    <i type="logical" name="KGAMMA"> T  </i>
   </separator>
   <separator name="electronic projectors" >
    <i type="logical" name="LREAL"> F  </i>
    <v name="ROPT">      0.00000000      0.00000000      0.00000000      0.00000000</v>
    <i type="int" name="LMAXPAW">  -100</i>
    <i type="int" name="LMAXMIX">     4</i>
    <i type="logical" name="NLSPLINE"> F  </i>
   </separator>
   <separator name="electronic startup" >
    <i type="int" name="ISTART">     0</i>
    <i type="int" name="ICHARG">     1</i>
    <i type="int" name="INIWAV">     1</i>
   </separator>
   <separator name="electronic spin" >
    <i type="int" name="ISPIN">     2</i>
    <i type="logical" name="LNONCOLLINEAR"> F  </i>
    <v name="MAGMOM">      0.60000000      0.60000000      0.60000000      0.60000000      0.60000000      0.60000000      0.60000000      0.60000000      0.60000000      0.60000000      0.60000000      0.60000000      0.60000000      0.60000000      0.60000000      0.60000000      0.60000000      0.60000000      0.60000000      0.60000000
      0.60000000      0.60000000      0.60000000      0.60000000      0.60000000      0.60000000      0.60000000      0.60000000      0.60000000      0.60000000      0.60000000      0.60000000      0.60000000      0.60000000      0.60000000      0.60000000      0.60000000      0.60000000      0.60000000      0.60000000
      0.60000000      0.60000000      0.60000000      0.60000000      0.60000000      0.60000000      0.60000000      0.60000000      0.60000000      0.60000000      0.60000000      0.60000000      0.60000000      0.60000000      0.60000000      0.60000000      0.60000000      0.60000000      0.60000000      0.60000000
      0.60000000      0.60000000      0.60000000      0.60000000      0.60000000      0.60000000      0.60000000      0.60000000      0.60000000      0.60000000      0.60000000      0.60000000      0.60000000      0.60000000      0.60000000      0.60000000      0.60000000      0.60000000      0.60000000      0.60000000
      0.60000000      0.60000000      0.60000000      0.60000000      0.60000000      0.60000000      0.60000000      0.60000000      0.60000000      0.60000000      0.60000000      0.60000000      0.60000000      0.60000000      0.60000000      0.60000000      5.00000000      5.00000000      5.00000000      5.00000000
      5.00000000      5.00000000      5.00000000      5.00000000      5.00000000      5.00000000      5.00000000      5.00000000      5.00000000      5.00000000      5.00000000      5.00000000      5.00000000      5.00000000      5.00000000      5.00000000      5.00000000      5.00000000      5.00000000      5.00000000
</v>
    <i name="NUPDOWN">     -1.00000000</i>
    <i type="logical" name="LSORBIT"> F  </i>
    <v name="SAXIS">      0.00000000      0.00000000      1.00000000</v>
    <i type="logical" name="LSPIRAL"> F  </i>
    <v name="QSPIRAL">      0.00000000      0.00000000      0.00000000</v>
    <i type="logical" name="LZEROZ"> F  </i>
   </separator>
   <separator name="electronic exchange-correlation" >
    <i type="logical" name="LASPH"> T  </i>
    <i type="logical" name="LMETAGGA"> F  </i>
   </separator>
   <separator name="electronic convergence" >
    <i type="int" name="NELM">   200</i>
    <i type="int" name="NELMDL">     0</i>
    <i type="int" name="NELMIN">     8</i>
    <i name="ENINI">    650.00000000</i>
    <separator name="electronic convergence detail" >
     <i type="logical" name="LDIAG"> T  </i>
     <i type="logical" name="LSUBROT"> F  </i>
     <i name="WEIMIN">      0.00000000</i>
     <i name="EBREAK">      0.00000000</i>
     <i name="DEPER">      0.30000000</i>
     <i type="int" name="NRMM">     4</i>
     <i name="TIME">      0.40000000</i>
    </separator>
   </separator>
   <separator name="electronic mixer" >
    <i name="AMIX">      0.40000000</i>
    <i name="BMIX">      1.00000000</i>
    <i name="AMIN">      0.10000000</i>
    <i name="AMIX_MAG">      1.60000000</i>
    <i name="BMIX_MAG">      1.00000000</i>
    <separator name="electronic mixer details" >
     <i type="int" name="IMIX">     4</i>
     <i type="logical" name="MIXFIRST"> F  </i>
     <i type="int" name="MAXMIX">   -45</i>
     <i name="WC">    100.00000000</i>
     <i type="int" name="INIMIX">     1</i>
     <i type="int" name="MIXPRE">     1</i>
     <i type="int" name="MREMOVE">     5</i>
    </separator>
   </separator>
   <separator name="electronic dipolcorrection" >
    <i type="logical" name="LDIPOL"> F  </i>
    <i type="logical" name="LMONO"> F  </i>
    <i type="int" name="IDIPOL">     0</i>
    <i name="EPSILON">      1.00000000</i>
    <v name="DIPOL">   -100.00000000   -100.00000000   -100.00000000</v>
    <i name="EFIELD">      0.00000000</i>
   </separator>
  </separator>
  <separator name="grids" >
   <i type="int" name="NGX">    98</i>
   <i type="int" name="NGY">    96</i>
   <i type="int" name="NGZ">    96</i>
   <i type="int" name="NGXF">   196</i>
   <i type="int" name="NGYF">   192</i>
   <i type="int" name="NGZF">   192</i>
   <i type="logical" name="ADDGRID"> T  </i>
  </separator>
  <separator name="ionic" >
   <i type="int" name="NSW">     0</i>
   <i type="int" name="IBRION">    -1</i>
   <i type="int" name="MDALGO">     0</i>
   <i type="int" name="ISIF">     3</i>
   <i name="PSTRESS">      0.00000000</i>
   <i name="EDIFFG">      0.00001000</i>
   <i type="int" name="NFREE">     0</i>
   <i name="POTIM">      0.50000000</i>
   <i name="SMASS">     -3.00000000</i>
   <i name="SCALEE">      1.00000000</i>
  </separator>
  <separator name="ionic md" >
   <i name="TEBEG">      0.00010000</i>
   <i name="TEEND">      0.00010000</i>
   <i type="int" name="NBLOCK">     1</i>
   <i type="int" name="KBLOCK">     1</i>
   <i type="int" name="NPACO">   256</i>
   <i name="APACO">     16.00000000</i>
  </separator>
  <separator name="symmetry" >
   <i type="int" name="ISYM">     0</i>
   <i name="SYMPREC">      0.00001000</i>
  </separator>
  <separator name="dos" >
   <i type="int" name="LORBIT">     0</i>
   <v name="RWIGS">     -1.00000000     -1.00000000     -1.00000000     -1.00000000</v>
   <i type="int" name="NEDOS">   301</i>
   <i name="EMIN">     10.00000000</i>
   <i name="EMAX">    -10.00000000</i>
   <i name="EFERMI">      0.00000000</i>
  </separator>
  <separator name="writing" >
   <i type="int" name="NWRITE">     1</i>
   <i type="logical" name="LWAVE"> F  </i>
   <i type="logical" name="LDOWNSAMPLE"> F  </i>
   <i type="logical" name="LCHARG"> T  </i>
   <i type="logical" name="LPARD"> F  </i>
   <i type="logical" name="LVTOT"> F  </i>
   <i type="logical" name="LVHAR"> F  </i>
   <i type="logical" name="LELF"> F  </i>
   <i type="logical" name="LOPTICS"> F  </i>
   <v name="STM">      0.00000000      0.00000000      0.00000000      0.00000000      0.00000000      0.00000000      0.00000000</v>
  </separator>
  <separator name="performance" >
   <i type="int" name="NPAR">     4</i>
   <i type="int" name="NSIM">     4</i>
   <i type="int" name="NBLK">    -1</i>
   <i type="logical" name="LPLANE"> T  </i>
   <i type="logical" name="LSCALAPACK"> T  </i>
   <i type="logical" name="LSCAAWARE"> F  </i>
   <i type="logical" name="LSCALU"> F  </i>
   <i type="logical" name="LASYNC"> F  </i>
   <i type="logical" name="LORBITALREAL"> F  </i>
  </separator>
  <separator name="miscellaneous" >
   <i type="int" name="IDIOT">     3</i>
   <i type="int" name="ISPECIAL">     0</i>
   <i type="logical" name="LMUSIC"> F  </i>
   <v name="POMASS">      7.01000000     16.00000000     32.06600000     55.84700000</v>
   <v name="DARWINR">      0.00000000      0.00000000      0.00000000      0.00000000</v>
   <v name="DARWINV">      1.00000000      1.00000000      1.00000000      1.00000000</v>
   <i type="logical" name="LCORR"> T  </i>
  </separator>
  <i type="logical" name="GGA_COMPAT"> T  </i>
  <i type="logical" name="LBERRY"> F  </i>
  <i type="int" name="ICORELEVEL">     0</i>
  <i type="logical" name="LDAU"> T  </i>
  <v type="int" name="LDAUTYPE">     2</v>
  <v type="int" name="LDAUL">    -1</v>
  <v name="LDAUU">      0.00000000</v>
  <v name="LDAUJ">      0.00000000</v>
  <i type="int" name="LDAUPRINT">     0</i>
  <i type="int" name="I_CONSTRAINED_M">     0</i>
  <separator name="electronic exchange-correlation" >
   <i type="string" name="GGA">PE</i>
   <i type="int" name="VOSKOWN">     0</i>
   <i type="logical" name="LHFCALC"> F  </i>
   <i type="string" name="PRECFOCK"></i>
   <i type="logical" name="LSYMGRAD"> F  </i>
   <i type="logical" name="LHFONE"> F  </i>
   <i type="logical" name="LRHFCALC"> F  </i>
   <i type="logical" name="LTHOMAS"> F  </i>
   <i type="logical" name="LMODELHF"> F  </i>
   <i name="ENCUT4O">     -1.00000000</i>
   <i type="int" name="EXXOEP">     0</i>
   <i type="int" name="FOURORBIT">     0</i>
   <i name="AEXX">      0.00000000</i>
   <i name="HFALPHA">      0.00000000</i>
   <i name="MCALPHA">      0.00000000</i>
   <i name="ALDAX">      1.00000000</i>
   <i name="AGGAX">      1.00000000</i>
   <i name="ALDAC">      1.00000000</i>
   <i name="AGGAC">      1.00000000</i>
   <i type="int" name="NKREDX">     1</i>
   <i type="int" name="NKREDY">     1</i>
   <i type="int" name="NKREDZ">     1</i>
   <i type="logical" name="SHIFTRED"> F  </i>
   <i type="logical" name="ODDONLY"> F  </i>
   <i type="logical" name="EVENONLY"> F  </i>
   <i type="int" name="LMAXFOCK">     0</i>
   <i type="int" name="NMAXFOCKAE">     0</i>
   <i type="logical" name="LFOCKAEDFT"> F  </i>
   <i name="HFSCREEN">      0.00000000</i>
   <i name="HFSCREENC">      0.00000000</i>
   <i type="int" name="NBANDSGWLOW">     0</i>
  </separator>
  <separator name="vdW DFT" >
   <i type="logical" name="LUSE_VDW"> F  </i>
   <i name="Zab_VDW">     -0.84910000</i>
   <i name="PARAM1">      0.12340000</i>
   <i name="PARAM2">      1.00000000</i>
   <i name="PARAM3">      0.00000000</i>
  </separator>
  <separator name="model GW" >
   <i type="int" name="MODEL_GW">     0</i>
   <i name="MODEL_EPS0">      7.36999089</i>
   <i name="MODEL_ALPHA">      1.00000000</i>
  </separator>
  <separator name="linear response parameters" >
   <i type="logical" name="LEPSILON"> F  </i>
   <i type="logical" name="LRPA"> F  </i>
   <i type="logical" name="LNABLA"> F  </i>
   <i type="logical" name="LVEL"> F  </i>
   <i type="int" name="KINTER">     0</i>
   <i name="CSHIFT">      0.10000000</i>
   <i name="OMEGAMAX">     -1.00000000</i>
   <i name="DEG_THRESHOLD">      0.00200000</i>
   <i name="RTIME">     -0.10000000</i>
   <i name="WPLASMAI">      0.00000000</i>
   <v name="DFIELD">      0.00000000      0.00000000      0.00000000</v>
   <v name="WPLASMA">      0.00000000      0.00000000      0.00000000      0.00000000      0.00000000      0.00000000      0.00000000      0.00000000      0.00000000</v>
  </separator>
  <separator name="orbital magnetization" >
   <i type="logical" name="NUCIND"> F  </i>
   <v name="MAGPOS">      0.00000000      0.00000000      0.00000000</v>
   <i type="logical" name="LNICSALL"> T  </i>
   <i type="logical" name="ORBITALMAG"> F  </i>
   <i type="logical" name="LMAGBLOCH"> F  </i>
   <i type="logical" name="LCHIMAG"> F  </i>
   <i type="logical" name="LGAUGE"> T  </i>
   <i type="int" name="MAGATOM">     0</i>
   <v name="MAGDIPOL">      0.00000000      0.00000000      0.00000000</v>
   <v name="AVECCONST">      0.00000000      0.00000000      0.00000000</v>
  </separator>
  <separator name="response functions" >
   <i type="logical" name="LADDER"> F  </i>
   <i type="logical" name="LRPAFORCE"> F  </i>
   <i type="logical" name="LFXC"> F  </i>
   <i type="logical" name="LHARTREE"> T  </i>
   <i type="int" name="IBSE">     0</i>
   <v type="int" name="KPOINT">    -1     0     0     0</v>
   <i type="logical" name="LTCTE"> F  </i>
   <i type="logical" name="LTETE"> F  </i>
   <i type="logical" name="LTRIPLET"> F  </i>
   <i type="logical" name="LFXCEPS"> F  </i>
   <i type="logical" name="LFXHEG"> F  </i>
   <i type="int" name="NATURALO">     2</i>
   <i type="logical" name="L2ORDER"> F  </i>
   <i type="logical" name="LMP2LT"> F  </i>
   <i type="logical" name="LUSEW"> F  </i>
   <i name="ENCUTGW">     -2.00000000</i>
   <i name="ENCUTGWSOFT">     -2.00000000</i>
   <i name="ENCUTLF">     -1.00000000</i>
   <i type="int" name="LMAXMP2">    -1</i>
   <i name="SCISSOR">      0.00000000</i>
   <i type="int" name="NOMEGA">     0</i>
   <i type="int" name="NOMEGAR">     0</i>
   <i type="int" name="NBANDSGW">    -1</i>
   <i type="int" name="NBANDSO">    -1</i>
   <i type="int" name="NBANDSV">    -1</i>
   <i type="int" name="NELM">   200</i>
   <i type="int" name="NELMHF">     1</i>
   <i type="int" name="DIM">     3</i>
   <i type="int" name="ANTIRES">     0</i>
   <i name="OMEGAMAX">    -30.00000000</i>
   <i name="OMEGAMIN">    -30.00000000</i>
   <i name="OMEGATL">   -200.00000000</i>
   <i type="int" name="OMEGAGRID">   140</i>
   <i name="CSHIFT">     -0.10000000</i>
   <i type="logical" name="SELFENERGY"> F  </i>
   <i type="logical" name="LSPECTRAL"> F  </i>
   <i type="logical" name="LSPECTRALGW"> F  </i>
   <i type="logical" name="LSINGLES"> F  </i>
   <i type="logical" name="LFERMIGW"> F  </i>
   <i type="logical" name="ODDONLYGW"> F  </i>
   <i type="logical" name="EVENONLYGW"> F  </i>
   <i type="int" name="NKREDLFX">     1</i>
   <i type="int" name="NKREDLFY">     1</i>
   <i type="int" name="NKREDLFZ">     1</i>
   <i type="int" name="MAXMEM">  2800</i>
   <i type="int" name="TELESCOPE">     0</i>
   <i type="int" name="TAUPAR">     1</i>
   <i type="int" name="OMEGAPAR">    -1</i>
   <i name="LAMBDA">      1.00000000</i>
  </separator>
  <separator name="External order field" >
   <i name="OFIELD_KAPPA">      0.00000000</i>
   <v name="OFIELD_K">      0.00000000      0.00000000      0.00000000</v>
   <i name="OFIELD_Q6_NEAR">      0.00000000</i>
   <i name="OFIELD_Q6_FAR">      0.00000000</i>
   <i name="OFIELD_A">      0.00000000</i>
  </separator>
 </parameters>
 <atominfo>
  <atoms>     120 </atoms>
  <types>       4 </types>
  <array name="atoms" >
   <dimension dim="1">ion</dimension>
   <field type="string">element</field>
   <field type="int">atomtype</field>
   <set>
    <rc><c>Li</c><c>   1</c></rc>
    <rc><c>Li</c><c>   1</c></rc>
    <rc><c>Li</c><c>   1</c></rc>
    <rc><c>Li</c><c>   1</c></rc>
    <rc><c>Li</c><c>   1</c></rc>
    <rc><c>Li</c><c>   1</c></rc>
    <rc><c>Li</c><c>   1</c></rc>
    <rc><c>Li</c><c>   1</c></rc>
    <rc><c>Li</c><c>   1</c></rc>
    <rc><c>Li</c><c>   1</c></rc>
    <rc><c>Li</c><c>   1</c></rc>
    <rc><c>Li</c><c>   1</c></rc>
    <rc><c>Li</c><c>   1</c></rc>
    <rc><c>Li</c><c>   1</c></rc>
    <rc><c>Li</c><c>   1</c></rc>
    <rc><c>Li</c><c>   1</c></rc>
    <rc><c>Li</c><c>   1</c></rc>
    <rc><c>Li</c><c>   1</c></rc>
    <rc><c>Li</c><c>   1</c></rc>
    <rc><c>Li</c><c>   1</c></rc>
    <rc><c>Li</c><c>   1</c></rc>
    <rc><c>Li</c><c>   1</c></rc>
    <rc><c>Li</c><c>   1</c></rc>
    <rc><c>Li</c><c>   1</c></rc>
    <rc><c>Li</c><c>   1</c></rc>
    <rc><c>Li</c><c>   1</c></rc>
    <rc><c>Li</c><c>   1</c></rc>
    <rc><c>Li</c><c>   1</c></rc>
    <rc><c>Li</c><c>   1</c></rc>
    <rc><c>Li</c><c>   1</c></rc>
    <rc><c>Li</c><c>   1</c></rc>
    <rc><c>Li</c><c>   1</c></rc>
    <rc><c>Li</c><c>   1</c></rc>
    <rc><c>Li</c><c>   1</c></rc>
    <rc><c>Li</c><c>   1</c></rc>
    <rc><c>Li</c><c>   1</c></rc>
    <rc><c>Li</c><c>   1</c></rc>
    <rc><c>Li</c><c>   1</c></rc>
    <rc><c>Li</c><c>   1</c></rc>
    <rc><c>Li</c><c>   1</c></rc>
    <rc><c>Li</c><c>   1</c></rc>
    <rc><c>Li</c><c>   1</c></rc>
    <rc><c>Li</c><c>   1</c></rc>
    <rc><c>Li</c><c>   1</c></rc>
    <rc><c>Li</c><c>   1</c></rc>
    <rc><c>Li</c><c>   1</c></rc>
    <rc><c>Li</c><c>   1</c></rc>
    <rc><c>Li</c><c>   1</c></rc>
    <rc><c>O </c><c>   2</c></rc>
    <rc><c>O </c><c>   2</c></rc>
    <rc><c>O </c><c>   2</c></rc>
    <rc><c>O </c><c>   2</c></rc>
    <rc><c>O </c><c>   2</c></rc>
    <rc><c>O </c><c>   2</c></rc>
    <rc><c>O </c><c>   2</c></rc>
    <rc><c>O </c><c>   2</c></rc>
    <rc><c>O </c><c>   2</c></rc>
    <rc><c>O </c><c>   2</c></rc>
    <rc><c>O </c><c>   2</c></rc>
    <rc><c>O </c><c>   2</c></rc>
    <rc><c>O </c><c>   2</c></rc>
    <rc><c>O </c><c>   2</c></rc>
    <rc><c>O </c><c>   2</c></rc>
    <rc><c>O </c><c>   2</c></rc>
    <rc><c>O </c><c>   2</c></rc>
    <rc><c>O </c><c>   2</c></rc>
    <rc><c>O </c><c>   2</c></rc>
    <rc><c>O </c><c>   2</c></rc>
    <rc><c>O </c><c>   2</c></rc>
    <rc><c>O </c><c>   2</c></rc>
    <rc><c>O </c><c>   2</c></rc>
    <rc><c>O </c><c>   2</c></rc>
    <rc><c>S </c><c>   3</c></rc>
    <rc><c>S </c><c>   3</c></rc>
    <rc><c>S </c><c>   3</c></rc>
    <rc><c>S </c><c>   3</c></rc>
    <rc><c>S </c><c>   3</c></rc>
    <rc><c>S </c><c>   3</c></rc>
    <rc><c>S </c><c>   3</c></rc>
    <rc><c>S </c><c>   3</c></rc>
    <rc><c>S </c><c>   3</c></rc>
    <rc><c>S </c><c>   3</c></rc>
    <rc><c>S </c><c>   3</c></rc>
    <rc><c>S </c><c>   3</c></rc>
    <rc><c>S </c><c>   3</c></rc>
    <rc><c>S </c><c>   3</c></rc>
    <rc><c>S </c><c>   3</c></rc>
    <rc><c>S </c><c>   3</c></rc>
    <rc><c>S </c><c>   3</c></rc>
    <rc><c>S </c><c>   3</c></rc>
    <rc><c>S </c><c>   3</c></rc>
    <rc><c>S </c><c>   3</c></rc>
    <rc><c>S </c><c>   3</c></rc>
    <rc><c>S </c><c>   3</c></rc>
    <rc><c>S </c><c>   3</c></rc>
    <rc><c>S </c><c>   3</c></rc>
    <rc><c>Fe</c><c>   4</c></rc>
    <rc><c>Fe</c><c>   4</c></rc>
    <rc><c>Fe</c><c>   4</c></rc>
    <rc><c>Fe</c><c>   4</c></rc>
    <rc><c>Fe</c><c>   4</c></rc>
    <rc><c>Fe</c><c>   4</c></rc>
    <rc><c>Fe</c><c>   4</c></rc>
    <rc><c>Fe</c><c>   4</c></rc>
    <rc><c>Fe</c><c>   4</c></rc>
    <rc><c>Fe</c><c>   4</c></rc>
    <rc><c>Fe</c><c>   4</c></rc>
    <rc><c>Fe</c><c>   4</c></rc>
    <rc><c>Fe</c><c>   4</c></rc>
    <rc><c>Fe</c><c>   4</c></rc>
    <rc><c>Fe</c><c>   4</c></rc>
    <rc><c>Fe</c><c>   4</c></rc>
    <rc><c>Fe</c><c>   4</c></rc>
    <rc><c>Fe</c><c>   4</c></rc>
    <rc><c>Fe</c><c>   4</c></rc>
    <rc><c>Fe</c><c>   4</c></rc>
    <rc><c>Fe</c><c>   4</c></rc>
    <rc><c>Fe</c><c>   4</c></rc>
    <rc><c>Fe</c><c>   4</c></rc>
    <rc><c>Fe</c><c>   4</c></rc>
   </set>
  </array>
  <array name="atomtypes" >
   <dimension dim="1">type</dimension>
   <field type="int">atomspertype</field>
   <field type="string">element</field>
   <field>mass</field>
   <field>valence</field>
   <field type="string">pseudopotential</field>
   <set>
    <rc><c>  48</c><c>Li</c><c>      7.01000000</c><c>      3.00000000</c><c>  PAW_PBE Li_sv 10Sep2004               </c></rc>
    <rc><c>  24</c><c>O </c><c>     16.00000000</c><c>      6.00000000</c><c>  PAW_PBE O 08Apr2002                   </c></rc>
    <rc><c>  24</c><c>S </c><c>     32.06600000</c><c>      6.00000000</c><c>  PAW_PBE S 06Sep2000                   </c></rc>
    <rc><c>  24</c><c>Fe</c><c>     55.84700000</c><c>     14.00000000</c><c>  PAW_PBE Fe_pv 02Aug2007               </c></rc>
   </set>
  </array>
 </atominfo>
 <structure name="initialpos" >
  <crystal>
   <varray name="basis" >
    <v>      11.73572724      -0.05744286       0.00000000 </v>
    <v>       0.05480788      11.21833490       0.00000000 </v>
    <v>       0.00000000       0.00000000      11.19562010 </v>
   </varray>
   <i name="volume">   1473.99817718 </i>
   <varray name="rec_basis" >
    <v>       0.08520785      -0.00041629       0.00000000 </v>
    <v>       0.00043630       0.08913766       0.00000000 </v>
    <v>       0.00000000       0.00000000       0.08932064 </v>
   </varray>
  </crystal>
  <varray name="positions" >
   <v>       0.03541706       0.36277547       0.35558828 </v>
   <v>       0.36875039       0.36277547       0.35648149 </v>
   <v>       0.70208372       0.36277547       0.35648149 </v>
   <v>       0.03541706       0.86277547       0.35648149 </v>
   <v>       0.36875039       0.86277547       0.35648149 </v>
   <v>       0.70208372       0.86277547       0.35648149 </v>
   <v>       0.03541706       0.36277547       0.85648149 </v>
   <v>       0.36875039       0.36277547       0.85648149 </v>
   <v>       0.70208372       0.36277547       0.85648149 </v>
   <v>       0.03541706       0.86277547       0.85648149 </v>
   <v>       0.36875039       0.86277547       0.85648149 </v>
   <v>       0.70208372       0.86277547       0.85648149 </v>
   <v>       0.03541706       0.11277547       0.14351851 </v>
   <v>       0.36875039       0.11277547       0.14351851 </v>
   <v>       0.70208372       0.11277547       0.14351851 </v>
   <v>       0.03541706       0.61277547       0.14351851 </v>
   <v>       0.36875039       0.61277547       0.14351851 </v>
   <v>       0.70208372       0.61277547       0.14351851 </v>
   <v>       0.03541706       0.11277547       0.64351851 </v>
   <v>       0.36875039       0.11277547       0.64351851 </v>
   <v>       0.70208372       0.11277547       0.64351851 </v>
   <v>       0.03541706       0.61277547       0.64351851 </v>
   <v>       0.36875039       0.61277547       0.64351851 </v>
   <v>       0.70208372       0.61277547       0.64351851 </v>
   <v>       0.20209458       0.21898060       0.27246215 </v>
   <v>       0.53542792       0.21898060       0.27246215 </v>
   <v>       0.86876125       0.21898060       0.27246215 </v>
   <v>       0.20209458       0.71898060       0.27246215 </v>
   <v>       0.53542792       0.71898060       0.27246215 </v>
   <v>       0.86876125       0.71898060       0.27246215 </v>
   <v>       0.20209458       0.21898060       0.77246215 </v>
   <v>       0.53542792       0.21898060       0.77246215 </v>
   <v>       0.86876125       0.21898060       0.77246215 </v>
   <v>       0.20209458       0.71898060       0.77246215 </v>
   <v>       0.53542792       0.71898060       0.77246215 </v>
   <v>       0.86876125       0.71898060       0.77246215 </v>
   <v>       0.20209458       0.46898060       0.22753785 </v>
   <v>       0.53542792       0.46898060       0.22753785 </v>
   <v>       0.86876125       0.46898060       0.22753785 </v>
   <v>       0.20209458       0.96898060       0.22753785 </v>
   <v>       0.53542792       0.96898060       0.22753785 </v>
   <v>       0.86876125       0.96898060       0.22753785 </v>
   <v>       0.20209458       0.46898060       0.72753785 </v>
   <v>       0.53542792       0.46898060       0.72753785 </v>
   <v>       0.86876125       0.46898060       0.72753785 </v>
   <v>       0.20209458       0.96898060       0.72753785 </v>
   <v>       0.53542792       0.96898060       0.72753785 </v>
   <v>       0.86876125       0.96898060       0.72753785 </v>
   <v>       0.20209064       0.36769237       0.37376509 </v>
   <v>       0.53542398       0.36769237       0.37376509 </v>
   <v>       0.86875731       0.36769237       0.37376509 </v>
   <v>       0.20209064       0.86769237       0.37376509 </v>
   <v>       0.53542398       0.86769237       0.37376509 </v>
   <v>       0.86875731       0.86769237       0.37376509 </v>
   <v>       0.20209064       0.36769237       0.87376509 </v>
   <v>       0.53542398       0.36769237       0.87376509 </v>
   <v>       0.86875731       0.36769237       0.87376509 </v>
   <v>       0.20209064       0.86769237       0.87376509 </v>
   <v>       0.53542398       0.86769237       0.87376509 </v>
   <v>       0.86875731       0.86769237       0.87376509 </v>
   <v>       0.20209064       0.11769237       0.12623491 </v>
   <v>       0.53542398       0.11769237       0.12623491 </v>
   <v>       0.86875731       0.11769237       0.12623491 </v>
   <v>       0.20209064       0.61769237       0.12623491 </v>
   <v>       0.53542398       0.61769237       0.12623491 </v>
   <v>       0.86875731       0.61769237       0.12623491 </v>
   <v>       0.20209064       0.11769237       0.62623491 </v>
   <v>       0.53542398       0.11769237       0.62623491 </v>
   <v>       0.86875731       0.11769237       0.62623491 </v>
   <v>       0.20209064       0.61769237       0.62623491 </v>
   <v>       0.53542398       0.61769237       0.62623491 </v>
   <v>       0.86875731       0.61769237       0.62623491 </v>
   <v>       0.03542751       0.37011947       0.12029448 </v>
   <v>       0.36876084       0.37011947       0.12029448 </v>
   <v>       0.70209418       0.37011947       0.12029448 </v>
   <v>       0.03542751       0.87011947       0.12029448 </v>
   <v>       0.36876084       0.87011947       0.12029448 </v>
   <v>       0.70209418       0.87011947       0.12029448 </v>
   <v>       0.03542751       0.37011947       0.62029448 </v>
   <v>       0.36876084       0.37011947       0.62029448 </v>
   <v>       0.70209418       0.37011947       0.62029448 </v>
   <v>       0.03542751       0.87011947       0.62029448 </v>
   <v>       0.36876084       0.87011947       0.62029448 </v>
   <v>       0.70209418       0.87011947       0.62029448 </v>
   <v>       0.03542751       0.12011947       0.37970552 </v>
   <v>       0.36876084       0.12011947       0.37970552 </v>
   <v>       0.70209418       0.12011947       0.37970552 </v>
   <v>       0.03542751       0.62011947       0.37970552 </v>
   <v>       0.36876084       0.62011947       0.37970552 </v>
   <v>       0.70209418       0.62011947       0.37970552 </v>
   <v>       0.03542751       0.12011947       0.87970552 </v>
   <v>       0.36876084       0.12011947       0.87970552 </v>
   <v>       0.70209418       0.12011947       0.87970552 </v>
   <v>       0.03542751       0.62011947       0.87970552 </v>
   <v>       0.36876084       0.62011947       0.87970552 </v>
   <v>       0.70209418       0.62011947       0.87970552 </v>
   <v>       0.20209387       0.01225309       0.48003463 </v>
   <v>       0.53542720       0.01225309       0.48003463 </v>
   <v>       0.86876054       0.01225309       0.48003463 </v>
   <v>       0.20209387       0.51225309       0.48003463 </v>
   <v>       0.53542720       0.51225309       0.48003463 </v>
   <v>       0.86876054       0.51225309       0.48003463 </v>
   <v>       0.20209387       0.01225309       0.98003463 </v>
   <v>       0.53542720       0.01225309       0.98003463 </v>
   <v>       0.86876054       0.01225309       0.98003463 </v>
   <v>       0.20209387       0.51225309       0.98003463 </v>
   <v>       0.53542720       0.51225309       0.98003463 </v>
   <v>       0.86876054       0.51225309       0.98003463 </v>
   <v>       0.20209387       0.26225309       0.01996537 </v>
   <v>       0.53542720       0.26225309       0.01996537 </v>
   <v>       0.86876054       0.26225309       0.01996537 </v>
   <v>       0.20209387       0.76225309       0.01996537 </v>
   <v>       0.53542720       0.76225309       0.01996537 </v>
   <v>       0.86876054       0.76225309       0.01996537 </v>
   <v>       0.20209387       0.26225309       0.51996537 </v>
   <v>       0.53542720       0.26225309       0.51996537 </v>
   <v>       0.86876054       0.26225309       0.51996537 </v>
   <v>       0.20209387       0.76225309       0.51996537 </v>
   <v>       0.53542720       0.76225309       0.51996537 </v>
   <v>       0.86876054       0.76225309       0.51996537 </v>
  </varray>
 </structure>
 <calculation>
  <scstep>
   <time name="dav">  219.62  224.11</time>
   <time name="total">  221.59  226.08</time>
   <energy>
    <i name="alphaZ">   1915.67052055 </i>
    <i name="ewald"> -48532.97697725 </i>
    <i name="hartreedc"> -28982.66465032 </i>
    <i name="XCdc">   3297.26330039 </i>
    <i name="pawpsdc">  81710.32686745 </i>
    <i name="pawaedc"> -84426.12035439 </i>
    <i name="eentropy">     -0.01840523 </i>
    <i name="bandstr">   -670.08026032 </i>
    <i name="atom">  85731.96378919 </i>
    <i name="e_fr_energy">  10043.36383008 </i>
    <i name="e_wo_entrp">  10043.38223530 </i>
    <i name="e_0_energy">  10043.37303269 </i>
   </energy>
  </scstep>
  <scstep>
   <time name="dav">  211.11  215.18</time>
   <time name="total">  211.11  215.18</time>
   <energy>
    <i name="e_fr_energy">   1037.06368891 </i>
    <i name="e_wo_entrp">   1037.11592403 </i>
    <i name="e_0_energy">   1037.08980647 </i>
   </energy>
  </scstep>
  <scstep>
   <time name="dav">  231.23  235.96</time>
   <time name="total">  231.24  235.96</time>
   <energy>
    <i name="e_fr_energy">   -399.75262257 </i>
    <i name="e_wo_entrp">   -399.75262257 </i>
    <i name="e_0_energy">   -399.75262257 </i>
   </energy>
  </scstep>
  <scstep>
   <time name="dav">  262.18  268.18</time>
   <time name="total">  262.19  268.18</time>
   <energy>
    <i name="e_fr_energy">   -590.30558525 </i>
    <i name="e_wo_entrp">   -590.30558525 </i>
    <i name="e_0_energy">   -590.30558525 </i>
   </energy>
  </scstep>
  <scstep>
   <time name="dav">  335.77  341.94</time>
   <time name="total">  341.39  347.61</time>
   <energy>
    <i name="e_fr_energy">   -615.44149704 </i>
    <i name="e_wo_entrp">   -615.44149704 </i>
    <i name="e_0_energy">   -615.44149704 </i>
   </energy>
  </scstep>
  <scstep>
   <time name="dav">  269.88  275.40</time>
   <time name="total">  277.28  283.06</time>
   <energy>
    <i name="e_fr_energy">   -616.38749940 </i>
    <i name="e_wo_entrp">   -616.38749940 </i>
    <i name="e_0_energy">   -616.38749940 </i>
   </energy>
  </scstep>
  <scstep>
   <time name="dav">  306.57  312.61</time>
   <time name="total">  314.12  320.31</time>
   <energy>
    <i name="e_fr_energy">   -616.43551118 </i>
    <i name="e_wo_entrp">   -616.43551118 </i>
    <i name="e_0_energy">   -616.43551118 </i>
   </energy>
  </scstep>
  <scstep>
   <time name="dav">  296.50  302.99</time>
   <time name="total">  303.93  310.66</time>
   <energy>
    <i name="e_fr_energy">   -616.43566057 </i>
    <i name="e_wo_entrp">   -616.43566057 </i>
    <i name="e_0_energy">   -616.43566057 </i>
   </energy>
  </scstep>
  <scstep>
   <time name="dav">  305.90  312.44</time>
   <time name="total">  313.36  320.12</time>
   <energy>
    <i name="e_fr_energy">   -616.43503463 </i>
    <i name="e_wo_entrp">   -616.43503463 </i>
    <i name="e_0_energy">   -616.43503463 </i>
   </energy>
  </scstep>
  <scstep>
   <time name="dav">  301.62  307.60</time>
   <time name="total">  309.18  315.27</time>
   <energy>
    <i name="e_fr_energy">   -616.43501853 </i>
    <i name="e_wo_entrp">   -616.43501853 </i>
    <i name="e_0_energy">   -616.43501853 </i>
   </energy>
  </scstep>
  <scstep>
   <time name="dav">  290.96  297.21</time>
   <time name="total">  298.58  304.95</time>
   <energy>
    <i name="e_fr_energy">   -616.43397445 </i>
    <i name="e_wo_entrp">   -616.43397445 </i>
    <i name="e_0_energy">   -616.43397445 </i>
   </energy>
  </scstep>
  <scstep>
   <time name="dav">  293.52  299.87</time>
   <time name="total">  301.10  307.57</time>
   <energy>
    <i name="e_fr_energy">   -616.43326316 </i>
    <i name="e_wo_entrp">   -616.43326316 </i>
    <i name="e_0_energy">   -616.43326316 </i>
   </energy>
  </scstep>
  <scstep>
   <time name="dav">  306.86  313.32</time>
   <time name="total">  314.31  321.01</time>
   <energy>
    <i name="e_fr_energy">   -616.43278945 </i>
    <i name="e_wo_entrp">   -616.43278945 </i>
    <i name="e_0_energy">   -616.43278945 </i>
   </energy>
  </scstep>
  <scstep>
   <time name="dav">  262.91  268.10</time>
   <time name="total">  270.37  275.82</time>
   <energy>
    <i name="e_fr_energy">   -616.43267051 </i>
    <i name="e_wo_entrp">   -616.43267051 </i>
    <i name="e_0_energy">   -616.43267051 </i>
   </energy>
  </scstep>
  <scstep>
   <time name="dav">  242.19  247.20</time>
   <time name="total">  249.70  254.84</time>
   <energy>
    <i name="e_fr_energy">   -616.43252983 </i>
    <i name="e_wo_entrp">   -616.43252983 </i>
    <i name="e_0_energy">   -616.43252983 </i>
   </energy>
  </scstep>
  <scstep>
   <time name="dav">  275.27  281.29</time>
   <time name="total">  282.79  288.98</time>
   <energy>
    <i name="e_fr_energy">   -616.43242147 </i>
    <i name="e_wo_entrp">   -616.43242147 </i>
    <i name="e_0_energy">   -616.43242147 </i>
   </energy>
  </scstep>
  <scstep>
   <time name="dav">  295.08  301.43</time>
   <time name="total">  302.65  309.10</time>
   <energy>
    <i name="e_fr_energy">   -616.43241002 </i>
    <i name="e_wo_entrp">   -616.43241002 </i>
    <i name="e_0_energy">   -616.43241002 </i>
   </energy>
  </scstep>
  <scstep>
   <time name="dav">  257.91  262.52</time>
   <time name="total">  265.41  270.16</time>
   <energy>
    <i name="e_fr_energy">   -616.43241105 </i>
    <i name="e_wo_entrp">   -616.43241105 </i>
    <i name="e_0_energy">   -616.43241105 </i>
   </energy>
  </scstep>
  <scstep>
   <time name="dav">  171.65  175.49</time>
   <time name="total">  173.57  177.44</time>
   <energy>
    <i name="alphaZ">   1915.67052055 </i>
    <i name="ewald"> -48532.97697725 </i>
    <i name="hartreedc"> -28982.70450972 </i>
    <i name="XCdc">   3297.27278626 </i>
    <i name="pawpsdc">  81707.88481572 </i>
    <i name="pawaedc"> -84423.63502803 </i>
    <i name="eentropy">     -0.00000000 </i>
    <i name="bandstr"> -11329.90780761 </i>
    <i name="atom">  85731.96378919 </i>
    <i name="e_fr_energy">   -616.43241088 </i>
    <i name="e_wo_entrp">   -616.43241088 </i>
    <i name="e_0_energy">   -616.43241088 </i>
   </energy>
  </scstep>
  <structure>
   <crystal>
    <varray name="basis" >
     <v>      11.73572724      -0.05744286       0.00000000 </v>
     <v>       0.05480788      11.21833490       0.00000000 </v>
     <v>       0.00000000       0.00000000      11.19562010 </v>
    </varray>
    <i name="volume">   1473.99817718 </i>
    <varray name="rec_basis" >
     <v>       0.08520785      -0.00041629       0.00000000 </v>
     <v>       0.00043630       0.08913766       0.00000000 </v>
     <v>       0.00000000       0.00000000       0.08932064 </v>
    </varray>
   </crystal>
   <varray name="positions" >
    <v>       0.03541706       0.36277547       0.35558828 </v>
    <v>       0.36875039       0.36277547       0.35648149 </v>
    <v>       0.70208372       0.36277547       0.35648149 </v>
    <v>       0.03541706       0.86277547       0.35648149 </v>
    <v>       0.36875039       0.86277547       0.35648149 </v>
    <v>       0.70208372       0.86277547       0.35648149 </v>
    <v>       0.03541706       0.36277547       0.85648149 </v>
    <v>       0.36875039       0.36277547       0.85648149 </v>
    <v>       0.70208372       0.36277547       0.85648149 </v>
    <v>       0.03541706       0.86277547       0.85648149 </v>
    <v>       0.36875039       0.86277547       0.85648149 </v>
    <v>       0.70208372       0.86277547       0.85648149 </v>
    <v>       0.03541706       0.11277547       0.14351851 </v>
    <v>       0.36875039       0.11277547       0.14351851 </v>
    <v>       0.70208372       0.11277547       0.14351851 </v>
    <v>       0.03541706       0.61277547       0.14351851 </v>
    <v>       0.36875039       0.61277547       0.14351851 </v>
    <v>       0.70208372       0.61277547       0.14351851 </v>
    <v>       0.03541706       0.11277547       0.64351851 </v>
    <v>       0.36875039       0.11277547       0.64351851 </v>
    <v>       0.70208372       0.11277547       0.64351851 </v>
    <v>       0.03541706       0.61277547       0.64351851 </v>
    <v>       0.36875039       0.61277547       0.64351851 </v>
    <v>       0.70208372       0.61277547       0.64351851 </v>
    <v>       0.20209458       0.21898060       0.27246215 </v>
    <v>       0.53542792       0.21898060       0.27246215 </v>
    <v>       0.86876125       0.21898060       0.27246215 </v>
    <v>       0.20209458       0.71898060       0.27246215 </v>
    <v>       0.53542792       0.71898060       0.27246215 </v>
    <v>       0.86876125       0.71898060       0.27246215 </v>
    <v>       0.20209458       0.21898060       0.77246215 </v>
    <v>       0.53542792       0.21898060       0.77246215 </v>
    <v>       0.86876125       0.21898060       0.77246215 </v>
    <v>       0.20209458       0.71898060       0.77246215 </v>
    <v>       0.53542792       0.71898060       0.77246215 </v>
    <v>       0.86876125       0.71898060       0.77246215 </v>
    <v>       0.20209458       0.46898060       0.22753785 </v>
    <v>       0.53542792       0.46898060       0.22753785 </v>
    <v>       0.86876125       0.46898060       0.22753785 </v>
    <v>       0.20209458       0.96898060       0.22753785 </v>
    <v>       0.53542792       0.96898060       0.22753785 </v>
    <v>       0.86876125       0.96898060       0.22753785 </v>
    <v>       0.20209458       0.46898060       0.72753785 </v>
    <v>       0.53542792       0.46898060       0.72753785 </v>
    <v>       0.86876125       0.46898060       0.72753785 </v>
    <v>       0.20209458       0.96898060       0.72753785 </v>
    <v>       0.53542792       0.96898060       0.72753785 </v>
    <v>       0.86876125       0.96898060       0.72753785 </v>
    <v>       0.20209064       0.36769237       0.37376509 </v>
    <v>       0.53542398       0.36769237       0.37376509 </v>
    <v>       0.86875731       0.36769237       0.37376509 </v>
    <v>       0.20209064       0.86769237       0.37376509 </v>
    <v>       0.53542398       0.86769237       0.37376509 </v>
    <v>       0.86875731       0.86769237       0.37376509 </v>
    <v>       0.20209064       0.36769237       0.87376509 </v>
    <v>       0.53542398       0.36769237       0.87376509 </v>
    <v>       0.86875731       0.36769237       0.87376509 </v>
    <v>       0.20209064       0.86769237       0.87376509 </v>
    <v>       0.53542398       0.86769237       0.87376509 </v>
    <v>       0.86875731       0.86769237       0.87376509 </v>
    <v>       0.20209064       0.11769237       0.12623491 </v>
    <v>       0.53542398       0.11769237       0.12623491 </v>
    <v>       0.86875731       0.11769237       0.12623491 </v>
    <v>       0.20209064       0.61769237       0.12623491 </v>
    <v>       0.53542398       0.61769237       0.12623491 </v>
    <v>       0.86875731       0.61769237       0.12623491 </v>
    <v>       0.20209064       0.11769237       0.62623491 </v>
    <v>       0.53542398       0.11769237       0.62623491 </v>
    <v>       0.86875731       0.11769237       0.62623491 </v>
    <v>       0.20209064       0.61769237       0.62623491 </v>
    <v>       0.53542398       0.61769237       0.62623491 </v>
    <v>       0.86875731       0.61769237       0.62623491 </v>
    <v>       0.03542751       0.37011947       0.12029448 </v>
    <v>       0.36876084       0.37011947       0.12029448 </v>
    <v>       0.70209418       0.37011947       0.12029448 </v>
    <v>       0.03542751       0.87011947       0.12029448 </v>
    <v>       0.36876084       0.87011947       0.12029448 </v>
    <v>       0.70209418       0.87011947       0.12029448 </v>
    <v>       0.03542751       0.37011947       0.62029448 </v>
    <v>       0.36876084       0.37011947       0.62029448 </v>
    <v>       0.70209418       0.37011947       0.62029448 </v>
    <v>       0.03542751       0.87011947       0.62029448 </v>
    <v>       0.36876084       0.87011947       0.62029448 </v>
    <v>       0.70209418       0.87011947       0.62029448 </v>
    <v>       0.03542751       0.12011947       0.37970552 </v>
    <v>       0.36876084       0.12011947       0.37970552 </v>
    <v>       0.70209418       0.12011947       0.37970552 </v>
    <v>       0.03542751       0.62011947       0.37970552 </v>
    <v>       0.36876084       0.62011947       0.37970552 </v>
    <v>       0.70209418       0.62011947       0.37970552 </v>
    <v>       0.03542751       0.12011947       0.87970552 </v>
    <v>       0.36876084       0.12011947       0.87970552 </v>
    <v>       0.70209418       0.12011947       0.87970552 </v>
    <v>       0.03542751       0.62011947       0.87970552 </v>
    <v>       0.36876084       0.62011947       0.87970552 </v>
    <v>       0.70209418       0.62011947       0.87970552 </v>
    <v>       0.20209387       0.01225309       0.48003463 </v>
    <v>       0.53542720       0.01225309       0.48003463 </v>
    <v>       0.86876054       0.01225309       0.48003463 </v>
    <v>       0.20209387       0.51225309       0.48003463 </v>
    <v>       0.53542720       0.51225309       0.48003463 </v>
    <v>       0.86876054       0.51225309       0.48003463 </v>
    <v>       0.20209387       0.01225309       0.98003463 </v>
    <v>       0.53542720       0.01225309       0.98003463 </v>
    <v>       0.86876054       0.01225309       0.98003463 </v>
    <v>       0.20209387       0.51225309       0.98003463 </v>
    <v>       0.53542720       0.51225309       0.98003463 </v>
    <v>       0.86876054       0.51225309       0.98003463 </v>
    <v>       0.20209387       0.26225309       0.01996537 </v>
    <v>       0.53542720       0.26225309       0.01996537 </v>
    <v>       0.86876054       0.26225309       0.01996537 </v>
    <v>       0.20209387       0.76225309       0.01996537 </v>
    <v>       0.53542720       0.76225309       0.01996537 </v>
    <v>       0.86876054       0.76225309       0.01996537 </v>
    <v>       0.20209387       0.26225309       0.51996537 </v>
    <v>       0.53542720       0.26225309       0.51996537 </v>
    <v>       0.86876054       0.26225309       0.51996537 </v>
    <v>       0.20209387       0.76225309       0.51996537 </v>
    <v>       0.53542720       0.76225309       0.51996537 </v>
    <v>       0.86876054       0.76225309       0.51996537 </v>
   </varray>
  </structure>
  <varray name="forces" >
   <v>       0.00011495      -0.00032998       0.01812136 </v>
   <v>       0.00186494      -0.00005647       0.00011203 </v>
   <v>      -0.00008890      -0.00002652       0.00011565 </v>
   <v>       0.00010515       0.00000970      -0.00018680 </v>
   <v>       0.00201038      -0.00007294      -0.00001677 </v>
   <v>      -0.00022735      -0.00003967      -0.00001471 </v>
   <v>       0.00011234      -0.00007621      -0.00293157 </v>
   <v>       0.00216347      -0.00005117      -0.00034955 </v>
   <v>      -0.00038446      -0.00001633      -0.00034455 </v>
   <v>       0.00010746      -0.00004434      -0.00015535 </v>
   <v>       0.00203589      -0.00005157      -0.00021418 </v>
   <v>      -0.00025516      -0.00002316      -0.00020392 </v>
   <v>       0.00010796      -0.00131835       0.00029122 </v>
   <v>       0.00216421      -0.00012494       0.00026660 </v>
   <v>      -0.00038958      -0.00009648       0.00026386 </v>
   <v>       0.00012610       0.00133363       0.00028715 </v>
   <v>       0.00215264       0.00001257       0.00026681 </v>
   <v>      -0.00037826       0.00004825       0.00026240 </v>
   <v>       0.00011959       0.00084045      -0.00017652 </v>
   <v>       0.00192573      -0.00002602      -0.00000555 </v>
   <v>      -0.00014245      -0.00000060      -0.00001125 </v>
   <v>       0.00010395      -0.00103109      -0.00017503 </v>
   <v>       0.00194284      -0.00011127      -0.00000672 </v>
   <v>      -0.00016236      -0.00008668      -0.00001289 </v>
   <v>       0.00256672      -0.00194874       0.00077605 </v>
   <v>      -0.00018485      -0.00001851       0.00021035 </v>
   <v>      -0.00295022      -0.00193070       0.00077113 </v>
   <v>      -0.00026728       0.00014818       0.00028337 </v>
   <v>      -0.00018193       0.00004374       0.00015814 </v>
   <v>      -0.00009480       0.00015908       0.00029026 </v>
   <v>      -0.00057506       0.00037913      -0.00080299 </v>
   <v>      -0.00018139       0.00019637      -0.00029648 </v>
   <v>       0.00021442       0.00037333      -0.00078766 </v>
   <v>      -0.00007442       0.00007550      -0.00034836 </v>
   <v>      -0.00018059       0.00014074      -0.00024109 </v>
   <v>      -0.00028732       0.00007802      -0.00032931 </v>
   <v>       0.00387639       0.00215821      -0.00038585 </v>
   <v>      -0.00018029       0.00024507       0.00034690 </v>
   <v>      -0.00422127       0.00219155      -0.00038437 </v>
   <v>      -0.00029116       0.00006356       0.00042458 </v>
   <v>      -0.00017916       0.00012706       0.00024090 </v>
   <v>      -0.00007616       0.00005595       0.00042670 </v>
   <v>      -0.00098121      -0.00030649      -0.00068179 </v>
   <v>      -0.00017848      -0.00003149      -0.00021507 </v>
   <v>       0.00061097      -0.00031727      -0.00070404 </v>
   <v>      -0.00008820       0.00015396      -0.00022130 </v>
   <v>      -0.00018100       0.00005803      -0.00012592 </v>
   <v>      -0.00027597       0.00014937      -0.00023253 </v>
   <v>      -0.00224118      -0.00001298      -0.00564536 </v>
   <v>      -0.00002059      -0.00003466      -0.00019653 </v>
   <v>       0.00203470      -0.00005009      -0.00559785 </v>
   <v>       0.00017811      -0.00012051       0.00009847 </v>
   <v>      -0.00001583       0.00001365       0.00008369 </v>
   <v>      -0.00039984      -0.00014638       0.00017064 </v>
   <v>      -0.00045049       0.00001205       0.00263366 </v>
   <v>      -0.00002055      -0.00001293       0.00060252 </v>
   <v>       0.00023461       0.00003072       0.00263222 </v>
   <v>      -0.00004893      -0.00002673       0.00026169 </v>
   <v>      -0.00000775      -0.00001812       0.00034976 </v>
   <v>      -0.00017689       0.00000627       0.00028451 </v>
   <v>      -0.00042576       0.00111862      -0.00028822 </v>
   <v>      -0.00001669       0.00016506      -0.00037883 </v>
   <v>       0.00022158       0.00112068      -0.00035131 </v>
   <v>      -0.00046232      -0.00106943      -0.00029941 </v>
   <v>      -0.00001370      -0.00015636      -0.00040468 </v>
   <v>       0.00023400      -0.00109218      -0.00036307 </v>
   <v>       0.00045496      -0.00103277       0.00020737 </v>
   <v>      -0.00001841      -0.00016282      -0.00002775 </v>
   <v>      -0.00067956      -0.00100309       0.00020162 </v>
   <v>       0.00041571       0.00084311       0.00021749 </v>
   <v>      -0.00001501       0.00010690      -0.00001337 </v>
   <v>      -0.00061871       0.00088113       0.00018474 </v>
   <v>      -0.00015896       0.00009719      -0.00010742 </v>
   <v>      -0.00070797      -0.00010111      -0.00030108 </v>
   <v>       0.00037164      -0.00009260      -0.00029998 </v>
   <v>      -0.00016268      -0.00010326      -0.00039920 </v>
   <v>      -0.00027980      -0.00008174      -0.00021727 </v>
   <v>      -0.00005813      -0.00008087      -0.00022337 </v>
   <v>      -0.00016064      -0.00002078       0.00352638 </v>
   <v>       0.00024498      -0.00006545       0.00004640 </v>
   <v>      -0.00058066      -0.00005969       0.00004597 </v>
   <v>      -0.00016024      -0.00007289       0.00001897 </v>
   <v>      -0.00009529      -0.00008304       0.00006066 </v>
   <v>      -0.00023764      -0.00008152       0.00005606 </v>
   <v>      -0.00017108      -0.00028411      -0.00205494 </v>
   <v>      -0.00003526      -0.00018533      -0.00019852 </v>
   <v>      -0.00029609      -0.00018441      -0.00020216 </v>
   <v>      -0.00016293       0.00020131      -0.00174280 </v>
   <v>       0.00004388       0.00006849      -0.00015790 </v>
   <v>      -0.00037968       0.00007530      -0.00015621 </v>
   <v>      -0.00016080       0.00027366       0.00111647 </v>
   <v>      -0.00031222       0.00002233       0.00036611 </v>
   <v>      -0.00002239       0.00001538       0.00036412 </v>
   <v>      -0.00016504      -0.00044197       0.00111853 </v>
   <v>      -0.00032078      -0.00018070       0.00035368 </v>
   <v>      -0.00001514      -0.00019092       0.00035632 </v>
   <v>      -0.00014176       0.00049509      -0.00001150 </v>
   <v>      -0.00023069       0.00010434      -0.00000395 </v>
   <v>      -0.00024004       0.00047796      -0.00001840 </v>
   <v>      -0.00388406      -0.00276352      -0.00049288 </v>
   <v>      -0.00023014      -0.00000744       0.00012342 </v>
   <v>       0.00346825      -0.00282044      -0.00051131 </v>
   <v>      -0.00006421      -0.00032516      -0.00013731 </v>
   <v>      -0.00023077      -0.00000132       0.00007024 </v>
   <v>      -0.00032605      -0.00033647      -0.00011569 </v>
   <v>       0.00122562       0.00108458      -0.00081912 </v>
   <v>      -0.00022897       0.00015759      -0.00007312 </v>
   <v>      -0.00159613       0.00108307      -0.00078624 </v>
   <v>       0.00186709      -0.00114815      -0.00105164 </v>
   <v>      -0.00023053      -0.00008317      -0.00025268 </v>
   <v>      -0.00226582      -0.00115116      -0.00102748 </v>
   <v>      -0.00010442       0.00038613      -0.00021613 </v>
   <v>      -0.00022979       0.00010043      -0.00004706 </v>
   <v>      -0.00027744       0.00036451      -0.00019140 </v>
   <v>      -0.00547244       0.00294444      -0.00176054 </v>
   <v>      -0.00022572       0.00019882       0.00011618 </v>
   <v>       0.00511117       0.00287559      -0.00177801 </v>
   <v>       0.00001640      -0.00017458      -0.00000434 </v>
   <v>      -0.00022842       0.00000754      -0.00007504 </v>
   <v>      -0.00040645      -0.00017556      -0.00002009 </v>
  </varray>
  <varray name="stress" >
   <v>      -0.16883479       0.00473747       0.00001470 </v>
   <v>       0.00400524      -0.15549172       0.00000461 </v>
   <v>       0.00001451       0.00000494      -0.16697397 </v>
  </varray>
  <energy>
   <i name="e_fr_energy">   -616.43241088 </i>
   <i name="e_wo_entrp">   -616.43241088 </i>
   <i name="e_0_energy">     -0.00000000 </i>
  </energy>
  <time name="totalsc"> 5615.87 5729.75</time>
  <eigenvalues>
   <array>
    <dimension dim="1">band</dimension>
    <dimension dim="2">kpoint</dimension>
    <dimension dim="3">spin</dimension>
    <field>eigene</field>
    <field>occ</field>
    <set>
     <set comment="spin 1">
      <set comment="kpoint 1">
       <r>  -51.4828    1.0000 </r>
       <r>  -51.4828    1.0000 </r>
       <r>  -51.4823    1.0000 </r>
       <r>  -51.4817    1.0000 </r>
       <r>  -51.4812    1.0000 </r>
       <r>  -51.4811    1.0000 </r>
       <r>  -51.4673    1.0000 </r>
       <r>  -51.4672    1.0000 </r>
       <r>  -51.4670    1.0000 </r>
       <r>  -51.4670    1.0000 </r>
       <r>  -51.4666    1.0000 </r>
       <r>  -51.4666    1.0000 </r>
       <r>  -51.4661    1.0000 </r>
       <r>  -51.4660    1.0000 </r>
       <r>  -51.4656    1.0000 </r>
       <r>  -51.4655    1.0000 </r>
       <r>  -51.4654    1.0000 </r>
       <r>  -51.4654    1.0000 </r>
       <r>  -51.4516    1.0000 </r>
       <r>  -51.4516    1.0000 </r>
       <r>  -51.4511    1.0000 </r>
       <r>  -51.4505    1.0000 </r>
       <r>  -51.4499    1.0000 </r>
       <r>  -51.4499    1.0000 </r>
       <r>  -50.2024    1.0000 </r>
       <r>  -50.2021    1.0000 </r>
       <r>  -50.2013    1.0000 </r>
       <r>  -50.2011    1.0000 </r>
       <r>  -50.2007    1.0000 </r>
       <r>  -50.2001    1.0000 </r>
       <r>  -50.1997    1.0000 </r>
       <r>  -50.1995    1.0000 </r>
       <r>  -50.1994    1.0000 </r>
       <r>  -50.1993    1.0000 </r>
       <r>  -50.1987    1.0000 </r>
       <r>  -50.1986    1.0000 </r>
       <r>  -50.1984    1.0000 </r>
       <r>  -50.1983    1.0000 </r>
       <r>  -50.1980    1.0000 </r>
       <r>  -50.1979    1.0000 </r>
       <r>  -50.1975    1.0000 </r>
       <r>  -50.1973    1.0000 </r>
       <r>  -50.1968    1.0000 </r>
       <r>  -50.1966    1.0000 </r>
       <r>  -50.1960    1.0000 </r>
       <r>  -50.1956    1.0000 </r>
       <r>  -50.1951    1.0000 </r>
       <r>  -50.1946    1.0000 </r>
       <r>  -50.0077    1.0000 </r>
       <r>  -50.0076    1.0000 </r>
       <r>  -50.0070    1.0000 </r>
       <r>  -50.0065    1.0000 </r>
       <r>  -50.0059    1.0000 </r>
       <r>  -50.0058    1.0000 </r>
       <r>  -49.9915    1.0000 </r>
       <r>  -49.9915    1.0000 </r>
       <r>  -49.9912    1.0000 </r>
       <r>  -49.9912    1.0000 </r>
       <r>  -49.9908    1.0000 </r>
       <r>  -49.9908    1.0000 </r>
       <r>  -49.9903    1.0000 </r>
       <r>  -49.9902    1.0000 </r>
       <r>  -49.9897    1.0000 </r>
       <r>  -49.9897    1.0000 </r>
       <r>  -49.9895    1.0000 </r>
       <r>  -49.9895    1.0000 </r>
       <r>  -49.9749    1.0000 </r>
       <r>  -49.9748    1.0000 </r>
       <r>  -49.9743    1.0000 </r>
       <r>  -49.9737    1.0000 </r>
       <r>  -49.9731    1.0000 </r>
       <r>  -49.9730    1.0000 </r>
       <r>  -40.5236    1.0000 </r>
       <r>  -40.5228    1.0000 </r>
       <r>  -40.5213    1.0000 </r>
       <r>  -40.5206    1.0000 </r>
       <r>  -40.5202    1.0000 </r>
       <r>  -40.5202    1.0000 </r>
       <r>  -40.5149    1.0000 </r>
       <r>  -40.5139    1.0000 </r>
       <r>  -40.5139    1.0000 </r>
       <r>  -40.5133    1.0000 </r>
       <r>  -40.5131    1.0000 </r>
       <r>  -40.5126    1.0000 </r>
       <r>  -40.5125    1.0000 </r>
       <r>  -40.5125    1.0000 </r>
       <r>  -40.5123    1.0000 </r>
       <r>  -40.5121    1.0000 </r>
       <r>  -40.5117    1.0000 </r>
       <r>  -40.5114    1.0000 </r>
       <r>  -40.5049    1.0000 </r>
       <r>  -40.5046    1.0000 </r>
       <r>  -40.5040    1.0000 </r>
       <r>  -40.5040    1.0000 </r>
       <r>  -40.5038    1.0000 </r>
       <r>  -40.5037    1.0000 </r>
       <r>  -40.3058    1.0000 </r>
       <r>  -40.3054    1.0000 </r>
       <r>  -40.3054    1.0000 </r>
       <r>  -40.3053    1.0000 </r>
       <r>  -40.3051    1.0000 </r>
       <r>  -40.3050    1.0000 </r>
       <r>  -40.3049    1.0000 </r>
       <r>  -40.3048    1.0000 </r>
       <r>  -40.3048    1.0000 </r>
       <r>  -40.3047    1.0000 </r>
       <r>  -40.3046    1.0000 </r>
       <r>  -40.3045    1.0000 </r>
       <r>  -40.3044    1.0000 </r>
       <r>  -40.3043    1.0000 </r>
       <r>  -40.3042    1.0000 </r>
       <r>  -40.3042    1.0000 </r>
       <r>  -40.3041    1.0000 </r>
       <r>  -40.3040    1.0000 </r>
       <r>  -40.3040    1.0000 </r>
       <r>  -40.3039    1.0000 </r>
       <r>  -40.3037    1.0000 </r>
       <r>  -40.3034    1.0000 </r>
       <r>  -40.3030    1.0000 </r>
       <r>  -40.3027    1.0000 </r>
       <r>  -13.5425    1.0000 </r>
       <r>  -13.5424    1.0000 </r>
       <r>  -13.5121    1.0000 </r>
       <r>  -13.5119    1.0000 </r>
       <r>  -13.5115    1.0000 </r>
       <r>  -13.4889    1.0000 </r>
       <r>  -13.3748    1.0000 </r>
       <r>  -13.3745    1.0000 </r>
       <r>  -13.3745    1.0000 </r>
       <r>  -13.3744    1.0000 </r>
       <r>  -13.3730    1.0000 </r>
       <r>  -13.3729    1.0000 </r>
       <r>  -13.3728    1.0000 </r>
       <r>  -13.3725    1.0000 </r>
       <r>  -13.3406    1.0000 </r>
       <r>  -13.3404    1.0000 </r>
       <r>  -13.3368    1.0000 </r>
       <r>  -13.3367    1.0000 </r>
       <r>  -13.2385    1.0000 </r>
       <r>  -13.2385    1.0000 </r>
       <r>  -13.2018    1.0000 </r>
       <r>  -13.2017    1.0000 </r>
       <r>  -13.1975    1.0000 </r>
       <r>  -13.1649    1.0000 </r>
       <r>   -7.7342    1.0000 </r>
       <r>   -7.6692    1.0000 </r>
       <r>   -7.5823    1.0000 </r>
       <r>   -7.5821    1.0000 </r>
       <r>   -7.5404    1.0000 </r>
       <r>   -7.5402    1.0000 </r>
       <r>   -7.5301    1.0000 </r>
       <r>   -7.5300    1.0000 </r>
       <r>   -7.4082    1.0000 </r>
       <r>   -7.3740    1.0000 </r>
       <r>   -7.3739    1.0000 </r>
       <r>   -7.3520    1.0000 </r>
       <r>   -7.3513    1.0000 </r>
       <r>   -7.3513    1.0000 </r>
       <r>   -7.3512    1.0000 </r>
       <r>   -7.3425    1.0000 </r>
       <r>   -7.3425    1.0000 </r>
       <r>   -7.3424    1.0000 </r>
       <r>   -7.3423    1.0000 </r>
       <r>   -7.3145    1.0000 </r>
       <r>   -7.3144    1.0000 </r>
       <r>   -7.2337    1.0000 </r>
       <r>   -7.1158    1.0000 </r>
       <r>   -7.1157    1.0000 </r>
       <r>   -1.9248    1.0000 </r>
       <r>   -1.9144    1.0000 </r>
       <r>   -1.8862    1.0000 </r>
       <r>   -1.8445    1.0000 </r>
       <r>   -1.8445    1.0000 </r>
       <r>   -1.7993    1.0000 </r>
       <r>   -1.7993    1.0000 </r>
       <r>   -1.7913    1.0000 </r>
       <r>   -1.7913    1.0000 </r>
       <r>   -1.7912    1.0000 </r>
       <r>   -1.7776    1.0000 </r>
       <r>   -1.7776    1.0000 </r>
       <r>   -1.5319    1.0000 </r>
       <r>   -1.5319    1.0000 </r>
       <r>   -1.5144    1.0000 </r>
       <r>   -1.5144    1.0000 </r>
       <r>   -1.4875    1.0000 </r>
       <r>   -1.4874    1.0000 </r>
       <r>   -1.4874    1.0000 </r>
       <r>   -1.4874    1.0000 </r>
       <r>   -1.4730    1.0000 </r>
       <r>   -1.4729    1.0000 </r>
       <r>   -1.4729    1.0000 </r>
       <r>   -1.4729    1.0000 </r>
       <r>   -1.4338    1.0000 </r>
       <r>   -1.4337    1.0000 </r>
       <r>   -1.3242    1.0000 </r>
       <r>   -1.3242    1.0000 </r>
       <r>   -1.2047    1.0000 </r>
       <r>   -1.1833    1.0000 </r>
       <r>   -1.1560    1.0000 </r>
       <r>   -1.1560    1.0000 </r>
       <r>   -1.1559    1.0000 </r>
       <r>   -1.1558    1.0000 </r>
       <r>   -1.0794    1.0000 </r>
       <r>   -1.0794    1.0000 </r>
       <r>   -1.0579    1.0000 </r>
       <r>   -1.0578    1.0000 </r>
       <r>   -1.0578    1.0000 </r>
       <r>   -1.0578    1.0000 </r>
       <r>   -0.9972    1.0000 </r>
       <r>   -0.9972    1.0000 </r>
       <r>   -0.9794    1.0000 </r>
       <r>   -0.9794    1.0000 </r>
       <r>   -0.9376    1.0000 </r>
       <r>   -0.9376    1.0000 </r>
       <r>   -0.9376    1.0000 </r>
       <r>   -0.9375    1.0000 </r>
       <r>   -0.9172    1.0000 </r>
       <r>   -0.9172    1.0000 </r>
       <r>   -0.9172    1.0000 </r>
       <r>   -0.9171    1.0000 </r>
       <r>   -0.9074    1.0000 </r>
       <r>   -0.9073    1.0000 </r>
       <r>   -0.8208    1.0000 </r>
       <r>   -0.8207    1.0000 </r>
       <r>   -0.8179    1.0000 </r>
       <r>   -0.8176    1.0000 </r>
       <r>   -0.6977    1.0000 </r>
       <r>   -0.6675    1.0000 </r>
       <r>   -0.6390    1.0000 </r>
       <r>   -0.6021    1.0000 </r>
       <r>   -0.5696    1.0000 </r>
       <r>   -0.5059    1.0000 </r>
       <r>   -0.5048    1.0000 </r>
       <r>   -0.5048    1.0000 </r>
       <r>   -0.5048    1.0000 </r>
       <r>   -0.5047    1.0000 </r>
       <r>   -0.4616    1.0000 </r>
       <r>   -0.4616    1.0000 </r>
       <r>   -0.4589    1.0000 </r>
       <r>   -0.4589    1.0000 </r>
       <r>   -0.3993    1.0000 </r>
       <r>   -0.3992    1.0000 </r>
       <r>   -0.3978    1.0000 </r>
       <r>   -0.3978    1.0000 </r>
       <r>   -0.3977    1.0000 </r>
       <r>   -0.3977    1.0000 </r>
       <r>   -0.2857    1.0000 </r>
       <r>   -0.2856    1.0000 </r>
       <r>   -0.2820    1.0000 </r>
       <r>   -0.2820    1.0000 </r>
       <r>   -0.2793    1.0000 </r>
       <r>   -0.2793    1.0000 </r>
       <r>   -0.1798    1.0000 </r>
       <r>   -0.1758    1.0000 </r>
       <r>   -0.1462    1.0000 </r>
       <r>   -0.1462    1.0000 </r>
       <r>   -0.1328    1.0000 </r>
       <r>   -0.1328    1.0000 </r>
       <r>   -0.0907    1.0000 </r>
       <r>   -0.0907    1.0000 </r>
       <r>   -0.0023    1.0000 </r>
       <r>    0.0235    1.0000 </r>
       <r>    0.0859    1.0000 </r>
       <r>    0.0860    1.0000 </r>
       <r>    0.0920    1.0000 </r>
       <r>    0.0920    1.0000 </r>
       <r>    0.1632    1.0000 </r>
       <r>    0.2045    1.0000 </r>
       <r>    0.2045    1.0000 </r>
       <r>    0.2141    1.0000 </r>
       <r>    0.2141    1.0000 </r>
       <r>    0.2263    1.0000 </r>
       <r>    0.2278    1.0000 </r>
       <r>    0.2414    1.0000 </r>
       <r>    0.2635    1.0000 </r>
       <r>    0.2635    1.0000 </r>
       <r>    0.2785    1.0000 </r>
       <r>    0.2786    1.0000 </r>
       <r>    0.2786    1.0000 </r>
       <r>    0.2786    1.0000 </r>
       <r>    0.3586    1.0000 </r>
       <r>    0.3737    1.0000 </r>
       <r>    0.3738    1.0000 </r>
       <r>    0.3738    1.0000 </r>
       <r>    0.3739    1.0000 </r>
       <r>    0.4232    1.0000 </r>
       <r>    0.4233    1.0000 </r>
       <r>    0.4866    1.0000 </r>
       <r>    0.5398    1.0000 </r>
       <r>    0.5646    1.0000 </r>
       <r>    0.5646    1.0000 </r>
       <r>    0.6031    1.0000 </r>
       <r>    0.6031    1.0000 </r>
       <r>    0.6394    1.0000 </r>
       <r>    0.6880    1.0000 </r>
       <r>    0.6880    1.0000 </r>
       <r>    0.7936    1.0000 </r>
       <r>    0.7936    1.0000 </r>
       <r>    0.7975    1.0000 </r>
       <r>    0.7975    1.0000 </r>
       <r>    0.8230    1.0000 </r>
       <r>    0.8231    1.0000 </r>
       <r>    0.8231    1.0000 </r>
       <r>    0.8232    1.0000 </r>
       <r>    0.8432    1.0000 </r>
       <r>    0.8756    1.0000 </r>
       <r>    0.8757    1.0000 </r>
       <r>    0.8791    1.0000 </r>
       <r>    0.8791    1.0000 </r>
       <r>    0.9236    1.0000 </r>
       <r>    0.9236    1.0000 </r>
       <r>    0.9237    1.0000 </r>
       <r>    0.9237    1.0000 </r>
       <r>    0.9570    1.0000 </r>
       <r>    1.1230    1.0000 </r>
       <r>    1.1230    1.0000 </r>
       <r>    1.1639    1.0000 </r>
       <r>    1.1640    1.0000 </r>
       <r>    1.2474    1.0000 </r>
[...]
       <r>   -39.9624     0.1678   120.0000 </r>
       <r>   -39.7242     0.0000   120.0000 </r>
       <r>   -39.4860     0.0000   120.0000 </r>
       <r>   -39.2477     0.0000   120.0000 </r>
       <r>   -39.0095     0.0000   120.0000 </r>
       <r>   -38.7713     0.0000   120.0000 </r>
       <r>   -38.5331     0.0000   120.0000 </r>
       <r>   -38.2949     0.0000   120.0000 </r>
       <r>   -38.0567     0.0000   120.0000 </r>
       <r>   -37.8185     0.0000   120.0000 </r>
       <r>   -37.5803     0.0000   120.0000 </r>
       <r>   -37.3421     0.0000   120.0000 </r>
       <r>   -37.1039     0.0000   120.0000 </r>
       <r>   -36.8657     0.0000   120.0000 </r>
       <r>   -36.6275     0.0000   120.0000 </r>
       <r>   -36.3893     0.0000   120.0000 </r>
       <r>   -36.1511     0.0000   120.0000 </r>
       <r>   -35.9129     0.0000   120.0000 </r>
       <r>   -35.6747     0.0000   120.0000 </r>
       <r>   -35.4365     0.0000   120.0000 </r>
       <r>   -35.1983     0.0000   120.0000 </r>
       <r>   -34.9600     0.0000   120.0000 </r>
       <r>   -34.7218     0.0000   120.0000 </r>
       <r>   -34.4836     0.0000   120.0000 </r>
       <r>   -34.2454     0.0000   120.0000 </r>
       <r>   -34.0072     0.0000   120.0000 </r>
       <r>   -33.7690     0.0000   120.0000 </r>
       <r>   -33.5308     0.0000   120.0000 </r>
       <r>   -33.2926     0.0000   120.0000 </r>
       <r>   -33.0544     0.0000   120.0000 </r>
       <r>   -32.8162     0.0000   120.0000 </r>
       <r>   -32.5780     0.0000   120.0000 </r>
       <r>   -32.3398     0.0000   120.0000 </r>
       <r>   -32.1016     0.0000   120.0000 </r>
       <r>   -31.8634     0.0000   120.0000 </r>
       <r>   -31.6252     0.0000   120.0000 </r>
       <r>   -31.3870     0.0000   120.0000 </r>
       <r>   -31.1488     0.0000   120.0000 </r>
       <r>   -30.9106     0.0000   120.0000 </r>
       <r>   -30.6724     0.0000   120.0000 </r>
       <r>   -30.4341     0.0000   120.0000 </r>
       <r>   -30.1959     0.0000   120.0000 </r>
       <r>   -29.9577     0.0000   120.0000 </r>
       <r>   -29.7195     0.0000   120.0000 </r>
       <r>   -29.4813     0.0000   120.0000 </r>
       <r>   -29.2431     0.0000   120.0000 </r>
       <r>   -29.0049     0.0000   120.0000 </r>
       <r>   -28.7667     0.0000   120.0000 </r>
       <r>   -28.5285     0.0000   120.0000 </r>
       <r>   -28.2903     0.0000   120.0000 </r>
       <r>   -28.0521     0.0000   120.0000 </r>
       <r>   -27.8139     0.0000   120.0000 </r>
       <r>   -27.5757     0.0000   120.0000 </r>
       <r>   -27.3375     0.0000   120.0000 </r>
       <r>   -27.0993     0.0000   120.0000 </r>
       <r>   -26.8611     0.0000   120.0000 </r>
       <r>   -26.6229     0.0000   120.0000 </r>
       <r>   -26.3847     0.0000   120.0000 </r>
       <r>   -26.1464     0.0000   120.0000 </r>
       <r>   -25.9082     0.0000   120.0000 </r>
       <r>   -25.6700     0.0000   120.0000 </r>
       <r>   -25.4318     0.0000   120.0000 </r>
       <r>   -25.1936     0.0000   120.0000 </r>
       <r>   -24.9554     0.0000   120.0000 </r>
       <r>   -24.7172     0.0000   120.0000 </r>
       <r>   -24.4790     0.0000   120.0000 </r>
       <r>   -24.2408     0.0000   120.0000 </r>
       <r>   -24.0026     0.0000   120.0000 </r>
       <r>   -23.7644     0.0000   120.0000 </r>
       <r>   -23.5262     0.0000   120.0000 </r>
       <r>   -23.2880     0.0000   120.0000 </r>
       <r>   -23.0498     0.0000   120.0000 </r>
       <r>   -22.8116     0.0000   120.0000 </r>
       <r>   -22.5734     0.0000   120.0000 </r>
       <r>   -22.3352     0.0000   120.0000 </r>
       <r>   -22.0970     0.0000   120.0000 </r>
       <r>   -21.8587     0.0000   120.0000 </r>
       <r>   -21.6205     0.0000   120.0000 </r>
       <r>   -21.3823     0.0000   120.0000 </r>
       <r>   -21.1441     0.0000   120.0000 </r>
       <r>   -20.9059     0.0000   120.0000 </r>
       <r>   -20.6677     0.0000   120.0000 </r>
       <r>   -20.4295     0.0000   120.0000 </r>
       <r>   -20.1913     0.0000   120.0000 </r>
       <r>   -19.9531     0.0000   120.0000 </r>
       <r>   -19.7149     0.0000   120.0000 </r>
       <r>   -19.4767     0.0000   120.0000 </r>
       <r>   -19.2385     0.0000   120.0000 </r>
       <r>   -19.0003     0.0000   120.0000 </r>
       <r>   -18.7621     0.0000   120.0000 </r>
       <r>   -18.5239     0.0000   120.0000 </r>
       <r>   -18.2857     0.0000   120.0000 </r>
       <r>   -18.0475     0.0000   120.0000 </r>
       <r>   -17.8093     0.0000   120.0000 </r>
       <r>   -17.5711     0.0000   120.0000 </r>
       <r>   -17.3328     0.0000   120.0000 </r>
       <r>   -17.0946     0.0000   120.0000 </r>
       <r>   -16.8564     0.0000   120.0000 </r>
       <r>   -16.6182     0.0000   120.0000 </r>
       <r>   -16.3800     0.0000   120.0000 </r>
       <r>   -16.1418     0.0000   120.0000 </r>
       <r>   -15.9036     0.0000   120.0000 </r>
       <r>   -15.6654     0.0000   120.0000 </r>
       <r>   -15.4272     0.0000   120.0000 </r>
       <r>   -15.1890     0.0000   120.0000 </r>
       <r>   -14.9508     0.0000   120.0000 </r>
       <r>   -14.7126     0.0000   120.0000 </r>
       <r>   -14.4744     0.0000   120.0000 </r>
       <r>   -14.2362     0.0000   120.0000 </r>
       <r>   -13.9980     0.0000   120.0000 </r>
       <r>   -13.7598     0.0000   120.0000 </r>
       <r>   -13.5216     0.0000   120.0000 </r>
       <r>   -13.2834     0.3135   120.0747 </r>
       <r>   -13.0451    66.9660   136.0263 </r>
       <r>   -12.8069    33.4738   144.0000 </r>
       <r>   -12.5687     0.0000   144.0000 </r>
       <r>   -12.3305     0.0000   144.0000 </r>
       <r>   -12.0923     0.0000   144.0000 </r>
       <r>   -11.8541     0.0000   144.0000 </r>
       <r>   -11.6159     0.0000   144.0000 </r>
       <r>   -11.3777     0.0000   144.0000 </r>
       <r>   -11.1395     0.0000   144.0000 </r>
       <r>   -10.9013     0.0000   144.0000 </r>
       <r>   -10.6631     0.0000   144.0000 </r>
       <r>   -10.4249     0.0000   144.0000 </r>
       <r>   -10.1867     0.0000   144.0000 </r>
       <r>    -9.9485     0.0000   144.0000 </r>
       <r>    -9.7103     0.0000   144.0000 </r>
       <r>    -9.4721     0.0000   144.0000 </r>
       <r>    -9.2339     0.0000   144.0000 </r>
       <r>    -8.9957     0.0000   144.0000 </r>
       <r>    -8.7574     0.0000   144.0000 </r>
       <r>    -8.5192     0.0000   144.0000 </r>
       <r>    -8.2810     0.0000   144.0000 </r>
       <r>    -8.0428     0.0000   144.0000 </r>
       <r>    -7.8046     0.0000   144.0000 </r>
       <r>    -7.5664     0.1284   144.0306 </r>
       <r>    -7.3282    28.8669   150.9068 </r>
       <r>    -7.0900    49.3629   162.6654 </r>
       <r>    -6.8518    21.7260   167.8406 </r>
       <r>    -6.6136     0.6691   168.0000 </r>
       <r>    -6.3754     0.0000   168.0000 </r>
       <r>    -6.1372     0.0000   168.0000 </r>
       <r>    -5.8990     0.0000   168.0000 </r>
       <r>    -5.6608     0.0000   168.0000 </r>
       <r>    -5.4226     0.0000   168.0000 </r>
       <r>    -5.1844     0.0000   168.0000 </r>
       <r>    -4.9462     0.0000   168.0000 </r>
       <r>    -4.7080     0.0000   168.0000 </r>
       <r>    -4.4698     0.0000   168.0000 </r>
       <r>    -4.2315     0.0000   168.0000 </r>
       <r>    -3.9933     0.0000   168.0000 </r>
       <r>    -3.7551     0.0000   168.0000 </r>
       <r>    -3.5169     0.0000   168.0000 </r>
       <r>    -3.2787     0.0000   168.0000 </r>
       <r>    -3.0405     0.0000   168.0000 </r>
       <r>    -2.8023     0.0000   168.0000 </r>
       <r>    -2.5641     0.0000   168.0000 </r>
       <r>    -2.3259     0.0000   168.0000 </r>
       <r>    -2.0877     0.0000   168.0000 </r>
       <r>    -1.8495     0.0000   168.0000 </r>
       <r>    -1.6113     0.0000   168.0000 </r>
       <r>    -1.3731     0.0000   168.0000 </r>
       <r>    -1.1349     0.0000   168.0000 </r>
       <r>    -0.8967     0.0000   168.0000 </r>
       <r>    -0.6585     1.7642   168.4203 </r>
       <r>    -0.4203    17.1758   172.5116 </r>
       <r>    -0.1821    38.7545   181.7432 </r>
       <r>     0.0562    35.2044   190.1290 </r>
       <r>     0.2944    22.6993   195.5361 </r>
       <r>     0.5326    48.6464   207.1240 </r>
       <r>     0.7708    48.5007   218.6771 </r>
       <r>     1.0090    68.4014   234.9707 </r>
       <r>     1.2472    26.3623   241.2504 </r>
       <r>     1.4854    22.8726   246.6987 </r>
       <r>     1.7236    38.0456   255.7614 </r>
       <r>     1.9618    45.9983   266.7185 </r>
       <r>     2.2000    29.5667   273.7614 </r>
       <r>     2.4382    35.7979   282.2887 </r>
       <r>     2.6764    25.3577   288.3290 </r>
       <r>     2.9146    45.7031   299.2158 </r>
       <r>     3.1528    41.7662   309.1647 </r>
       <r>     3.3910    14.6210   312.6475 </r>
       <r>     3.6292    30.3571   319.8787 </r>
       <r>     3.8674    57.1165   333.4842 </r>
       <r>     4.1056    10.5615   336.0000 </r>
       <r>     4.3439     0.0000   336.0000 </r>
       <r>     4.5821     0.0000   336.0000 </r>
       <r>     4.8203     0.0000   336.0000 </r>
       <r>     5.0585     0.0000   336.0000 </r>
       <r>     5.2967     0.0000   336.0000 </r>
       <r>     5.5349     0.0000   336.0000 </r>
       <r>     5.7731     0.0000   336.0000 </r>
       <r>     6.0113     0.0035   336.0008 </r>
       <r>     6.2495     1.8823   336.4492 </r>
       <r>     6.4877    13.4378   339.6502 </r>
       <r>     6.7259    26.9143   346.0613 </r>
       <r>     6.9641    25.0658   352.0321 </r>
       <r>     7.2023    57.2642   365.6727 </r>
       <r>     7.4405    75.9753   383.7705 </r>
       <r>     7.6787    29.4784   390.7924 </r>
       <r>     7.9169    41.1634   400.5977 </r>
       <r>     8.1551    77.6921   419.1044 </r>
       <r>     8.3933    50.6660   431.1734 </r>
       <r>     8.6315     3.8807   432.0978 </r>
       <r>     8.8698     1.1241   432.3655 </r>
       <r>     9.1080     4.4728   433.4310 </r>
       <r>     9.3462    10.6130   435.9590 </r>
       <r>     9.5844    20.8577   440.9275 </r>
       <r>     9.8226    28.7635   447.7791 </r>
       <r>    10.0608    30.1215   454.9542 </r>
       <r>    10.2990    30.1226   462.1296 </r>
       <r>    10.5372    25.8001   468.2753 </r>
       <r>    10.7754    25.9470   474.4560 </r>
       <r>    11.0136    24.4304   480.2755 </r>
       <r>    11.2518    10.2232   482.7107 </r>
       <r>    11.4900    25.7403   488.8422 </r>
       <r>    11.7282    30.1381   496.0212 </r>
       <r>    11.9664    56.7132   509.5306 </r>
       <r>    12.2046    44.4957   520.1297 </r>
       <r>    12.4428    26.8817   526.5331 </r>
       <r>    12.6810    23.6922   532.1767 </r>
       <r>    12.9192    27.6440   538.7616 </r>
       <r>    13.1575    33.0534   546.6351 </r>
       <r>    13.3957    18.4653   551.0337 </r>
       <r>    13.6339     4.0567   552.0000 </r>
       <r>    13.8721     0.0000   552.0000 </r>
       <r>    14.1103     0.0000   552.0000 </r>
       <r>    14.3485     0.0000   552.0000 </r>
       <r>    14.5867     0.0000   552.0000 </r>
       <r>    14.8249     0.0000   552.0000 </r>
       <r>    15.0631     0.0000   552.0000 </r>
       <r>    15.3013     0.0000   552.0000 </r>
       <r>    15.5395     0.0000   552.0000 </r>
       <r>    15.7777     0.0000   552.0000 </r>
       <r>    16.0159     0.0000   552.0000 </r>
       <r>    16.2541     0.0000   552.0000 </r>
       <r>    16.4923     0.0000   552.0000 </r>
       <r>    16.7305     0.0000   552.0000 </r>
      </set>
     </set>
    </array>
   </total>
  </dos>
 </calculation>
 <structure name="finalpos" >
  <crystal>
   <varray name="basis" >
    <v>      11.73572724      -0.05744286       0.00000000 </v>
    <v>       0.05480788      11.21833490       0.00000000 </v>
    <v>       0.00000000       0.00000000      11.19562010 </v>
   </varray>
   <i name="volume">   1473.99817718 </i>
   <varray name="rec_basis" >
    <v>       0.08520785      -0.00041629       0.00000000 </v>
    <v>       0.00043630       0.08913766       0.00000000 </v>
    <v>       0.00000000       0.00000000       0.08932064 </v>
   </varray>
  </crystal>
  <varray name="positions" >
   <v>       0.03541706       0.36277547       0.35558828 </v>
   <v>       0.36875039       0.36277547       0.35648149 </v>
   <v>       0.70208372       0.36277547       0.35648149 </v>
   <v>       0.03541706       0.86277547       0.35648149 </v>
   <v>       0.36875039       0.86277547       0.35648149 </v>
   <v>       0.70208372       0.86277547       0.35648149 </v>
   <v>       0.03541706       0.36277547       0.85648149 </v>
   <v>       0.36875039       0.36277547       0.85648149 </v>
   <v>       0.70208372       0.36277547       0.85648149 </v>
   <v>       0.03541706       0.86277547       0.85648149 </v>
   <v>       0.36875039       0.86277547       0.85648149 </v>
   <v>       0.70208372       0.86277547       0.85648149 </v>
   <v>       0.03541706       0.11277547       0.14351851 </v>
   <v>       0.36875039       0.11277547       0.14351851 </v>
   <v>       0.70208372       0.11277547       0.14351851 </v>
   <v>       0.03541706       0.61277547       0.14351851 </v>
   <v>       0.36875039       0.61277547       0.14351851 </v>
   <v>       0.70208372       0.61277547       0.14351851 </v>
   <v>       0.03541706       0.11277547       0.64351851 </v>
   <v>       0.36875039       0.11277547       0.64351851 </v>
   <v>       0.70208372       0.11277547       0.64351851 </v>
   <v>       0.03541706       0.61277547       0.64351851 </v>
   <v>       0.36875039       0.61277547       0.64351851 </v>
   <v>       0.70208372       0.61277547       0.64351851 </v>
   <v>       0.20209458       0.21898060       0.27246215 </v>
   <v>       0.53542792       0.21898060       0.27246215 </v>
   <v>       0.86876125       0.21898060       0.27246215 </v>
   <v>       0.20209458       0.71898060       0.27246215 </v>
   <v>       0.53542792       0.71898060       0.27246215 </v>
   <v>       0.86876125       0.71898060       0.27246215 </v>
   <v>       0.20209458       0.21898060       0.77246215 </v>
   <v>       0.53542792       0.21898060       0.77246215 </v>
   <v>       0.86876125       0.21898060       0.77246215 </v>
   <v>       0.20209458       0.71898060       0.77246215 </v>
   <v>       0.53542792       0.71898060       0.77246215 </v>
   <v>       0.86876125       0.71898060       0.77246215 </v>
   <v>       0.20209458       0.46898060       0.22753785 </v>
   <v>       0.53542792       0.46898060       0.22753785 </v>
   <v>       0.86876125       0.46898060       0.22753785 </v>
   <v>       0.20209458       0.96898060       0.22753785 </v>
   <v>       0.53542792       0.96898060       0.22753785 </v>
   <v>       0.86876125       0.96898060       0.22753785 </v>
   <v>       0.20209458       0.46898060       0.72753785 </v>
   <v>       0.53542792       0.46898060       0.72753785 </v>
   <v>       0.86876125       0.46898060       0.72753785 </v>
   <v>       0.20209458       0.96898060       0.72753785 </v>
   <v>       0.53542792       0.96898060       0.72753785 </v>
   <v>       0.86876125       0.96898060       0.72753785 </v>
   <v>       0.20209064       0.36769237       0.37376509 </v>
   <v>       0.53542398       0.36769237       0.37376509 </v>
   <v>       0.86875731       0.36769237       0.37376509 </v>
   <v>       0.20209064       0.86769237       0.37376509 </v>
   <v>       0.53542398       0.86769237       0.37376509 </v>
   <v>       0.86875731       0.86769237       0.37376509 </v>
   <v>       0.20209064       0.36769237       0.87376509 </v>
   <v>       0.53542398       0.36769237       0.87376509 </v>
   <v>       0.86875731       0.36769237       0.87376509 </v>
   <v>       0.20209064       0.86769237       0.87376509 </v>
   <v>       0.53542398       0.86769237       0.87376509 </v>
   <v>       0.86875731       0.86769237       0.87376509 </v>
   <v>       0.20209064       0.11769237       0.12623491 </v>
   <v>       0.53542398       0.11769237       0.12623491 </v>
   <v>       0.86875731       0.11769237       0.12623491 </v>
   <v>       0.20209064       0.61769237       0.12623491 </v>
   <v>       0.53542398       0.61769237       0.12623491 </v>
   <v>       0.86875731       0.61769237       0.12623491 </v>
   <v>       0.20209064       0.11769237       0.62623491 </v>
   <v>       0.53542398       0.11769237       0.62623491 </v>
   <v>       0.86875731       0.11769237       0.62623491 </v>
   <v>       0.20209064       0.61769237       0.62623491 </v>
   <v>       0.53542398       0.61769237       0.62623491 </v>
   <v>       0.86875731       0.61769237       0.62623491 </v>
   <v>       0.03542751       0.37011947       0.12029448 </v>
   <v>       0.36876084       0.37011947       0.12029448 </v>
   <v>       0.70209418       0.37011947       0.12029448 </v>
   <v>       0.03542751       0.87011947       0.12029448 </v>
   <v>       0.36876084       0.87011947       0.12029448 </v>
   <v>       0.70209418       0.87011947       0.12029448 </v>
   <v>       0.03542751       0.37011947       0.62029448 </v>
   <v>       0.36876084       0.37011947       0.62029448 </v>
   <v>       0.70209418       0.37011947       0.62029448 </v>
   <v>       0.03542751       0.87011947       0.62029448 </v>
   <v>       0.36876084       0.87011947       0.62029448 </v>
   <v>       0.70209418       0.87011947       0.62029448 </v>
   <v>       0.03542751       0.12011947       0.37970552 </v>
   <v>       0.36876084       0.12011947       0.37970552 </v>
   <v>       0.70209418       0.12011947       0.37970552 </v>
   <v>       0.03542751       0.62011947       0.37970552 </v>
   <v>       0.36876084       0.62011947       0.37970552 </v>
   <v>       0.70209418       0.62011947       0.37970552 </v>
   <v>       0.03542751       0.12011947       0.87970552 </v>
   <v>       0.36876084       0.12011947       0.87970552 </v>
   <v>       0.70209418       0.12011947       0.87970552 </v>
   <v>       0.03542751       0.62011947       0.87970552 </v>
   <v>       0.36876084       0.62011947       0.87970552 </v>
   <v>       0.70209418       0.62011947       0.87970552 </v>
   <v>       0.20209387       0.01225309       0.48003463 </v>
   <v>       0.53542720       0.01225309       0.48003463 </v>
   <v>       0.86876054       0.01225309       0.48003463 </v>
   <v>       0.20209387       0.51225309       0.48003463 </v>
   <v>       0.53542720       0.51225309       0.48003463 </v>
   <v>       0.86876054       0.51225309       0.48003463 </v>
   <v>       0.20209387       0.01225309       0.98003463 </v>
   <v>       0.53542720       0.01225309       0.98003463 </v>
   <v>       0.86876054       0.01225309       0.98003463 </v>
   <v>       0.20209387       0.51225309       0.98003463 </v>
   <v>       0.53542720       0.51225309       0.98003463 </v>
   <v>       0.86876054       0.51225309       0.98003463 </v>
   <v>       0.20209387       0.26225309       0.01996537 </v>
   <v>       0.53542720       0.26225309       0.01996537 </v>
   <v>       0.86876054       0.26225309       0.01996537 </v>
   <v>       0.20209387       0.76225309       0.01996537 </v>
   <v>       0.53542720       0.76225309       0.01996537 </v>
   <v>       0.86876054       0.76225309       0.01996537 </v>
   <v>       0.20209387       0.26225309       0.51996537 </v>
   <v>       0.53542720       0.26225309       0.51996537 </v>
   <v>       0.86876054       0.26225309       0.51996537 </v>
   <v>       0.20209387       0.76225309       0.51996537 </v>
   <v>       0.53542720       0.76225309       0.51996537 </v>
   <v>       0.86876054       0.76225309       0.51996537 </v>
  </varray>
 </structure>
</modeling>
