 224 224   0   0
  0.1357572E+02  0.1537960E-08  0.1537962E-08  0.1395899E-08  0.5000000E-15
  1.000000000000000E-004
  CAR 
 unknown system                          
     17.69506815    -54.42096717  301      5.25505206      1.00000000
    -54.421  0.0000E+00  0.0000E+00  0.0000E+00  0.0000E+00
    -54.181  0.0000E+00  0.0000E+00  0.0000E+00  0.0000E+00
    -53.940  0.0000E+00  0.0000E+00  0.0000E+00  0.0000E+00
    -53.700  0.0000E+00  0.0000E+00  0.0000E+00  0.0000E+00
    -53.459  0.0000E+00  0.0000E+00  0.0000E+00  0.0000E+00
    -53.219  0.0000E+00  0.0000E+00  0.0000E+00  0.0000E+00
    -52.979  0.0000E+00  0.0000E+00  0.0000E+00  0.0000E+00
    -52.738  0.0000E+00  0.0000E+00  0.0000E+00  0.0000E+00
    -52.498  0.0000E+00  0.0000E+00  0.0000E+00  0.0000E+00
    -52.257  0.0000E+00  0.0000E+00  0.0000E+00  0.0000E+00
    -52.017  0.0000E+00  0.0000E+00  0.0000E+00  0.0000E+00
    -51.777  0.0000E+00  0.0000E+00  0.0000E+00  0.0000E+00
    -51.536  0.0000E+00  0.0000E+00  0.0000E+00  0.0000E+00
    -51.296  0.1447E-02  0.0000E+00  0.3478E-03  0.0000E+00
    -51.056  0.2640E+03  0.0000E+00  0.6347E+02  0.0000E+00
    -50.815  0.2199E+01  0.0000E+00  0.6400E+02  0.0000E+00
    -50.575  0.0000E+00  0.0000E+00  0.6400E+02  0.0000E+00
    -50.334  0.0000E+00  0.0000E+00  0.6400E+02  0.0000E+00
    -50.094  0.0000E+00  0.0000E+00  0.6400E+02  0.0000E+00
    -49.854  0.1106E-05  0.0000E+00  0.6400E+02  0.0000E+00
    -49.613  0.4367E+03  0.0000E+00  0.1690E+03  0.0000E+00
    -49.373  0.9580E+02  0.0000E+00  0.1920E+03  0.0000E+00
    -49.132  0.0000E+00  0.0000E+00  0.1920E+03  0.0000E+00
    -48.892  0.0000E+00  0.0000E+00  0.1920E+03  0.0000E+00
    -48.652  0.0000E+00  0.0000E+00  0.1920E+03  0.0000E+00
    -48.411  0.0000E+00  0.0000E+00  0.1920E+03  0.0000E+00
    -48.171  0.0000E+00  0.0000E+00  0.1920E+03  0.0000E+00
    -47.931  0.0000E+00  0.0000E+00  0.1920E+03  0.0000E+00
    -47.690  0.0000E+00  0.0000E+00  0.1920E+03  0.0000E+00
    -47.450  0.0000E+00  0.0000E+00  0.1920E+03  0.0000E+00
    -47.209  0.0000E+00  0.0000E+00  0.1920E+03  0.0000E+00
    -46.969  0.0000E+00  0.0000E+00  0.1920E+03  0.0000E+00
    -46.729  0.0000E+00  0.0000E+00  0.1920E+03  0.0000E+00
    -46.488  0.0000E+00  0.6856E+00  0.1920E+03  0.1648E+00
    -46.248  0.0000E+00  0.2655E+03  0.1920E+03  0.6400E+02
    -46.007  0.0000E+00  0.6234E+01  0.1920E+03  0.6550E+02
    -45.767  0.0000E+00  0.5262E+03  0.1920E+03  0.1920E+03
    -45.527  0.0000E+00  0.6612E-03  0.1920E+03  0.1920E+03
    -45.286  0.0000E+00  0.0000E+00  0.1920E+03  0.1920E+03
    -45.046  0.0000E+00  0.0000E+00  0.1920E+03  0.1920E+03
    -44.805  0.0000E+00  0.0000E+00  0.1920E+03  0.1920E+03
    -44.565  0.0000E+00  0.0000E+00  0.1920E+03  0.1920E+03
    -44.325  0.0000E+00  0.0000E+00  0.1920E+03  0.1920E+03
    -44.084  0.0000E+00  0.0000E+00  0.1920E+03  0.1920E+03
    -43.844  0.0000E+00  0.0000E+00  0.1920E+03  0.1920E+03
    -43.604  0.0000E+00  0.0000E+00  0.1920E+03  0.1920E+03
    -43.363  0.0000E+00  0.0000E+00  0.1920E+03  0.1920E+03
    -43.123  0.0000E+00  0.0000E+00  0.1920E+03  0.1920E+03
    -42.882  0.0000E+00  0.0000E+00  0.1920E+03  0.1920E+03
    -42.642  0.0000E+00  0.0000E+00  0.1920E+03  0.1920E+03
    -42.402  0.0000E+00  0.0000E+00  0.1920E+03  0.1920E+03
    -42.161  0.0000E+00  0.0000E+00  0.1920E+03  0.1920E+03
    -41.921  0.0000E+00  0.0000E+00  0.1920E+03  0.1920E+03
    -41.680  0.0000E+00  0.0000E+00  0.1920E+03  0.1920E+03
    -41.440  0.0000E+00  0.0000E+00  0.1920E+03  0.1920E+03
    -41.200  0.0000E+00  0.0000E+00  0.1920E+03  0.1920E+03
    -40.959  0.0000E+00  0.0000E+00  0.1920E+03  0.1920E+03
    -40.719  0.0000E+00  0.0000E+00  0.1920E+03  0.1920E+03
    -40.479  0.0000E+00  0.0000E+00  0.1920E+03  0.1920E+03
    -40.238  0.0000E+00  0.0000E+00  0.1920E+03  0.1920E+03
    -39.998  0.0000E+00  0.0000E+00  0.1920E+03  0.1920E+03
    -39.757  0.1965E-01  0.1791E-01  0.1920E+03  0.1920E+03
    -39.517  0.2652E+03  0.2651E+03  0.2557E+03  0.2557E+03
    -39.277  0.1056E+01  0.1120E+01  0.2560E+03  0.2560E+03
    -39.036  0.0000E+00  0.0000E+00  0.2560E+03  0.2560E+03
    -38.796  0.0000E+00  0.0000E+00  0.2560E+03  0.2560E+03
    -38.555  0.0000E+00  0.0000E+00  0.2560E+03  0.2560E+03
    -38.315  0.0000E+00  0.0000E+00  0.2560E+03  0.2560E+03
    -38.075  0.0000E+00  0.0000E+00  0.2560E+03  0.2560E+03
    -37.834  0.0000E+00  0.0000E+00  0.2560E+03  0.2560E+03
    -37.594  0.0000E+00  0.0000E+00  0.2560E+03  0.2560E+03
    -37.354  0.0000E+00  0.0000E+00  0.2560E+03  0.2560E+03
    -37.113  0.0000E+00  0.0000E+00  0.2560E+03  0.2560E+03
    -36.873  0.0000E+00  0.0000E+00  0.2560E+03  0.2560E+03
    -36.632  0.0000E+00  0.0000E+00  0.2560E+03  0.2560E+03
    -36.392  0.0000E+00  0.0000E+00  0.2560E+03  0.2560E+03
    -36.152  0.0000E+00  0.0000E+00  0.2560E+03  0.2560E+03
    -35.911  0.0000E+00  0.0000E+00  0.2560E+03  0.2560E+03
    -35.671  0.0000E+00  0.0000E+00  0.2560E+03  0.2560E+03
    -35.430  0.0000E+00  0.0000E+00  0.2560E+03  0.2560E+03
    -35.190  0.0000E+00  0.0000E+00  0.2560E+03  0.2560E+03
    -34.950  0.0000E+00  0.0000E+00  0.2560E+03  0.2560E+03
    -34.709  0.0000E+00  0.0000E+00  0.2560E+03  0.2560E+03
    -34.469  0.0000E+00  0.0000E+00  0.2560E+03  0.2560E+03
    -34.228  0.0000E+00  0.0000E+00  0.2560E+03  0.2560E+03
    -33.988  0.0000E+00  0.0000E+00  0.2560E+03  0.2560E+03
    -33.748  0.0000E+00  0.0000E+00  0.2560E+03  0.2560E+03
    -33.507  0.0000E+00  0.0000E+00  0.2560E+03  0.2560E+03
    -33.267  0.0000E+00  0.0000E+00  0.2560E+03  0.2560E+03
    -33.027  0.0000E+00  0.0000E+00  0.2560E+03  0.2560E+03
    -32.786  0.0000E+00  0.0000E+00  0.2560E+03  0.2560E+03
    -32.546  0.0000E+00  0.0000E+00  0.2560E+03  0.2560E+03
    -32.305  0.0000E+00  0.0000E+00  0.2560E+03  0.2560E+03
    -32.065  0.0000E+00  0.0000E+00  0.2560E+03  0.2560E+03
    -31.825  0.0000E+00  0.0000E+00  0.2560E+03  0.2560E+03
    -31.584  0.0000E+00  0.0000E+00  0.2560E+03  0.2560E+03
    -31.344  0.0000E+00  0.0000E+00  0.2560E+03  0.2560E+03
    -31.103  0.0000E+00  0.0000E+00  0.2560E+03  0.2560E+03
    -30.863  0.0000E+00  0.0000E+00  0.2560E+03  0.2560E+03
    -30.623  0.0000E+00  0.0000E+00  0.2560E+03  0.2560E+03
    -30.382  0.0000E+00  0.0000E+00  0.2560E+03  0.2560E+03
    -30.142  0.0000E+00  0.0000E+00  0.2560E+03  0.2560E+03
    -29.902  0.0000E+00  0.0000E+00  0.2560E+03  0.2560E+03
    -29.661  0.0000E+00  0.0000E+00  0.2560E+03  0.2560E+03
    -29.421  0.0000E+00  0.0000E+00  0.2560E+03  0.2560E+03
    -29.180  0.0000E+00  0.0000E+00  0.2560E+03  0.2560E+03
    -28.940  0.0000E+00  0.0000E+00  0.2560E+03  0.2560E+03
    -28.700  0.0000E+00  0.0000E+00  0.2560E+03  0.2560E+03
    -28.459  0.0000E+00  0.0000E+00  0.2560E+03  0.2560E+03
    -28.219  0.0000E+00  0.0000E+00  0.2560E+03  0.2560E+03
    -27.978  0.0000E+00  0.0000E+00  0.2560E+03  0.2560E+03
    -27.738  0.0000E+00  0.0000E+00  0.2560E+03  0.2560E+03
    -27.498  0.0000E+00  0.0000E+00  0.2560E+03  0.2560E+03
    -27.257  0.0000E+00  0.0000E+00  0.2560E+03  0.2560E+03
    -27.017  0.0000E+00  0.0000E+00  0.2560E+03  0.2560E+03
    -26.776  0.0000E+00  0.0000E+00  0.2560E+03  0.2560E+03
    -26.536  0.0000E+00  0.0000E+00  0.2560E+03  0.2560E+03
    -26.296  0.0000E+00  0.0000E+00  0.2560E+03  0.2560E+03
    -26.055  0.0000E+00  0.0000E+00  0.2560E+03  0.2560E+03
    -25.815  0.0000E+00  0.0000E+00  0.2560E+03  0.2560E+03
    -25.575  0.0000E+00  0.0000E+00  0.2560E+03  0.2560E+03
    -25.334  0.0000E+00  0.0000E+00  0.2560E+03  0.2560E+03
    -25.094  0.0000E+00  0.0000E+00  0.2560E+03  0.2560E+03
    -24.853  0.0000E+00  0.0000E+00  0.2560E+03  0.2560E+03
    -24.613  0.0000E+00  0.0000E+00  0.2560E+03  0.2560E+03
    -24.373  0.0000E+00  0.0000E+00  0.2560E+03  0.2560E+03
    -24.132  0.0000E+00  0.0000E+00  0.2560E+03  0.2560E+03
    -23.892  0.0000E+00  0.0000E+00  0.2560E+03  0.2560E+03
    -23.651  0.0000E+00  0.0000E+00  0.2560E+03  0.2560E+03
    -23.411  0.0000E+00  0.0000E+00  0.2560E+03  0.2560E+03
    -23.171  0.0000E+00  0.0000E+00  0.2560E+03  0.2560E+03
    -22.930  0.0000E+00  0.0000E+00  0.2560E+03  0.2560E+03
    -22.690  0.0000E+00  0.0000E+00  0.2560E+03  0.2560E+03
    -22.450  0.0000E+00  0.0000E+00  0.2560E+03  0.2560E+03
    -22.209  0.0000E+00  0.0000E+00  0.2560E+03  0.2560E+03
    -21.969  0.0000E+00  0.0000E+00  0.2560E+03  0.2560E+03
    -21.728  0.0000E+00  0.0000E+00  0.2560E+03  0.2560E+03
    -21.488  0.0000E+00  0.0000E+00  0.2560E+03  0.2560E+03
    -21.248  0.0000E+00  0.0000E+00  0.2560E+03  0.2560E+03
    -21.007  0.0000E+00  0.0000E+00  0.2560E+03  0.2560E+03
    -20.767  0.0000E+00  0.0000E+00  0.2560E+03  0.2560E+03
    -20.526  0.0000E+00  0.0000E+00  0.2560E+03  0.2560E+03
    -20.286  0.0000E+00  0.0000E+00  0.2560E+03  0.2560E+03
    -20.046  0.0000E+00  0.0000E+00  0.2560E+03  0.2560E+03
    -19.805  0.0000E+00  0.0000E+00  0.2560E+03  0.2560E+03
    -19.565  0.0000E+00  0.0000E+00  0.2560E+03  0.2560E+03
    -19.324  0.0000E+00  0.0000E+00  0.2560E+03  0.2560E+03
    -19.084  0.0000E+00  0.0000E+00  0.2560E+03  0.2560E+03
    -18.844  0.0000E+00  0.0000E+00  0.2560E+03  0.2560E+03
    -18.603  0.0000E+00  0.0000E+00  0.2560E+03  0.2560E+03
    -18.363  0.0000E+00  0.0000E+00  0.2560E+03  0.2560E+03
    -18.123  0.0000E+00  0.0000E+00  0.2560E+03  0.2560E+03
    -17.882  0.0000E+00  0.0000E+00  0.2560E+03  0.2560E+03
    -17.642  0.0000E+00  0.0000E+00  0.2560E+03  0.2560E+03
    -17.401  0.0000E+00  0.0000E+00  0.2560E+03  0.2560E+03
    -17.161  0.0000E+00  0.0000E+00  0.2560E+03  0.2560E+03
    -16.921  0.0000E+00  0.0000E+00  0.2560E+03  0.2560E+03
    -16.680  0.0000E+00  0.0000E+00  0.2560E+03  0.2560E+03
    -16.440  0.0000E+00  0.0000E+00  0.2560E+03  0.2560E+03
    -16.199  0.0000E+00  0.0000E+00  0.2560E+03  0.2560E+03
    -15.959  0.0000E+00  0.0000E+00  0.2560E+03  0.2560E+03
    -15.719  0.0000E+00  0.0000E+00  0.2560E+03  0.2560E+03
    -15.478  0.0000E+00  0.0000E+00  0.2560E+03  0.2560E+03
    -15.238  0.0000E+00  0.0000E+00  0.2560E+03  0.2560E+03
    -14.998  0.0000E+00  0.0000E+00  0.2560E+03  0.2560E+03
    -14.757  0.0000E+00  0.0000E+00  0.2560E+03  0.2560E+03
    -14.517  0.0000E+00  0.0000E+00  0.2560E+03  0.2560E+03
    -14.276  0.0000E+00  0.0000E+00  0.2560E+03  0.2560E+03
    -14.036  0.0000E+00  0.0000E+00  0.2560E+03  0.2560E+03
    -13.796  0.0000E+00  0.0000E+00  0.2560E+03  0.2560E+03
    -13.555  0.0000E+00  0.0000E+00  0.2560E+03  0.2560E+03
    -13.315  0.0000E+00  0.0000E+00  0.2560E+03  0.2560E+03
    -13.074  0.0000E+00  0.0000E+00  0.2560E+03  0.2560E+03
    -12.834  0.7104E-01  0.0000E+00  0.2560E+03  0.2560E+03
    -12.594  0.1319E+03  0.1348E-02  0.2877E+03  0.2560E+03
    -12.353  0.1111E+01  0.1232E+03  0.2880E+03  0.2856E+03
    -12.113  0.0000E+00  0.9899E+01  0.2880E+03  0.2880E+03
    -11.873  0.0000E+00  0.0000E+00  0.2880E+03  0.2880E+03
    -11.632  0.0000E+00  0.0000E+00  0.2880E+03  0.2880E+03
    -11.392  0.0000E+00  0.0000E+00  0.2880E+03  0.2880E+03
    -11.151  0.0000E+00  0.0000E+00  0.2880E+03  0.2880E+03
    -10.911  0.0000E+00  0.0000E+00  0.2880E+03  0.2880E+03
    -10.671  0.0000E+00  0.0000E+00  0.2880E+03  0.2880E+03
    -10.430  0.0000E+00  0.0000E+00  0.2880E+03  0.2880E+03
    -10.190  0.0000E+00  0.0000E+00  0.2880E+03  0.2880E+03
     -9.949  0.0000E+00  0.0000E+00  0.2880E+03  0.2880E+03
     -9.709  0.0000E+00  0.0000E+00  0.2880E+03  0.2880E+03
     -9.469  0.0000E+00  0.0000E+00  0.2880E+03  0.2880E+03
     -9.228  0.0000E+00  0.0000E+00  0.2880E+03  0.2880E+03
     -8.988  0.0000E+00  0.0000E+00  0.2880E+03  0.2880E+03
     -8.747  0.0000E+00  0.0000E+00  0.2880E+03  0.2880E+03
     -8.507  0.0000E+00  0.0000E+00  0.2880E+03  0.2880E+03
     -8.267  0.0000E+00  0.0000E+00  0.2880E+03  0.2880E+03
     -8.026  0.4085E-10  0.0000E+00  0.2880E+03  0.2880E+03
     -7.786  0.9002E+00  0.3383E-07  0.2882E+03  0.2880E+03
     -7.546  0.1876E+02  0.2775E+01  0.2927E+03  0.2887E+03
     -7.305  0.2809E+02  0.2223E+02  0.2995E+03  0.2940E+03
     -7.065  0.5343E+02  0.3097E+02  0.3123E+03  0.3015E+03
     -6.824  0.1469E+03  0.4883E+02  0.3476E+03  0.3132E+03
     -6.584  0.1816E+02  0.1389E+03  0.3520E+03  0.3466E+03
     -6.344  0.0000E+00  0.2257E+02  0.3520E+03  0.3520E+03
     -6.103  0.0000E+00  0.1354E-04  0.3520E+03  0.3520E+03
     -5.863  0.0000E+00  0.0000E+00  0.3520E+03  0.3520E+03
     -5.622  0.0000E+00  0.0000E+00  0.3520E+03  0.3520E+03
     -5.382  0.0000E+00  0.0000E+00  0.3520E+03  0.3520E+03
     -5.142  0.0000E+00  0.0000E+00  0.3520E+03  0.3520E+03
     -4.901  0.0000E+00  0.0000E+00  0.3520E+03  0.3520E+03
     -4.661  0.0000E+00  0.0000E+00  0.3520E+03  0.3520E+03
     -4.421  0.0000E+00  0.0000E+00  0.3520E+03  0.3520E+03
     -4.180  0.0000E+00  0.0000E+00  0.3520E+03  0.3520E+03
     -3.940  0.0000E+00  0.0000E+00  0.3520E+03  0.3520E+03
     -3.699  0.0000E+00  0.0000E+00  0.3520E+03  0.3520E+03
     -3.459  0.0000E+00  0.0000E+00  0.3520E+03  0.3520E+03
     -3.219  0.0000E+00  0.0000E+00  0.3520E+03  0.3520E+03
     -2.978  0.0000E+00  0.0000E+00  0.3520E+03  0.3520E+03
     -2.738  0.0000E+00  0.0000E+00  0.3520E+03  0.3520E+03
     -2.497  0.0000E+00  0.0000E+00  0.3520E+03  0.3520E+03
     -2.257  0.0000E+00  0.0000E+00  0.3520E+03  0.3520E+03
     -2.017  0.0000E+00  0.0000E+00  0.3520E+03  0.3520E+03
     -1.776  0.3701E-12  0.0000E+00  0.3520E+03  0.3520E+03
     -1.536  0.1163E+01  0.0000E+00  0.3523E+03  0.3520E+03
     -1.295  0.9930E+02  0.0000E+00  0.3762E+03  0.3520E+03
     -1.055  0.3265E+02  0.0000E+00  0.3840E+03  0.3520E+03
     -0.815  0.1223E+02  0.0000E+00  0.3869E+03  0.3520E+03
     -0.574  0.8884E+02  0.6425E-05  0.4083E+03  0.3520E+03
     -0.334  0.2227E+03  0.3951E+01  0.4618E+03  0.3529E+03
     -0.094  0.2021E+03  0.2476E+02  0.5104E+03  0.3589E+03
      0.147  0.1770E+03  0.4087E+02  0.5530E+03  0.3687E+03
      0.387  0.1520E+03  0.4219E+02  0.5895E+03  0.3789E+03
      0.628  0.1203E+03  0.7171E+02  0.6184E+03  0.3961E+03
      0.868  0.5472E+02  0.6085E+02  0.6316E+03  0.4107E+03
      1.108  0.6911E+02  0.6504E+02  0.6482E+03  0.4264E+03
      1.349  0.7379E+02  0.6766E+02  0.6659E+03  0.4426E+03
      1.589  0.6799E+02  0.7767E+02  0.6823E+03  0.4613E+03
      1.830  0.1099E+03  0.1107E+03  0.7087E+03  0.4879E+03
      2.070  0.2138E+03  0.6292E+02  0.7601E+03  0.5030E+03
      2.310  0.1402E+03  0.3758E+02  0.7938E+03  0.5121E+03
      2.551  0.8471E+02  0.7718E+02  0.8141E+03  0.5306E+03
      2.791  0.6885E+02  0.1038E+03  0.8307E+03  0.5556E+03
      3.031  0.3544E+02  0.7081E+02  0.8392E+03  0.5726E+03
      3.272  0.4023E+02  0.1310E+03  0.8489E+03  0.6041E+03
      3.512  0.5195E+02  0.1181E+03  0.8613E+03  0.6325E+03
      3.753  0.6740E+02  0.2516E+02  0.8775E+03  0.6385E+03
      3.993  0.7930E+02  0.4350E+02  0.8966E+03  0.6490E+03
      4.233  0.8016E+02  0.1783E+03  0.9159E+03  0.6919E+03
      4.474  0.7608E+02  0.4872E+02  0.9342E+03  0.7036E+03
      4.714  0.2874E+02  0.1732E+01  0.9411E+03  0.7040E+03
      4.955  0.6476E+02  0.0000E+00  0.9566E+03  0.7040E+03
      5.195  0.1396E+02  0.0000E+00  0.9600E+03  0.7040E+03
      5.435  0.0000E+00  0.0000E+00  0.9600E+03  0.7040E+03
      5.676  0.0000E+00  0.0000E+00  0.9600E+03  0.7040E+03
      5.916  0.0000E+00  0.0000E+00  0.9600E+03  0.7040E+03
      6.157  0.0000E+00  0.6521E-07  0.9600E+03  0.7040E+03
      6.397  0.0000E+00  0.1019E+01  0.9600E+03  0.7042E+03
      6.637  0.0000E+00  0.1006E+02  0.9600E+03  0.7067E+03
      6.878  0.0000E+00  0.2624E+02  0.9600E+03  0.7130E+03
      7.118  0.2887E-16  0.6549E+02  0.9600E+03  0.7287E+03
      7.358  0.5174E-01  0.1112E+03  0.9600E+03  0.7554E+03
      7.599  0.1508E+01  0.1392E+03  0.9604E+03  0.7889E+03
      7.839  0.5008E+01  0.1183E+03  0.9616E+03  0.8174E+03
      8.080  0.7080E+01  0.1781E+03  0.9633E+03  0.8602E+03
      8.320  0.9315E+01  0.1468E+03  0.9655E+03  0.8955E+03
      8.560  0.1250E+02  0.6142E+02  0.9685E+03  0.9102E+03
      8.801  0.1424E+02  0.8270E+02  0.9719E+03  0.9301E+03
      9.041  0.2723E+02  0.7328E+02  0.9785E+03  0.9477E+03
      9.282  0.3335E+02  0.5738E+02  0.9865E+03  0.9615E+03
      9.522  0.3490E+02  0.2346E+02  0.9949E+03  0.9672E+03
      9.762  0.5365E+02  0.3404E+02  0.1008E+04  0.9753E+03
     10.003  0.5103E+02  0.2267E+02  0.1020E+04  0.9808E+03
     10.243  0.3426E+02  0.3846E+02  0.1028E+04  0.9900E+03
     10.483  0.2142E+02  0.4370E+02  0.1033E+04  0.1001E+04
     10.724  0.4556E+02  0.6068E+02  0.1044E+04  0.1015E+04
     10.964  0.3309E+02  0.4374E+02  0.1052E+04  0.1026E+04
     11.205  0.4319E+02  0.4026E+02  0.1063E+04  0.1035E+04
     11.445  0.7789E+02  0.3436E+02  0.1081E+04  0.1044E+04
     11.685  0.4315E+02  0.4378E+02  0.1092E+04  0.1054E+04
     11.926  0.6441E+02  0.5149E+02  0.1107E+04  0.1066E+04
     12.166  0.6663E+02  0.5778E+02  0.1123E+04  0.1080E+04
     12.407  0.6944E+02  0.5329E+02  0.1140E+04  0.1093E+04
     12.647  0.6081E+02  0.6671E+02  0.1155E+04  0.1109E+04
     12.887  0.5279E+02  0.7977E+02  0.1167E+04  0.1128E+04
     13.128  0.5879E+02  0.6494E+02  0.1181E+04  0.1144E+04
     13.368  0.4851E+02  0.6606E+02  0.1193E+04  0.1160E+04
     13.608  0.4018E+02  0.6473E+02  0.1203E+04  0.1175E+04
     13.849  0.1914E+02  0.5739E+02  0.1207E+04  0.1189E+04
     14.089  0.2562E+01  0.5330E+02  0.1208E+04  0.1202E+04
     14.330  0.0000E+00  0.2156E+02  0.1208E+04  0.1207E+04
     14.570  0.0000E+00  0.3195E+01  0.1208E+04  0.1208E+04
     14.810  0.0000E+00  0.3935E-05  0.1208E+04  0.1208E+04
     15.051  0.0000E+00  0.0000E+00  0.1208E+04  0.1208E+04
     15.291  0.0000E+00  0.0000E+00  0.1208E+04  0.1208E+04
     15.532  0.0000E+00  0.0000E+00  0.1208E+04  0.1208E+04
     15.772  0.0000E+00  0.0000E+00  0.1208E+04  0.1208E+04
     16.012  0.0000E+00  0.0000E+00  0.1208E+04  0.1208E+04
     16.253  0.0000E+00  0.0000E+00  0.1208E+04  0.1208E+04
     16.493  0.0000E+00  0.0000E+00  0.1208E+04  0.1208E+04
     16.734  0.0000E+00  0.0000E+00  0.1208E+04  0.1208E+04
     16.974  0.0000E+00  0.0000E+00  0.1208E+04  0.1208E+04
     17.214  0.0000E+00  0.0000E+00  0.1208E+04  0.1208E+04
     17.455  0.0000E+00  0.0000E+00  0.1208E+04  0.1208E+04
     17.695  0.0000E+00  0.0000E+00  0.1208E+04  0.1208E+04
