  224  224    1    2
  0.1357572E+02  0.1537960E-08  0.1537962E-08  0.1395899E-08  0.5000000E-15
  1.000000000000000E-004
  CAR 
 unknown system                          
   1664      8   1208
 
  0.0000000E+00  0.0000000E+00  0.0000000E+00  0.1250000E+00
    1      -51.142964    -46.392200   1.000000   1.000000
    2      -51.142857    -46.391945   1.000000   1.000000
    3      -51.142535    -46.391589   1.000000   1.000000
    4      -51.142043    -46.391057   1.000000   1.000000
    5      -51.141895    -46.390947   1.000000   1.000000
    6      -51.141647    -46.390919   1.000000   1.000000
    7      -51.141442    -46.390664   1.000000   1.000000
    8      -51.141371    -46.390553   1.000000   1.000000
    9      -51.141256    -46.390504   1.000000   1.000000
   10      -51.141206    -46.390414   1.000000   1.000000
   11      -51.141152    -46.390320   1.000000   1.000000
   12      -51.141142    -46.390238   1.000000   1.000000
   13      -51.141054    -46.390205   1.000000   1.000000
   14      -51.140989    -46.390145   1.000000   1.000000
   15      -51.140963    -46.390047   1.000000   1.000000
   16      -51.140917    -46.390011   1.000000   1.000000
   17      -51.140905    -46.389991   1.000000   1.000000
   18      -51.140878    -46.389929   1.000000   1.000000
   19      -51.140830    -46.389902   1.000000   1.000000
   20      -51.140765    -46.389750   1.000000   1.000000
   21      -51.140723    -46.389711   1.000000   1.000000
   22      -51.140656    -46.389611   1.000000   1.000000
   23      -51.140575    -46.389597   1.000000   1.000000
   24      -51.140552    -46.389578   1.000000   1.000000
   25      -51.140544    -46.389523   1.000000   1.000000
   26      -51.140502    -46.389517   1.000000   1.000000
   27      -51.140485    -46.389497   1.000000   1.000000
   28      -51.140476    -46.389485   1.000000   1.000000
   29      -51.140438    -46.389394   1.000000   1.000000
   30      -51.140424    -46.389342   1.000000   1.000000
   31      -51.140391    -46.389297   1.000000   1.000000
   32      -51.140366    -46.389229   1.000000   1.000000
   33      -51.140324    -46.389173   1.000000   1.000000
   34      -51.140264    -46.389138   1.000000   1.000000
   35      -51.140228    -46.389069   1.000000   1.000000
   36      -51.140214    -46.389063   1.000000   1.000000
   37      -51.140162    -46.388960   1.000000   1.000000
   38      -51.140143    -46.388920   1.000000   1.000000
   39      -51.140123    -46.388884   1.000000   1.000000
   40      -51.140108    -46.388880   1.000000   1.000000
   41      -51.140061    -46.388835   1.000000   1.000000
   42      -51.140036    -46.388797   1.000000   1.000000
   43      -51.140016    -46.388766   1.000000   1.000000
   44      -51.139944    -46.388742   1.000000   1.000000
   45      -51.139905    -46.388695   1.000000   1.000000
   46      -51.139859    -46.388638   1.000000   1.000000
   47      -51.139858    -46.388597   1.000000   1.000000
   48      -51.139823    -46.388562   1.000000   1.000000
   49      -51.139794    -46.388527   1.000000   1.000000
   50      -51.139745    -46.388441   1.000000   1.000000
   51      -51.139730    -46.388395   1.000000   1.000000
   52      -51.139660    -46.388332   1.000000   1.000000
   53      -51.139600    -46.388231   1.000000   1.000000
   54      -51.139561    -46.388207   1.000000   1.000000
   55      -51.139520    -46.388141   1.000000   1.000000
   56      -51.139486    -46.388103   1.000000   1.000000
   57      -51.139377    -46.387993   1.000000   1.000000
   58      -51.139324    -46.387912   1.000000   1.000000
   59      -51.139111    -46.387696   1.000000   1.000000
   60      -51.138585    -46.387409   1.000000   1.000000
   61      -51.138473    -46.387317   1.000000   1.000000
   62      -51.138158    -46.386919   1.000000   1.000000
   63      -51.137967    -46.386677   1.000000   1.000000
   64      -51.137753    -46.386336   1.000000   1.000000
   65      -49.648932    -45.930771   1.000000   1.000000
   66      -49.648817    -45.930465   1.000000   1.000000
   67      -49.648770    -45.930142   1.000000   1.000000
   68      -49.648417    -45.929743   1.000000   1.000000
   69      -49.648221    -45.929677   1.000000   1.000000
   70      -49.647877    -45.929453   1.000000   1.000000
   71      -49.647746    -45.929272   1.000000   1.000000
   72      -49.647738    -45.929237   1.000000   1.000000
   73      -49.647640    -45.929215   1.000000   1.000000
   74      -49.647579    -45.928968   1.000000   1.000000
   75      -49.647522    -45.928840   1.000000   1.000000
   76      -49.647437    -45.928833   1.000000   1.000000
   77      -49.647394    -45.928792   1.000000   1.000000
   78      -49.647362    -45.928741   1.000000   1.000000
   79      -49.647330    -45.928733   1.000000   1.000000
   80      -49.647292    -45.928701   1.000000   1.000000
   81      -49.647290    -45.928653   1.000000   1.000000
   82      -49.647253    -45.928644   1.000000   1.000000
   83      -49.647213    -45.928643   1.000000   1.000000
   84      -49.647193    -45.928586   1.000000   1.000000
   85      -49.647165    -45.928581   1.000000   1.000000
   86      -49.647116    -45.928541   1.000000   1.000000
   87      -49.647081    -45.928471   1.000000   1.000000
   88      -49.647070    -45.928439   1.000000   1.000000
   89      -49.647043    -45.928357   1.000000   1.000000
   90      -49.646984    -45.928335   1.000000   1.000000
   91      -49.646965    -45.928308   1.000000   1.000000
   92      -49.646921    -45.928287   1.000000   1.000000
   93      -49.646889    -45.928239   1.000000   1.000000
   94      -49.646851    -45.928236   1.000000   1.000000
   95      -49.646839    -45.928204   1.000000   1.000000
   96      -49.646823    -45.928186   1.000000   1.000000
   97      -49.646815    -45.928152   1.000000   1.000000
   98      -49.646786    -45.928136   1.000000   1.000000
   99      -49.646769    -45.928086   1.000000   1.000000
  100      -49.646702    -45.928076   1.000000   1.000000
  101      -49.646645    -45.928047   1.000000   1.000000
  102      -49.646607    -45.927971   1.000000   1.000000
  103      -49.646584    -45.927954   1.000000   1.000000
  104      -49.646528    -45.927948   1.000000   1.000000
  105      -49.646477    -45.927919   1.000000   1.000000
  106      -49.646467    -45.927906   1.000000   1.000000
  107      -49.646429    -45.927881   1.000000   1.000000
  108      -49.646363    -45.927823   1.000000   1.000000
  109      -49.646354    -45.927733   1.000000   1.000000
  110      -49.646255    -45.927691   1.000000   1.000000
  111      -49.646196    -45.927660   1.000000   1.000000
  112      -49.646143    -45.927624   1.000000   1.000000
  113      -49.646051    -45.927550   1.000000   1.000000
  114      -49.646045    -45.927536   1.000000   1.000000
  115      -49.646015    -45.927476   1.000000   1.000000
  116      -49.646008    -45.927452   1.000000   1.000000
  117      -49.645969    -45.927432   1.000000   1.000000
  118      -49.645958    -45.927415   1.000000   1.000000
  119      -49.645946    -45.927385   1.000000   1.000000
  120      -49.645834    -45.927359   1.000000   1.000000
  121      -49.645800    -45.927296   1.000000   1.000000
  122      -49.645770    -45.927284   1.000000   1.000000
  123      -49.645736    -45.927236   1.000000   1.000000
  124      -49.645731    -45.927225   1.000000   1.000000
  125      -49.645701    -45.927218   1.000000   1.000000
  126      -49.645678    -45.927191   1.000000   1.000000
  127      -49.645653    -45.927161   1.000000   1.000000
  128      -49.645597    -45.927154   1.000000   1.000000
  129      -49.645589    -45.927110   1.000000   1.000000
  130      -49.645566    -45.927094   1.000000   1.000000
  131      -49.645435    -45.927076   1.000000   1.000000
  132      -49.645426    -45.927062   1.000000   1.000000
  133      -49.645411    -45.927028   1.000000   1.000000
  134      -49.645341    -45.927006   1.000000   1.000000
  135      -49.645327    -45.926989   1.000000   1.000000
  136      -49.645306    -45.926965   1.000000   1.000000
  137      -49.645279    -45.926952   1.000000   1.000000
  138      -49.645277    -45.926925   1.000000   1.000000
  139      -49.645246    -45.926896   1.000000   1.000000
  140      -49.645224    -45.926849   1.000000   1.000000
  141      -49.645215    -45.926842   1.000000   1.000000
  142      -49.645201    -45.926832   1.000000   1.000000
  143      -49.645199    -45.926824   1.000000   1.000000
  144      -49.645141    -45.926762   1.000000   1.000000
  145      -49.645111    -45.926752   1.000000   1.000000
  146      -49.645095    -45.926673   1.000000   1.000000
  147      -49.645063    -45.926632   1.000000   1.000000
  148      -49.645005    -45.926605   1.000000   1.000000
  149      -49.644974    -45.926602   1.000000   1.000000
  150      -49.644940    -45.926587   1.000000   1.000000
  151      -49.644920    -45.926551   1.000000   1.000000
  152      -49.644902    -45.926537   1.000000   1.000000
  153      -49.644894    -45.926506   1.000000   1.000000
  154      -49.644752    -45.926495   1.000000   1.000000
  155      -49.644735    -45.926486   1.000000   1.000000
  156      -49.644715    -45.926463   1.000000   1.000000
  157      -49.644682    -45.926441   1.000000   1.000000
  158      -49.644655    -45.926426   1.000000   1.000000
  159      -49.644617    -45.926415   1.000000   1.000000
  160      -49.644597    -45.926399   1.000000   1.000000
  161      -49.644522    -45.926376   1.000000   1.000000
  162      -49.644487    -45.926365   1.000000   1.000000
  163      -49.644444    -45.926339   1.000000   1.000000
  164      -49.644418    -45.926297   1.000000   1.000000
  165      -49.644406    -45.926227   1.000000   1.000000
  166      -49.644397    -45.926222   1.000000   1.000000
  167      -49.644340    -45.926156   1.000000   1.000000
  168      -49.644295    -45.926135   1.000000   1.000000
  169      -49.644266    -45.926128   1.000000   1.000000
  170      -49.644250    -45.926119   1.000000   1.000000
  171      -49.644192    -45.926100   1.000000   1.000000
  172      -49.644137    -45.926040   1.000000   1.000000
  173      -49.644112    -45.925980   1.000000   1.000000
  174      -49.644057    -45.925917   1.000000   1.000000
  175      -49.644038    -45.925900   1.000000   1.000000
  176      -49.644010    -45.925807   1.000000   1.000000
  177      -49.643973    -45.925766   1.000000   1.000000
  178      -49.643950    -45.925745   1.000000   1.000000
  179      -49.643886    -45.925709   1.000000   1.000000
  180      -49.643852    -45.925582   1.000000   1.000000
  181      -49.643806    -45.925573   1.000000   1.000000
  182      -49.643705    -45.925538   1.000000   1.000000
  183      -49.643669    -45.925418   1.000000   1.000000
  184      -49.643656    -45.925391   1.000000   1.000000
  185      -49.643534    -45.925347   1.000000   1.000000
  186      -49.643498    -45.925120   1.000000   1.000000
  187      -49.643335    -45.925038   1.000000   1.000000
  188      -49.643193    -45.924936   1.000000   1.000000
  189      -49.642752    -45.924501   1.000000   1.000000
  190      -49.642595    -45.924252   1.000000   1.000000
  191      -49.642475    -45.924228   1.000000   1.000000
  192      -49.641538    -45.923954   1.000000   1.000000
  193      -39.641188    -39.640273   1.000000   1.000000
  194      -39.641058    -39.640141   1.000000   1.000000
  195      -39.634088    -39.633222   1.000000   1.000000
  196      -39.633534    -39.632662   1.000000   1.000000
  197      -39.633474    -39.632601   1.000000   1.000000
  198      -39.633421    -39.632548   1.000000   1.000000
  199      -39.633416    -39.632543   1.000000   1.000000
  200      -39.633394    -39.632521   1.000000   1.000000
  201      -39.633334    -39.632462   1.000000   1.000000
  202      -39.632866    -39.631992   1.000000   1.000000
  203      -39.628141    -39.627308   1.000000   1.000000
  204      -39.627923    -39.627084   1.000000   1.000000
  205      -39.627828    -39.626991   1.000000   1.000000
  206      -39.627767    -39.626929   1.000000   1.000000
  207      -39.627760    -39.626922   1.000000   1.000000
  208      -39.627678    -39.626840   1.000000   1.000000
  209      -39.627552    -39.626715   1.000000   1.000000
  210      -39.627301    -39.626459   1.000000   1.000000
  211      -39.617002    -39.616241   1.000000   1.000000
  212      -39.616552    -39.615780   1.000000   1.000000
  213      -39.616059    -39.615282   1.000000   1.000000
  214      -39.616047    -39.615271   1.000000   1.000000
  215      -39.616031    -39.615253   1.000000   1.000000
  216      -39.615755    -39.614978   1.000000   1.000000
  217      -39.615647    -39.614871   1.000000   1.000000
  218      -39.615586    -39.614814   1.000000   1.000000
  219      -39.615523    -39.614743   1.000000   1.000000
  220      -39.615279    -39.614509   1.000000   1.000000
  221      -39.615244    -39.614476   1.000000   1.000000
  222      -39.615238    -39.614471   1.000000   1.000000
  223      -39.615233    -39.614466   1.000000   1.000000
  224      -39.615226    -39.614459   1.000000   1.000000
  225      -39.615137    -39.614368   1.000000   1.000000
  226      -39.615072    -39.614305   1.000000   1.000000
  227      -39.615047    -39.614279   1.000000   1.000000
  228      -39.615035    -39.614267   1.000000   1.000000
  229      -39.614960    -39.614191   1.000000   1.000000
  230      -39.614923    -39.614154   1.000000   1.000000
  231      -39.614906    -39.614138   1.000000   1.000000
  232      -39.614850    -39.614083   1.000000   1.000000
  233      -39.614751    -39.613983   1.000000   1.000000
  234      -39.614466    -39.613698   1.000000   1.000000
  235      -39.614247    -39.613490   1.000000   1.000000
  236      -39.614238    -39.613479   1.000000   1.000000
  237      -39.613679    -39.612918   1.000000   1.000000
  238      -39.613111    -39.612336   1.000000   1.000000
  239      -39.604306    -39.603590   1.000000   1.000000
  240      -39.603974    -39.603255   1.000000   1.000000
  241      -39.603910    -39.603191   1.000000   1.000000
  242      -39.603822    -39.603103   1.000000   1.000000
  243      -39.603806    -39.603087   1.000000   1.000000
  244      -39.603750    -39.603031   1.000000   1.000000
  245      -39.603664    -39.602945   1.000000   1.000000
  246      -39.603437    -39.602714   1.000000   1.000000
  247      -39.600038    -39.599334   1.000000   1.000000
  248      -39.599630    -39.598925   1.000000   1.000000
  249      -39.599564    -39.598858   1.000000   1.000000
  250      -39.599542    -39.598836   1.000000   1.000000
  251      -39.599527    -39.598821   1.000000   1.000000
  252      -39.599487    -39.598781   1.000000   1.000000
  253      -39.599370    -39.598664   1.000000   1.000000
  254      -39.598832    -39.598119   1.000000   1.000000
  255      -39.593289    -39.592607   1.000000   1.000000
  256      -39.593098    -39.592413   1.000000   1.000000
  257      -12.747201    -12.467731   1.000000   1.000000
  258      -12.747189    -12.467718   1.000000   1.000000
  259      -12.719646    -12.439897   1.000000   1.000000
  260      -12.719406    -12.439638   1.000000   1.000000
  261      -12.719342    -12.439591   1.000000   1.000000
  262      -12.719338    -12.439586   1.000000   1.000000
  263      -12.719314    -12.439563   1.000000   1.000000
  264      -12.719303    -12.439555   1.000000   1.000000
  265      -12.719230    -12.439489   1.000000   1.000000
  266      -12.718984    -12.439229   1.000000   1.000000
  267      -12.697185    -12.417012   1.000000   1.000000
  268      -12.697154    -12.416980   1.000000   1.000000
  269      -12.694782    -12.415172   1.000000   1.000000
  270      -12.694760    -12.415151   1.000000   1.000000
  271      -12.694736    -12.415128   1.000000   1.000000
  272      -12.694720    -12.415112   1.000000   1.000000
  273      -12.692390    -12.413324   1.000000   1.000000
  274      -12.692327    -12.413279   1.000000   1.000000
  275      -12.691251    -12.411217   1.000000   1.000000
  276      -12.691235    -12.411206   1.000000   1.000000
  277      -12.691233    -12.411201   1.000000   1.000000
  278      -12.691156    -12.411140   1.000000   1.000000
  279      -12.672845    -12.392831   1.000000   1.000000
  280      -12.672688    -12.392664   1.000000   1.000000
  281      -12.672621    -12.392606   1.000000   1.000000
  282      -12.672467    -12.392461   1.000000   1.000000
  283      -12.667771    -12.388881   1.000000   1.000000
  284      -12.667619    -12.388720   1.000000   1.000000
  285      -12.667553    -12.388663   1.000000   1.000000
  286      -12.667393    -12.388507   1.000000   1.000000
  287      -12.654506    -12.374553   1.000000   1.000000
  288      -12.643732    -12.366007   1.000000   1.000000
  289       -7.800035     -7.599036   1.000000   1.000000
  290       -7.748243     -7.551522   1.000000   1.000000
  291       -7.506279     -7.319940   1.000000   1.000000
  292       -7.505380     -7.319128   1.000000   1.000000
  293       -7.505347     -7.319094   1.000000   1.000000
  294       -7.504698     -7.318385   1.000000   1.000000
  295       -7.501599     -7.309524   1.000000   1.000000
  296       -7.500970     -7.308827   1.000000   1.000000
  297       -7.500931     -7.308788   1.000000   1.000000
  298       -7.500046     -7.307975   1.000000   1.000000
  299       -7.315217     -7.117763   1.000000   1.000000
  300       -7.315149     -7.117683   1.000000   1.000000
  301       -7.296887     -7.093622   1.000000   1.000000
  302       -7.296828     -7.093546   1.000000   1.000000
  303       -7.296792     -7.093508   1.000000   1.000000
  304       -7.296747     -7.093451   1.000000   1.000000
  305       -7.269260     -7.061972   1.000000   1.000000
  306       -7.269187     -7.061882   1.000000   1.000000
  307       -7.088764     -6.893902   1.000000   1.000000
  308       -7.084684     -6.893865   1.000000   1.000000
  309       -7.084670     -6.893841   1.000000   1.000000
  310       -7.084641     -6.893803   1.000000   1.000000
  311       -7.084550     -6.796771   1.000000   1.000000
  312       -7.046590     -6.783864   1.000000   1.000000
  313       -7.001304     -6.768839   1.000000   1.000000
  314       -6.999980     -6.767986   1.000000   1.000000
  315       -6.999906     -6.767916   1.000000   1.000000
  316       -6.999784     -6.767886   1.000000   1.000000
  317       -6.999763     -6.766891   1.000000   1.000000
  318       -6.999744     -6.766219   1.000000   1.000000
  319       -6.999625     -6.766135   1.000000   1.000000
  320       -6.998491     -6.766093   1.000000   1.000000
  321       -6.994834     -6.766053   1.000000   1.000000
  322       -6.994192     -6.766043   1.000000   1.000000
  323       -6.994024     -6.765915   1.000000   1.000000
  324       -6.993353     -6.764477   1.000000   1.000000
  325       -6.955847     -6.745571   1.000000   1.000000
  326       -6.955784     -6.744900   1.000000   1.000000
  327       -6.955757     -6.744848   1.000000   1.000000
  328       -6.955730     -6.744080   1.000000   1.000000
  329       -6.948328     -6.697493   1.000000   1.000000
  330       -6.948274     -6.697481   1.000000   1.000000
  331       -6.929344     -6.689786   1.000000   1.000000
  332       -6.928649     -6.689085   1.000000   1.000000
  333       -6.928604     -6.689053   1.000000   1.000000
  334       -6.927808     -6.688278   1.000000   1.000000
  335       -6.911320     -6.640759   1.000000   1.000000
  336       -6.911282     -6.639702   1.000000   1.000000
  337       -6.885744     -6.639209   1.000000   1.000000
  338       -6.885726     -6.639068   1.000000   1.000000
  339       -6.885641     -6.639062   1.000000   1.000000
  340       -6.885636     -6.638997   1.000000   1.000000
  341       -6.878091     -6.638918   1.000000   1.000000
  342       -6.876958     -6.638597   1.000000   1.000000
  343       -6.876837     -6.638367   1.000000   1.000000
  344       -6.876803     -6.638363   1.000000   1.000000
  345       -6.876790     -6.637620   1.000000   1.000000
  346       -6.876681     -6.637047   1.000000   1.000000
  347       -6.876650     -6.628068   1.000000   1.000000
  348       -6.875238     -6.627882   1.000000   1.000000
  349       -6.832570     -6.586612   1.000000   1.000000
  350       -6.832555     -6.586593   1.000000   1.000000
  351       -6.794269     -6.499090   1.000000   1.000000
  352       -6.794205     -6.499047   1.000000   1.000000
  353       -1.525516     -0.414590   1.000000   1.000000
  354       -1.467842     -0.414567   1.000000   1.000000
  355       -1.467792     -0.414477   1.000000   1.000000
  356       -1.467622     -0.414420   1.000000   1.000000
  357       -1.467427      0.026199   1.000000   1.000000
  358       -1.460352      0.026293   1.000000   1.000000
  359       -1.460246      0.026386   1.000000   1.000000
  360       -1.460192      0.026585   1.000000   1.000000
  361       -1.460178      0.037433   1.000000   1.000000
  362       -1.421389      0.037851   1.000000   1.000000
  363       -1.421328      0.037960   1.000000   1.000000
  364       -1.382815      0.038001   1.000000   1.000000
  365       -1.382774      0.038148   1.000000   1.000000
  366       -1.382757      0.038227   1.000000   1.000000
  367       -1.382747      0.038264   1.000000   1.000000
  368       -1.332809      0.038572   1.000000   1.000000
  369       -1.332770      0.102888   1.000000   1.000000
  370       -1.332556      0.102929   1.000000   1.000000
  371       -1.332516      0.207538   1.000000   1.000000
  372       -1.332506      0.207542   1.000000   1.000000
  373       -1.332425      0.207551   1.000000   1.000000
  374       -1.332209      0.207574   1.000000   1.000000
  375       -1.332175      0.304171   1.000000   1.000000
  376       -1.292686      0.392427   1.000000   1.000000
  377       -1.292578      0.392521   1.000000   1.000000
  378       -1.292422      0.392636   1.000000   1.000000
  379       -1.292215      0.392805   1.000000   1.000000
  380       -1.256792      0.490888   1.000000   1.000000
  381       -1.256780      0.490904   1.000000   1.000000
  382       -1.232193      0.497367   1.000000   1.000000
  383       -1.232135      0.497650   1.000000   1.000000
  384       -1.220379      0.497694   1.000000   1.000000
  385       -0.822764      0.498060   1.000000   1.000000
  386       -0.822744      0.510647   1.000000   1.000000
  387       -0.822720      0.510695   1.000000   1.000000
  388       -0.822574      0.531179   1.000000   1.000000
  389       -0.722698      0.531229   1.000000   1.000000
  390       -0.722615      0.531278   1.000000   1.000000
  391       -0.699234      0.531290   1.000000   1.000000
  392       -0.699107      0.573475   1.000000   1.000000
  393       -0.699006      0.574205   1.000000   1.000000
  394       -0.698889      0.574280   1.000000   1.000000
  395       -0.688477      0.574378   1.000000   1.000000
  396       -0.688443      0.574403   1.000000   1.000000
  397       -0.688279      0.574441   1.000000   1.000000
  398       -0.688065      0.574603   1.000000   1.000000
  399       -0.666737      0.575344   1.000000   1.000000
  400       -0.666621      0.638621   1.000000   1.000000
  401       -0.666486      0.666294   1.000000   1.000000
  402       -0.666270      0.666351   1.000000   1.000000
  403       -0.651993      0.733091   1.000000   1.000000
  404       -0.651946      0.733113   1.000000   1.000000
  405       -0.651840      0.931374   1.000000   1.000000
  406       -0.651677      0.932548   1.000000   1.000000
  407       -0.589432      0.935605   1.000000   1.000000
  408       -0.589397      0.935648   1.000000   1.000000
  409       -0.576606      0.948799   1.000000   1.000000
  410       -0.576579      0.948899   1.000000   1.000000
  411       -0.576520      0.949035   1.000000   1.000000
  412       -0.576466      0.949100   1.000000   1.000000
  413       -0.553524      0.986131   1.000000   1.000000
  414       -0.553223      0.986212   1.000000   1.000000
  415       -0.553037      0.986238   1.000000   1.000000
  416       -0.552958      0.986267   1.000000   1.000000
  417       -0.497628      0.992779   1.000000   1.000000
  418       -0.496875      0.992972   1.000000   1.000000
  419       -0.472907      1.008879   1.000000   1.000000
  420       -0.472684      1.008940   1.000000   1.000000
  421       -0.461678      1.008953   1.000000   1.000000
  422       -0.461459      1.009016   1.000000   1.000000
  423       -0.461204      1.018475   1.000000   1.000000
  424       -0.461079      1.049052   1.000000   1.000000
  425       -0.459874      1.049130   1.000000   1.000000
  426       -0.459672      1.051591   1.000000   1.000000
  427       -0.459463      1.051649   1.000000   1.000000
  428       -0.459385      1.051837   1.000000   1.000000
  429       -0.410039      1.051901   1.000000   1.000000
  430       -0.409979      1.078677   1.000000   1.000000
  431       -0.407604      1.078744   1.000000   1.000000
  432       -0.407550      1.078808   1.000000   1.000000
  433       -0.407543      1.078899   1.000000   1.000000
  434       -0.407395      1.079847   1.000000   1.000000
  435       -0.407346      1.079879   1.000000   1.000000
  436       -0.407330      1.079945   1.000000   1.000000
  437       -0.383337      1.080056   1.000000   1.000000
  438       -0.383235      1.192852   1.000000   1.000000
  439       -0.378179      1.192887   1.000000   1.000000
  440       -0.369201      1.376466   1.000000   1.000000
  441       -0.368931      1.390366   1.000000   1.000000
  442       -0.368761      1.390915   1.000000   1.000000
  443       -0.368736      1.391304   1.000000   1.000000
  444       -0.368649      1.391324   1.000000   1.000000
  445       -0.368604      1.391450   1.000000   1.000000
  446       -0.368526      1.437319   1.000000   1.000000
  447       -0.368158      1.450210   1.000000   1.000000
  448       -0.353538      1.526309   1.000000   1.000000
  449       -0.353534      1.526380   1.000000   1.000000
  450       -0.349054      1.526408   1.000000   1.000000
  451       -0.341787      1.526482   1.000000   1.000000
  452       -0.335803      1.528843   1.000000   1.000000
  453       -0.335778      1.528911   1.000000   1.000000
  454       -0.335488      1.528965   1.000000   1.000000
  455       -0.335328      1.529079   1.000000   1.000000
  456       -0.334266      1.558265   1.000000   1.000000
  457       -0.334179      1.558288   1.000000   1.000000
  458       -0.334045      1.558341   1.000000   1.000000
  459       -0.333981      1.558357   1.000000   1.000000
  460       -0.324275      1.566521   1.000000   1.000000
  461       -0.324241      1.566769   1.000000   1.000000
  462       -0.323885      1.566847   1.000000   1.000000
  463       -0.323738      1.567192   1.000000   1.000000
  464       -0.321646      1.568041   1.000000   1.000000
  465       -0.321642      1.568301   1.000000   1.000000
  466       -0.321326      1.568453   1.000000   1.000000
  467       -0.321072      1.568837   1.000000   1.000000
  468       -0.303832      1.586593   1.000000   1.000000
  469       -0.295902      1.586683   1.000000   1.000000
  470       -0.288034      1.695670   1.000000   1.000000
  471       -0.287929      1.695763   1.000000   1.000000
  472       -0.287819      1.740869   1.000000   1.000000
  473       -0.287655      1.741054   1.000000   1.000000
  474       -0.280415      1.741228   1.000000   1.000000
  475       -0.280358      1.741429   1.000000   1.000000
  476       -0.275104      1.746863   1.000000   1.000000
  477       -0.275007      1.746873   1.000000   1.000000
  478       -0.274832      1.746903   1.000000   1.000000
  479       -0.274817      1.746916   1.000000   1.000000
  480       -0.241916      1.779033   1.000000   1.000000
  481       -0.241810      1.780597   1.000000   1.000000
  482       -0.241564      1.780668   1.000000   1.000000
  483       -0.241379      1.836497   1.000000   1.000000
  484       -0.241358      1.836999   1.000000   1.000000
  485       -0.241350      1.837244   1.000000   1.000000
  486       -0.241323      1.837485   1.000000   1.000000
  487       -0.241187      1.837792   1.000000   1.000000
  488       -0.207398      1.838067   1.000000   1.000000
  489       -0.207391      1.838426   1.000000   1.000000
  490       -0.199638      1.838465   1.000000   1.000000
  491       -0.199600      1.866211   1.000000   1.000000
  492       -0.199525      1.866415   1.000000   1.000000
  493       -0.199488      1.913332   1.000000   1.000000
  494       -0.194072      1.913443   1.000000   1.000000
  495       -0.193951      1.913483   1.000000   1.000000
  496       -0.164057      1.913588   1.000000   1.000000
  497       -0.163798      1.913626   1.000000   1.000000
  498       -0.163777      1.913663   1.000000   1.000000
  499       -0.163736      1.913738   1.000000   1.000000
  500       -0.156903      1.913871   1.000000   1.000000
  501       -0.156496      1.926960   1.000000   1.000000
  502       -0.156185      1.926995   1.000000   1.000000
  503       -0.156156      1.927041   1.000000   1.000000
  504       -0.139054      1.927136   1.000000   1.000000
  505       -0.139024      2.133223   1.000000   1.000000
  506       -0.138883      2.133279   1.000000   1.000000
  507       -0.138767      2.191256   1.000000   1.000000
  508       -0.091030      2.193183   1.000000   1.000000
  509       -0.090899      2.300495   1.000000   1.000000
  510       -0.082642      2.300883   1.000000   1.000000
  511       -0.082537      2.300984   1.000000   1.000000
  512       -0.082473      2.301437   1.000000   1.000000