 126 126   0   0
  0.1357194E+02  0.1157659E-08  0.1157660E-08  0.1387803E-08  0.5000000E-15
  1.000000000000000E-004
  CAR 
 unknown system                          
     17.62294322    -54.43379435  301      5.43334511      1.00000000
    -54.434  0.0000E+00  0.0000E+00  0.0000E+00  0.0000E+00
    -54.194  0.0000E+00  0.0000E+00  0.0000E+00  0.0000E+00
    -53.953  0.0000E+00  0.0000E+00  0.0000E+00  0.0000E+00
    -53.713  0.0000E+00  0.0000E+00  0.0000E+00  0.0000E+00
    -53.473  0.0000E+00  0.0000E+00  0.0000E+00  0.0000E+00
    -53.233  0.0000E+00  0.0000E+00  0.0000E+00  0.0000E+00
    -52.993  0.0000E+00  0.0000E+00  0.0000E+00  0.0000E+00
    -52.752  0.0000E+00  0.0000E+00  0.0000E+00  0.0000E+00
    -52.512  0.0000E+00  0.0000E+00  0.0000E+00  0.0000E+00
    -52.272  0.0000E+00  0.0000E+00  0.0000E+00  0.0000E+00
    -52.032  0.0000E+00  0.0000E+00  0.0000E+00  0.0000E+00
    -51.792  0.0000E+00  0.0000E+00  0.0000E+00  0.0000E+00
    -51.552  0.0000E+00  0.0000E+00  0.0000E+00  0.0000E+00
    -51.311  0.1160E-03  0.0000E+00  0.2787E-04  0.0000E+00
    -51.071  0.1457E+03  0.0000E+00  0.3500E+02  0.0000E+00
    -50.831  0.4177E+01  0.0000E+00  0.3600E+02  0.0000E+00
    -50.591  0.0000E+00  0.0000E+00  0.3600E+02  0.0000E+00
    -50.351  0.0000E+00  0.0000E+00  0.3600E+02  0.0000E+00
    -50.110  0.0000E+00  0.0000E+00  0.3600E+02  0.0000E+00
    -49.870  0.1827E-06  0.0000E+00  0.3600E+02  0.0000E+00
    -49.630  0.2226E+03  0.0000E+00  0.8946E+02  0.0000E+00
    -49.390  0.7718E+02  0.0000E+00  0.1080E+03  0.0000E+00
    -49.150  0.0000E+00  0.0000E+00  0.1080E+03  0.0000E+00
    -48.909  0.0000E+00  0.0000E+00  0.1080E+03  0.0000E+00
    -48.669  0.0000E+00  0.0000E+00  0.1080E+03  0.0000E+00
    -48.429  0.0000E+00  0.0000E+00  0.1080E+03  0.0000E+00
    -48.189  0.0000E+00  0.0000E+00  0.1080E+03  0.0000E+00
    -47.949  0.0000E+00  0.0000E+00  0.1080E+03  0.0000E+00
    -47.708  0.0000E+00  0.0000E+00  0.1080E+03  0.0000E+00
    -47.468  0.0000E+00  0.0000E+00  0.1080E+03  0.0000E+00
    -47.228  0.0000E+00  0.0000E+00  0.1080E+03  0.0000E+00
    -46.988  0.0000E+00  0.0000E+00  0.1080E+03  0.0000E+00
    -46.748  0.0000E+00  0.0000E+00  0.1080E+03  0.0000E+00
    -46.508  0.0000E+00  0.9524E-01  0.1080E+03  0.2287E-01
    -46.267  0.0000E+00  0.1498E+03  0.1080E+03  0.3599E+02
    -46.027  0.0000E+00  0.1645E+01  0.1080E+03  0.3639E+02
    -45.787  0.0000E+00  0.2981E+03  0.1080E+03  0.1080E+03
    -45.547  0.0000E+00  0.4075E-02  0.1080E+03  0.1080E+03
    -45.307  0.0000E+00  0.0000E+00  0.1080E+03  0.1080E+03
    -45.066  0.0000E+00  0.0000E+00  0.1080E+03  0.1080E+03
    -44.826  0.0000E+00  0.0000E+00  0.1080E+03  0.1080E+03
    -44.586  0.0000E+00  0.0000E+00  0.1080E+03  0.1080E+03
    -44.346  0.0000E+00  0.0000E+00  0.1080E+03  0.1080E+03
    -44.106  0.0000E+00  0.0000E+00  0.1080E+03  0.1080E+03
    -43.865  0.0000E+00  0.0000E+00  0.1080E+03  0.1080E+03
    -43.625  0.0000E+00  0.0000E+00  0.1080E+03  0.1080E+03
    -43.385  0.0000E+00  0.0000E+00  0.1080E+03  0.1080E+03
    -43.145  0.0000E+00  0.0000E+00  0.1080E+03  0.1080E+03
    -42.905  0.0000E+00  0.0000E+00  0.1080E+03  0.1080E+03
    -42.665  0.0000E+00  0.0000E+00  0.1080E+03  0.1080E+03
    -42.424  0.0000E+00  0.0000E+00  0.1080E+03  0.1080E+03
    -42.184  0.0000E+00  0.0000E+00  0.1080E+03  0.1080E+03
    -41.944  0.0000E+00  0.0000E+00  0.1080E+03  0.1080E+03
    -41.704  0.0000E+00  0.0000E+00  0.1080E+03  0.1080E+03
    -41.464  0.0000E+00  0.0000E+00  0.1080E+03  0.1080E+03
    -41.223  0.0000E+00  0.0000E+00  0.1080E+03  0.1080E+03
    -40.983  0.0000E+00  0.0000E+00  0.1080E+03  0.1080E+03
    -40.743  0.0000E+00  0.0000E+00  0.1080E+03  0.1080E+03
    -40.503  0.0000E+00  0.0000E+00  0.1080E+03  0.1080E+03
    -40.263  0.0000E+00  0.0000E+00  0.1080E+03  0.1080E+03
    -40.022  0.0000E+00  0.0000E+00  0.1080E+03  0.1080E+03
    -39.782  0.3784E-03  0.3472E-03  0.1080E+03  0.1080E+03
    -39.542  0.1449E+03  0.1448E+03  0.1428E+03  0.1428E+03
    -39.302  0.4963E+01  0.5123E+01  0.1440E+03  0.1440E+03
    -39.062  0.0000E+00  0.0000E+00  0.1440E+03  0.1440E+03
    -38.822  0.0000E+00  0.0000E+00  0.1440E+03  0.1440E+03
    -38.581  0.0000E+00  0.0000E+00  0.1440E+03  0.1440E+03
    -38.341  0.0000E+00  0.0000E+00  0.1440E+03  0.1440E+03
    -38.101  0.0000E+00  0.0000E+00  0.1440E+03  0.1440E+03
    -37.861  0.0000E+00  0.0000E+00  0.1440E+03  0.1440E+03
    -37.621  0.0000E+00  0.0000E+00  0.1440E+03  0.1440E+03
    -37.380  0.0000E+00  0.0000E+00  0.1440E+03  0.1440E+03
    -37.140  0.0000E+00  0.0000E+00  0.1440E+03  0.1440E+03
    -36.900  0.0000E+00  0.0000E+00  0.1440E+03  0.1440E+03
    -36.660  0.0000E+00  0.0000E+00  0.1440E+03  0.1440E+03
    -36.420  0.0000E+00  0.0000E+00  0.1440E+03  0.1440E+03
    -36.179  0.0000E+00  0.0000E+00  0.1440E+03  0.1440E+03
    -35.939  0.0000E+00  0.0000E+00  0.1440E+03  0.1440E+03
    -35.699  0.0000E+00  0.0000E+00  0.1440E+03  0.1440E+03
    -35.459  0.0000E+00  0.0000E+00  0.1440E+03  0.1440E+03
    -35.219  0.0000E+00  0.0000E+00  0.1440E+03  0.1440E+03
    -34.978  0.0000E+00  0.0000E+00  0.1440E+03  0.1440E+03
    -34.738  0.0000E+00  0.0000E+00  0.1440E+03  0.1440E+03
    -34.498  0.0000E+00  0.0000E+00  0.1440E+03  0.1440E+03
    -34.258  0.0000E+00  0.0000E+00  0.1440E+03  0.1440E+03
    -34.018  0.0000E+00  0.0000E+00  0.1440E+03  0.1440E+03
    -33.778  0.0000E+00  0.0000E+00  0.1440E+03  0.1440E+03
    -33.537  0.0000E+00  0.0000E+00  0.1440E+03  0.1440E+03
    -33.297  0.0000E+00  0.0000E+00  0.1440E+03  0.1440E+03
    -33.057  0.0000E+00  0.0000E+00  0.1440E+03  0.1440E+03
    -32.817  0.0000E+00  0.0000E+00  0.1440E+03  0.1440E+03
    -32.577  0.0000E+00  0.0000E+00  0.1440E+03  0.1440E+03
    -32.336  0.0000E+00  0.0000E+00  0.1440E+03  0.1440E+03
    -32.096  0.0000E+00  0.0000E+00  0.1440E+03  0.1440E+03
    -31.856  0.0000E+00  0.0000E+00  0.1440E+03  0.1440E+03
    -31.616  0.0000E+00  0.0000E+00  0.1440E+03  0.1440E+03
    -31.376  0.0000E+00  0.0000E+00  0.1440E+03  0.1440E+03
    -31.135  0.0000E+00  0.0000E+00  0.1440E+03  0.1440E+03
    -30.895  0.0000E+00  0.0000E+00  0.1440E+03  0.1440E+03
    -30.655  0.0000E+00  0.0000E+00  0.1440E+03  0.1440E+03
    -30.415  0.0000E+00  0.0000E+00  0.1440E+03  0.1440E+03
    -30.175  0.0000E+00  0.0000E+00  0.1440E+03  0.1440E+03
    -29.935  0.0000E+00  0.0000E+00  0.1440E+03  0.1440E+03
    -29.694  0.0000E+00  0.0000E+00  0.1440E+03  0.1440E+03
    -29.454  0.0000E+00  0.0000E+00  0.1440E+03  0.1440E+03
    -29.214  0.0000E+00  0.0000E+00  0.1440E+03  0.1440E+03
    -28.974  0.0000E+00  0.0000E+00  0.1440E+03  0.1440E+03
    -28.734  0.0000E+00  0.0000E+00  0.1440E+03  0.1440E+03
    -28.493  0.0000E+00  0.0000E+00  0.1440E+03  0.1440E+03
    -28.253  0.0000E+00  0.0000E+00  0.1440E+03  0.1440E+03
    -28.013  0.0000E+00  0.0000E+00  0.1440E+03  0.1440E+03
    -27.773  0.0000E+00  0.0000E+00  0.1440E+03  0.1440E+03
    -27.533  0.0000E+00  0.0000E+00  0.1440E+03  0.1440E+03
    -27.292  0.0000E+00  0.0000E+00  0.1440E+03  0.1440E+03
    -27.052  0.0000E+00  0.0000E+00  0.1440E+03  0.1440E+03
    -26.812  0.0000E+00  0.0000E+00  0.1440E+03  0.1440E+03
    -26.572  0.0000E+00  0.0000E+00  0.1440E+03  0.1440E+03
    -26.332  0.0000E+00  0.0000E+00  0.1440E+03  0.1440E+03
    -26.091  0.0000E+00  0.0000E+00  0.1440E+03  0.1440E+03
    -25.851  0.0000E+00  0.0000E+00  0.1440E+03  0.1440E+03
    -25.611  0.0000E+00  0.0000E+00  0.1440E+03  0.1440E+03
    -25.371  0.0000E+00  0.0000E+00  0.1440E+03  0.1440E+03
    -25.131  0.0000E+00  0.0000E+00  0.1440E+03  0.1440E+03
    -24.891  0.0000E+00  0.0000E+00  0.1440E+03  0.1440E+03
    -24.650  0.0000E+00  0.0000E+00  0.1440E+03  0.1440E+03
    -24.410  0.0000E+00  0.0000E+00  0.1440E+03  0.1440E+03
    -24.170  0.0000E+00  0.0000E+00  0.1440E+03  0.1440E+03
    -23.930  0.0000E+00  0.0000E+00  0.1440E+03  0.1440E+03
    -23.690  0.0000E+00  0.0000E+00  0.1440E+03  0.1440E+03
    -23.449  0.0000E+00  0.0000E+00  0.1440E+03  0.1440E+03
    -23.209  0.0000E+00  0.0000E+00  0.1440E+03  0.1440E+03
    -22.969  0.0000E+00  0.0000E+00  0.1440E+03  0.1440E+03
    -22.729  0.0000E+00  0.0000E+00  0.1440E+03  0.1440E+03
    -22.489  0.0000E+00  0.0000E+00  0.1440E+03  0.1440E+03
    -22.248  0.0000E+00  0.0000E+00  0.1440E+03  0.1440E+03
    -22.008  0.0000E+00  0.0000E+00  0.1440E+03  0.1440E+03
    -21.768  0.0000E+00  0.0000E+00  0.1440E+03  0.1440E+03
    -21.528  0.0000E+00  0.0000E+00  0.1440E+03  0.1440E+03
    -21.288  0.0000E+00  0.0000E+00  0.1440E+03  0.1440E+03
    -21.048  0.0000E+00  0.0000E+00  0.1440E+03  0.1440E+03
    -20.807  0.0000E+00  0.0000E+00  0.1440E+03  0.1440E+03
    -20.567  0.0000E+00  0.0000E+00  0.1440E+03  0.1440E+03
    -20.327  0.0000E+00  0.0000E+00  0.1440E+03  0.1440E+03
    -20.087  0.0000E+00  0.0000E+00  0.1440E+03  0.1440E+03
    -19.847  0.0000E+00  0.0000E+00  0.1440E+03  0.1440E+03
    -19.606  0.0000E+00  0.0000E+00  0.1440E+03  0.1440E+03
    -19.366  0.0000E+00  0.0000E+00  0.1440E+03  0.1440E+03
    -19.126  0.0000E+00  0.0000E+00  0.1440E+03  0.1440E+03
    -18.886  0.0000E+00  0.0000E+00  0.1440E+03  0.1440E+03
    -18.646  0.0000E+00  0.0000E+00  0.1440E+03  0.1440E+03
    -18.405  0.0000E+00  0.0000E+00  0.1440E+03  0.1440E+03
    -18.165  0.0000E+00  0.0000E+00  0.1440E+03  0.1440E+03
    -17.925  0.0000E+00  0.0000E+00  0.1440E+03  0.1440E+03
    -17.685  0.0000E+00  0.0000E+00  0.1440E+03  0.1440E+03
    -17.445  0.0000E+00  0.0000E+00  0.1440E+03  0.1440E+03
    -17.204  0.0000E+00  0.0000E+00  0.1440E+03  0.1440E+03
    -16.964  0.0000E+00  0.0000E+00  0.1440E+03  0.1440E+03
    -16.724  0.0000E+00  0.0000E+00  0.1440E+03  0.1440E+03
    -16.484  0.0000E+00  0.0000E+00  0.1440E+03  0.1440E+03
    -16.244  0.0000E+00  0.0000E+00  0.1440E+03  0.1440E+03
    -16.004  0.0000E+00  0.0000E+00  0.1440E+03  0.1440E+03
    -15.763  0.0000E+00  0.0000E+00  0.1440E+03  0.1440E+03
    -15.523  0.0000E+00  0.0000E+00  0.1440E+03  0.1440E+03
    -15.283  0.0000E+00  0.0000E+00  0.1440E+03  0.1440E+03
    -15.043  0.0000E+00  0.0000E+00  0.1440E+03  0.1440E+03
    -14.803  0.0000E+00  0.0000E+00  0.1440E+03  0.1440E+03
    -14.562  0.0000E+00  0.0000E+00  0.1440E+03  0.1440E+03
    -14.322  0.0000E+00  0.0000E+00  0.1440E+03  0.1440E+03
    -14.082  0.0000E+00  0.0000E+00  0.1440E+03  0.1440E+03
    -13.842  0.0000E+00  0.0000E+00  0.1440E+03  0.1440E+03
    -13.602  0.0000E+00  0.0000E+00  0.1440E+03  0.1440E+03
    -13.361  0.0000E+00  0.0000E+00  0.1440E+03  0.1440E+03
    -13.121  0.0000E+00  0.0000E+00  0.1440E+03  0.1440E+03
    -12.881  0.1542E-01  0.0000E+00  0.1440E+03  0.1440E+03
    -12.641  0.7229E+02  0.2399E-03  0.1614E+03  0.1440E+03
    -12.401  0.2636E+01  0.6152E+02  0.1620E+03  0.1588E+03
    -12.161  0.0000E+00  0.1342E+02  0.1620E+03  0.1620E+03
    -11.920  0.0000E+00  0.0000E+00  0.1620E+03  0.1620E+03
    -11.680  0.0000E+00  0.0000E+00  0.1620E+03  0.1620E+03
    -11.440  0.0000E+00  0.0000E+00  0.1620E+03  0.1620E+03
    -11.200  0.0000E+00  0.0000E+00  0.1620E+03  0.1620E+03
    -10.960  0.0000E+00  0.0000E+00  0.1620E+03  0.1620E+03
    -10.719  0.0000E+00  0.0000E+00  0.1620E+03  0.1620E+03
    -10.479  0.0000E+00  0.0000E+00  0.1620E+03  0.1620E+03
    -10.239  0.0000E+00  0.0000E+00  0.1620E+03  0.1620E+03
     -9.999  0.0000E+00  0.0000E+00  0.1620E+03  0.1620E+03
     -9.759  0.0000E+00  0.0000E+00  0.1620E+03  0.1620E+03
     -9.518  0.0000E+00  0.0000E+00  0.1620E+03  0.1620E+03
     -9.278  0.0000E+00  0.0000E+00  0.1620E+03  0.1620E+03
     -9.038  0.0000E+00  0.0000E+00  0.1620E+03  0.1620E+03
     -8.798  0.0000E+00  0.0000E+00  0.1620E+03  0.1620E+03
     -8.558  0.0000E+00  0.0000E+00  0.1620E+03  0.1620E+03
     -8.317  0.0000E+00  0.0000E+00  0.1620E+03  0.1620E+03
     -8.077  0.0000E+00  0.0000E+00  0.1620E+03  0.1620E+03
     -7.837  0.4996E-02  0.3980E-15  0.1620E+03  0.1620E+03
     -7.597  0.7696E+01  0.6379E-01  0.1638E+03  0.1620E+03
     -7.357  0.1418E+02  0.9417E+01  0.1673E+03  0.1643E+03
     -7.117  0.2415E+02  0.1689E+02  0.1731E+03  0.1683E+03
     -6.876  0.7286E+02  0.2401E+02  0.1906E+03  0.1741E+03
     -6.636  0.3100E+02  0.6897E+02  0.1980E+03  0.1907E+03
     -6.396  0.2851E-03  0.3051E+02  0.1980E+03  0.1980E+03
     -6.156  0.0000E+00  0.1868E-01  0.1980E+03  0.1980E+03
     -5.916  0.0000E+00  0.0000E+00  0.1980E+03  0.1980E+03
     -5.675  0.0000E+00  0.0000E+00  0.1980E+03  0.1980E+03
     -5.435  0.0000E+00  0.0000E+00  0.1980E+03  0.1980E+03
     -5.195  0.0000E+00  0.0000E+00  0.1980E+03  0.1980E+03
     -4.955  0.0000E+00  0.0000E+00  0.1980E+03  0.1980E+03
     -4.715  0.0000E+00  0.0000E+00  0.1980E+03  0.1980E+03
     -4.474  0.0000E+00  0.0000E+00  0.1980E+03  0.1980E+03
     -4.234  0.0000E+00  0.0000E+00  0.1980E+03  0.1980E+03
     -3.994  0.0000E+00  0.0000E+00  0.1980E+03  0.1980E+03
     -3.754  0.0000E+00  0.0000E+00  0.1980E+03  0.1980E+03
     -3.514  0.0000E+00  0.0000E+00  0.1980E+03  0.1980E+03
     -3.274  0.0000E+00  0.0000E+00  0.1980E+03  0.1980E+03
     -3.033  0.0000E+00  0.0000E+00  0.1980E+03  0.1980E+03
     -2.793  0.0000E+00  0.0000E+00  0.1980E+03  0.1980E+03
     -2.553  0.0000E+00  0.0000E+00  0.1980E+03  0.1980E+03
     -2.313  0.0000E+00  0.0000E+00  0.1980E+03  0.1980E+03
     -2.073  0.0000E+00  0.0000E+00  0.1980E+03  0.1980E+03
     -1.832  0.1284E-15  0.0000E+00  0.1980E+03  0.1980E+03
     -1.592  0.1082E+00  0.0000E+00  0.1980E+03  0.1980E+03
     -1.352  0.4503E+02  0.0000E+00  0.2088E+03  0.1980E+03
     -1.112  0.2980E+02  0.0000E+00  0.2160E+03  0.1980E+03
     -0.872  0.2847E+01  0.0000E+00  0.2167E+03  0.1980E+03
     -0.631  0.3922E+02  0.2344E-10  0.2261E+03  0.1980E+03
     -0.391  0.1067E+03  0.1169E+01  0.2517E+03  0.1983E+03
     -0.151  0.1178E+03  0.1249E+02  0.2800E+03  0.2013E+03
      0.089  0.1057E+03  0.1981E+02  0.3054E+03  0.2060E+03
      0.329  0.8739E+02  0.2735E+02  0.3264E+03  0.2126E+03
      0.570  0.7747E+02  0.3047E+02  0.3450E+03  0.2199E+03
      0.810  0.3517E+02  0.3812E+02  0.3535E+03  0.2291E+03
      1.050  0.3002E+02  0.3543E+02  0.3607E+03  0.2376E+03
      1.290  0.5006E+02  0.4704E+02  0.3727E+03  0.2489E+03
      1.530  0.3183E+02  0.3082E+02  0.3803E+03  0.2563E+03
      1.770  0.5614E+02  0.6110E+02  0.3938E+03  0.2710E+03
      2.011  0.1233E+03  0.4783E+02  0.4235E+03  0.2825E+03
      2.251  0.7934E+02  0.1858E+02  0.4425E+03  0.2869E+03
      2.491  0.5346E+02  0.2995E+02  0.4553E+03  0.2941E+03
      2.731  0.3975E+02  0.5974E+02  0.4649E+03  0.3085E+03
      2.971  0.2561E+02  0.5014E+02  0.4710E+03  0.3205E+03
      3.212  0.1585E+02  0.5581E+02  0.4749E+03  0.3339E+03
      3.452  0.2723E+02  0.7525E+02  0.4814E+03  0.3520E+03
      3.692  0.4055E+02  0.2729E+02  0.4911E+03  0.3585E+03
      3.932  0.4239E+02  0.1924E+02  0.5013E+03  0.3632E+03
      4.172  0.4499E+02  0.9241E+02  0.5121E+03  0.3854E+03
      4.413  0.4538E+02  0.4248E+02  0.5230E+03  0.3956E+03
      4.653  0.2504E+02  0.1815E+01  0.5290E+03  0.3960E+03
      4.893  0.2761E+02  0.3564E-05  0.5357E+03  0.3960E+03
      5.133  0.1799E+02  0.0000E+00  0.5400E+03  0.3960E+03
      5.373  0.4602E-01  0.0000E+00  0.5400E+03  0.3960E+03
      5.613  0.0000E+00  0.0000E+00  0.5400E+03  0.3960E+03
      5.854  0.0000E+00  0.0000E+00  0.5400E+03  0.3960E+03
      6.094  0.0000E+00  0.1810E-13  0.5400E+03  0.3960E+03
      6.334  0.0000E+00  0.1536E+00  0.5400E+03  0.3960E+03
      6.574  0.0000E+00  0.4361E+01  0.5400E+03  0.3971E+03
      6.814  0.0000E+00  0.1363E+02  0.5400E+03  0.4004E+03
      7.055  0.0000E+00  0.2969E+02  0.5400E+03  0.4075E+03
      7.295  0.4626E-05  0.5626E+02  0.5400E+03  0.4210E+03
      7.535  0.5080E+00  0.7978E+02  0.5401E+03  0.4402E+03
      7.775  0.2307E+01  0.6777E+02  0.5407E+03  0.4564E+03
      8.015  0.1618E+01  0.8256E+02  0.5411E+03  0.4763E+03
      8.256  0.7093E+01  0.9943E+02  0.5428E+03  0.5002E+03
      8.496  0.7712E+01  0.3927E+02  0.5446E+03  0.5096E+03
      8.736  0.4744E+01  0.4408E+02  0.5458E+03  0.5202E+03
      8.976  0.1119E+02  0.4055E+02  0.5484E+03  0.5299E+03
      9.216  0.2025E+02  0.3951E+02  0.5533E+03  0.5394E+03
      9.457  0.2067E+02  0.1502E+02  0.5583E+03  0.5430E+03
      9.697  0.3066E+02  0.1582E+02  0.5656E+03  0.5468E+03
      9.937  0.2769E+02  0.1310E+02  0.5723E+03  0.5500E+03
     10.177  0.1742E+02  0.2530E+02  0.5765E+03  0.5560E+03
     10.417  0.1458E+02  0.2252E+02  0.5800E+03  0.5614E+03
     10.657  0.1885E+02  0.2746E+02  0.5845E+03  0.5680E+03
     10.898  0.2366E+02  0.2499E+02  0.5902E+03  0.5740E+03
     11.138  0.2866E+02  0.2507E+02  0.5971E+03  0.5801E+03
     11.378  0.2928E+02  0.2022E+02  0.6041E+03  0.5849E+03
     11.618  0.3030E+02  0.2442E+02  0.6114E+03  0.5908E+03
     11.858  0.2993E+02  0.2673E+02  0.6186E+03  0.5972E+03
     12.099  0.4158E+02  0.2664E+02  0.6286E+03  0.6036E+03
     12.339  0.5028E+02  0.3628E+02  0.6406E+03  0.6123E+03
     12.579  0.2558E+02  0.3802E+02  0.6468E+03  0.6215E+03
     12.819  0.2731E+02  0.4661E+02  0.6533E+03  0.6326E+03
     13.059  0.3290E+02  0.3554E+02  0.6612E+03  0.6412E+03
     13.300  0.3681E+02  0.2986E+02  0.6701E+03  0.6484E+03
     13.540  0.2454E+02  0.4836E+02  0.6760E+03  0.6600E+03
     13.780  0.1252E+02  0.3859E+02  0.6790E+03  0.6692E+03
     14.020  0.4228E+01  0.2096E+02  0.6800E+03  0.6743E+03
     14.260  0.3163E-02  0.1812E+02  0.6800E+03  0.6786E+03
     14.500  0.0000E+00  0.5734E+01  0.6800E+03  0.6800E+03
     14.741  0.0000E+00  0.6345E-05  0.6800E+03  0.6800E+03
     14.981  0.0000E+00  0.0000E+00  0.6800E+03  0.6800E+03
     15.221  0.0000E+00  0.0000E+00  0.6800E+03  0.6800E+03
     15.461  0.0000E+00  0.0000E+00  0.6800E+03  0.6800E+03
     15.701  0.0000E+00  0.0000E+00  0.6800E+03  0.6800E+03
     15.942  0.0000E+00  0.0000E+00  0.6800E+03  0.6800E+03
     16.182  0.0000E+00  0.0000E+00  0.6800E+03  0.6800E+03
     16.422  0.0000E+00  0.0000E+00  0.6800E+03  0.6800E+03
     16.662  0.0000E+00  0.0000E+00  0.6800E+03  0.6800E+03
     16.902  0.0000E+00  0.0000E+00  0.6800E+03  0.6800E+03
     17.143  0.0000E+00  0.0000E+00  0.6800E+03  0.6800E+03
     17.383  0.0000E+00  0.0000E+00  0.6800E+03  0.6800E+03
     17.623  0.0000E+00  0.0000E+00  0.6800E+03  0.6800E+03
