 120 120   0   0
  0.1228332E+02  0.1173587E-08  0.1121847E-08  0.1119562E-08  0.5000000E-15
  1.000000000000000E-004
  CAR 
 unknown system                          
     16.73945535    -54.73234288  301      4.41057015      1.00000000
    -54.732  0.0000E+00  0.0000E+00  0.0000E+00  0.0000E+00
    -54.494  0.0000E+00  0.0000E+00  0.0000E+00  0.0000E+00
    -54.256  0.0000E+00  0.0000E+00  0.0000E+00  0.0000E+00
    -54.018  0.0000E+00  0.0000E+00  0.0000E+00  0.0000E+00
    -53.779  0.0000E+00  0.0000E+00  0.0000E+00  0.0000E+00
    -53.541  0.0000E+00  0.0000E+00  0.0000E+00  0.0000E+00
    -53.303  0.0000E+00  0.0000E+00  0.0000E+00  0.0000E+00
    -53.065  0.0000E+00  0.0000E+00  0.0000E+00  0.0000E+00
    -52.826  0.0000E+00  0.0000E+00  0.0000E+00  0.0000E+00
    -52.588  0.0000E+00  0.0000E+00  0.0000E+00  0.0000E+00
    -52.350  0.0000E+00  0.0000E+00  0.0000E+00  0.0000E+00
    -52.112  0.0000E+00  0.0000E+00  0.0000E+00  0.0000E+00
    -51.873  0.0000E+00  0.0000E+00  0.0000E+00  0.0000E+00
    -51.635  0.2301E-03  0.0000E+00  0.5482E-04  0.0000E+00
    -51.397  0.9765E+02  0.0000E+00  0.2327E+02  0.0000E+00
    -51.159  0.3084E+01  0.0000E+00  0.2400E+02  0.0000E+00
    -50.921  0.0000E+00  0.0000E+00  0.2400E+02  0.0000E+00
    -50.682  0.0000E+00  0.0000E+00  0.2400E+02  0.0000E+00
    -50.444  0.2478E-09  0.0000E+00  0.2400E+02  0.0000E+00
    -50.206  0.4245E+02  0.0000E+00  0.3411E+02  0.0000E+00
    -49.968  0.1318E+03  0.0000E+00  0.6552E+02  0.0000E+00
    -49.729  0.2721E+02  0.0000E+00  0.7200E+02  0.0000E+00
    -49.491  0.0000E+00  0.0000E+00  0.7200E+02  0.0000E+00
    -49.253  0.0000E+00  0.0000E+00  0.7200E+02  0.0000E+00
    -49.015  0.0000E+00  0.0000E+00  0.7200E+02  0.0000E+00
    -48.776  0.0000E+00  0.0000E+00  0.7200E+02  0.0000E+00
    -48.538  0.0000E+00  0.0000E+00  0.7200E+02  0.0000E+00
    -48.300  0.0000E+00  0.0000E+00  0.7200E+02  0.0000E+00
    -48.062  0.0000E+00  0.0000E+00  0.7200E+02  0.0000E+00
    -47.823  0.0000E+00  0.0000E+00  0.7200E+02  0.0000E+00
    -47.585  0.0000E+00  0.0000E+00  0.7200E+02  0.0000E+00
    -47.347  0.0000E+00  0.0000E+00  0.7200E+02  0.0000E+00
    -47.109  0.0000E+00  0.0000E+00  0.7200E+02  0.0000E+00
    -46.870  0.0000E+00  0.6146E-01  0.7200E+02  0.1464E-01
    -46.632  0.0000E+00  0.1006E+03  0.7200E+02  0.2397E+02
    -46.394  0.0000E+00  0.9535E+02  0.7200E+02  0.4669E+02
    -46.156  0.0000E+00  0.1062E+03  0.7200E+02  0.7200E+02
    -45.917  0.0000E+00  0.0000E+00  0.7200E+02  0.7200E+02
    -45.679  0.0000E+00  0.0000E+00  0.7200E+02  0.7200E+02
    -45.441  0.0000E+00  0.0000E+00  0.7200E+02  0.7200E+02
    -45.203  0.0000E+00  0.0000E+00  0.7200E+02  0.7200E+02
    -44.965  0.0000E+00  0.0000E+00  0.7200E+02  0.7200E+02
    -44.726  0.0000E+00  0.0000E+00  0.7200E+02  0.7200E+02
    -44.488  0.0000E+00  0.0000E+00  0.7200E+02  0.7200E+02
    -44.250  0.0000E+00  0.0000E+00  0.7200E+02  0.7200E+02
    -44.012  0.0000E+00  0.0000E+00  0.7200E+02  0.7200E+02
    -43.773  0.0000E+00  0.0000E+00  0.7200E+02  0.7200E+02
    -43.535  0.0000E+00  0.0000E+00  0.7200E+02  0.7200E+02
    -43.297  0.0000E+00  0.0000E+00  0.7200E+02  0.7200E+02
    -43.059  0.0000E+00  0.0000E+00  0.7200E+02  0.7200E+02
    -42.820  0.0000E+00  0.0000E+00  0.7200E+02  0.7200E+02
    -42.582  0.0000E+00  0.0000E+00  0.7200E+02  0.7200E+02
    -42.344  0.0000E+00  0.0000E+00  0.7200E+02  0.7200E+02
    -42.106  0.0000E+00  0.0000E+00  0.7200E+02  0.7200E+02
    -41.867  0.0000E+00  0.0000E+00  0.7200E+02  0.7200E+02
    -41.629  0.0000E+00  0.0000E+00  0.7200E+02  0.7200E+02
    -41.391  0.0000E+00  0.0000E+00  0.7200E+02  0.7200E+02
    -41.153  0.0000E+00  0.0000E+00  0.7200E+02  0.7200E+02
    -40.914  0.0000E+00  0.0000E+00  0.7200E+02  0.7200E+02
    -40.676  0.2998E-03  0.9235E-04  0.7200E+02  0.7200E+02
    -40.438  0.9897E+02  0.9761E+02  0.9558E+02  0.9525E+02
    -40.200  0.1024E+03  0.1037E+03  0.1200E+03  0.1200E+03
    -39.962  0.1492E+00  0.1523E+00  0.1200E+03  0.1200E+03
    -39.723  0.0000E+00  0.0000E+00  0.1200E+03  0.1200E+03
    -39.485  0.0000E+00  0.0000E+00  0.1200E+03  0.1200E+03
    -39.247  0.0000E+00  0.0000E+00  0.1200E+03  0.1200E+03
    -39.009  0.0000E+00  0.0000E+00  0.1200E+03  0.1200E+03
    -38.770  0.0000E+00  0.0000E+00  0.1200E+03  0.1200E+03
    -38.532  0.0000E+00  0.0000E+00  0.1200E+03  0.1200E+03
    -38.294  0.0000E+00  0.0000E+00  0.1200E+03  0.1200E+03
    -38.056  0.0000E+00  0.0000E+00  0.1200E+03  0.1200E+03
    -37.817  0.0000E+00  0.0000E+00  0.1200E+03  0.1200E+03
    -37.579  0.0000E+00  0.0000E+00  0.1200E+03  0.1200E+03
    -37.341  0.0000E+00  0.0000E+00  0.1200E+03  0.1200E+03
    -37.103  0.0000E+00  0.0000E+00  0.1200E+03  0.1200E+03
    -36.864  0.0000E+00  0.0000E+00  0.1200E+03  0.1200E+03
    -36.626  0.0000E+00  0.0000E+00  0.1200E+03  0.1200E+03
    -36.388  0.0000E+00  0.0000E+00  0.1200E+03  0.1200E+03
    -36.150  0.0000E+00  0.0000E+00  0.1200E+03  0.1200E+03
    -35.911  0.0000E+00  0.0000E+00  0.1200E+03  0.1200E+03
    -35.673  0.0000E+00  0.0000E+00  0.1200E+03  0.1200E+03
    -35.435  0.0000E+00  0.0000E+00  0.1200E+03  0.1200E+03
    -35.197  0.0000E+00  0.0000E+00  0.1200E+03  0.1200E+03
    -34.958  0.0000E+00  0.0000E+00  0.1200E+03  0.1200E+03
    -34.720  0.0000E+00  0.0000E+00  0.1200E+03  0.1200E+03
    -34.482  0.0000E+00  0.0000E+00  0.1200E+03  0.1200E+03
    -34.244  0.0000E+00  0.0000E+00  0.1200E+03  0.1200E+03
    -34.006  0.0000E+00  0.0000E+00  0.1200E+03  0.1200E+03
    -33.767  0.0000E+00  0.0000E+00  0.1200E+03  0.1200E+03
    -33.529  0.0000E+00  0.0000E+00  0.1200E+03  0.1200E+03
    -33.291  0.0000E+00  0.0000E+00  0.1200E+03  0.1200E+03
    -33.053  0.0000E+00  0.0000E+00  0.1200E+03  0.1200E+03
    -32.814  0.0000E+00  0.0000E+00  0.1200E+03  0.1200E+03
    -32.576  0.0000E+00  0.0000E+00  0.1200E+03  0.1200E+03
    -32.338  0.0000E+00  0.0000E+00  0.1200E+03  0.1200E+03
    -32.100  0.0000E+00  0.0000E+00  0.1200E+03  0.1200E+03
    -31.861  0.0000E+00  0.0000E+00  0.1200E+03  0.1200E+03
    -31.623  0.0000E+00  0.0000E+00  0.1200E+03  0.1200E+03
    -31.385  0.0000E+00  0.0000E+00  0.1200E+03  0.1200E+03
    -31.147  0.0000E+00  0.0000E+00  0.1200E+03  0.1200E+03
    -30.908  0.0000E+00  0.0000E+00  0.1200E+03  0.1200E+03
    -30.670  0.0000E+00  0.0000E+00  0.1200E+03  0.1200E+03
    -30.432  0.0000E+00  0.0000E+00  0.1200E+03  0.1200E+03
    -30.194  0.0000E+00  0.0000E+00  0.1200E+03  0.1200E+03
    -29.955  0.0000E+00  0.0000E+00  0.1200E+03  0.1200E+03
    -29.717  0.0000E+00  0.0000E+00  0.1200E+03  0.1200E+03
    -29.479  0.0000E+00  0.0000E+00  0.1200E+03  0.1200E+03
    -29.241  0.0000E+00  0.0000E+00  0.1200E+03  0.1200E+03
    -29.002  0.0000E+00  0.0000E+00  0.1200E+03  0.1200E+03
    -28.764  0.0000E+00  0.0000E+00  0.1200E+03  0.1200E+03
    -28.526  0.0000E+00  0.0000E+00  0.1200E+03  0.1200E+03
    -28.288  0.0000E+00  0.0000E+00  0.1200E+03  0.1200E+03
    -28.050  0.0000E+00  0.0000E+00  0.1200E+03  0.1200E+03
    -27.811  0.0000E+00  0.0000E+00  0.1200E+03  0.1200E+03
    -27.573  0.0000E+00  0.0000E+00  0.1200E+03  0.1200E+03
    -27.335  0.0000E+00  0.0000E+00  0.1200E+03  0.1200E+03
    -27.097  0.0000E+00  0.0000E+00  0.1200E+03  0.1200E+03
    -26.858  0.0000E+00  0.0000E+00  0.1200E+03  0.1200E+03
    -26.620  0.0000E+00  0.0000E+00  0.1200E+03  0.1200E+03
    -26.382  0.0000E+00  0.0000E+00  0.1200E+03  0.1200E+03
    -26.144  0.0000E+00  0.0000E+00  0.1200E+03  0.1200E+03
    -25.905  0.0000E+00  0.0000E+00  0.1200E+03  0.1200E+03
    -25.667  0.0000E+00  0.0000E+00  0.1200E+03  0.1200E+03
    -25.429  0.0000E+00  0.0000E+00  0.1200E+03  0.1200E+03
    -25.191  0.0000E+00  0.0000E+00  0.1200E+03  0.1200E+03
    -24.952  0.0000E+00  0.0000E+00  0.1200E+03  0.1200E+03
    -24.714  0.0000E+00  0.0000E+00  0.1200E+03  0.1200E+03
    -24.476  0.0000E+00  0.0000E+00  0.1200E+03  0.1200E+03
    -24.238  0.0000E+00  0.0000E+00  0.1200E+03  0.1200E+03
    -23.999  0.0000E+00  0.0000E+00  0.1200E+03  0.1200E+03
    -23.761  0.0000E+00  0.0000E+00  0.1200E+03  0.1200E+03
    -23.523  0.0000E+00  0.0000E+00  0.1200E+03  0.1200E+03
    -23.285  0.0000E+00  0.0000E+00  0.1200E+03  0.1200E+03
    -23.047  0.0000E+00  0.0000E+00  0.1200E+03  0.1200E+03
    -22.808  0.0000E+00  0.0000E+00  0.1200E+03  0.1200E+03
    -22.570  0.0000E+00  0.0000E+00  0.1200E+03  0.1200E+03
    -22.332  0.0000E+00  0.0000E+00  0.1200E+03  0.1200E+03
    -22.094  0.0000E+00  0.0000E+00  0.1200E+03  0.1200E+03
    -21.855  0.0000E+00  0.0000E+00  0.1200E+03  0.1200E+03
    -21.617  0.0000E+00  0.0000E+00  0.1200E+03  0.1200E+03
    -21.379  0.0000E+00  0.0000E+00  0.1200E+03  0.1200E+03
    -21.141  0.0000E+00  0.0000E+00  0.1200E+03  0.1200E+03
    -20.902  0.0000E+00  0.0000E+00  0.1200E+03  0.1200E+03
    -20.664  0.0000E+00  0.0000E+00  0.1200E+03  0.1200E+03
    -20.426  0.0000E+00  0.0000E+00  0.1200E+03  0.1200E+03
    -20.188  0.0000E+00  0.0000E+00  0.1200E+03  0.1200E+03
    -19.949  0.0000E+00  0.0000E+00  0.1200E+03  0.1200E+03
    -19.711  0.0000E+00  0.0000E+00  0.1200E+03  0.1200E+03
    -19.473  0.0000E+00  0.0000E+00  0.1200E+03  0.1200E+03
    -19.235  0.0000E+00  0.0000E+00  0.1200E+03  0.1200E+03
    -18.996  0.0000E+00  0.0000E+00  0.1200E+03  0.1200E+03
    -18.758  0.0000E+00  0.0000E+00  0.1200E+03  0.1200E+03
    -18.520  0.0000E+00  0.0000E+00  0.1200E+03  0.1200E+03
    -18.282  0.0000E+00  0.0000E+00  0.1200E+03  0.1200E+03
    -18.043  0.0000E+00  0.0000E+00  0.1200E+03  0.1200E+03
    -17.805  0.0000E+00  0.0000E+00  0.1200E+03  0.1200E+03
    -17.567  0.0000E+00  0.0000E+00  0.1200E+03  0.1200E+03
    -17.329  0.0000E+00  0.0000E+00  0.1200E+03  0.1200E+03
    -17.091  0.0000E+00  0.0000E+00  0.1200E+03  0.1200E+03
    -16.852  0.0000E+00  0.0000E+00  0.1200E+03  0.1200E+03
    -16.614  0.0000E+00  0.0000E+00  0.1200E+03  0.1200E+03
    -16.376  0.0000E+00  0.0000E+00  0.1200E+03  0.1200E+03
    -16.138  0.0000E+00  0.0000E+00  0.1200E+03  0.1200E+03
    -15.899  0.0000E+00  0.0000E+00  0.1200E+03  0.1200E+03
    -15.661  0.0000E+00  0.0000E+00  0.1200E+03  0.1200E+03
    -15.423  0.0000E+00  0.0000E+00  0.1200E+03  0.1200E+03
    -15.185  0.0000E+00  0.0000E+00  0.1200E+03  0.1200E+03
    -14.946  0.0000E+00  0.0000E+00  0.1200E+03  0.1200E+03
    -14.708  0.0000E+00  0.0000E+00  0.1200E+03  0.1200E+03
    -14.470  0.0000E+00  0.0000E+00  0.1200E+03  0.1200E+03
    -14.232  0.0000E+00  0.0000E+00  0.1200E+03  0.1200E+03
    -13.993  0.0000E+00  0.0000E+00  0.1200E+03  0.1200E+03
    -13.755  0.2671E-08  0.0000E+00  0.1200E+03  0.1200E+03
    -13.517  0.9934E+01  0.6041E-15  0.1224E+03  0.1200E+03
    -13.279  0.5996E+02  0.4269E+00  0.1367E+03  0.1201E+03
    -13.040  0.3085E+02  0.6846E+02  0.1440E+03  0.1364E+03
    -12.802  0.1724E-03  0.3185E+02  0.1440E+03  0.1440E+03
    -12.564  0.0000E+00  0.1764E-04  0.1440E+03  0.1440E+03
    -12.326  0.0000E+00  0.0000E+00  0.1440E+03  0.1440E+03
    -12.088  0.0000E+00  0.0000E+00  0.1440E+03  0.1440E+03
    -11.849  0.0000E+00  0.0000E+00  0.1440E+03  0.1440E+03
    -11.611  0.0000E+00  0.0000E+00  0.1440E+03  0.1440E+03
    -11.373  0.0000E+00  0.0000E+00  0.1440E+03  0.1440E+03
    -11.135  0.0000E+00  0.0000E+00  0.1440E+03  0.1440E+03
    -10.896  0.0000E+00  0.0000E+00  0.1440E+03  0.1440E+03
    -10.658  0.0000E+00  0.0000E+00  0.1440E+03  0.1440E+03
    -10.420  0.0000E+00  0.0000E+00  0.1440E+03  0.1440E+03
    -10.182  0.0000E+00  0.0000E+00  0.1440E+03  0.1440E+03
     -9.943  0.0000E+00  0.0000E+00  0.1440E+03  0.1440E+03
     -9.705  0.0000E+00  0.0000E+00  0.1440E+03  0.1440E+03
     -9.467  0.0000E+00  0.0000E+00  0.1440E+03  0.1440E+03
     -9.229  0.0000E+00  0.0000E+00  0.1440E+03  0.1440E+03
     -8.990  0.0000E+00  0.0000E+00  0.1440E+03  0.1440E+03
     -8.752  0.0000E+00  0.0000E+00  0.1440E+03  0.1440E+03
     -8.514  0.0000E+00  0.0000E+00  0.1440E+03  0.1440E+03
     -8.276  0.0000E+00  0.0000E+00  0.1440E+03  0.1440E+03
     -8.037  0.0000E+00  0.0000E+00  0.1440E+03  0.1440E+03
     -7.799  0.1742E-01  0.8112E-15  0.1440E+03  0.1440E+03
     -7.561  0.1913E+02  0.1802E+00  0.1486E+03  0.1440E+03
     -7.323  0.4861E+02  0.2985E+02  0.1601E+03  0.1512E+03
     -7.084  0.3227E+02  0.4932E+02  0.1678E+03  0.1629E+03
     -6.846  0.7161E+00  0.2083E+02  0.1680E+03  0.1679E+03
     -6.608  0.0000E+00  0.5519E+00  0.1680E+03  0.1680E+03
     -6.370  0.0000E+00  0.0000E+00  0.1680E+03  0.1680E+03
     -6.132  0.0000E+00  0.0000E+00  0.1680E+03  0.1680E+03
     -5.893  0.0000E+00  0.0000E+00  0.1680E+03  0.1680E+03
     -5.655  0.0000E+00  0.0000E+00  0.1680E+03  0.1680E+03
     -5.417  0.0000E+00  0.0000E+00  0.1680E+03  0.1680E+03
     -5.179  0.0000E+00  0.0000E+00  0.1680E+03  0.1680E+03
     -4.940  0.0000E+00  0.0000E+00  0.1680E+03  0.1680E+03
     -4.702  0.0000E+00  0.0000E+00  0.1680E+03  0.1680E+03
     -4.464  0.0000E+00  0.0000E+00  0.1680E+03  0.1680E+03
     -4.226  0.0000E+00  0.0000E+00  0.1680E+03  0.1680E+03
     -3.987  0.0000E+00  0.0000E+00  0.1680E+03  0.1680E+03
     -3.749  0.0000E+00  0.0000E+00  0.1680E+03  0.1680E+03
     -3.511  0.0000E+00  0.0000E+00  0.1680E+03  0.1680E+03
     -3.273  0.0000E+00  0.0000E+00  0.1680E+03  0.1680E+03
     -3.034  0.0000E+00  0.0000E+00  0.1680E+03  0.1680E+03
     -2.796  0.0000E+00  0.0000E+00  0.1680E+03  0.1680E+03
     -2.558  0.0000E+00  0.0000E+00  0.1680E+03  0.1680E+03
     -2.320  0.0000E+00  0.0000E+00  0.1680E+03  0.1680E+03
     -2.081  0.4828E-05  0.0000E+00  0.1680E+03  0.1680E+03
     -1.843  0.8926E+01  0.0000E+00  0.1701E+03  0.1680E+03
     -1.605  0.5902E+02  0.0000E+00  0.1842E+03  0.1680E+03
     -1.367  0.4036E+02  0.0000E+00  0.1938E+03  0.1680E+03
     -1.128  0.3282E+02  0.0000E+00  0.2016E+03  0.1680E+03
     -0.890  0.5460E+02  0.6270E-08  0.2146E+03  0.1680E+03
     -0.652  0.5312E+02  0.2034E+01  0.2273E+03  0.1685E+03
     -0.414  0.6741E+02  0.1775E+02  0.2433E+03  0.1727E+03
     -0.176  0.5356E+02  0.3887E+02  0.2561E+03  0.1820E+03
      0.063  0.3460E+02  0.3457E+02  0.2643E+03  0.1902E+03
      0.301  0.5538E+02  0.2359E+02  0.2775E+03  0.1958E+03
      0.539  0.4731E+02  0.4868E+02  0.2888E+03  0.2074E+03
      0.777  0.3241E+02  0.4880E+02  0.2965E+03  0.2191E+03
      1.016  0.5004E+02  0.6848E+02  0.3085E+03  0.2354E+03
      1.254  0.4961E+02  0.2501E+02  0.3203E+03  0.2413E+03
      1.492  0.5407E+02  0.2346E+02  0.3332E+03  0.2469E+03
      1.730  0.6179E+02  0.3852E+02  0.3479E+03  0.2561E+03
      1.969  0.3353E+02  0.4587E+02  0.3559E+03  0.2670E+03
      2.207  0.2377E+02  0.2919E+02  0.3615E+03  0.2740E+03
      2.445  0.1403E+02  0.3568E+02  0.3649E+03  0.2825E+03
      2.683  0.3759E+02  0.2547E+02  0.3738E+03  0.2885E+03
      2.922  0.3874E+02  0.4571E+02  0.3831E+03  0.2994E+03
      3.160  0.3060E+02  0.4170E+02  0.3903E+03  0.3094E+03
      3.398  0.4400E+02  0.1398E+02  0.4008E+03  0.3127E+03
      3.636  0.5373E+02  0.3167E+02  0.4136E+03  0.3202E+03
      3.875  0.4684E+02  0.5650E+02  0.4248E+03  0.3337E+03
      4.113  0.2854E+02  0.9621E+01  0.4316E+03  0.3360E+03
      4.351  0.1737E+01  0.2981E-05  0.4320E+03  0.3360E+03
      4.589  0.0000E+00  0.0000E+00  0.4320E+03  0.3360E+03
      4.827  0.0000E+00  0.0000E+00  0.4320E+03  0.3360E+03
      5.066  0.0000E+00  0.0000E+00  0.4320E+03  0.3360E+03
      5.304  0.0000E+00  0.0000E+00  0.4320E+03  0.3360E+03
      5.542  0.0000E+00  0.0000E+00  0.4320E+03  0.3360E+03
      5.780  0.0000E+00  0.0000E+00  0.4320E+03  0.3360E+03
      6.019  0.0000E+00  0.6196E-02  0.4320E+03  0.3360E+03
      6.257  0.0000E+00  0.2008E+01  0.4320E+03  0.3365E+03
      6.495  0.0000E+00  0.1387E+02  0.4320E+03  0.3398E+03
      6.733  0.0000E+00  0.2699E+02  0.4320E+03  0.3462E+03
      6.972  0.0000E+00  0.2545E+02  0.4320E+03  0.3523E+03
      7.210  0.1792E-04  0.5866E+02  0.4320E+03  0.3663E+03
      7.448  0.1553E+00  0.7473E+02  0.4320E+03  0.3841E+03
      7.686  0.7731E+00  0.2922E+02  0.4322E+03  0.3910E+03
      7.925  0.1563E+01  0.4148E+02  0.4326E+03  0.4009E+03
      8.163  0.4829E+01  0.7879E+02  0.4337E+03  0.4197E+03
      8.401  0.7288E+01  0.4867E+02  0.4355E+03  0.4313E+03
      8.639  0.1572E+02  0.3493E+01  0.4392E+03  0.4321E+03
      8.878  0.2404E+02  0.1213E+01  0.4450E+03  0.4324E+03
      9.116  0.1989E+02  0.4529E+01  0.4497E+03  0.4335E+03
      9.354  0.1937E+02  0.1095E+02  0.4543E+03  0.4361E+03
      9.592  0.1978E+02  0.2133E+02  0.4590E+03  0.4412E+03
      9.831  0.2448E+02  0.2890E+02  0.4649E+03  0.4480E+03
     10.069  0.2193E+02  0.3013E+02  0.4701E+03  0.4552E+03
     10.307  0.1799E+02  0.2996E+02  0.4744E+03  0.4624E+03
     10.545  0.2480E+02  0.2577E+02  0.4803E+03  0.4685E+03
     10.783  0.1475E+02  0.2580E+02  0.4838E+03  0.4746E+03
     11.022  0.2793E+02  0.2405E+02  0.4904E+03  0.4804E+03
     11.260  0.4557E+02  0.1046E+02  0.5013E+03  0.4829E+03
     11.498  0.4856E+02  0.2600E+02  0.5129E+03  0.4891E+03
     11.736  0.3490E+02  0.3098E+02  0.5212E+03  0.4964E+03
     11.975  0.2039E+02  0.5625E+02  0.5260E+03  0.5098E+03
     12.213  0.2074E+02  0.4429E+02  0.5310E+03  0.5204E+03
     12.451  0.3048E+02  0.2667E+02  0.5382E+03  0.5267E+03
     12.689  0.3197E+02  0.2384E+02  0.5459E+03  0.5324E+03
     12.928  0.1812E+02  0.2738E+02  0.5502E+03  0.5390E+03
     13.166  0.7583E+01  0.3284E+02  0.5520E+03  0.5468E+03
     13.404  0.9472E-01  0.1779E+02  0.5520E+03  0.5510E+03
     13.642  0.0000E+00  0.4149E+01  0.5520E+03  0.5520E+03
     13.881  0.0000E+00  0.6576E-05  0.5520E+03  0.5520E+03
     14.119  0.0000E+00  0.0000E+00  0.5520E+03  0.5520E+03
     14.357  0.0000E+00  0.0000E+00  0.5520E+03  0.5520E+03
     14.595  0.0000E+00  0.0000E+00  0.5520E+03  0.5520E+03
     14.834  0.0000E+00  0.0000E+00  0.5520E+03  0.5520E+03
     15.072  0.0000E+00  0.0000E+00  0.5520E+03  0.5520E+03
     15.310  0.0000E+00  0.0000E+00  0.5520E+03  0.5520E+03
     15.548  0.0000E+00  0.0000E+00  0.5520E+03  0.5520E+03
     15.786  0.0000E+00  0.0000E+00  0.5520E+03  0.5520E+03
     16.025  0.0000E+00  0.0000E+00  0.5520E+03  0.5520E+03
     16.263  0.0000E+00  0.0000E+00  0.5520E+03  0.5520E+03
     16.501  0.0000E+00  0.0000E+00  0.5520E+03  0.5520E+03
     16.739  0.0000E+00  0.0000E+00  0.5520E+03  0.5520E+03
