 vasp.5.4.4.18Apr17-6-g9f103f2a35 (build Oct 25 2017 14:42:18) complex          
  
 executed on             LinuxIFC date 2021.04.16  15:34:49
 running on   48 total cores
 distrk:  each k-point on   24 cores,    2 groups
 distr:  one band on NCORES_PER_BAND=   6 cores,    4 groups


--------------------------------------------------------------------------------------------------------


 INCAR:
 POTCAR:    PAW_PBE Li_sv 10Sep2004               
 POTCAR:    PAW_PBE O 08Apr2002                   
 POTCAR:    PAW_PBE S 06Sep2000                   
 POTCAR:    PAW_PBE Fe_pv 02Aug2007               

 ----------------------------------------------------------------------------- 
|                                                                             |
|           W    W    AA    RRRRR   N    N  II  N    N   GGGG   !!!           |
|           W    W   A  A   R    R  NN   N  II  NN   N  G    G  !!!           |
|           W    W  A    A  R    R  N N  N  II  N N  N  G       !!!           |
|           W WW W  AAAAAA  RRRRR   N  N N  II  N  N N  G  GGG   !            |
|           WW  WW  A    A  R   R   N   NN  II  N   NN  G    G                |
|           W    W  A    A  R    R  N    N  II  N    N   GGGG   !!!           |
|                                                                             |
|      You have enabled k-point parallelism (KPAR>1).                         |
|      This developmental code was originally  written by Paul Kent at ORNL,  |
|      and carefully double checked in Vienna.                                |
|      GW as well as linear response parallelism added by Martijn Marsman     |
|      and Georg Kresse.                                                      |
|      Carefully verify results versus KPAR=1.                                |
|      Report problems to Paul Kent and Vienna.                               |
|                                                                             |
 ----------------------------------------------------------------------------- 

 POTCAR:    PAW_PBE Li_sv 10Sep2004               
  local pseudopotential read in
  atomic valenz-charges read in
  non local Contribution for L=           0  read in
    real space projection operators read in
  non local Contribution for L=           0  read in
    real space projection operators read in
  non local Contribution for L=           1  read in
    real space projection operators read in
    PAW grid and wavefunctions read in
 
   number of l-projection  operators is LMAX  =           3
   number of lm-projection operators is LMMAX =           5
 
 POTCAR:    PAW_PBE O 08Apr2002                   
  local pseudopotential read in
  partial core-charges read in
  partial kinetic energy density read in
  kinetic energy density of atom read in
  atomic valenz-charges read in
  non local Contribution for L=           0  read in
    real space projection operators read in
  non local Contribution for L=           0  read in
    real space projection operators read in
  non local Contribution for L=           1  read in
    real space projection operators read in
  non local Contribution for L=           1  read in
    real space projection operators read in
    PAW grid and wavefunctions read in
 
   number of l-projection  operators is LMAX  =           4
   number of lm-projection operators is LMMAX =           8
 
 POTCAR:    PAW_PBE S 06Sep2000                   
  local pseudopotential read in
  partial core-charges read in
  partial kinetic energy density read in
  atomic valenz-charges read in
  non local Contribution for L=           0  read in
    real space projection operators read in
  non local Contribution for L=           0  read in
    real space projection operators read in
  non local Contribution for L=           1  read in
    real space projection operators read in
  non local Contribution for L=           1  read in
    real space projection operators read in
    PAW grid and wavefunctions read in
 
   number of l-projection  operators is LMAX  =           4
   number of lm-projection operators is LMMAX =           8
 
 POTCAR:    PAW_PBE Fe_pv 02Aug2007               
  local pseudopotential read in
  partial core-charges read in
  partial kinetic energy density read in
  atomic valenz-charges read in
  non local Contribution for L=           1  read in
    real space projection operators read in
  non local Contribution for L=           1  read in
    real space projection operators read in
  non local Contribution for L=           2  read in
    real space projection operators read in
  non local Contribution for L=           2  read in
    real space projection operators read in
  non local Contribution for L=           0  read in
    real space projection operators read in
  non local Contribution for L=           0  read in
    real space projection operators read in
    PAW grid and wavefunctions read in
 
   number of l-projection  operators is LMAX  =           6
   number of lm-projection operators is LMMAX =          18
 

 ----------------------------------------------------------------------------- 
|                                                                             |
|  ADVICE TO THIS USER RUNNING 'VASP/VAMP'   (HEAR YOUR MASTER'S VOICE ...):  |
|                                                                             |
|      You have a (more or less) 'large supercell' and for larger cells       |
|      it might be more efficient to use real space projection opertators     |
|      So try LREAL= Auto  in the INCAR   file.                               |
|      Mind:          For very  accurate calculation you might also keep the  |
|      reciprocal projection scheme          (i.e. LREAL=.FALSE.)             |
|                                                                             |
 ----------------------------------------------------------------------------- 

  PAW_PBE Li_sv 10Sep2004               :
 energy of atom  1       EATOM= -202.7858
 kinetic energy error for atom=    0.0072 (will be added to EATOM!!)
  PAW_PBE O 08Apr2002                   :
 energy of atom  2       EATOM= -432.3788
 kinetic energy error for atom=    0.0129 (will be added to EATOM!!)
  PAW_PBE S 06Sep2000                   :
 energy of atom  3       EATOM= -276.8230
 kinetic energy error for atom=    0.0008 (will be added to EATOM!!)
  PAW_PBE Fe_pv 02Aug2007               :
 energy of atom  4       EATOM=-2457.4239
 kinetic energy error for atom=    0.0041 (will be added to EATOM!!)
 
 
 POSCAR: # Compound: Li48O24S24Fe24. Old comment:
  positions in direct lattice
  No initial velocities read in
 exchange correlation table for  LEXCH =        8
   RHO(1)=    0.500       N(1)  =     2000
   RHO(2)=  100.500       N(2)  =     4000
 


--------------------------------------------------------------------------------------------------------


 ion  position               nearest neighbor table
   1  0.035  0.363  0.356-  51 1.97  49 1.97  73 2.65
   2  0.369  0.363  0.356-  49 1.97  50 1.97  74 2.65
   3  0.702  0.363  0.356-  50 1.97  51 1.97  75 2.65
   4  0.035  0.863  0.356-  54 1.97  52 1.97  76 2.65
   5  0.369  0.863  0.356-  52 1.97  53 1.97  77 2.65
   6  0.702  0.863  0.356-  53 1.97  54 1.97  78 2.65
   7  0.035  0.363  0.856-  57 1.97  55 1.97  79 2.65
   8  0.369  0.363  0.856-  55 1.97  56 1.97  80 2.65
   9  0.702  0.363  0.856-  56 1.97  57 1.97  81 2.65
  10  0.035  0.863  0.856-  60 1.97  58 1.97  82 2.65
  11  0.369  0.863  0.856-  58 1.97  59 1.97  83 2.65
  12  0.702  0.863  0.856-  59 1.97  60 1.97  84 2.65
  13  0.035  0.113  0.144-  63 1.97  61 1.97  85 2.65
  14  0.369  0.113  0.144-  61 1.97  62 1.97  86 2.65
  15  0.702  0.113  0.144-  62 1.97  63 1.97  87 2.65
  16  0.035  0.613  0.144-  66 1.97  64 1.97  88 2.65
  17  0.369  0.613  0.144-  64 1.97  65 1.97  89 2.65
  18  0.702  0.613  0.144-  65 1.97  66 1.97  90 2.65
  19  0.035  0.113  0.644-  69 1.97  67 1.97  91 2.65
  20  0.369  0.113  0.644-  67 1.97  68 1.97  92 2.65
  21  0.702  0.113  0.644-  68 1.97  69 1.97  93 2.65
  22  0.035  0.613  0.644-  72 1.97  70 1.97  94 2.65
  23  0.369  0.613  0.644-  70 1.97  71 1.97  95 2.65
  24  0.702  0.613  0.644-  71 1.97  72 1.97  96 2.65
  25  0.202  0.219  0.272-  61 1.99  49 2.02  85 2.55  86 2.55
  26  0.535  0.219  0.272-  62 1.99  50 2.02  86 2.55  87 2.55
  27  0.869  0.219  0.272-  63 1.99  51 2.02  87 2.55  85 2.55
  28  0.202  0.719  0.272-  64 1.99  52 2.02  88 2.55  89 2.55
  29  0.535  0.719  0.272-  65 1.99  53 2.02  89 2.55  90 2.55
  30  0.869  0.719  0.272-  66 1.99  54 2.02  90 2.55  88 2.55
  31  0.202  0.219  0.772-  67 1.99  55 2.02  91 2.55  92 2.55
  32  0.535  0.219  0.772-  68 1.99  56 2.02  92 2.55  93 2.55
  33  0.869  0.219  0.772-  69 1.99  57 2.02  93 2.55  91 2.55
  34  0.202  0.719  0.772-  70 1.99  58 2.02  94 2.55  95 2.55
  35  0.535  0.719  0.772-  71 1.99  59 2.02  95 2.55  96 2.55
  36  0.869  0.719  0.772-  72 1.99  60 2.02  96 2.55  94 2.55
  37  0.202  0.469  0.228-  49 1.99  64 2.02  73 2.55  74 2.55
  38  0.535  0.469  0.228-  50 1.99  65 2.02  74 2.55  75 2.55
  39  0.869  0.469  0.228-  51 1.99  66 2.02  75 2.55  73 2.55
  40  0.202  0.969  0.228-  52 1.99  61 2.02  76 2.55  77 2.55
  41  0.535  0.969  0.228-  53 1.99  62 2.02  77 2.55  78 2.55
  42  0.869  0.969  0.228-  54 1.99  63 2.02  78 2.55  76 2.55
  43  0.202  0.469  0.728-  55 1.99  70 2.02  79 2.55  80 2.55
  44  0.535  0.469  0.728-  56 1.99  71 2.02  80 2.55  81 2.55
  45  0.869  0.469  0.728-  57 1.99  72 2.02  81 2.55  79 2.55
  46  0.202  0.969  0.728-  58 1.99  67 2.02  82 2.55  83 2.55
  47  0.535  0.969  0.728-  59 1.99  68 2.02  83 2.55  84 2.55
  48  0.869  0.969  0.728-  60 1.99  69 2.02  84 2.55  82 2.55
  49  0.202  0.368  0.374-   2 1.97   1 1.97  37 1.99 100 2.01  25 2.02 115 2.02
  50  0.535  0.368  0.374-   3 1.97   2 1.97  38 1.99 101 2.01  26 2.02 116 2.02
  51  0.869  0.368  0.374-   1 1.97   3 1.97  39 1.99 102 2.01  27 2.02 117 2.02
  52  0.202  0.868  0.374-   5 1.97   4 1.97  40 1.99  28 2.02  97 2.02 118 2.02
  53  0.535  0.868  0.374-   6 1.97   5 1.97  41 1.99  98 2.01  29 2.02 119 2.02
  54  0.869  0.868  0.374-   4 1.97   6 1.97  42 1.99  99 2.01  30 2.02 120 2.02
  55  0.202  0.368  0.874-   8 1.97   7 1.97  43 1.99 106 2.01  31 2.02 109 2.02
  56  0.535  0.368  0.874-   9 1.97   8 1.97  44 1.99 107 2.01  32 2.02 110 2.02
  57  0.869  0.368  0.874-   7 1.97   9 1.97  45 1.99 108 2.01  33 2.02 111 2.02
  58  0.202  0.868  0.874-  11 1.97  10 1.97  46 1.99 103 2.01  34 2.02 112 2.02
  59  0.535  0.868  0.874-  12 1.97  11 1.97  47 1.99 104 2.01  35 2.02 113 2.02
  60  0.869  0.868  0.874-  10 1.97  12 1.97  48 1.99 105 2.01  36 2.02 114 2.02
  61  0.202  0.118  0.126-  14 1.97  13 1.97  25 1.99 109 2.01  40 2.02 103 2.02
  62  0.535  0.118  0.126-  15 1.97  14 1.97  26 1.99 110 2.01  41 2.02 104 2.02
  63  0.869  0.118  0.126-  13 1.97  15 1.97  27 1.99 111 2.01  42 2.02 105 2.02
  64  0.202  0.618  0.126-  17 1.97  16 1.97  28 1.99 112 2.01  37 2.02 106 2.02
  65  0.535  0.618  0.126-  18 1.97  17 1.97  29 1.99 113 2.01  38 2.02 107 2.02
  66  0.869  0.618  0.126-  16 1.97  18 1.97  30 1.99 114 2.01  39 2.02 108 2.02
  67  0.202  0.118  0.626-  20 1.97  19 1.97  31 1.99 115 2.01  97 2.01  46 2.02
  68  0.535  0.118  0.626-  21 1.97  20 1.97  32 1.99 116 2.01  47 2.02  98 2.02
  69  0.869  0.118  0.626-  19 1.97  21 1.97  33 1.99 117 2.01  48 2.02  99 2.02
  70  0.202  0.618  0.626-  23 1.97  22 1.97  34 1.99 118 2.01  43 2.02 100 2.02
  71  0.535  0.618  0.626-  24 1.97  23 1.97  35 1.99 119 2.01  44 2.02 101 2.02
  72  0.869  0.618  0.626-  22 1.97  24 1.97  36 1.99 120 2.01  45 2.02 102 2.02
  73  0.035  0.370  0.120-  37 2.55  39 2.55 111 2.56 109 2.56   1 2.65
  74  0.369  0.370  0.120-  38 2.55  37 2.55 109 2.56 110 2.56   2 2.65
  75  0.702  0.370  0.120-  39 2.55  38 2.55 110 2.56 111 2.56   3 2.65
  76  0.035  0.870  0.120-  40 2.55  42 2.55 114 2.56 112 2.56   4 2.65
  77  0.369  0.870  0.120-  41 2.55  40 2.55 112 2.56 113 2.56   5 2.65
  78  0.702  0.870  0.120-  42 2.55  41 2.55 113 2.56 114 2.56   6 2.65
  79  0.035  0.370  0.620-  43 2.55  45 2.55 117 2.56 115 2.56   7 2.65
  80  0.369  0.370  0.620-  44 2.55  43 2.55 115 2.56 116 2.56   8 2.65
  81  0.702  0.370  0.620-  45 2.55  44 2.55 116 2.56 117 2.56   9 2.65
  82  0.035  0.870  0.620-  46 2.55  48 2.55 120 2.56 118 2.56  10 2.65
  83  0.369  0.870  0.620-  47 2.55  46 2.55 118 2.56 119 2.56  11 2.65
  84  0.702  0.870  0.620-  48 2.55  47 2.55 119 2.56 120 2.56  12 2.65
  85  0.035  0.120  0.380-  25 2.55  27 2.55  97 2.55  99 2.56  13 2.65
  86  0.369  0.120  0.380-  26 2.55  25 2.55  97 2.55  98 2.56  14 2.65
  87  0.702  0.120  0.380-  27 2.55  26 2.55  98 2.56  99 2.56  15 2.65
  88  0.035  0.620  0.380-  28 2.55  30 2.55 102 2.56 100 2.56  16 2.65
  89  0.369  0.620  0.380-  29 2.55  28 2.55 100 2.56 101 2.56  17 2.65
  90  0.702  0.620  0.380-  30 2.55  29 2.55 101 2.56 102 2.56  18 2.65
  91  0.035  0.120  0.880-  31 2.55  33 2.55 105 2.56 103 2.56  19 2.65
  92  0.369  0.120  0.880-  32 2.55  31 2.55 103 2.56 104 2.56  20 2.65
  93  0.702  0.120  0.880-  33 2.55  32 2.55 104 2.56 105 2.56  21 2.65
  94  0.035  0.620  0.880-  34 2.55  36 2.55 108 2.56 106 2.56  22 2.65
  95  0.369  0.620  0.880-  35 2.55  34 2.55 106 2.56 107 2.56  23 2.65
  96  0.702  0.620  0.880-  36 2.55  35 2.55 107 2.56 108 2.56  24 2.65
  97  0.202  0.013  0.480-  67 2.01  52 2.02  86 2.55  85 2.55
  98  0.535  0.012  0.480-  53 2.01  68 2.02  87 2.56  86 2.56
  99  0.869  0.012  0.480-  54 2.01  69 2.02  85 2.56  87 2.56
 100  0.202  0.512  0.480-  49 2.01  70 2.02  89 2.56  88 2.56
 101  0.535  0.512  0.480-  50 2.01  71 2.02  90 2.56  89 2.56
 102  0.869  0.512  0.480-  51 2.01  72 2.02  88 2.56  90 2.56
 103  0.202  0.012  0.980-  58 2.01  61 2.02  92 2.56  91 2.56
 104  0.535  0.012  0.980-  59 2.01  62 2.02  93 2.56  92 2.56
 105  0.869  0.012  0.980-  60 2.01  63 2.02  91 2.56  93 2.56
 106  0.202  0.512  0.980-  55 2.01  64 2.02  95 2.56  94 2.56
 107  0.535  0.512  0.980-  56 2.01  65 2.02  96 2.56  95 2.56
 108  0.869  0.512  0.980-  57 2.01  66 2.02  94 2.56  96 2.56
 109  0.202  0.262  0.020-  61 2.01  55 2.02  74 2.56  73 2.56
 110  0.535  0.262  0.020-  62 2.01  56 2.02  75 2.56  74 2.56
 111  0.869  0.262  0.020-  63 2.01  57 2.02  73 2.56  75 2.56
 112  0.202  0.762  0.020-  64 2.01  58 2.02  77 2.56  76 2.56
 113  0.535  0.762  0.020-  65 2.01  59 2.02  78 2.56  77 2.56
 114  0.869  0.762  0.020-  66 2.01  60 2.02  76 2.56  78 2.56
 115  0.202  0.262  0.520-  67 2.01  49 2.02  80 2.56  79 2.56
 116  0.535  0.262  0.520-  68 2.01  50 2.02  81 2.56  80 2.56
 117  0.869  0.262  0.520-  69 2.01  51 2.02  79 2.56  81 2.56
 118  0.202  0.762  0.520-  70 2.01  52 2.02  83 2.56  82 2.56
 119  0.535  0.762  0.520-  71 2.01  53 2.02  84 2.56  83 2.56
 120  0.869  0.762  0.520-  72 2.01  54 2.02  82 2.56  84 2.56
 

IMPORTANT INFORMATION: All symmetrisations will be switched off!
NOSYMM: (Re-)initialisation of all symmetry stuff for point group C_1.

 
 
 KPOINTS: # No comment                            

Automatic generation of k-mesh.
Space group operators:
 irot       det(A)        alpha          n_x          n_y          n_z        tau_x        tau_y        tau_z
    1     1.000000     0.000000     1.000000     0.000000     0.000000     0.000000     0.000000     0.000000
 
 Subroutine IBZKPT returns following result:
 ===========================================
 
 Found     14 irreducible k-points:
 
 Following reciprocal coordinates:
            Coordinates               Weight
  0.000000  0.000000  0.000000      1.000000
  0.333333  0.000000  0.000000      2.000000
  0.000000  0.333333  0.000000      2.000000
  0.333333  0.333333  0.000000      2.000000
 -0.333333  0.333333  0.000000      2.000000
  0.000000  0.000000  0.333333      2.000000
  0.333333  0.000000  0.333333      2.000000
 -0.333333  0.000000  0.333333      2.000000
  0.000000  0.333333  0.333333      2.000000
  0.333333  0.333333  0.333333      2.000000
 -0.333333  0.333333  0.333333      2.000000
 -0.000000 -0.333333  0.333333      2.000000
  0.333333 -0.333333  0.333333      2.000000
 -0.333333 -0.333333  0.333333      2.000000
 
 Following cartesian coordinates:
            Coordinates               Weight
  0.000000  0.000000  0.000000      1.000000
  0.028403 -0.000139  0.000000      2.000000
  0.000145  0.029713  0.000000      2.000000
  0.028548  0.029574  0.000000      2.000000
 -0.028257  0.029851  0.000000      2.000000
  0.000000  0.000000  0.029774      2.000000
  0.028403 -0.000139  0.029774      2.000000
 -0.028403  0.000139  0.029774      2.000000
  0.000145  0.029713  0.029774      2.000000
  0.028548  0.029574  0.029774      2.000000
 -0.028257  0.029851  0.029774      2.000000
 -0.000145 -0.029713  0.029774      2.000000
  0.028257 -0.029851  0.029774      2.000000
 -0.028548 -0.029574  0.029774      2.000000
 


--------------------------------------------------------------------------------------------------------




 Dimension of arrays:
   k-points           NKPTS =     14   k-points in BZ     NKDIM =     14   number of bands    NBANDS=    552
   number of dos      NEDOS =    301   number of ions     NIONS =    120
   non local maximal  LDIM  =      6   non local SUM 2l+1 LMDIM =     18
   total plane-waves  NPLWV = 903168
   max r-space proj   IRMAX =      1   max aug-charges    IRDMAX= 154614
   dimension x,y,z NGX =    98 NGY =   96 NGZ =   96
   dimension x,y,z NGXF=   196 NGYF=  192 NGZF=  192
   support grid    NGXF=   392 NGYF=  384 NGZF=  384
   ions per type =              48  24  24  24
   NGX,Y,Z   is equivalent  to a cutoff of  13.88, 14.23, 14.26 a.u.
   NGXF,Y,Z  is equivalent  to a cutoff of  27.76, 28.45, 28.51 a.u.

 SYSTEM =  unknown system                          
 POSCAR =  # Compound: Li48O24S24Fe24. Old comment:

 Startparameter for this run:
   NWRITE =      1    write-flag & timer
   PREC   = accura    normal or accurate (medium, high low for compatibility)
   ISTART =      0    job   : 0-new  1-cont  2-samecut
   ICHARG =      1    charge: 1-file 2-atom 10-const
   ISPIN  =      2    spin polarized calculation?
   LNONCOLLINEAR =      F non collinear calculations
   LSORBIT =      F    spin-orbit coupling
   INIWAV =      1    electr: 0-lowe 1-rand  2-diag
   LASPH  =      T    aspherical Exc in radial PAW
   METAGGA=      F    non-selfconsistent MetaGGA calc.

 Electronic Relaxation 1
   ENCUT  =  650.0 eV  47.77 Ry    6.91 a.u.  24.40 23.32 23.27*2*pi/ulx,y,z
   ENINI  =  650.0     initial cutoff
   ENAUG  =  628.9 eV  augmentation charge cutoff
   NELM   =    200;   NELMIN=  8; NELMDL=  0     # of ELM steps 
   EDIFF  = 0.1E-05   stopping-criterion for ELM
   LREAL  =      F    real-space projection
   NLSPLINE    = F    spline interpolate recip. space projectors
   LCOMPAT=      F    compatible to vasp.4.4
   GGA_COMPAT  = T    GGA compatible to vasp.4.4-vasp.4.6
   LMAXPAW     = -100 max onsite density
   LMAXMIX     =    4 max onsite mixed and CHGCAR
   VOSKOWN=      0    Vosko Wilk Nusair interpolation
   ROPT   =    0.00000   0.00000   0.00000   0.00000
 Ionic relaxation
   EDIFFG = 0.1E-04   stopping-criterion for IOM
   NSW    =      0    number of steps for IOM
   NBLOCK =      1;   KBLOCK =      1    inner block; outer block 
   IBRION =     -1    ionic relax: 0-MD 1-quasi-New 2-CG
   NFREE  =      0    steps in history (QN), initial steepest desc. (CG)
   ISIF   =      3    stress and relaxation
   IWAVPR =     10    prediction:  0-non 1-charg 2-wave 3-comb
   ISYM   =      0    0-nonsym 1-usesym 2-fastsym
   LCORR  =      T    Harris-Foulkes like correction to forces

   POTIM  = 0.5000    time-step for ionic-motion
   TEIN   =    0.0    initial temperature
   TEBEG  =    0.0;   TEEND  =   0.0 temperature during run
   SMASS  =  -3.00    Nose mass-parameter (am)
   estimated Nose-frequenzy (Omega)   =  0.10E-29 period in steps =****** mass=  -0.315E-26a.u.
   SCALEE = 1.0000    scale energy and forces
   NPACO  =    256;   APACO  = 16.0  distance and # of slots for P.C.
   PSTRESS=    0.0 pullay stress

  Mass of Ions in am
   POMASS =   7.01 16.00 32.07 55.85
  Ionic Valenz
   ZVAL   =   3.00  6.00  6.00 14.00
  Atomic Wigner-Seitz radii
   RWIGS  =  -1.00 -1.00 -1.00 -1.00
  virtual crystal weights 
   VCA    =   1.00  1.00  1.00  1.00
   NELECT =     768.0000    total number of electrons
   NUPDOWN=      -1.0000    fix difference up-down

 DOS related values:
   EMIN   =  10.00;   EMAX   =-10.00  energy-range for DOS
   EFERMI =   0.00
   ISMEAR =     0;   SIGMA  =   0.05  broadening in eV -4-tet -1-fermi 0-gaus

 Electronic relaxation 2 (details)
   IALGO  =     38    algorithm
   LDIAG  =      T    sub-space diagonalisation (order eigenvalues)
   LSUBROT=      F    optimize rotation matrix (better conditioning)
   TURBO    =      0    0=normal 1=particle mesh
   IRESTART =      0    0=no restart 2=restart with 2 vectors
   NREBOOT  =      0    no. of reboots
   NMIN     =      0    reboot dimension
   EREF     =   0.00    reference energy to select bands
   IMIX   =      4    mixing-type and parameters
     AMIX     =   0.40;   BMIX     =  1.00
     AMIX_MAG =   1.60;   BMIX_MAG =  1.00
     AMIN     =   0.10
     WC   =   100.;   INIMIX=   1;  MIXPRE=   1;  MAXMIX= -45

 Intra band minimization:
   WEIMIN = 0.0000     energy-eigenvalue tresh-hold
   EBREAK =  0.45E-09  absolut break condition
   DEPER  =   0.30     relativ break condition  

   TIME   =   0.40     timestep for ELM

  volume/ion in A,a.u.               =      12.28        82.89
  Fermi-wavevector in a.u.,A,eV,Ry     =   1.317335  2.489402 23.611165  1.735372
  Thomas-Fermi vector in A             =   2.447383
 
 Write flags
   LWAVE        =      F    write WAVECAR
   LDOWNSAMPLE  =      F    k-point downsampling of WAVECAR
   LCHARG       =      T    write CHGCAR
   LVTOT        =      F    write LOCPOT, total local potential
   LVHAR        =      F    write LOCPOT, Hartree potential only
   LELF         =      F    write electronic localiz. function (ELF)
   LORBIT       =      0    0 simple, 1 ext, 2 COOP (PROOUT), +10 PAW based schemes


 Dipole corrections
   LMONO  =      F    monopole corrections only (constant potential shift)
   LDIPOL =      F    correct potential (dipole corrections)
   IDIPOL =      0    1-x, 2-y, 3-z, 4-all directions 
   EPSILON=  1.0000000 bulk dielectric constant

 LDA+U is selected, type is set to LDAUTYPE =  2
   angular momentum for each species LDAUL =    -1   -1   -1    2
   U (eV)           for each species LDAUU =   0.0  0.0  0.0  4.0
   J (eV)           for each species LDAUJ =   0.0  0.0  0.0  0.0
 Exchange correlation treatment:
   GGA     =    PE    GGA type
   LEXCH   =     8    internal setting for exchange type
   VOSKOWN=      0    Vosko Wilk Nusair interpolation
   LHFCALC =     F    Hartree Fock is set to
   LHFONE  =     F    Hartree Fock one center treatment
   AEXX    =    0.0000 exact exchange contribution

 Linear response parameters
   LEPSILON=     F    determine dielectric tensor
   LRPA    =     F    only Hartree local field effects (RPA)
   LNABLA  =     F    use nabla operator in PAW spheres
   LVEL    =     F    velocity operator in full k-point grid
   LINTERFAST=   F  fast interpolation
   KINTER  =     0    interpolate to denser k-point grid
   CSHIFT  =0.1000    complex shift for real part using Kramers Kronig
   OMEGAMAX=  -1.0    maximum frequency
   DEG_THRESHOLD= 0.2000000E-02 threshold for treating states as degnerate
   RTIME   =   -0.100 relaxation time in fs
  (WPLASMAI=    0.000 imaginary part of plasma frequency in eV, 0.658/RTIME)
   DFIELD  = 0.0000000 0.0000000 0.0000000 field for delta impulse in time
 
 Orbital magnetization related:
   ORBITALMAG=     F  switch on orbital magnetization
   LCHIMAG   =     F  perturbation theory with respect to B field
   DQ        =  0.001000  dq finite difference perturbation B field
   LLRAUG    =     F  two centre corrections for induced B field



--------------------------------------------------------------------------------------------------------


 Static calculation
 charge density and potential will be updated during run
 spin polarized calculation
 Variant of blocked Davidson
 Davidson routine will perform the subspace rotation
 perform sub-space diagonalisation
    after iterative eigenvector-optimisation
 modified Broyden-mixing scheme, WC =      100.0
 initial mixing is a Kerker type mixing with AMIX =  0.4000 and BMIX =      1.0000
 Hartree-type preconditioning will be used
 using additional bands          168
 reciprocal scheme for non local part
 use partial core corrections
 calculate Harris-corrections to forces 
   (improved forces if not selfconsistent)
 use gradient corrections 
 use of overlap-Matrix (Vanderbilt PP)
 Gauss-broadening in eV      SIGMA  =   0.05


--------------------------------------------------------------------------------------------------------


  energy-cutoff  :      650.00
  volume of cell :     1474.00
      direct lattice vectors                 reciprocal lattice vectors
    11.735727240 -0.057442860  0.000000000     0.085207850 -0.000416288  0.000000000
     0.054807880 11.218334900  0.000000000     0.000436302  0.089137657  0.000000000
     0.000000000  0.000000000 11.195620100     0.000000000  0.000000000  0.089320644

  length of vectors
    11.735867822 11.218468783 11.195620100     0.085208867  0.089138725  0.089320644


 
 k-points in units of 2pi/SCALE and weight: # No comment                            
   0.00000000  0.00000000  0.00000000       0.037
   0.02840262 -0.00013876  0.00000000       0.074
   0.00014543  0.02971255  0.00000000       0.074
   0.02854805  0.02957379  0.00000000       0.074
  -0.02825718  0.02985132  0.00000000       0.074
   0.00000000  0.00000000  0.02977355       0.074
   0.02840262 -0.00013876  0.02977355       0.074
  -0.02840262  0.00013876  0.02977355       0.074
   0.00014543  0.02971255  0.02977355       0.074
   0.02854805  0.02957379  0.02977355       0.074
  -0.02825718  0.02985132  0.02977355       0.074
  -0.00014543 -0.02971255  0.02977355       0.074
   0.02825718 -0.02985132  0.02977355       0.074
  -0.02854805 -0.02957379  0.02977355       0.074
 
 k-points in reciprocal lattice and weights: # No comment                            
   0.00000000  0.00000000  0.00000000       0.037
   0.33333333  0.00000000  0.00000000       0.074
   0.00000000  0.33333333  0.00000000       0.074
   0.33333333  0.33333333  0.00000000       0.074
  -0.33333333  0.33333333  0.00000000       0.074
   0.00000000  0.00000000  0.33333333       0.074
   0.33333333  0.00000000  0.33333333       0.074
  -0.33333333  0.00000000  0.33333333       0.074
   0.00000000  0.33333333  0.33333333       0.074
   0.33333333  0.33333333  0.33333333       0.074
  -0.33333333  0.33333333  0.33333333       0.074
  -0.00000000 -0.33333333  0.33333333       0.074
   0.33333333 -0.33333333  0.33333333       0.074
  -0.33333333 -0.33333333  0.33333333       0.074
 
 position of ions in fractional coordinates (direct lattice) 
   0.03541706  0.36277547  0.35648149
   0.36875039  0.36277547  0.35648149
   0.70208372  0.36277547  0.35648149
   0.03541706  0.86277547  0.35648149
   0.36875039  0.86277547  0.35648149
   0.70208372  0.86277547  0.35648149
   0.03541706  0.36277547  0.85648149
   0.36875039  0.36277547  0.85648149
   0.70208372  0.36277547  0.85648149
   0.03541706  0.86277547  0.85648149
   0.36875039  0.86277547  0.85648149
   0.70208372  0.86277547  0.85648149
   0.03541706  0.11277547  0.14351851
   0.36875039  0.11277547  0.14351851
   0.70208372  0.11277547  0.14351851
   0.03541706  0.61277547  0.14351851
   0.36875039  0.61277547  0.14351851
   0.70208372  0.61277547  0.14351851
   0.03541706  0.11277547  0.64351851
   0.36875039  0.11277547  0.64351851
   0.70208372  0.11277547  0.64351851
   0.03541706  0.61277547  0.64351851
   0.36875039  0.61277547  0.64351851
   0.70208372  0.61277547  0.64351851
   0.20209458  0.21898060  0.27246215
   0.53542792  0.21898060  0.27246215
   0.86876125  0.21898060  0.27246215
   0.20209458  0.71898060  0.27246215
   0.53542792  0.71898060  0.27246215
   0.86876125  0.71898060  0.27246215
   0.20209458  0.21898060  0.77246215
   0.53542792  0.21898060  0.77246215
   0.86876125  0.21898060  0.77246215
   0.20209458  0.71898060  0.77246215
   0.53542792  0.71898060  0.77246215
   0.86876125  0.71898060  0.77246215
   0.20209458  0.46898060  0.22753785
   0.53542792  0.46898060  0.22753785
   0.86876125  0.46898060  0.22753785
   0.20209458  0.96898060  0.22753785
   0.53542792  0.96898060  0.22753785
   0.86876125  0.96898060  0.22753785
   0.20209458  0.46898060  0.72753785
   0.53542792  0.46898060  0.72753785
   0.86876125  0.46898060  0.72753785
   0.20209458  0.96898060  0.72753785
   0.53542792  0.96898060  0.72753785
   0.86876125  0.96898060  0.72753785
   0.20209064  0.36769237  0.37376509
   0.53542398  0.36769237  0.37376509
   0.86875731  0.36769237  0.37376509
   0.20209064  0.86769237  0.37376509
   0.53542398  0.86769237  0.37376509
   0.86875731  0.86769237  0.37376509
   0.20209064  0.36769237  0.87376509
   0.53542398  0.36769237  0.87376509
   0.86875731  0.36769237  0.87376509
   0.20209064  0.86769237  0.87376509
   0.53542398  0.86769237  0.87376509
   0.86875731  0.86769237  0.87376509
   0.20209064  0.11769237  0.12623491
   0.53542398  0.11769237  0.12623491
   0.86875731  0.11769237  0.12623491
   0.20209064  0.61769237  0.12623491
   0.53542398  0.61769237  0.12623491
   0.86875731  0.61769237  0.12623491
   0.20209064  0.11769237  0.62623491
   0.53542398  0.11769237  0.62623491
   0.86875731  0.11769237  0.62623491
   0.20209064  0.61769237  0.62623491
   0.53542398  0.61769237  0.62623491
   0.86875731  0.61769237  0.62623491
   0.03542751  0.37011947  0.12029448
   0.36876084  0.37011947  0.12029448
   0.70209418  0.37011947  0.12029448
   0.03542751  0.87011947  0.12029448
   0.36876084  0.87011947  0.12029448
   0.70209418  0.87011947  0.12029448
   0.03542751  0.37011947  0.62029448
   0.36876084  0.37011947  0.62029448
   0.70209418  0.37011947  0.62029448
   0.03542751  0.87011947  0.62029448
   0.36876084  0.87011947  0.62029448
   0.70209418  0.87011947  0.62029448
   0.03542751  0.12011947  0.37970552
   0.36876084  0.12011947  0.37970552
   0.70209418  0.12011947  0.37970552
   0.03542751  0.62011947  0.37970552
   0.36876084  0.62011947  0.37970552
   0.70209418  0.62011947  0.37970552
   0.03542751  0.12011947  0.87970552
   0.36876084  0.12011947  0.87970552
   0.70209418  0.12011947  0.87970552
   0.03542751  0.62011947  0.87970552
   0.36876084  0.62011947  0.87970552
   0.70209418  0.62011947  0.87970552
   0.20209387  0.01314448  0.48003463
   0.53542720  0.01225309  0.48003463
   0.86876054  0.01225309  0.48003463
   0.20209387  0.51225309  0.48003463
   0.53542720  0.51225309  0.48003463
   0.86876054  0.51225309  0.48003463
   0.20209387  0.01225309  0.98003463
   0.53542720  0.01225309  0.98003463
   0.86876054  0.01225309  0.98003463
   0.20209387  0.51225309  0.98003463
   0.53542720  0.51225309  0.98003463
   0.86876054  0.51225309  0.98003463
   0.20209387  0.26225309  0.01996537
   0.53542720  0.26225309  0.01996537
   0.86876054  0.26225309  0.01996537
   0.20209387  0.76225309  0.01996537
   0.53542720  0.76225309  0.01996537
   0.86876054  0.76225309  0.01996537
   0.20209387  0.26225309  0.51996537
   0.53542720  0.26225309  0.51996537
   0.86876054  0.26225309  0.51996537
   0.20209387  0.76225309  0.51996537
   0.53542720  0.76225309  0.51996537
   0.86876054  0.76225309  0.51996537
 
 position of ions in cartesian coordinates  (Angst):
   0.43552787  4.06770226  3.99103128
   4.34743695  4.04855464  3.99103128
   8.25934603  4.02940702  3.99103128
   0.46293181  9.67686971  3.99103128
   4.37484089  9.65772209  3.99103128
   8.28674997  9.63857447  3.99103128
   0.43552787  4.06770226  9.58884133
   4.34743695  4.04855464  9.58884133
   8.25934603  4.02940702  9.58884133
   0.46293181  9.67686971  9.58884133
   4.37484089  9.65772209  9.58884133
   8.28674997  9.63857447  9.58884133
   0.42182590  1.26311853  1.60677877
   4.33373498  1.24397091  1.60677877
   8.24564406  1.22482329  1.60677877
   0.44922984  6.87228598  1.60677877
   4.36113892  6.85313836  1.60677877
   8.27304800  6.83399074  1.60677877
   0.42182590  1.26311853  7.20458882
   4.33373498  1.24397091  7.20458882
   8.24564406  1.22482329  7.20458882
   0.44922984  6.87228598  7.20458882
   4.36113892  6.85313836  7.20458882
   8.27304800  6.83399074  7.20458882
   2.38372877  2.44498882  3.05038272
   6.29563785  2.42584120  3.05038272
  10.20754693  2.40669358  3.05038272
   2.41113271  8.05415627  3.05038272
   6.32304179  8.03500865  3.05038272
  10.23495087  8.01586103  3.05038272
   2.38372877  2.44498882  8.64819277
   6.29563785  2.42584120  8.64819277
  10.20754693  2.40669358  8.64819277
   2.41113271  8.05415627  8.64819277
   6.32304179  8.03500865  8.64819277
  10.23495087  8.01586103  8.64819277
   2.39743074  5.24957254  2.54742733
   6.30933982  5.23042492  2.54742733
  10.22124890  5.21127730  2.54742733
   2.42483468 10.85873999  2.54742733
   6.33674376 10.83959237  2.54742733
  10.24865284 10.82044475  2.54742733
   2.39743074  5.24957254  8.14523738
   6.30933982  5.23042492  8.14523738
  10.22124890  5.21127730  8.14523738
   2.42483468 10.85873999  8.14523738
   6.33674376 10.83959237  8.14523738
  10.24865284 10.82044475  8.14523738
   2.39183311  4.11328754  4.18453195
   6.30374219  4.09413992  4.18453195
  10.21565127  4.07499230  4.18453195
   2.41923705  9.72245499  4.18453195
   6.33114613  9.70330737  4.18453195
  10.24305521  9.68415975  4.18453195
   2.39183311  4.11328754  9.78234200
   6.30374219  4.09413992  9.78234200
  10.21565127  4.07499230  9.78234200
   2.41923705  9.72245499  9.78234200
   6.33114613  9.70330737  9.78234200
  10.24305521  9.68415975  9.78234200
   2.37813114  1.30870381  1.41327810
   6.29004022  1.28955619  1.41327810
  10.20194930  1.27040857  1.41327810
   2.40553508  6.91787126  1.41327810
   6.31744416  6.89872364  1.41327810
  10.22935324  6.87957602  1.41327810
   2.37813114  1.30870381  7.01108815
   6.29004022  1.28955619  7.01108815
  10.20194930  1.27040857  7.01108815
   2.40553508  6.91787126  7.01108815
   6.31744416  6.89872364  7.01108815
  10.22935324  6.87957602  7.01108815
   0.43605306  4.15008905  1.34677124
   4.34796214  4.13094143  1.34677124
   8.25987122  4.11179381  1.34677124
   0.46345700  9.75925650  1.34677124
   4.37536608  9.74010888  1.34677124
   8.28727516  9.72096126  1.34677124
   0.43605306  4.15008905  6.94458129
   4.34796214  4.13094143  6.94458129
   8.25987122  4.11179381  6.94458129
   0.46345700  9.75925650  6.94458129
   4.37536608  9.74010888  6.94458129
   8.28727516  9.72096126  6.94458129
   0.42235109  1.34550533  4.25103881
   4.33426017  1.32635771  4.25103881
   8.24616925  1.30721009  4.25103881
   0.44975503  6.95467278  4.25103881
   4.36166411  6.93552516  4.25103881
   8.27357319  6.91637754  4.25103881
   0.42235109  1.34550533  9.84884886
   4.33426017  1.32635771  9.84884886
   8.24616925  1.30721009  9.84884886
   0.44975503  6.95467278  9.84884886
   4.36166411  6.93552516  9.84884886
   8.27357319  6.91637754  9.84884886
   2.37243896  0.13585030  5.37428530
   6.28429918  0.10670280  5.37428530
  10.19620826  0.08755518  5.37428530
   2.39979404  5.73501787  5.37428530
   6.31170312  5.71587025  5.37428530
  10.22361220  5.69672263  5.37428530
   2.37239010  0.12585042 10.97209535
   6.28429918  0.10670280 10.97209535
  10.19620826  0.08755518 10.97209535
   2.39979404  5.73501787 10.97209535
   6.31170312  5.71587025 10.97209535
  10.22361220  5.69672263 10.97209535
   2.38609207  2.93043414  0.22352475
   6.29800115  2.91128652  0.22352475
  10.20991023  2.89213890  0.22352475
   2.41349601  8.53960159  0.22352475
   6.32540509  8.52045397  0.22352475
  10.23731417  8.50130635  0.22352475
   2.38609207  2.93043414  5.82133480
   6.29800115  2.91128652  5.82133480
  10.20991023  2.89213890  5.82133480
   2.41349601  8.53960159  5.82133480
   6.32540509  8.52045397  5.82133480
  10.23731417  8.50130635  5.82133480
 


--------------------------------------------------------------------------------------------------------


 k-point  1 :   0.0000 0.0000 0.0000  plane waves:   55469
 k-point  2 :   0.3333 0.0000 0.0000  plane waves:   55443
 k-point  3 :   0.0000 0.3333 0.0000  plane waves:   55474
 k-point  4 :   0.3333 0.3333 0.0000  plane waves:   55456
 k-point  5 :  -0.3333 0.3333 0.0000  plane waves:   55456
 k-point  6 :   0.0000 0.0000 0.3333  plane waves:   55522
 k-point  7 :   0.3333 0.0000 0.3333  plane waves:   55468
 k-point  8 :  -0.3333 0.0000 0.3333  plane waves:   55468
 k-point  9 :   0.0000 0.3333 0.3333  plane waves:   55433
 k-point 10 :   0.3333 0.3333 0.3333  plane waves:   55444
 k-point 11 :  -0.3333 0.3333 0.3333  plane waves:   55444
 k-point 12 :  -0.0000-0.3333 0.3333  plane waves:   55433
 k-point 13 :   0.3333-0.3333 0.3333  plane waves:   55444
 k-point 14 :  -0.3333-0.3333 0.3333  plane waves:   55444

 maximum and minimum number of plane-waves per node :      9314     9185

 maximum number of plane-waves:     55522
 maximum index in each direction: 
   IXMAX=   24   IYMAX=   23   IZMAX=   23
   IXMIN=  -24   IYMIN=  -23   IZMIN=  -23


 parallel 3D FFT for wavefunctions:
    minimum data exchange during FFTs selected (reduces bandwidth)
 parallel 3D FFT for charge:
    minimum data exchange during FFTs selected (reduces bandwidth)


 total amount of memory used by VASP MPI-rank0   801761. kBytes
=======================================================================

   base      :      30000. kBytes
   nonl-proj :      92491. kBytes
   fftplans  :      50318. kBytes
   grid      :      44712. kBytes
   one-center:        622. kBytes
   wavefun   :     583618. kBytes
 
     INWAV:  cpu time    0.0000: real time    0.0000
 Broyden mixing: mesh for mixing (old mesh)
   NGX = 49   NGY = 47   NGZ = 47
  (NGX  =196   NGY  =192   NGZ  =192)
  gives a total of 108241 points

 initial charge density was supplied:
 number of electron     768.0000015 magnetization      96.0009074
 keeping initial charge density in first step


--------------------------------------------------------------------------------------------------------


 Maximum index for augmentation-charges         7847 (set IRDMAX)


--------------------------------------------------------------------------------------------------------


 First call to EWALD:  gamma=   0.156
 Maximum number of real-space cells 3x 3x 3
 Maximum number of reciprocal cells 3x 3x 3

    FEWALD:  cpu time    0.0375: real time    0.0387


--------------------------------------- Iteration      1(   1)  ---------------------------------------


    POTLOK:  cpu time    0.4869: real time    0.8938
    SETDIJ:  cpu time    1.0672: real time    1.0679
     EDDAV:  cpu time  219.5325: real time  221.6740
       DOS:  cpu time    0.0049: real time    0.0050
    --------------------------------------------
      LOOP:  cpu time  221.0915: real time  223.6406

 eigenvalue-minimisations  : 32400
 total energy-change (2. order) : 0.1004329E+05  (-0.4138223E+05)
 number of electron     768.0000015 magnetization      96.0009074
 augmentation part      768.0000015 magnetization      96.0009074

 Free energy of the ion-electron system (eV)
  ---------------------------------------------------
  alpha Z        PSCENC =      1915.67052055
  Ewald energy   TEWEN  =    -48532.38809518
  -Hartree energ DENC   =    -28983.18855461
  -exchange      EXHF   =         0.00000000
  -V(xc)+E(xc)   XCENC  =      3297.26715160
  PAW double counting   =     81710.32686745   -84426.12035439
  entropy T*S    EENTRO =        -0.01897041
  eigenvalues    EBANDS =      -670.22300249
  atomic energy  EATOM  =     85731.96378919
  Solvation  Ediel_sol  =         0.00000000
  ---------------------------------------------------
  free energy    TOTEN  =     10043.28935173 eV

  energy without entropy =    10043.30832214  energy(sigma->0) =    10043.29883693


--------------------------------------------------------------------------------------------------------




--------------------------------------- Iteration      1(   2)  ---------------------------------------


     EDDAV:  cpu time  214.4541: real time  216.5091
       DOS:  cpu time    0.0053: real time    0.0053
    --------------------------------------------
      LOOP:  cpu time  214.4594: real time  216.5144

 eigenvalue-minimisations  : 30912
 total energy-change (2. order) :-0.9006191E+04  (-0.8363355E+04)
 number of electron     768.0000015 magnetization      96.0009074
 augmentation part      768.0000015 magnetization      96.0009074

 Free energy of the ion-electron system (eV)
  ---------------------------------------------------
  alpha Z        PSCENC =      1915.67052055
  Ewald energy   TEWEN  =    -48532.38809518
  -Hartree energ DENC   =    -28983.18855461
  -exchange      EXHF   =         0.00000000
  -V(xc)+E(xc)   XCENC  =      3297.26715160
  PAW double counting   =     81710.32686745   -84426.12035439
  entropy T*S    EENTRO =        -0.05272635
  eigenvalues    EBANDS =     -9676.38072762
  atomic energy  EATOM  =     85731.96378919
  Solvation  Ediel_sol  =         0.00000000
  ---------------------------------------------------
  free energy    TOTEN  =      1037.09787066 eV

  energy without entropy =     1037.15059701  energy(sigma->0) =     1037.12423384


--------------------------------------------------------------------------------------------------------




--------------------------------------- Iteration      1(   3)  ---------------------------------------


     EDDAV:  cpu time  234.8149: real time  236.9449
       DOS:  cpu time    0.0020: real time    0.0020
    --------------------------------------------
      LOOP:  cpu time  234.8169: real time  236.9469

 eigenvalue-minimisations  : 34720
 total energy-change (2. order) :-0.1436956E+04  (-0.1296266E+04)
 number of electron     768.0000015 magnetization      96.0009074
 augmentation part      768.0000015 magnetization      96.0009074

 Free energy of the ion-electron system (eV)
  ---------------------------------------------------
  alpha Z        PSCENC =      1915.67052055
  Ewald energy   TEWEN  =    -48532.38809518
  -Hartree energ DENC   =    -28983.18855461
  -exchange      EXHF   =         0.00000000
  -V(xc)+E(xc)   XCENC  =      3297.26715160
  PAW double counting   =     81710.32686745   -84426.12035439
  entropy T*S    EENTRO =        -0.00000000
  eigenvalues    EBANDS =    -11113.38954284
  atomic energy  EATOM  =     85731.96378919
  Solvation  Ediel_sol  =         0.00000000
  ---------------------------------------------------
  free energy    TOTEN  =      -399.85821822 eV

  energy without entropy =     -399.85821822  energy(sigma->0) =     -399.85821822


--------------------------------------------------------------------------------------------------------




--------------------------------------- Iteration      1(   4)  ---------------------------------------


     EDDAV:  cpu time  266.1482: real time  268.6725
       DOS:  cpu time    0.0022: real time    0.0022
    --------------------------------------------
      LOOP:  cpu time  266.1504: real time  268.6748

 eigenvalue-minimisations  : 41024
 total energy-change (2. order) :-0.1904241E+03  (-0.1882701E+03)
 number of electron     768.0000015 magnetization      96.0009074
 augmentation part      768.0000015 magnetization      96.0009074

 Free energy of the ion-electron system (eV)
  ---------------------------------------------------
  alpha Z        PSCENC =      1915.67052055
  Ewald energy   TEWEN  =    -48532.38809518
  -Hartree energ DENC   =    -28983.18855461
  -exchange      EXHF   =         0.00000000
  -V(xc)+E(xc)   XCENC  =      3297.26715160
  PAW double counting   =     81710.32686745   -84426.12035439
  entropy T*S    EENTRO =        -0.00000000
  eigenvalues    EBANDS =    -11303.81362936
  atomic energy  EATOM  =     85731.96378919
  Solvation  Ediel_sol  =         0.00000000
  ---------------------------------------------------
  free energy    TOTEN  =      -590.28230473 eV

  energy without entropy =     -590.28230473  energy(sigma->0) =     -590.28230473


--------------------------------------------------------------------------------------------------------




--------------------------------------- Iteration      1(   5)  ---------------------------------------


     EDDAV:  cpu time  335.9245: real time  339.0957
       DOS:  cpu time    0.0020: real time    0.0020
    CHARGE:  cpu time    5.5999: real time    5.6310
    MIXING:  cpu time    0.0207: real time    0.0255
    --------------------------------------------
      LOOP:  cpu time  341.5471: real time  344.7542

 eigenvalue-minimisations  : 54448
 total energy-change (2. order) :-0.2514884E+02  (-0.2491141E+02)
 number of electron     768.0000015 magnetization      96.0005841
 augmentation part      246.8485012 magnetization      62.9080739

 Broyden mixing:
  rms(total) = 0.28756E+00    rms(broyden)= 0.28741E+00
  rms(prec ) = 0.29175E+00
  weight for this iteration     100.00

 Free energy of the ion-electron system (eV)
  ---------------------------------------------------
  alpha Z        PSCENC =      1915.67052055
  Ewald energy   TEWEN  =    -48532.38809518
  -Hartree energ DENC   =    -28983.18855461
  -exchange      EXHF   =         0.00000000
  -V(xc)+E(xc)   XCENC  =      3297.26715160
  PAW double counting   =     81710.32686745   -84426.12035439
  entropy T*S    EENTRO =        -0.00000000
  eigenvalues    EBANDS =    -11328.96246853
  atomic energy  EATOM  =     85731.96378919
  Solvation  Ediel_sol  =         0.00000000
  ---------------------------------------------------
  free energy    TOTEN  =      -615.43114390 eV

  energy without entropy =     -615.43114390  energy(sigma->0) =     -615.43114390


--------------------------------------------------------------------------------------------------------




--------------------------------------- Iteration      1(   6)  ---------------------------------------


    POTLOK:  cpu time    0.4830: real time    0.4848
    SETDIJ:  cpu time    1.4567: real time    1.4572
     EDDAV:  cpu time  272.9573: real time  275.6787
       DOS:  cpu time    0.0022: real time    0.0022
    CHARGE:  cpu time    5.5774: real time    5.6603
    MIXING:  cpu time    0.0324: real time    0.0399
    --------------------------------------------
      LOOP:  cpu time  280.5091: real time  283.3232

 eigenvalue-minimisations  : 42408
 total energy-change (2. order) :-0.9546442E+00  (-0.9805679E+00)
 number of electron     768.0000015 magnetization      96.0004370
 augmentation part      245.7247675 magnetization      63.0617651

 Broyden mixing:
  rms(total) = 0.12453E+00    rms(broyden)= 0.12439E+00
  rms(prec ) = 0.12602E+00
  weight for this iteration     100.00

 eigenvalues of (default mixing * dielectric matrix)
  average eigenvalue GAMMA=   0.6705
  0.6705

 Free energy of the ion-electron system (eV)
  ---------------------------------------------------
  alpha Z        PSCENC =      1915.67052055
  Ewald energy   TEWEN  =    -48532.38809518
  -Hartree energ DENC   =    -28977.05263161
  -exchange      EXHF   =         0.00000000
  -V(xc)+E(xc)   XCENC  =      3296.38509645
  PAW double counting   =     81548.74739316   -84260.62761285
  entropy T*S    EENTRO =        -0.00000000
  eigenvalues    EBANDS =    -11339.08424781
  atomic energy  EATOM  =     85731.96378919
  Solvation  Ediel_sol  =         0.00000000
  ---------------------------------------------------
  free energy    TOTEN  =      -616.38578811 eV

  energy without entropy =     -616.38578811  energy(sigma->0) =     -616.38578811


--------------------------------------------------------------------------------------------------------




--------------------------------------- Iteration      1(   7)  ---------------------------------------


    POTLOK:  cpu time    0.5203: real time    0.5408
    SETDIJ:  cpu time    1.4102: real time    1.4713
     EDDAV:  cpu time  309.2840: real time  312.3680
       DOS:  cpu time    0.0021: real time    0.0021
    CHARGE:  cpu time    5.6343: real time    5.6837
    MIXING:  cpu time    0.0221: real time    0.0304
    --------------------------------------------
      LOOP:  cpu time  316.8730: real time  320.0962

 eigenvalue-minimisations  : 49144
 total energy-change (2. order) :-0.4923074E-01  (-0.4831963E-01)
 number of electron     768.0000015 magnetization      96.0003806
 augmentation part      245.5252535 magnetization      63.0175610

 Broyden mixing:
  rms(total) = 0.84714E-01    rms(broyden)= 0.84659E-01
  rms(prec ) = 0.86394E-01
  weight for this iteration     100.00

 eigenvalues of (default mixing * dielectric matrix)
  average eigenvalue GAMMA=   0.5733
  0.5733  0.5733

 Free energy of the ion-electron system (eV)
  ---------------------------------------------------
  alpha Z        PSCENC =      1915.67052055
  Ewald energy   TEWEN  =    -48532.38809518
  -Hartree energ DENC   =    -28979.01751911
  -exchange      EXHF   =         0.00000000
  -V(xc)+E(xc)   XCENC  =      3296.64026173
  PAW double counting   =     81588.68979347   -84301.50801152
  entropy T*S    EENTRO =        -0.00000000
  eigenvalues    EBANDS =    -11336.48575797
  atomic energy  EATOM  =     85731.96378919
  Solvation  Ediel_sol  =         0.00000000
  ---------------------------------------------------
  free energy    TOTEN  =      -616.43501884 eV

  energy without entropy =     -616.43501884  energy(sigma->0) =     -616.43501884


--------------------------------------------------------------------------------------------------------




--------------------------------------- Iteration      1(   8)  ---------------------------------------


    POTLOK:  cpu time    0.5047: real time    0.5172
    SETDIJ:  cpu time    1.4243: real time    1.4446
     EDDAV:  cpu time  300.9023: real time  304.0012
       DOS:  cpu time    0.0022: real time    0.0022
    CHARGE:  cpu time    5.5312: real time    5.6896
    MIXING:  cpu time    0.0354: real time    0.0420
    --------------------------------------------
      LOOP:  cpu time  308.4001: real time  311.6970

 eigenvalue-minimisations  : 47608
 total energy-change (2. order) :-0.2668084E-03  (-0.1815430E-02)
 number of electron     768.0000015 magnetization      96.0003502
 augmentation part      245.4879277 magnetization      63.0149172

 Broyden mixing:
  rms(total) = 0.73622E-01    rms(broyden)= 0.73617E-01
  rms(prec ) = 0.75192E-01
  weight for this iteration     100.00

 eigenvalues of (default mixing * dielectric matrix)
  average eigenvalue GAMMA=   0.5081
  0.5646  0.5646  0.3950

 Free energy of the ion-electron system (eV)
  ---------------------------------------------------
  alpha Z        PSCENC =      1915.67052055
  Ewald energy   TEWEN  =    -48532.38809518
  -Hartree energ DENC   =    -28979.75869885
  -exchange      EXHF   =         0.00000000
  -V(xc)+E(xc)   XCENC  =      3296.74137124
  PAW double counting   =     81609.04026017   -84322.39777754
  entropy T*S    EENTRO =        -0.00000000
  eigenvalues    EBANDS =    -11335.30665524
  atomic energy  EATOM  =     85731.96378919
  Solvation  Ediel_sol  =         0.00000000
  ---------------------------------------------------
  free energy    TOTEN  =      -616.43528565 eV

  energy without entropy =     -616.43528565  energy(sigma->0) =     -616.43528565


--------------------------------------------------------------------------------------------------------




--------------------------------------- Iteration      1(   9)  ---------------------------------------


    POTLOK:  cpu time    0.4828: real time    0.4850
    SETDIJ:  cpu time    1.5053: real time    1.5103
     EDDAV:  cpu time  310.3158: real time  313.3712
       DOS:  cpu time    0.0022: real time    0.0022
    CHARGE:  cpu time    5.6938: real time    5.7080
    MIXING:  cpu time    0.0178: real time    0.0273
    --------------------------------------------
      LOOP:  cpu time  318.0177: real time  321.1041

 eigenvalue-minimisations  : 49448
 total energy-change (2. order) : 0.7493570E-03  (-0.1051881E-03)
 number of electron     768.0000015 magnetization      96.0001958
 augmentation part      245.4932263 magnetization      63.0122029

 Broyden mixing:
  rms(total) = 0.66241E-01    rms(broyden)= 0.66241E-01
  rms(prec ) = 0.67630E-01
  weight for this iteration     100.00

 eigenvalues of (default mixing * dielectric matrix)
  average eigenvalue GAMMA=   0.9089
  1.2630  1.2630  0.5548  0.5548

 Free energy of the ion-electron system (eV)
  ---------------------------------------------------
  alpha Z        PSCENC =      1915.67052055
  Ewald energy   TEWEN  =    -48532.38809518
  -Hartree energ DENC   =    -28979.98785679
  -exchange      EXHF   =         0.00000000
  -V(xc)+E(xc)   XCENC  =      3296.79452880
  PAW double counting   =     81617.70420392   -84331.32118813
  entropy T*S    EENTRO =        -0.00000000
  eigenvalues    EBANDS =    -11334.87043867
  atomic energy  EATOM  =     85731.96378919
  Solvation  Ediel_sol  =         0.00000000
  ---------------------------------------------------
  free energy    TOTEN  =      -616.43453629 eV

  energy without entropy =     -616.43453629  energy(sigma->0) =     -616.43453629


--------------------------------------------------------------------------------------------------------




--------------------------------------- Iteration      1(  10)  ---------------------------------------


    POTLOK:  cpu time    0.5039: real time    0.5142
    SETDIJ:  cpu time    1.3838: real time    1.4277
     EDDAV:  cpu time  339.3224: real time  342.6655
       DOS:  cpu time    0.0024: real time    0.0024
    CHARGE:  cpu time    5.5572: real time    5.6789
    MIXING:  cpu time    0.0260: real time    0.0310
    --------------------------------------------
      LOOP:  cpu time  346.7958: real time  350.3197

 eigenvalue-minimisations  : 54792
 total energy-change (2. order) : 0.2320095E-02  (-0.1518746E-03)
 number of electron     768.0000015 magnetization      96.0000595
 augmentation part      245.5190129 magnetization      63.0118539

 Broyden mixing:
  rms(total) = 0.32041E-01    rms(broyden)= 0.32040E-01
  rms(prec ) = 0.32472E-01
  weight for this iteration     100.00

 eigenvalues of (default mixing * dielectric matrix)
  average eigenvalue GAMMA=   0.9462
  1.5134  1.5134  0.6010  0.6010  0.5023

 Free energy of the ion-electron system (eV)
  ---------------------------------------------------
  alpha Z        PSCENC =      1915.67052055
  Ewald energy   TEWEN  =    -48532.38809518
  -Hartree energ DENC   =    -28981.77543888
  -exchange      EXHF   =         0.00000000
  -V(xc)+E(xc)   XCENC  =      3297.08386267
  PAW double counting   =     81660.51694634   -84375.41838550
  entropy T*S    EENTRO =        -0.00000000
  eigenvalues    EBANDS =    -11332.08541540
  atomic energy  EATOM  =     85731.96378919
  Solvation  Ediel_sol  =         0.00000000
  ---------------------------------------------------
  free energy    TOTEN  =      -616.43221620 eV

  energy without entropy =     -616.43221620  energy(sigma->0) =     -616.43221620


--------------------------------------------------------------------------------------------------------




--------------------------------------- Iteration      1(  11)  ---------------------------------------


    POTLOK:  cpu time    0.4901: real time    0.5035
    SETDIJ:  cpu time    1.4111: real time    1.4625
     EDDAV:  cpu time  317.9806: real time  320.9094
       DOS:  cpu time    0.0021: real time    0.0021
    CHARGE:  cpu time    5.7345: real time    5.7370
    MIXING:  cpu time    0.0228: real time    0.0272
    --------------------------------------------
      LOOP:  cpu time  325.6413: real time  328.6419

 eigenvalue-minimisations  : 50352
 total energy-change (2. order) : 0.2706705E-03  (-0.2074457E-03)
 number of electron     768.0000015 magnetization      96.0000338
 augmentation part      245.5458415 magnetization      63.0100839

 Broyden mixing:
  rms(total) = 0.89047E-02    rms(broyden)= 0.89000E-02
  rms(prec ) = 0.91275E-02
  weight for this iteration     100.00

 eigenvalues of (default mixing * dielectric matrix)
  average eigenvalue GAMMA=   0.9554
  2.0486  1.1472  0.6992  0.6992  0.6062  0.5320

 Free energy of the ion-electron system (eV)
  ---------------------------------------------------
  alpha Z        PSCENC =      1915.67052055
  Ewald energy   TEWEN  =    -48532.38809518
  -Hartree energ DENC   =    -28983.31130849
  -exchange      EXHF   =         0.00000000
  -V(xc)+E(xc)   XCENC  =      3297.30710014
  PAW double counting   =     81698.34637248   -84414.28521722
  entropy T*S    EENTRO =        -0.00000000
  eigenvalues    EBANDS =    -11329.73510700
  atomic energy  EATOM  =     85731.96378919
  Solvation  Ediel_sol  =         0.00000000
  ---------------------------------------------------
  free energy    TOTEN  =      -616.43194553 eV

  energy without entropy =     -616.43194553  energy(sigma->0) =     -616.43194553


--------------------------------------------------------------------------------------------------------




--------------------------------------- Iteration      1(  12)  ---------------------------------------


    POTLOK:  cpu time    0.4808: real time    0.4833
    SETDIJ:  cpu time    1.4625: real time    1.4628
     EDDAV:  cpu time  284.8097: real time  290.5943
       DOS:  cpu time    0.0022: real time    0.0022
    CHARGE:  cpu time    5.6584: real time    5.7191
    MIXING:  cpu time    0.0283: real time    0.0351
    --------------------------------------------
      LOOP:  cpu time  292.4418: real time  298.2968

 eigenvalue-minimisations  : 45440
 total energy-change (2. order) :-0.4420396E-04  (-0.2758922E-04)
 number of electron     768.0000015 magnetization      96.0000236
 augmentation part      245.5497020 magnetization      63.0104474

 Broyden mixing:
  rms(total) = 0.79439E-02    rms(broyden)= 0.79423E-02
  rms(prec ) = 0.83090E-02
  weight for this iteration     100.00

 eigenvalues of (default mixing * dielectric matrix)
  average eigenvalue GAMMA=   1.0189
  2.3042  1.0605  1.0605  1.0368  0.5695  0.5695  0.5314

 Free energy of the ion-electron system (eV)
  ---------------------------------------------------
  alpha Z        PSCENC =      1915.67052055
  Ewald energy   TEWEN  =    -48532.38809518
  -Hartree energ DENC   =    -28983.41444565
  -exchange      EXHF   =         0.00000000
  -V(xc)+E(xc)   XCENC  =      3297.32131138
  PAW double counting   =     81704.87404541   -84420.87744111
  entropy T*S    EENTRO =        -0.00000000
  eigenvalues    EBANDS =    -11329.58167434
  atomic energy  EATOM  =     85731.96378919
  Solvation  Ediel_sol  =         0.00000000
  ---------------------------------------------------
  free energy    TOTEN  =      -616.43198973 eV

  energy without entropy =     -616.43198973  energy(sigma->0) =     -616.43198973


--------------------------------------------------------------------------------------------------------




--------------------------------------- Iteration      1(  13)  ---------------------------------------


    POTLOK:  cpu time    0.5024: real time    0.5077
    SETDIJ:  cpu time    1.4147: real time    1.4733
     EDDAV:  cpu time  242.1715: real time  246.5720
       DOS:  cpu time    0.0020: real time    0.0022
    CHARGE:  cpu time    5.5761: real time    5.6622
    MIXING:  cpu time    0.0224: real time    0.0284
    --------------------------------------------
      LOOP:  cpu time  249.6892: real time  254.2458

 eigenvalue-minimisations  : 37024
 total energy-change (2. order) : 0.2242520E-04  (-0.1108108E-05)
 number of electron     768.0000015 magnetization      96.0000042
 augmentation part      245.5506372 magnetization      63.0103749

 Broyden mixing:
  rms(total) = 0.58605E-02    rms(broyden)= 0.58589E-02
  rms(prec ) = 0.61773E-02
  weight for this iteration     100.00

 eigenvalues of (default mixing * dielectric matrix)
  average eigenvalue GAMMA=   1.1408
  2.5155  1.4840  1.4840  1.1056  0.7226  0.7226  0.5200  0.5723

 Free energy of the ion-electron system (eV)
  ---------------------------------------------------
  alpha Z        PSCENC =      1915.67052055
  Ewald energy   TEWEN  =    -48532.38809518
  -Hartree energ DENC   =    -28983.30242677
  -exchange      EXHF   =         0.00000000
  -V(xc)+E(xc)   XCENC  =      3297.30333690
  PAW double counting   =     81706.98510271   -84422.91216568
  entropy T*S    EENTRO =        -0.00000000
  eigenvalues    EBANDS =    -11329.75202904
  atomic energy  EATOM  =     85731.96378919
  Solvation  Ediel_sol  =         0.00000000
  ---------------------------------------------------
  free energy    TOTEN  =      -616.43196731 eV

  energy without entropy =     -616.43196731  energy(sigma->0) =     -616.43196731


--------------------------------------------------------------------------------------------------------




--------------------------------------- Iteration      1(  14)  ---------------------------------------


    POTLOK:  cpu time    0.4790: real time    0.4884
    SETDIJ:  cpu time    1.4302: real time    1.4616
     EDDAV:  cpu time  279.9917: real time  285.8076
       DOS:  cpu time    0.0021: real time    0.0025
    CHARGE:  cpu time    5.5010: real time    5.6815
    MIXING:  cpu time    0.0340: real time    0.0417
    --------------------------------------------
      LOOP:  cpu time  287.4379: real time  293.4833

 eigenvalue-minimisations  : 44504
 total energy-change (2. order) : 0.1507568E-04  (-0.4774946E-05)
 number of electron     768.0000015 magnetization      96.0000021
 augmentation part      245.5467440 magnetization      63.0104071

 Broyden mixing:
  rms(total) = 0.10313E-02    rms(broyden)= 0.10219E-02
  rms(prec ) = 0.11331E-02
  weight for this iteration     100.00

 eigenvalues of (default mixing * dielectric matrix)
  average eigenvalue GAMMA=   1.1114
  2.5990  1.5082  1.5082  0.8651  0.8651  0.8887  0.5223  0.6230  0.6230

 Free energy of the ion-electron system (eV)
  ---------------------------------------------------
  alpha Z        PSCENC =      1915.67052055
  Ewald energy   TEWEN  =    -48532.38809518
  -Hartree energ DENC   =    -28983.10380704
  -exchange      EXHF   =         0.00000000
  -V(xc)+E(xc)   XCENC  =      3297.25681540
  PAW double counting   =     81710.67881816   -84426.40751461
  entropy T*S    EENTRO =        -0.00000000
  eigenvalues    EBANDS =    -11330.10247870
  atomic energy  EATOM  =     85731.96378919
  Solvation  Ediel_sol  =         0.00000000
  ---------------------------------------------------
  free energy    TOTEN  =      -616.43195223 eV

  energy without entropy =     -616.43195223  energy(sigma->0) =     -616.43195223


--------------------------------------------------------------------------------------------------------




--------------------------------------- Iteration      1(  15)  ---------------------------------------


    POTLOK:  cpu time    0.5071: real time    0.5146
    SETDIJ:  cpu time    1.4667: real time    1.4694
     EDDAV:  cpu time  250.7930: real time  255.8589
       DOS:  cpu time    0.0022: real time    0.0023
    CHARGE:  cpu time    5.5469: real time    5.6408
    MIXING:  cpu time    0.0239: real time    0.0285
    --------------------------------------------
      LOOP:  cpu time  258.3398: real time  263.5145

 eigenvalue-minimisations  : 38536
 total energy-change (2. order) :-0.3862297E-05  (-0.4862137E-05)
 number of electron     768.0000015 magnetization      96.0000017
 augmentation part      245.5429512 magnetization      63.0104891

 Broyden mixing:
  rms(total) = 0.65529E-03    rms(broyden)= 0.64065E-03
  rms(prec ) = 0.67949E-03
  weight for this iteration     100.00

 eigenvalues of (default mixing * dielectric matrix)
  average eigenvalue GAMMA=   1.0818
  2.7500  1.5348  1.5348  0.9125  0.9125  0.8325  0.6356  0.6356  0.5149  0.5551

 Free energy of the ion-electron system (eV)
  ---------------------------------------------------
  alpha Z        PSCENC =      1915.67052055
  Ewald energy   TEWEN  =    -48532.38809518
  -Hartree energ DENC   =    -28983.18070141
  -exchange      EXHF   =         0.00000000
  -V(xc)+E(xc)   XCENC  =      3297.26289078
  PAW double counting   =     81710.98591745   -84426.74607710
  entropy T*S    EENTRO =        -0.00000000
  eigenvalues    EBANDS =    -11330.00020038
  atomic energy  EATOM  =     85731.96378919
  Solvation  Ediel_sol  =         0.00000000
  ---------------------------------------------------
  free energy    TOTEN  =      -616.43195609 eV

  energy without entropy =     -616.43195609  energy(sigma->0) =     -616.43195609


--------------------------------------------------------------------------------------------------------




--------------------------------------- Iteration      1(  16)  ---------------------------------------


    POTLOK:  cpu time    0.4823: real time    0.4827
    SETDIJ:  cpu time    1.4598: real time    1.4642
     EDDAV:  cpu time  188.6320: real time  192.0425
       DOS:  cpu time    0.0019: real time    0.0019
    --------------------------------------------
      LOOP:  cpu time  190.5760: real time  193.9912

 eigenvalue-minimisations  : 26800
 total energy-change (2. order) : 0.6536720E-07  (-0.1991105E-06)
 number of electron     768.0000015 magnetization      96.0000017
 augmentation part      245.5429512 magnetization      63.0104891

 Free energy of the ion-electron system (eV)
  ---------------------------------------------------
  alpha Z        PSCENC =      1915.67052055
  Ewald energy   TEWEN  =    -48532.38809518
  -Hartree energ DENC   =    -28983.18629701
  -exchange      EXHF   =         0.00000000
  -V(xc)+E(xc)   XCENC  =      3297.26436625
  PAW double counting   =     81711.07095453   -84426.84257544
  entropy T*S    EENTRO =        -0.00000000
  eigenvalues    EBANDS =    -11329.98461893
  atomic energy  EATOM  =     85731.96378919
  Solvation  Ediel_sol  =         0.00000000
  ---------------------------------------------------
  free energy    TOTEN  =      -616.43195603 eV

  energy without entropy =     -616.43195603  energy(sigma->0) =     -616.43195603


--------------------------------------------------------------------------------------------------------




 average (electrostatic) potential at core
  the test charge radii are     0.7079  0.7215  0.9698  0.9500
  (the norm of the test charge is              1.0000)
       1 -59.3920       2 -59.3921       3 -59.3914       4 -59.3848       5 -59.3850
       6 -59.3909       7 -59.3914       8 -59.3918       9 -59.3913      10 -59.3897
      11 -59.3899      12 -59.3903      13 -59.3927      14 -59.3923      15 -59.3915
      16 -59.3908      17 -59.3908      18 -59.3910      19 -59.3957      20 -59.3957
      21 -59.3916      22 -59.3900      23 -59.3904      24 -59.3906      25 -59.5968
      26 -59.5952      27 -59.5958      28 -59.5881      29 -59.5934      30 -59.5926
      31 -59.5974      32 -59.5942      33 -59.5937      34 -59.5922      35 -59.5924
      36 -59.5928      37 -59.5940      38 -59.5935      39 -59.5934      40 -59.5892
      41 -59.5939      42 -59.5946      43 -59.5934      44 -59.5943      45 -59.5939
      46 -59.5947      47 -59.5930      48 -59.5928      49 -70.1792      50 -70.1776
      51 -70.1777      52 -70.1576      53 -70.1765      54 -70.1765      55 -70.1776
      56 -70.1774      57 -70.1774      58 -70.1764      59 -70.1762      60 -70.1762
      61 -70.1778      62 -70.1779      63 -70.1779      64 -70.1765      65 -70.1767
      66 -70.1767      67 -70.1918      68 -70.1779      69 -70.1779      70 -70.1753
      71 -70.1763      72 -70.1764      73 -86.0045      74 -86.0045      75 -86.0044
      76 -86.0031      77 -86.0031      78 -86.0038      79 -86.0059      80 -86.0059
      81 -86.0046      82 -85.9992      83 -85.9992      84 -86.0033      85 -86.0094
      86 -86.0094      87 -86.0051      88 -86.0024      89 -86.0024      90 -86.0036
      91 -86.0048      92 -86.0048      93 -86.0043      94 -86.0036      95 -86.0036
      96 -86.0038      97 -79.0586      98 -79.0592      99 -79.0592     100 -79.0582
     101 -79.0582     102 -79.0582     103 -79.0586     104 -79.0586     105 -79.0586
     106 -79.0584     107 -79.0584     108 -79.0584     109 -79.0590     110 -79.0590
     111 -79.0590     112 -79.0579     113 -79.0579     114 -79.0579     115 -79.0658
     116 -79.0598     117 -79.0598     118 -79.0517     119 -79.0571     120 -79.0571
 
 
 
 E-fermi :   4.4106     XC(G=0): -10.1825     alpha+bet :-12.6708


 spin component 1

 k-point     1 :       0.0000    0.0000    0.0000
  band No.  band energies     occupation 
      1     -51.4836      1.00000
      2     -51.4822      1.00000
      3     -51.4821      1.00000
      4     -51.4821      1.00000
      5     -51.4820      1.00000
      6     -51.4820      1.00000
      7     -51.4666      1.00000
      8     -51.4665      1.00000
      9     -51.4665      1.00000
     10     -51.4664      1.00000
     11     -51.4664      1.00000
     12     -51.4664      1.00000
     13     -51.4663      1.00000
     14     -51.4663      1.00000
     15     -51.4663      1.00000
     16     -51.4663      1.00000
     17     -51.4663      1.00000
     18     -51.4660      1.00000
     19     -51.4509      1.00000
     20     -51.4508      1.00000
     21     -51.4508      1.00000
     22     -51.4508      1.00000
     23     -51.4508      1.00000
     24     -51.4494      1.00000
     25     -50.2079      1.00000
     26     -50.2020      1.00000
     27     -50.2016      1.00000
     28     -50.2016      1.00000
     29     -50.2015      1.00000
     30     -50.2008      1.00000
     31     -50.1996      1.00000
     32     -50.1992      1.00000
     33     -50.1988      1.00000
     34     -50.1988      1.00000
     35     -50.1988      1.00000
     36     -50.1988      1.00000
     37     -50.1988      1.00000
     38     -50.1987      1.00000
     39     -50.1986      1.00000
     40     -50.1981      1.00000
     41     -50.1981      1.00000
     42     -50.1981      1.00000
     43     -50.1960      1.00000
     44     -50.1960      1.00000
     45     -50.1958      1.00000
     46     -50.1954      1.00000
     47     -50.1954      1.00000
     48     -50.1916      1.00000
     49     -50.0076      1.00000
     50     -50.0070      1.00000
     51     -50.0069      1.00000
     52     -50.0068      1.00000
     53     -50.0068      1.00000
     54     -50.0068      1.00000
     55     -49.9908      1.00000
     56     -49.9908      1.00000
     57     -49.9906      1.00000
     58     -49.9906      1.00000
     59     -49.9905      1.00000
     60     -49.9905      1.00000
     61     -49.9905      1.00000
     62     -49.9905      1.00000
     63     -49.9905      1.00000
     64     -49.9904      1.00000
     65     -49.9904      1.00000
     66     -49.9893      1.00000
     67     -49.9741      1.00000
     68     -49.9741      1.00000
     69     -49.9740      1.00000
     70     -49.9740      1.00000
     71     -49.9740      1.00000
     72     -49.9725      1.00000
     73     -40.5245      1.00000
     74     -40.5243      1.00000
     75     -40.5220      1.00000
     76     -40.5220      1.00000
     77     -40.5215      1.00000
     78     -40.5212      1.00000
     79     -40.5152      1.00000
     80     -40.5150      1.00000
     81     -40.5148      1.00000
     82     -40.5147      1.00000
     83     -40.5138      1.00000
     84     -40.5135      1.00000
     85     -40.5135      1.00000
     86     -40.5134      1.00000
     87     -40.5131      1.00000
     88     -40.5129      1.00000
     89     -40.5129      1.00000
     90     -40.5108      1.00000
     91     -40.5056      1.00000
     92     -40.5055      1.00000
     93     -40.5053      1.00000
     94     -40.5050      1.00000
     95     -40.5047      1.00000
     96     -40.5022      1.00000
     97     -40.3100      1.00000
     98     -40.3098      1.00000
     99     -40.3070      1.00000
    100     -40.3066      1.00000
    101     -40.3063      1.00000
    102     -40.3061      1.00000
    103     -40.3061      1.00000
    104     -40.3058      1.00000
    105     -40.3057      1.00000
    106     -40.3055      1.00000
    107     -40.3052      1.00000
    108     -40.3052      1.00000
    109     -40.3051      1.00000
    110     -40.3051      1.00000
    111     -40.3050      1.00000
    112     -40.3047      1.00000
    113     -40.3045      1.00000
    114     -40.3043      1.00000
    115     -40.3042      1.00000
    116     -40.3042      1.00000
    117     -40.3040      1.00000
    118     -40.3032      1.00000
    119     -40.2991      1.00000
    120     -40.2987      1.00000
    121     -13.5426      1.00000
    122     -13.5424      1.00000
    123     -13.5121      1.00000
    124     -13.5120      1.00000
    125     -13.5116      1.00000
    126     -13.4890      1.00000
    127     -13.3808      1.00000
    128     -13.3746      1.00000
    129     -13.3743      1.00000
    130     -13.3738      1.00000
    131     -13.3737      1.00000
    132     -13.3732      1.00000
    133     -13.3730      1.00000
    134     -13.3663      1.00000
    135     -13.3424      1.00000
    136     -13.3391      1.00000
    137     -13.3380      1.00000
    138     -13.3328      1.00000
    139     -13.2386      1.00000
    140     -13.2375      1.00000
    141     -13.2019      1.00000
    142     -13.2010      1.00000
    143     -13.1970      1.00000
    144     -13.1646      1.00000
    145      -7.7343      1.00000
    146      -7.6694      1.00000
    147      -7.5831      1.00000
    148      -7.5814      1.00000
    149      -7.5413      1.00000
    150      -7.5395      1.00000
    151      -7.5303      1.00000
    152      -7.5300      1.00000
    153      -7.4083      1.00000
    154      -7.3745      1.00000
    155      -7.3741      1.00000
    156      -7.3528      1.00000
    157      -7.3519      1.00000
    158      -7.3509      1.00000
    159      -7.3503      1.00000
    160      -7.3437      1.00000
    161      -7.3430      1.00000
    162      -7.3420      1.00000
    163      -7.3414      1.00000
    164      -7.3144      1.00000
    165      -7.3143      1.00000
    166      -7.2338      1.00000
    167      -7.1159      1.00000
    168      -7.1158      1.00000
    169      -1.9248      1.00000
    170      -1.9142      1.00000
    171      -1.8860      1.00000
    172      -1.8446      1.00000
    173      -1.8440      1.00000
    174      -1.7993      1.00000
    175      -1.7990      1.00000
    176      -1.7914      1.00000
    177      -1.7912      1.00000
    178      -1.7906      1.00000
    179      -1.7777      1.00000
    180      -1.7774      1.00000
    181      -1.5323      1.00000
    182      -1.5313      1.00000
    183      -1.5151      1.00000
    184      -1.5136      1.00000
    185      -1.4880      1.00000
    186      -1.4876      1.00000
    187      -1.4874      1.00000
    188      -1.4860      1.00000
    189      -1.4738      1.00000
    190      -1.4731      1.00000
    191      -1.4730      1.00000
    192      -1.4708      1.00000
    193      -1.4339      1.00000
    194      -1.4336      1.00000
    195      -1.3244      1.00000
    196      -1.3242      1.00000
    197      -1.2048      1.00000
    198      -1.1835      1.00000
    199      -1.1576      1.00000
    200      -1.1564      1.00000
    201      -1.1557      1.00000
    202      -1.1541      1.00000
    203      -1.0796      1.00000
    204      -1.0792      1.00000
    205      -1.0589      1.00000
    206      -1.0584      1.00000
    207      -1.0575      1.00000
    208      -1.0568      1.00000
    209      -0.9974      1.00000
    210      -0.9971      1.00000
    211      -0.9799      1.00000
    212      -0.9790      1.00000
    213      -0.9384      1.00000
    214      -0.9379      1.00000
    215      -0.9373      1.00000
    216      -0.9368      1.00000
    217      -0.9175      1.00000
    218      -0.9174      1.00000
    219      -0.9171      1.00000
    220      -0.9168      1.00000
    221      -0.9076      1.00000
    222      -0.9072      1.00000
    223      -0.8220      1.00000
    224      -0.8199      1.00000
    225      -0.8187      1.00000
    226      -0.8163      1.00000
    227      -0.6980      1.00000
    228      -0.6678      1.00000
    229      -0.6393      1.00000
    230      -0.6025      1.00000
    231      -0.5698      1.00000
    232      -0.5062      1.00000
    233      -0.5057      1.00000
    234      -0.5057      1.00000
    235      -0.5042      1.00000
    236      -0.5038      1.00000
    237      -0.4618      1.00000
    238      -0.4615      1.00000
    239      -0.4593      1.00000
    240      -0.4590      1.00000
    241      -0.3998      1.00000
    242      -0.3994      1.00000
    243      -0.3987      1.00000
    244      -0.3987      1.00000
    245      -0.3972      1.00000
    246      -0.3965      1.00000
    247      -0.2869      1.00000
    248      -0.2853      1.00000
    249      -0.2825      1.00000
    250      -0.2823      1.00000
    251      -0.2801      1.00000
    252      -0.2788      1.00000
    253      -0.1800      1.00000
    254      -0.1761      1.00000
    255      -0.1461      1.00000
    256      -0.1460      1.00000
    257      -0.1339      1.00000
    258      -0.1330      1.00000
    259      -0.0907      1.00000
    260      -0.0906      1.00000
    261      -0.0028      1.00000
    262       0.0235      1.00000
    263       0.0854      1.00000
    264       0.0859      1.00000
    265       0.0913      1.00000
    266       0.0919      1.00000
    267       0.1635      1.00000
    268       0.2044      1.00000
    269       0.2052      1.00000
    270       0.2134      1.00000
    271       0.2143      1.00000
    272       0.2262      1.00000
    273       0.2273      1.00000
    274       0.2413      1.00000
    275       0.2630      1.00000
    276       0.2637      1.00000
    277       0.2778      1.00000
    278       0.2782      1.00000
    279       0.2790      1.00000
    280       0.2792      1.00000
    281       0.3587      1.00000
    282       0.3733      1.00000
    283       0.3737      1.00000
    284       0.3742      1.00000
    285       0.3742      1.00000
    286       0.4232      1.00000
    287       0.4235      1.00000
    288       0.4867      1.00000
    289       0.5394      1.00000
    290       0.5646      1.00000
    291       0.5648      1.00000
    292       0.6029      1.00000
    293       0.6031      1.00000
    294       0.6392      1.00000
    295       0.6880      1.00000
    296       0.6881      1.00000
    297       0.7931      1.00000
    298       0.7935      1.00000
    299       0.7975      1.00000
    300       0.7980      1.00000
    301       0.8227      1.00000
    302       0.8227      1.00000
    303       0.8232      1.00000
    304       0.8235      1.00000
    305       0.8431      1.00000
    306       0.8753      1.00000
    307       0.8754      1.00000
    308       0.8790      1.00000
    309       0.8798      1.00000
    310       0.9229      1.00000
    311       0.9233      1.00000
    312       0.9239      1.00000
    313       0.9239      1.00000
    314       0.9567      1.00000
    315       1.1226      1.00000
[...]
   0.188E+00 0.306E+02 -.266E+03   -.199E+00 -.320E+02 0.274E+03   0.117E-01 0.140E+01 -.823E+01   -.119E-03 0.249E-03 -.781E-03
   0.166E+00 0.304E+02 -.266E+03   -.175E+00 -.318E+02 0.274E+03   0.896E-02 0.140E+01 -.824E+01   -.916E-05 0.146E-03 -.761E-03
   0.181E+00 0.305E+02 -.266E+03   -.191E+00 -.319E+02 0.274E+03   0.969E-02 0.140E+01 -.824E+01   0.842E-04 0.264E-04 -.830E-03
   0.152E+00 0.305E+02 -.266E+03   -.160E+00 -.319E+02 0.274E+03   0.806E-02 0.140E+01 -.824E+01   -.562E-04 0.105E-03 -.736E-03
   0.166E+00 0.305E+02 -.268E+03   -.175E+00 -.319E+02 0.276E+03   0.894E-02 0.139E+01 -.834E+01   -.157E-04 0.185E-04 -.591E-03
   0.782E-01 0.306E+02 -.266E+03   -.855E-01 -.320E+02 0.274E+03   0.655E-02 0.140E+01 -.824E+01   0.164E-03 0.348E-03 -.886E-03
   0.256E+00 0.306E+02 -.266E+03   -.266E+00 -.320E+02 0.274E+03   0.112E-01 0.140E+01 -.824E+01   -.134E-03 0.328E-03 -.797E-03
   0.165E+00 0.303E+02 -.266E+03   -.174E+00 -.317E+02 0.274E+03   0.897E-02 0.139E+01 -.824E+01   -.864E-04 0.522E-04 -.838E-03
   0.204E+00 0.305E+02 -.266E+03   -.214E+00 -.319E+02 0.274E+03   0.102E-01 0.139E+01 -.824E+01   0.105E-03 0.561E-04 -.761E-03
   0.128E+00 0.305E+02 -.266E+03   -.136E+00 -.319E+02 0.274E+03   0.749E-02 0.139E+01 -.824E+01   -.194E-04 -.162E-04 -.747E-03
   -.947E-01 -.246E+02 -.149E+03   0.976E-01 0.251E+02 0.150E+03   -.291E-02 -.547E+00 -.114E+01   -.226E-04 -.300E-04 -.411E-03
   -.147E+00 -.246E+02 -.149E+03   0.150E+00 0.251E+02 0.150E+03   -.316E-02 -.547E+00 -.114E+01   0.113E-04 -.478E-04 -.450E-03
   -.121E+00 -.245E+02 -.149E+03   0.124E+00 0.251E+02 0.150E+03   -.300E-02 -.546E+00 -.114E+01   0.152E-05 -.296E-04 -.428E-03
   -.164E+00 -.245E+02 -.149E+03   0.168E+00 0.250E+02 0.150E+03   -.516E-02 -.544E+00 -.115E+01   0.629E-04 0.636E-04 -.364E-03
   -.765E-01 -.245E+02 -.149E+03   0.785E-01 0.250E+02 0.150E+03   -.957E-03 -.544E+00 -.115E+01   -.100E-03 0.472E-04 -.348E-03
   -.121E+00 -.245E+02 -.149E+03   0.123E+00 0.250E+02 0.150E+03   -.294E-02 -.545E+00 -.114E+01   0.207E-04 0.712E-04 -.430E-03
   -.234E-01 -.247E+02 -.149E+03   0.250E-01 0.253E+02 0.150E+03   -.327E-03 -.551E+00 -.114E+01   -.574E-04 0.102E-03 -.319E-03
   -.220E+00 -.247E+02 -.149E+03   0.224E+00 0.253E+02 0.150E+03   -.573E-02 -.551E+00 -.114E+01   0.417E-04 0.599E-04 -.332E-03
   -.121E+00 -.246E+02 -.149E+03   0.124E+00 0.251E+02 0.150E+03   -.304E-02 -.547E+00 -.114E+01   0.143E-04 0.212E-04 -.431E-03
   -.593E+00 -.245E+02 -.149E+03   0.604E+00 0.250E+02 0.150E+03   -.143E-01 -.545E+00 -.113E+01   0.109E-03 -.249E-04 -.539E-03
   0.352E+00 -.245E+02 -.149E+03   -.357E+00 0.250E+02 0.150E+03   0.830E-02 -.545E+00 -.113E+01   -.116E-03 -.155E-04 -.601E-03
   -.121E+00 -.245E+02 -.149E+03   0.123E+00 0.250E+02 0.150E+03   -.300E-02 -.544E+00 -.114E+01   0.986E-05 -.745E-04 -.435E-03
   0.647E+00 -.243E+02 0.150E+03   -.654E+00 0.249E+02 -.151E+03   0.316E-02 -.536E+00 0.115E+01   -.577E-04 -.877E-05 0.268E-03
   -.886E+00 -.243E+02 0.150E+03   0.899E+00 0.248E+02 -.151E+03   -.915E-02 -.536E+00 0.115E+01   0.705E-04 0.498E-04 0.230E-03
   -.120E+00 -.245E+02 0.149E+03   0.123E+00 0.250E+02 -.150E+03   -.302E-02 -.545E+00 0.114E+01   -.498E-04 0.808E-04 0.425E-03
   -.200E+00 -.247E+02 0.149E+03   0.204E+00 0.253E+02 -.150E+03   -.582E-02 -.552E+00 0.114E+01   0.313E-04 0.981E-04 0.447E-03
   -.439E-01 -.247E+02 0.149E+03   0.456E-01 0.253E+02 -.150E+03   -.261E-03 -.552E+00 0.114E+01   -.625E-04 0.348E-04 0.476E-03
   -.121E+00 -.246E+02 0.149E+03   0.124E+00 0.251E+02 -.150E+03   -.306E-02 -.546E+00 0.114E+01   0.159E-04 -.830E-05 0.470E-03
   -.944E-01 -.244E+02 0.149E+03   0.967E-01 0.250E+02 -.150E+03   -.147E-02 -.544E+00 0.114E+01   -.686E-04 0.587E-04 0.468E-03
   -.146E+00 -.244E+02 0.149E+03   0.150E+00 0.250E+02 -.150E+03   -.461E-02 -.544E+00 0.114E+01   -.633E-05 0.120E-03 0.487E-03
   -.121E+00 -.245E+02 0.149E+03   0.123E+00 0.250E+02 -.150E+03   -.299E-02 -.545E+00 0.114E+01   0.494E-04 0.798E-04 0.458E-03
   -.137E+00 -.246E+02 0.149E+03   0.140E+00 0.251E+02 -.150E+03   -.318E-02 -.547E+00 0.115E+01   0.125E-04 -.780E-04 0.414E-03
   -.105E+00 -.246E+02 0.149E+03   0.108E+00 0.251E+02 -.150E+03   -.290E-02 -.547E+00 0.115E+01   -.296E-04 -.755E-04 0.415E-03
   -.121E+00 -.245E+02 0.149E+03   0.124E+00 0.251E+02 -.150E+03   -.296E-02 -.546E+00 0.114E+01   0.237E-04 -.135E-04 0.373E-03
   -.369E-01 -.757E+01 0.853E+02   0.422E-01 0.872E+01 -.864E+02   -.585E-02 -.126E+01 0.110E+01   -.450E-04 0.146E-02 -.389E-03
   -.718E-01 -.155E+02 0.822E+02   0.793E-01 0.167E+02 -.834E+02   -.781E-02 -.113E+01 0.121E+01   0.137E-03 0.413E-03 -.262E-03
   -.800E-01 -.155E+02 0.822E+02   0.826E-01 0.167E+02 -.834E+02   -.291E-02 -.113E+01 0.121E+01   -.113E-03 0.449E-03 -.206E-03
   -.811E-01 -.166E+02 0.822E+02   0.864E-01 0.178E+02 -.834E+02   -.528E-02 -.115E+01 0.122E+01   -.806E-04 0.172E-03 0.216E-04
   -.815E-01 -.162E+02 0.822E+02   0.847E-01 0.173E+02 -.834E+02   -.381E-02 -.115E+01 0.122E+01   0.184E-03 -.185E-03 0.270E-03
   -.766E-01 -.162E+02 0.822E+02   0.838E-01 0.173E+02 -.834E+02   -.708E-02 -.115E+01 0.122E+01   -.169E-03 -.203E-03 0.329E-03
   -.768E-01 -.157E+02 0.822E+02   0.820E-01 0.169E+02 -.834E+02   -.520E-02 -.114E+01 0.122E+01   -.646E-04 0.237E-03 0.226E-03
   -.770E-01 -.158E+02 0.822E+02   0.824E-01 0.170E+02 -.834E+02   -.587E-02 -.114E+01 0.122E+01   0.209E-03 0.296E-03 0.118E-03
   -.779E-01 -.158E+02 0.822E+02   0.827E-01 0.170E+02 -.834E+02   -.496E-02 -.114E+01 0.122E+01   -.119E-03 0.322E-03 0.123E-03
   -.787E-01 -.161E+02 0.822E+02   0.839E-01 0.173E+02 -.834E+02   -.525E-02 -.115E+01 0.122E+01   -.382E-04 -.774E-04 0.421E-05
   -.788E-01 -.160E+02 0.822E+02   0.836E-01 0.172E+02 -.834E+02   -.518E-02 -.115E+01 0.122E+01   0.637E-04 -.128E-03 0.116E-03
   -.780E-01 -.160E+02 0.822E+02   0.834E-01 0.172E+02 -.834E+02   -.571E-02 -.115E+01 0.122E+01   -.329E-04 -.774E-04 0.406E-04
   -.780E-01 -.160E+02 -.821E+02   0.832E-01 0.171E+02 0.833E+02   -.525E-02 -.114E+01 -.122E+01   0.540E-05 0.106E-03 -.235E-06
   -.121E+00 -.160E+02 -.821E+02   0.127E+00 0.171E+02 0.834E+02   -.601E-02 -.114E+01 -.122E+01   0.880E-04 0.145E-03 -.679E-05
   -.348E-01 -.160E+02 -.821E+02   0.393E-01 0.171E+02 0.834E+02   -.485E-02 -.114E+01 -.122E+01   -.116E-03 0.401E-04 -.320E-04
   -.780E-01 -.160E+02 -.822E+02   0.832E-01 0.171E+02 0.834E+02   -.523E-02 -.114E+01 -.122E+01   -.609E-04 0.721E-04 -.654E-05
   -.362E-01 -.160E+02 -.822E+02   0.393E-01 0.171E+02 0.834E+02   -.383E-02 -.115E+01 -.122E+01   0.158E-03 0.256E-04 -.981E-04
   -.120E+00 -.160E+02 -.822E+02   0.127E+00 0.171E+02 0.834E+02   -.703E-02 -.115E+01 -.122E+01   -.124E-03 0.619E-04 -.732E-04
   -.898E-01 -.184E+02 -.827E+02   0.954E-01 0.196E+02 0.839E+02   -.542E-02 -.119E+01 -.120E+01   -.723E-04 0.232E-03 0.204E-03
   -.366E+00 -.160E+02 -.822E+02   0.377E+00 0.172E+02 0.834E+02   -.104E-01 -.115E+01 -.122E+01   0.807E-04 0.728E-04 -.157E-03
   0.209E+00 -.160E+02 -.822E+02   -.210E+00 0.172E+02 0.834E+02   -.521E-03 -.115E+01 -.122E+01   -.702E-04 0.129E-03 -.809E-04
   -.897E-01 -.184E+02 -.816E+02   0.952E-01 0.196E+02 0.828E+02   -.542E-02 -.119E+01 -.118E+01   -.927E-04 -.155E-03 0.187E-04
   0.206E+00 -.160E+02 -.821E+02   -.209E+00 0.172E+02 0.833E+02   0.794E-03 -.115E+01 -.122E+01   0.196E-03 -.122E-04 -.153E-03
   -.363E+00 -.160E+02 -.821E+02   0.376E+00 0.172E+02 0.833E+02   -.117E-01 -.115E+01 -.122E+01   -.147E-03 -.393E-04 -.120E-03
 -----------------------------------------------------------------------------------------------
   -.797E-01 -.160E+01 0.250E+00   -.245E-13 -.423E-12 -.199E-12   0.795E-01 0.160E+01 -.249E+00   -.382E-03 0.683E-02 -.273E-03
 
 
 POSITION                                       TOTAL-FORCE (eV/Angst)
 -----------------------------------------------------------------------------------
      0.43553      4.06770      3.99103        -0.000375      0.001177     -0.000547
      4.34744      4.04855      3.99103         0.002528      0.001161     -0.000532
      8.25935      4.02941      3.99103        -0.000253      0.000237     -0.000126
      0.46293      9.67687      3.99103         0.006980      0.000471      0.002728
      4.37484      9.65772      3.99103        -0.004842      0.000532      0.002742
      8.28675      9.63857      3.99103        -0.000256     -0.000293     -0.000018
      0.43553      4.06770      9.58884         0.000072      0.000115      0.000280
      4.34744      4.04855      9.58884         0.002060      0.000110      0.000288
      8.25935      4.02941      9.58884        -0.000245      0.000043     -0.000033
      0.46293      9.67687      9.58884        -0.000192     -0.000240     -0.001132
      4.37484      9.65772      9.58884         0.002324     -0.000249     -0.001133
      8.28675      9.63857      9.58884        -0.000252     -0.000099     -0.000189
      0.42183      1.26312      1.60678         0.000397     -0.000319     -0.001092
      4.33373      1.24397      1.60678         0.001745     -0.000322     -0.001105
      8.24564      1.22482      1.60678        -0.000257     -0.000158     -0.000063
      0.44923      6.87229      1.60678         0.000187      0.000204      0.000435
      4.36114      6.85314      1.60678         0.001954      0.000194      0.000417
      8.27305      6.83399      1.60678        -0.000248      0.000079      0.000132
      0.42183      1.26312      7.20459        -0.004873     -0.001042      0.002973
      4.33373      1.24397      7.20459         0.007005     -0.001099      0.002961
      8.24564      1.22482      7.20459        -0.000249     -0.000291      0.000234
      0.44923      6.87229      7.20459         0.000395      0.001241     -0.000125
      4.36114      6.85314      7.20459         0.001748      0.001235     -0.000129
      8.27305      6.83399      7.20459        -0.000244      0.000213      0.000036
      2.38373      2.44499      3.05038        -0.000140      0.001225     -0.001894
      6.29564      2.42584      3.05038         0.000695      0.001101     -0.000594
     10.20755      2.40669      3.05038        -0.001079      0.001117     -0.000612
      2.41113      8.05416      3.05038        -0.000137      0.003137      0.002364
      6.32304      8.03501      3.05038        -0.000487      0.000023      0.000055
     10.23495      8.01586      3.05038         0.000096     -0.000009      0.000057
      2.38373      2.44499      8.64819        -0.000148      0.001616      0.002663
      6.29564      2.42584      8.64819         0.000028      0.000085      0.000111
     10.20755      2.40669      8.64819        -0.000422      0.000083      0.000129
      2.41113      8.05416      8.64819        -0.000146      0.000611     -0.000989
      6.32304      8.03501      8.64819        -0.000826      0.000776     -0.000610
     10.23495      8.01586      8.64819         0.000431      0.000792     -0.000601
      2.39743      5.24957      2.54743        -0.000149      0.000911     -0.000097
      6.30934      5.23042      2.54743        -0.000348      0.000573      0.000221
     10.22125      5.21128      2.54743        -0.000046      0.000581      0.000225
      2.42483     10.85874      2.54743        -0.000172     -0.004547      0.003630
      6.33674     10.83959      2.54743         0.000246     -0.001056     -0.000465
     10.24865     10.82044      2.54743        -0.000653     -0.001034     -0.000450
      2.39743      5.24957      8.14524        -0.000149      0.001143      0.000214
      6.30934      5.23042      8.14524         0.000175      0.000626      0.000280
     10.22125      5.21128      8.14524        -0.000555      0.000613      0.000264
      2.42483     10.85874      8.14524        -0.000169     -0.004254     -0.001377
      6.33674     10.83959      8.14524        -0.001067     -0.001169     -0.000291
     10.24865     10.82044      8.14524         0.000652     -0.001177     -0.000304
      2.39183      4.11329      4.18453        -0.000017     -0.004475      0.001606
      6.30374      4.09414      4.18453        -0.000262     -0.001680      0.000483
     10.21565      4.07499      4.18453         0.000003     -0.001738      0.000463
      2.41924      9.72245      4.18453         0.000176      0.034617      0.027232
      6.33115      9.70331      4.18453         0.000676      0.001630     -0.000538
     10.24306      9.68416      4.18453        -0.000906      0.001596     -0.000572
      2.39183      4.11329      9.78234         0.000011     -0.000798     -0.000557
      6.30374      4.09414      9.78234        -0.000206     -0.000424     -0.000120
     10.21565      4.07499      9.78234        -0.000048     -0.000426     -0.000175
      2.41924      9.72245      9.78234         0.000014      0.000581      0.000785
      6.33115      9.70331      9.78234         0.000766      0.000472      0.001283
     10.24306      9.68416      9.78234        -0.001008      0.000478      0.001208
      2.37813      1.30870      1.41328         0.000001      0.000681      0.001052
      6.29004      1.28956      1.41328        -0.000755      0.000289      0.001332
     10.20195      1.27041      1.41328         0.000525      0.000245      0.001371
      2.40554      6.91787      1.41328         0.000005     -0.000746     -0.000743
      6.31744      6.89872      1.41328         0.000170     -0.000416     -0.000360
     10.22935      6.87958      1.41328        -0.000418     -0.000450     -0.000339
      2.37813      1.30870      7.01109         0.000114      0.021298      0.025429
      6.29004      1.28956      7.01109        -0.000667      0.001327     -0.000997
     10.20195      1.27041      7.01109         0.000437      0.001330     -0.000917
      2.40554      6.91787      7.01109        -0.000001     -0.003565      0.000743
      6.31744      6.89872      7.01109         0.000340     -0.001859      0.000009
     10.22935      6.87958      7.01109        -0.000607     -0.001826      0.000089
      0.43605      4.15009      1.34677        -0.000095     -0.000734      0.000203
      4.34796      4.13094      1.34677        -0.000251     -0.000744      0.000203
      8.25987      4.11179      1.34677        -0.000160     -0.000425      0.000030
      0.46346      9.75926      1.34677        -0.001342      0.000678     -0.001266
      4.37537      9.74011      1.34677         0.001005      0.000667     -0.001270
      8.28728      9.72096      1.34677        -0.000159      0.000310      0.000145
      0.43605      4.15009      6.94458         0.001279     -0.002656     -0.000375
      4.34796      4.13094      6.94458        -0.001647     -0.002638     -0.000382
      8.25987      4.11179      6.94458        -0.000157     -0.000634     -0.000189
      0.46346      9.75926      6.94458        -0.003537      0.001235      0.002699
      4.37537      9.74011      6.94458         0.003210      0.001203      0.002701
      8.28728      9.72096      6.94458        -0.000153      0.000480     -0.000253
      0.42235      1.34551      4.25104        -0.004312      0.006200     -0.001832
      4.33426      1.32636      4.25104         0.004031      0.006147     -0.001830
      8.24617      1.30721      4.25104        -0.000159      0.000348     -0.000131
      0.44976      6.95467      4.25104        -0.001736     -0.002761     -0.000053
      4.36166      6.93553      4.25104         0.001359     -0.002790     -0.000048
      8.27357      6.91638      4.25104        -0.000155     -0.000460     -0.000050
      0.42235      1.34551      9.84885         0.000732      0.000663     -0.000938
      4.33426      1.32636      9.84885        -0.001066      0.000663     -0.000930
      8.24617      1.30721      9.84885        -0.000155      0.000310      0.000135
      0.44976      6.95467      9.84885        -0.000225     -0.000835      0.000298
      4.36166      6.93553      9.84885        -0.000117     -0.000833      0.000302
      8.27357      6.91638      9.84885        -0.000165     -0.000417      0.000093
      2.37244      0.13585      5.37429        -0.000632     -0.111480     -0.054717
      6.28430      0.10670      5.37429        -0.000198     -0.003044      0.001467
     10.19621      0.08756      5.37429        -0.000362     -0.003058      0.001458
      2.39979      5.73502      5.37429        -0.000057      0.003050      0.000713
      6.31170      5.71587      5.37429        -0.000407      0.001664     -0.000458
     10.22361      5.69672      5.37429        -0.000106      0.001642     -0.000483
      2.37239      0.12585     10.97210        -0.000081     -0.001217      0.000015
      6.28430      0.10670     10.97210        -0.000245     -0.001402     -0.000299
     10.19621      0.08756     10.97210        -0.000299     -0.001414     -0.000276
      2.39979      5.73502     10.97210        -0.000070      0.000900      0.000237
      6.31170      5.71587     10.97210        -0.000268      0.000693      0.000120
     10.22361      5.69672     10.97210        -0.000256      0.000674      0.000141
      2.38609      2.93043      0.22352        -0.000071      0.000278     -0.000091
      6.29800      2.91129      0.22352        -0.000062      0.000473     -0.000200
     10.20991      2.89214      0.22352        -0.000465      0.000457     -0.000201
      2.41350      8.53960      0.22352        -0.000071      0.000284      0.000144
      6.32541      8.52045      0.22352        -0.000565      0.000474     -0.000224
     10.23731      8.50131      0.22352         0.000039      0.000451     -0.000206
      2.38609      2.93043      5.82133         0.000057      0.027060     -0.001633
      6.29800      2.91129      5.82133         0.000973      0.000803      0.000454
     10.20991      2.89214      5.82133        -0.001493      0.000800      0.000423
      2.41350      8.53960      5.82133         0.000054      0.026541     -0.012126
      6.32541      8.52045      5.82133        -0.001673      0.000805      0.000907
     10.23731      8.50131      5.82133         0.001155      0.000783      0.000874
 -----------------------------------------------------------------------------------
    total drift:                               -0.000581      0.001973     -0.000013


--------------------------------------------------------------------------------------------------------



  FREE ENERGIE OF THE ION-ELECTRON SYSTEM (eV)
  ---------------------------------------------------
  free  energy   TOTEN  =      -616.43195603 eV

  energy  without entropy=     -616.43195603  energy(sigma->0) =     -616.43195603
 


--------------------------------------------------------------------------------------------------------


    POTLOK:  cpu time    1.9960: real time    1.9988


--------------------------------------------------------------------------------------------------------


     LOOP+:  cpu time 4824.6297: real time 4886.3370
    4ORBIT:  cpu time    0.0000: real time    0.0000

 total amount of memory used by VASP MPI-rank0   801761. kBytes
=======================================================================

   base      :      30000. kBytes
   nonl-proj :      92491. kBytes
   fftplans  :      50318. kBytes
   grid      :      44712. kBytes
   one-center:        622. kBytes
   wavefun   :     583618. kBytes
 
  
  
 General timing and accounting informations for this job:
 ========================================================
  
                  Total CPU time used (sec):     4923.935
                            User time (sec):     4868.176
                          System time (sec):       55.758
                         Elapsed time (sec):     4989.145
  
                   Maximum memory used (kb):      975708.
                   Average memory used (kb):           0.
  
                          Minor page faults:       501302
                          Major page faults:           13
                 Voluntary context switches:        51032
