 120 120   0   0
  0.1228332E+02  0.1173587E-08  0.1121847E-08  0.1119562E-08  0.5000000E-15
  1.000000000000000E-004
  CAR 
 unknown system                          
     16.72694289    -54.73127904  301      4.40039961      1.00000000
    -54.731  0.0000E+00  0.0000E+00  0.0000E+00  0.0000E+00
    -54.493  0.0000E+00  0.0000E+00  0.0000E+00  0.0000E+00
    -54.255  0.0000E+00  0.0000E+00  0.0000E+00  0.0000E+00
    -54.017  0.0000E+00  0.0000E+00  0.0000E+00  0.0000E+00
    -53.779  0.0000E+00  0.0000E+00  0.0000E+00  0.0000E+00
    -53.540  0.0000E+00  0.0000E+00  0.0000E+00  0.0000E+00
    -53.302  0.0000E+00  0.0000E+00  0.0000E+00  0.0000E+00
    -53.064  0.0000E+00  0.0000E+00  0.0000E+00  0.0000E+00
    -52.826  0.0000E+00  0.0000E+00  0.0000E+00  0.0000E+00
    -52.588  0.0000E+00  0.0000E+00  0.0000E+00  0.0000E+00
    -52.349  0.0000E+00  0.0000E+00  0.0000E+00  0.0000E+00
    -52.111  0.0000E+00  0.0000E+00  0.0000E+00  0.0000E+00
    -51.873  0.0000E+00  0.0000E+00  0.0000E+00  0.0000E+00
    -51.635  0.2373E-03  0.0000E+00  0.5651E-04  0.0000E+00
    -51.397  0.9777E+02  0.0000E+00  0.2329E+02  0.0000E+00
    -51.158  0.2993E+01  0.0000E+00  0.2400E+02  0.0000E+00
    -50.920  0.0000E+00  0.0000E+00  0.2400E+02  0.0000E+00
    -50.682  0.0000E+00  0.0000E+00  0.2400E+02  0.0000E+00
    -50.444  0.2212E-09  0.0000E+00  0.2400E+02  0.0000E+00
    -50.206  0.4246E+02  0.0000E+00  0.3411E+02  0.0000E+00
    -49.967  0.1321E+03  0.0000E+00  0.6557E+02  0.0000E+00
    -49.729  0.2700E+02  0.0000E+00  0.7200E+02  0.0000E+00
    -49.491  0.0000E+00  0.0000E+00  0.7200E+02  0.0000E+00
    -49.253  0.0000E+00  0.0000E+00  0.7200E+02  0.0000E+00
    -49.015  0.0000E+00  0.0000E+00  0.7200E+02  0.0000E+00
    -48.776  0.0000E+00  0.0000E+00  0.7200E+02  0.0000E+00
    -48.538  0.0000E+00  0.0000E+00  0.7200E+02  0.0000E+00
    -48.300  0.0000E+00  0.0000E+00  0.7200E+02  0.0000E+00
    -48.062  0.0000E+00  0.0000E+00  0.7200E+02  0.0000E+00
    -47.824  0.0000E+00  0.0000E+00  0.7200E+02  0.0000E+00
    -47.585  0.0000E+00  0.0000E+00  0.7200E+02  0.0000E+00
    -47.347  0.0000E+00  0.0000E+00  0.7200E+02  0.0000E+00
    -47.109  0.0000E+00  0.0000E+00  0.7200E+02  0.0000E+00
    -46.871  0.0000E+00  0.5773E-01  0.7200E+02  0.1375E-01
    -46.633  0.0000E+00  0.1006E+03  0.7200E+02  0.2397E+02
    -46.394  0.0000E+00  0.9458E+02  0.7200E+02  0.4650E+02
    -46.156  0.0000E+00  0.1070E+03  0.7200E+02  0.7200E+02
    -45.918  0.0000E+00  0.0000E+00  0.7200E+02  0.7200E+02
    -45.680  0.0000E+00  0.0000E+00  0.7200E+02  0.7200E+02
    -45.442  0.0000E+00  0.0000E+00  0.7200E+02  0.7200E+02
    -45.204  0.0000E+00  0.0000E+00  0.7200E+02  0.7200E+02
    -44.965  0.0000E+00  0.0000E+00  0.7200E+02  0.7200E+02
    -44.727  0.0000E+00  0.0000E+00  0.7200E+02  0.7200E+02
    -44.489  0.0000E+00  0.0000E+00  0.7200E+02  0.7200E+02
    -44.251  0.0000E+00  0.0000E+00  0.7200E+02  0.7200E+02
    -44.013  0.0000E+00  0.0000E+00  0.7200E+02  0.7200E+02
    -43.774  0.0000E+00  0.0000E+00  0.7200E+02  0.7200E+02
    -43.536  0.0000E+00  0.0000E+00  0.7200E+02  0.7200E+02
    -43.298  0.0000E+00  0.0000E+00  0.7200E+02  0.7200E+02
    -43.060  0.0000E+00  0.0000E+00  0.7200E+02  0.7200E+02
    -42.822  0.0000E+00  0.0000E+00  0.7200E+02  0.7200E+02
    -42.583  0.0000E+00  0.0000E+00  0.7200E+02  0.7200E+02
    -42.345  0.0000E+00  0.0000E+00  0.7200E+02  0.7200E+02
    -42.107  0.0000E+00  0.0000E+00  0.7200E+02  0.7200E+02
    -41.869  0.0000E+00  0.0000E+00  0.7200E+02  0.7200E+02
    -41.631  0.0000E+00  0.0000E+00  0.7200E+02  0.7200E+02
    -41.392  0.0000E+00  0.0000E+00  0.7200E+02  0.7200E+02
    -41.154  0.0000E+00  0.0000E+00  0.7200E+02  0.7200E+02
    -40.916  0.0000E+00  0.0000E+00  0.7200E+02  0.7200E+02
    -40.678  0.2217E-03  0.6761E-04  0.7200E+02  0.7200E+02
    -40.440  0.9873E+02  0.9721E+02  0.9552E+02  0.9515E+02
    -40.201  0.1026E+03  0.1041E+03  0.1200E+03  0.1200E+03
    -39.963  0.1945E+00  0.1986E+00  0.1200E+03  0.1200E+03
    -39.725  0.0000E+00  0.0000E+00  0.1200E+03  0.1200E+03
    -39.487  0.0000E+00  0.0000E+00  0.1200E+03  0.1200E+03
    -39.249  0.0000E+00  0.0000E+00  0.1200E+03  0.1200E+03
    -39.010  0.0000E+00  0.0000E+00  0.1200E+03  0.1200E+03
    -38.772  0.0000E+00  0.0000E+00  0.1200E+03  0.1200E+03
    -38.534  0.0000E+00  0.0000E+00  0.1200E+03  0.1200E+03
    -38.296  0.0000E+00  0.0000E+00  0.1200E+03  0.1200E+03
    -38.058  0.0000E+00  0.0000E+00  0.1200E+03  0.1200E+03
    -37.819  0.0000E+00  0.0000E+00  0.1200E+03  0.1200E+03
    -37.581  0.0000E+00  0.0000E+00  0.1200E+03  0.1200E+03
    -37.343  0.0000E+00  0.0000E+00  0.1200E+03  0.1200E+03
    -37.105  0.0000E+00  0.0000E+00  0.1200E+03  0.1200E+03
    -36.867  0.0000E+00  0.0000E+00  0.1200E+03  0.1200E+03
    -36.629  0.0000E+00  0.0000E+00  0.1200E+03  0.1200E+03
    -36.390  0.0000E+00  0.0000E+00  0.1200E+03  0.1200E+03
    -36.152  0.0000E+00  0.0000E+00  0.1200E+03  0.1200E+03
    -35.914  0.0000E+00  0.0000E+00  0.1200E+03  0.1200E+03
    -35.676  0.0000E+00  0.0000E+00  0.1200E+03  0.1200E+03
    -35.438  0.0000E+00  0.0000E+00  0.1200E+03  0.1200E+03
    -35.199  0.0000E+00  0.0000E+00  0.1200E+03  0.1200E+03
    -34.961  0.0000E+00  0.0000E+00  0.1200E+03  0.1200E+03
    -34.723  0.0000E+00  0.0000E+00  0.1200E+03  0.1200E+03
    -34.485  0.0000E+00  0.0000E+00  0.1200E+03  0.1200E+03
    -34.247  0.0000E+00  0.0000E+00  0.1200E+03  0.1200E+03
    -34.008  0.0000E+00  0.0000E+00  0.1200E+03  0.1200E+03
    -33.770  0.0000E+00  0.0000E+00  0.1200E+03  0.1200E+03
    -33.532  0.0000E+00  0.0000E+00  0.1200E+03  0.1200E+03
    -33.294  0.0000E+00  0.0000E+00  0.1200E+03  0.1200E+03
    -33.056  0.0000E+00  0.0000E+00  0.1200E+03  0.1200E+03
    -32.817  0.0000E+00  0.0000E+00  0.1200E+03  0.1200E+03
    -32.579  0.0000E+00  0.0000E+00  0.1200E+03  0.1200E+03
    -32.341  0.0000E+00  0.0000E+00  0.1200E+03  0.1200E+03
    -32.103  0.0000E+00  0.0000E+00  0.1200E+03  0.1200E+03
    -31.865  0.0000E+00  0.0000E+00  0.1200E+03  0.1200E+03
    -31.626  0.0000E+00  0.0000E+00  0.1200E+03  0.1200E+03
    -31.388  0.0000E+00  0.0000E+00  0.1200E+03  0.1200E+03
    -31.150  0.0000E+00  0.0000E+00  0.1200E+03  0.1200E+03
    -30.912  0.0000E+00  0.0000E+00  0.1200E+03  0.1200E+03
    -30.674  0.0000E+00  0.0000E+00  0.1200E+03  0.1200E+03
    -30.435  0.0000E+00  0.0000E+00  0.1200E+03  0.1200E+03
    -30.197  0.0000E+00  0.0000E+00  0.1200E+03  0.1200E+03
    -29.959  0.0000E+00  0.0000E+00  0.1200E+03  0.1200E+03
    -29.721  0.0000E+00  0.0000E+00  0.1200E+03  0.1200E+03
    -29.483  0.0000E+00  0.0000E+00  0.1200E+03  0.1200E+03
    -29.245  0.0000E+00  0.0000E+00  0.1200E+03  0.1200E+03
    -29.006  0.0000E+00  0.0000E+00  0.1200E+03  0.1200E+03
    -28.768  0.0000E+00  0.0000E+00  0.1200E+03  0.1200E+03
    -28.530  0.0000E+00  0.0000E+00  0.1200E+03  0.1200E+03
    -28.292  0.0000E+00  0.0000E+00  0.1200E+03  0.1200E+03
    -28.054  0.0000E+00  0.0000E+00  0.1200E+03  0.1200E+03
    -27.815  0.0000E+00  0.0000E+00  0.1200E+03  0.1200E+03
    -27.577  0.0000E+00  0.0000E+00  0.1200E+03  0.1200E+03
    -27.339  0.0000E+00  0.0000E+00  0.1200E+03  0.1200E+03
    -27.101  0.0000E+00  0.0000E+00  0.1200E+03  0.1200E+03
    -26.863  0.0000E+00  0.0000E+00  0.1200E+03  0.1200E+03
    -26.624  0.0000E+00  0.0000E+00  0.1200E+03  0.1200E+03
    -26.386  0.0000E+00  0.0000E+00  0.1200E+03  0.1200E+03
    -26.148  0.0000E+00  0.0000E+00  0.1200E+03  0.1200E+03
    -25.910  0.0000E+00  0.0000E+00  0.1200E+03  0.1200E+03
    -25.672  0.0000E+00  0.0000E+00  0.1200E+03  0.1200E+03
    -25.433  0.0000E+00  0.0000E+00  0.1200E+03  0.1200E+03
    -25.195  0.0000E+00  0.0000E+00  0.1200E+03  0.1200E+03
    -24.957  0.0000E+00  0.0000E+00  0.1200E+03  0.1200E+03
    -24.719  0.0000E+00  0.0000E+00  0.1200E+03  0.1200E+03
    -24.481  0.0000E+00  0.0000E+00  0.1200E+03  0.1200E+03
    -24.242  0.0000E+00  0.0000E+00  0.1200E+03  0.1200E+03
    -24.004  0.0000E+00  0.0000E+00  0.1200E+03  0.1200E+03
    -23.766  0.0000E+00  0.0000E+00  0.1200E+03  0.1200E+03
    -23.528  0.0000E+00  0.0000E+00  0.1200E+03  0.1200E+03
    -23.290  0.0000E+00  0.0000E+00  0.1200E+03  0.1200E+03
    -23.051  0.0000E+00  0.0000E+00  0.1200E+03  0.1200E+03
    -22.813  0.0000E+00  0.0000E+00  0.1200E+03  0.1200E+03
    -22.575  0.0000E+00  0.0000E+00  0.1200E+03  0.1200E+03
    -22.337  0.0000E+00  0.0000E+00  0.1200E+03  0.1200E+03
    -22.099  0.0000E+00  0.0000E+00  0.1200E+03  0.1200E+03
    -21.860  0.0000E+00  0.0000E+00  0.1200E+03  0.1200E+03
    -21.622  0.0000E+00  0.0000E+00  0.1200E+03  0.1200E+03
    -21.384  0.0000E+00  0.0000E+00  0.1200E+03  0.1200E+03
    -21.146  0.0000E+00  0.0000E+00  0.1200E+03  0.1200E+03
    -20.908  0.0000E+00  0.0000E+00  0.1200E+03  0.1200E+03
    -20.670  0.0000E+00  0.0000E+00  0.1200E+03  0.1200E+03
    -20.431  0.0000E+00  0.0000E+00  0.1200E+03  0.1200E+03
    -20.193  0.0000E+00  0.0000E+00  0.1200E+03  0.1200E+03
    -19.955  0.0000E+00  0.0000E+00  0.1200E+03  0.1200E+03
    -19.717  0.0000E+00  0.0000E+00  0.1200E+03  0.1200E+03
    -19.479  0.0000E+00  0.0000E+00  0.1200E+03  0.1200E+03
    -19.240  0.0000E+00  0.0000E+00  0.1200E+03  0.1200E+03
    -19.002  0.0000E+00  0.0000E+00  0.1200E+03  0.1200E+03
    -18.764  0.0000E+00  0.0000E+00  0.1200E+03  0.1200E+03
    -18.526  0.0000E+00  0.0000E+00  0.1200E+03  0.1200E+03
    -18.288  0.0000E+00  0.0000E+00  0.1200E+03  0.1200E+03
    -18.049  0.0000E+00  0.0000E+00  0.1200E+03  0.1200E+03
    -17.811  0.0000E+00  0.0000E+00  0.1200E+03  0.1200E+03
    -17.573  0.0000E+00  0.0000E+00  0.1200E+03  0.1200E+03
    -17.335  0.0000E+00  0.0000E+00  0.1200E+03  0.1200E+03
    -17.097  0.0000E+00  0.0000E+00  0.1200E+03  0.1200E+03
    -16.858  0.0000E+00  0.0000E+00  0.1200E+03  0.1200E+03
    -16.620  0.0000E+00  0.0000E+00  0.1200E+03  0.1200E+03
    -16.382  0.0000E+00  0.0000E+00  0.1200E+03  0.1200E+03
    -16.144  0.0000E+00  0.0000E+00  0.1200E+03  0.1200E+03
    -15.906  0.0000E+00  0.0000E+00  0.1200E+03  0.1200E+03
    -15.667  0.0000E+00  0.0000E+00  0.1200E+03  0.1200E+03
    -15.429  0.0000E+00  0.0000E+00  0.1200E+03  0.1200E+03
    -15.191  0.0000E+00  0.0000E+00  0.1200E+03  0.1200E+03
    -14.953  0.0000E+00  0.0000E+00  0.1200E+03  0.1200E+03
    -14.715  0.0000E+00  0.0000E+00  0.1200E+03  0.1200E+03
    -14.476  0.0000E+00  0.0000E+00  0.1200E+03  0.1200E+03
    -14.238  0.0000E+00  0.0000E+00  0.1200E+03  0.1200E+03
    -14.000  0.0000E+00  0.0000E+00  0.1200E+03  0.1200E+03
    -13.762  0.8305E-09  0.0000E+00  0.1200E+03  0.1200E+03
    -13.524  0.8219E+01  0.1381E-15  0.1220E+03  0.1200E+03
    -13.286  0.5991E+02  0.2714E+00  0.1362E+03  0.1201E+03
    -13.047  0.3262E+02  0.6620E+02  0.1440E+03  0.1358E+03
    -12.809  0.3622E-03  0.3428E+02  0.1440E+03  0.1440E+03
    -12.571  0.0000E+00  0.4689E-04  0.1440E+03  0.1440E+03
    -12.333  0.0000E+00  0.0000E+00  0.1440E+03  0.1440E+03
    -12.095  0.0000E+00  0.0000E+00  0.1440E+03  0.1440E+03
    -11.856  0.0000E+00  0.0000E+00  0.1440E+03  0.1440E+03
    -11.618  0.0000E+00  0.0000E+00  0.1440E+03  0.1440E+03
    -11.380  0.0000E+00  0.0000E+00  0.1440E+03  0.1440E+03
    -11.142  0.0000E+00  0.0000E+00  0.1440E+03  0.1440E+03
    -10.904  0.0000E+00  0.0000E+00  0.1440E+03  0.1440E+03
    -10.665  0.0000E+00  0.0000E+00  0.1440E+03  0.1440E+03
    -10.427  0.0000E+00  0.0000E+00  0.1440E+03  0.1440E+03
    -10.189  0.0000E+00  0.0000E+00  0.1440E+03  0.1440E+03
     -9.951  0.0000E+00  0.0000E+00  0.1440E+03  0.1440E+03
     -9.713  0.0000E+00  0.0000E+00  0.1440E+03  0.1440E+03
     -9.474  0.0000E+00  0.0000E+00  0.1440E+03  0.1440E+03
     -9.236  0.0000E+00  0.0000E+00  0.1440E+03  0.1440E+03
     -8.998  0.0000E+00  0.0000E+00  0.1440E+03  0.1440E+03
     -8.760  0.0000E+00  0.0000E+00  0.1440E+03  0.1440E+03
     -8.522  0.0000E+00  0.0000E+00  0.1440E+03  0.1440E+03
     -8.283  0.0000E+00  0.0000E+00  0.1440E+03  0.1440E+03
     -8.045  0.0000E+00  0.0000E+00  0.1440E+03  0.1440E+03
     -7.807  0.9338E-02  0.1295E-15  0.1440E+03  0.1440E+03
     -7.569  0.1801E+02  0.1095E+00  0.1483E+03  0.1440E+03
     -7.331  0.4783E+02  0.2841E+02  0.1597E+03  0.1508E+03
     -7.092  0.3395E+02  0.4937E+02  0.1678E+03  0.1626E+03
     -6.854  0.9579E+00  0.2214E+02  0.1680E+03  0.1678E+03
     -6.616  0.0000E+00  0.7284E+00  0.1680E+03  0.1680E+03
     -6.378  0.0000E+00  0.0000E+00  0.1680E+03  0.1680E+03
     -6.140  0.0000E+00  0.0000E+00  0.1680E+03  0.1680E+03
     -5.901  0.0000E+00  0.0000E+00  0.1680E+03  0.1680E+03
     -5.663  0.0000E+00  0.0000E+00  0.1680E+03  0.1680E+03
     -5.425  0.0000E+00  0.0000E+00  0.1680E+03  0.1680E+03
     -5.187  0.0000E+00  0.0000E+00  0.1680E+03  0.1680E+03
     -4.949  0.0000E+00  0.0000E+00  0.1680E+03  0.1680E+03
     -4.711  0.0000E+00  0.0000E+00  0.1680E+03  0.1680E+03
     -4.472  0.0000E+00  0.0000E+00  0.1680E+03  0.1680E+03
     -4.234  0.0000E+00  0.0000E+00  0.1680E+03  0.1680E+03
     -3.996  0.0000E+00  0.0000E+00  0.1680E+03  0.1680E+03
     -3.758  0.0000E+00  0.0000E+00  0.1680E+03  0.1680E+03
     -3.520  0.0000E+00  0.0000E+00  0.1680E+03  0.1680E+03
     -3.281  0.0000E+00  0.0000E+00  0.1680E+03  0.1680E+03
     -3.043  0.0000E+00  0.0000E+00  0.1680E+03  0.1680E+03
     -2.805  0.0000E+00  0.0000E+00  0.1680E+03  0.1680E+03
     -2.567  0.0000E+00  0.0000E+00  0.1680E+03  0.1680E+03
     -2.329  0.0000E+00  0.0000E+00  0.1680E+03  0.1680E+03
     -2.090  0.1467E-05  0.0000E+00  0.1680E+03  0.1680E+03
     -1.852  0.7472E+01  0.0000E+00  0.1698E+03  0.1680E+03
     -1.614  0.5775E+02  0.0000E+00  0.1835E+03  0.1680E+03
     -1.376  0.4224E+02  0.0000E+00  0.1936E+03  0.1680E+03
     -1.138  0.3234E+02  0.0000E+00  0.2013E+03  0.1680E+03
     -0.899  0.5350E+02  0.1347E-08  0.2140E+03  0.1680E+03
     -0.661  0.5354E+02  0.1654E+01  0.2268E+03  0.1684E+03
     -0.423  0.6666E+02  0.1694E+02  0.2427E+03  0.1724E+03
     -0.185  0.5486E+02  0.3869E+02  0.2557E+03  0.1816E+03
      0.053  0.3430E+02  0.3548E+02  0.2639E+03  0.1901E+03
      0.292  0.5492E+02  0.2234E+02  0.2770E+03  0.1954E+03
      0.530  0.4795E+02  0.4863E+02  0.2884E+03  0.2070E+03
      0.768  0.3251E+02  0.4838E+02  0.2962E+03  0.2185E+03
      1.006  0.4979E+02  0.6836E+02  0.3080E+03  0.2348E+03
      1.244  0.4856E+02  0.2692E+02  0.3196E+03  0.2412E+03
      1.483  0.5450E+02  0.2264E+02  0.3326E+03  0.2466E+03
      1.721  0.6193E+02  0.3784E+02  0.3473E+03  0.2556E+03
      1.959  0.3449E+02  0.4604E+02  0.3555E+03  0.2666E+03
      2.197  0.2469E+02  0.2973E+02  0.3614E+03  0.2737E+03
      2.435  0.1339E+02  0.3584E+02  0.3646E+03  0.2822E+03
      2.673  0.3760E+02  0.2532E+02  0.3736E+03  0.2882E+03
      2.912  0.3857E+02  0.4568E+02  0.3828E+03  0.2991E+03
      3.150  0.3019E+02  0.4179E+02  0.3899E+03  0.3091E+03
      3.388  0.4363E+02  0.1491E+02  0.4003E+03  0.3126E+03
      3.626  0.5327E+02  0.2980E+02  0.4130E+03  0.3197E+03
      3.864  0.4763E+02  0.5736E+02  0.4244E+03  0.3334E+03
      4.103  0.2973E+02  0.1098E+02  0.4315E+03  0.3360E+03
      4.341  0.2296E+01  0.1400E-04  0.4320E+03  0.3360E+03
      4.579  0.0000E+00  0.0000E+00  0.4320E+03  0.3360E+03
      4.817  0.0000E+00  0.0000E+00  0.4320E+03  0.3360E+03
      5.055  0.0000E+00  0.0000E+00  0.4320E+03  0.3360E+03
      5.294  0.0000E+00  0.0000E+00  0.4320E+03  0.3360E+03
      5.532  0.0000E+00  0.0000E+00  0.4320E+03  0.3360E+03
      5.770  0.0000E+00  0.0000E+00  0.4320E+03  0.3360E+03
      6.008  0.0000E+00  0.2823E-02  0.4320E+03  0.3360E+03
      6.246  0.0000E+00  0.1835E+01  0.4320E+03  0.3364E+03
      6.485  0.0000E+00  0.1325E+02  0.4320E+03  0.3396E+03
      6.723  0.0000E+00  0.2687E+02  0.4320E+03  0.3460E+03
      6.961  0.0000E+00  0.2496E+02  0.4320E+03  0.3519E+03
      7.199  0.5156E-05  0.5669E+02  0.4320E+03  0.3654E+03
      7.437  0.1550E+00  0.7643E+02  0.4320E+03  0.3837E+03
      7.676  0.7023E+00  0.2961E+02  0.4322E+03  0.3907E+03
      7.914  0.1451E+01  0.4103E+02  0.4325E+03  0.4005E+03
      8.152  0.4799E+01  0.7725E+02  0.4337E+03  0.4189E+03
      8.390  0.6918E+01  0.5144E+02  0.4353E+03  0.4311E+03
      8.628  0.1575E+02  0.4059E+01  0.4391E+03  0.4321E+03
      8.867  0.2378E+02  0.1093E+01  0.4448E+03  0.4324E+03
      9.105  0.1963E+02  0.4447E+01  0.4494E+03  0.4334E+03
      9.343  0.1942E+02  0.1047E+02  0.4541E+03  0.4359E+03
      9.581  0.1995E+02  0.2067E+02  0.4588E+03  0.4408E+03
      9.819  0.2437E+02  0.2872E+02  0.4646E+03  0.4477E+03
     10.058  0.2213E+02  0.3008E+02  0.4699E+03  0.4548E+03
     10.296  0.1779E+02  0.3020E+02  0.4741E+03  0.4620E+03
     10.534  0.2457E+02  0.2582E+02  0.4800E+03  0.4682E+03
     10.772  0.1532E+02  0.2599E+02  0.4836E+03  0.4744E+03
     11.010  0.2686E+02  0.2459E+02  0.4900E+03  0.4802E+03
     11.248  0.4537E+02  0.1013E+02  0.5008E+03  0.4826E+03
     11.487  0.4875E+02  0.2562E+02  0.5124E+03  0.4887E+03
     11.725  0.3560E+02  0.2984E+02  0.5209E+03  0.4959E+03
     11.963  0.2023E+02  0.5687E+02  0.5257E+03  0.5094E+03
     12.201  0.2087E+02  0.4458E+02  0.5307E+03  0.5200E+03
     12.439  0.2962E+02  0.2698E+02  0.5378E+03  0.5264E+03
     12.678  0.3289E+02  0.2363E+02  0.5456E+03  0.5321E+03
     12.916  0.1902E+02  0.2776E+02  0.5501E+03  0.5387E+03
     13.154  0.7727E+01  0.3298E+02  0.5520E+03  0.5465E+03
     13.392  0.9317E-01  0.1877E+02  0.5520E+03  0.5510E+03
     13.630  0.0000E+00  0.4137E+01  0.5520E+03  0.5520E+03
     13.869  0.0000E+00  0.5079E-05  0.5520E+03  0.5520E+03
     14.107  0.0000E+00  0.0000E+00  0.5520E+03  0.5520E+03
     14.345  0.0000E+00  0.0000E+00  0.5520E+03  0.5520E+03
     14.583  0.0000E+00  0.0000E+00  0.5520E+03  0.5520E+03
     14.821  0.0000E+00  0.0000E+00  0.5520E+03  0.5520E+03
     15.060  0.0000E+00  0.0000E+00  0.5520E+03  0.5520E+03
     15.298  0.0000E+00  0.0000E+00  0.5520E+03  0.5520E+03
     15.536  0.0000E+00  0.0000E+00  0.5520E+03  0.5520E+03
     15.774  0.0000E+00  0.0000E+00  0.5520E+03  0.5520E+03
     16.012  0.0000E+00  0.0000E+00  0.5520E+03  0.5520E+03
     16.251  0.0000E+00  0.0000E+00  0.5520E+03  0.5520E+03
     16.489  0.0000E+00  0.0000E+00  0.5520E+03  0.5520E+03
     16.727  0.0000E+00  0.0000E+00  0.5520E+03  0.5520E+03
