  88  88   0   0
  0.1431748E+02  0.1111223E-08  0.1111745E-08  0.1056954E-08  0.5000000E-15
  1.000000000000000E-004
  CAR 
 unknown system                          
     17.91448623    -54.33999011  301      5.20974081      1.00000000
    -54.340  0.0000E+00  0.0000E+00  0.0000E+00  0.0000E+00
    -54.099  0.0000E+00  0.0000E+00  0.0000E+00  0.0000E+00
    -53.858  0.0000E+00  0.0000E+00  0.0000E+00  0.0000E+00
    -53.617  0.0000E+00  0.0000E+00  0.0000E+00  0.0000E+00
    -53.377  0.0000E+00  0.0000E+00  0.0000E+00  0.0000E+00
    -53.136  0.0000E+00  0.0000E+00  0.0000E+00  0.0000E+00
    -52.895  0.0000E+00  0.0000E+00  0.0000E+00  0.0000E+00
    -52.654  0.0000E+00  0.0000E+00  0.0000E+00  0.0000E+00
    -52.413  0.0000E+00  0.0000E+00  0.0000E+00  0.0000E+00
    -52.172  0.0000E+00  0.0000E+00  0.0000E+00  0.0000E+00
    -51.932  0.0000E+00  0.0000E+00  0.0000E+00  0.0000E+00
    -51.691  0.0000E+00  0.0000E+00  0.0000E+00  0.0000E+00
    -51.450  0.0000E+00  0.0000E+00  0.0000E+00  0.0000E+00
    -51.209  0.4197E-03  0.0000E+00  0.1011E-03  0.0000E+00
    -50.968  0.1311E+03  0.0000E+00  0.3157E+02  0.0000E+00
    -50.727  0.1801E+01  0.0000E+00  0.3200E+02  0.0000E+00
    -50.486  0.0000E+00  0.0000E+00  0.3200E+02  0.0000E+00
    -50.246  0.0000E+00  0.0000E+00  0.3200E+02  0.0000E+00
    -50.005  0.0000E+00  0.0000E+00  0.3200E+02  0.0000E+00
    -49.764  0.2180E+01  0.0000E+00  0.3252E+02  0.0000E+00
    -49.523  0.2375E+03  0.0000E+00  0.8973E+02  0.0000E+00
    -49.282  0.2605E+02  0.0000E+00  0.9600E+02  0.0000E+00
    -49.041  0.0000E+00  0.0000E+00  0.9600E+02  0.0000E+00
    -48.800  0.0000E+00  0.0000E+00  0.9600E+02  0.0000E+00
    -48.560  0.0000E+00  0.0000E+00  0.9600E+02  0.0000E+00
    -48.319  0.0000E+00  0.0000E+00  0.9600E+02  0.0000E+00
    -48.078  0.0000E+00  0.0000E+00  0.9600E+02  0.0000E+00
    -47.837  0.0000E+00  0.0000E+00  0.9600E+02  0.0000E+00
    -47.596  0.0000E+00  0.0000E+00  0.9600E+02  0.0000E+00
    -47.355  0.0000E+00  0.0000E+00  0.9600E+02  0.0000E+00
    -47.115  0.0000E+00  0.0000E+00  0.9600E+02  0.0000E+00
    -46.874  0.0000E+00  0.0000E+00  0.9600E+02  0.0000E+00
    -46.633  0.0000E+00  0.0000E+00  0.9600E+02  0.0000E+00
    -46.392  0.0000E+00  0.3987E+00  0.9600E+02  0.9603E-01
    -46.151  0.0000E+00  0.1324E+03  0.9600E+02  0.3199E+02
    -45.910  0.0000E+00  0.6213E+02  0.9600E+02  0.4695E+02
    -45.669  0.0000E+00  0.2036E+03  0.9600E+02  0.9600E+02
    -45.429  0.0000E+00  0.0000E+00  0.9600E+02  0.9600E+02
    -45.188  0.0000E+00  0.0000E+00  0.9600E+02  0.9600E+02
    -44.947  0.0000E+00  0.0000E+00  0.9600E+02  0.9600E+02
    -44.706  0.0000E+00  0.0000E+00  0.9600E+02  0.9600E+02
    -44.465  0.0000E+00  0.0000E+00  0.9600E+02  0.9600E+02
    -44.224  0.0000E+00  0.0000E+00  0.9600E+02  0.9600E+02
    -43.984  0.0000E+00  0.0000E+00  0.9600E+02  0.9600E+02
    -43.743  0.0000E+00  0.0000E+00  0.9600E+02  0.9600E+02
    -43.502  0.0000E+00  0.0000E+00  0.9600E+02  0.9600E+02
    -43.261  0.0000E+00  0.0000E+00  0.9600E+02  0.9600E+02
    -43.020  0.0000E+00  0.0000E+00  0.9600E+02  0.9600E+02
    -42.779  0.0000E+00  0.0000E+00  0.9600E+02  0.9600E+02
    -42.538  0.0000E+00  0.0000E+00  0.9600E+02  0.9600E+02
    -42.298  0.0000E+00  0.0000E+00  0.9600E+02  0.9600E+02
    -42.057  0.0000E+00  0.0000E+00  0.9600E+02  0.9600E+02
    -41.816  0.0000E+00  0.0000E+00  0.9600E+02  0.9600E+02
    -41.575  0.0000E+00  0.0000E+00  0.9600E+02  0.9600E+02
    -41.334  0.0000E+00  0.0000E+00  0.9600E+02  0.9600E+02
    -41.093  0.0000E+00  0.0000E+00  0.9600E+02  0.9600E+02
    -40.852  0.0000E+00  0.0000E+00  0.9600E+02  0.9600E+02
    -40.612  0.0000E+00  0.0000E+00  0.9600E+02  0.9600E+02
    -40.371  0.0000E+00  0.0000E+00  0.9600E+02  0.9600E+02
    -40.130  0.2857E-11  0.1830E-11  0.9600E+02  0.9600E+02
    -39.889  0.1678E+02  0.1556E+02  0.1000E+03  0.9975E+02
    -39.648  0.4966E+02  0.5088E+02  0.1120E+03  0.1120E+03
    -39.407  0.0000E+00  0.0000E+00  0.1120E+03  0.1120E+03
    -39.167  0.0000E+00  0.0000E+00  0.1120E+03  0.1120E+03
    -38.926  0.0000E+00  0.0000E+00  0.1120E+03  0.1120E+03
    -38.685  0.0000E+00  0.0000E+00  0.1120E+03  0.1120E+03
    -38.444  0.0000E+00  0.0000E+00  0.1120E+03  0.1120E+03
    -38.203  0.0000E+00  0.0000E+00  0.1120E+03  0.1120E+03
    -37.962  0.0000E+00  0.0000E+00  0.1120E+03  0.1120E+03
    -37.721  0.0000E+00  0.0000E+00  0.1120E+03  0.1120E+03
    -37.481  0.0000E+00  0.0000E+00  0.1120E+03  0.1120E+03
    -37.240  0.0000E+00  0.0000E+00  0.1120E+03  0.1120E+03
    -36.999  0.0000E+00  0.0000E+00  0.1120E+03  0.1120E+03
    -36.758  0.0000E+00  0.0000E+00  0.1120E+03  0.1120E+03
    -36.517  0.0000E+00  0.0000E+00  0.1120E+03  0.1120E+03
    -36.276  0.0000E+00  0.0000E+00  0.1120E+03  0.1120E+03
    -36.036  0.0000E+00  0.0000E+00  0.1120E+03  0.1120E+03
    -35.795  0.0000E+00  0.0000E+00  0.1120E+03  0.1120E+03
    -35.554  0.0000E+00  0.0000E+00  0.1120E+03  0.1120E+03
    -35.313  0.0000E+00  0.0000E+00  0.1120E+03  0.1120E+03
    -35.072  0.0000E+00  0.0000E+00  0.1120E+03  0.1120E+03
    -34.831  0.0000E+00  0.0000E+00  0.1120E+03  0.1120E+03
    -34.590  0.0000E+00  0.0000E+00  0.1120E+03  0.1120E+03
    -34.350  0.0000E+00  0.0000E+00  0.1120E+03  0.1120E+03
    -34.109  0.0000E+00  0.0000E+00  0.1120E+03  0.1120E+03
    -33.868  0.0000E+00  0.0000E+00  0.1120E+03  0.1120E+03
    -33.627  0.0000E+00  0.0000E+00  0.1120E+03  0.1120E+03
    -33.386  0.0000E+00  0.0000E+00  0.1120E+03  0.1120E+03
    -33.145  0.0000E+00  0.0000E+00  0.1120E+03  0.1120E+03
    -32.904  0.0000E+00  0.0000E+00  0.1120E+03  0.1120E+03
    -32.664  0.0000E+00  0.0000E+00  0.1120E+03  0.1120E+03
    -32.423  0.0000E+00  0.0000E+00  0.1120E+03  0.1120E+03
    -32.182  0.0000E+00  0.0000E+00  0.1120E+03  0.1120E+03
    -31.941  0.0000E+00  0.0000E+00  0.1120E+03  0.1120E+03
    -31.700  0.0000E+00  0.0000E+00  0.1120E+03  0.1120E+03
    -31.459  0.0000E+00  0.0000E+00  0.1120E+03  0.1120E+03
    -31.219  0.0000E+00  0.0000E+00  0.1120E+03  0.1120E+03
    -30.978  0.0000E+00  0.0000E+00  0.1120E+03  0.1120E+03
    -30.737  0.0000E+00  0.0000E+00  0.1120E+03  0.1120E+03
    -30.496  0.0000E+00  0.0000E+00  0.1120E+03  0.1120E+03
    -30.255  0.0000E+00  0.0000E+00  0.1120E+03  0.1120E+03
    -30.014  0.0000E+00  0.0000E+00  0.1120E+03  0.1120E+03
    -29.773  0.0000E+00  0.0000E+00  0.1120E+03  0.1120E+03
    -29.533  0.0000E+00  0.0000E+00  0.1120E+03  0.1120E+03
    -29.292  0.0000E+00  0.0000E+00  0.1120E+03  0.1120E+03
    -29.051  0.0000E+00  0.0000E+00  0.1120E+03  0.1120E+03
    -28.810  0.0000E+00  0.0000E+00  0.1120E+03  0.1120E+03
    -28.569  0.0000E+00  0.0000E+00  0.1120E+03  0.1120E+03
    -28.328  0.0000E+00  0.0000E+00  0.1120E+03  0.1120E+03
    -28.088  0.0000E+00  0.0000E+00  0.1120E+03  0.1120E+03
    -27.847  0.0000E+00  0.0000E+00  0.1120E+03  0.1120E+03
    -27.606  0.0000E+00  0.0000E+00  0.1120E+03  0.1120E+03
    -27.365  0.0000E+00  0.0000E+00  0.1120E+03  0.1120E+03
    -27.124  0.0000E+00  0.0000E+00  0.1120E+03  0.1120E+03
    -26.883  0.0000E+00  0.0000E+00  0.1120E+03  0.1120E+03
    -26.642  0.0000E+00  0.0000E+00  0.1120E+03  0.1120E+03
    -26.402  0.0000E+00  0.0000E+00  0.1120E+03  0.1120E+03
    -26.161  0.0000E+00  0.0000E+00  0.1120E+03  0.1120E+03
    -25.920  0.0000E+00  0.0000E+00  0.1120E+03  0.1120E+03
    -25.679  0.0000E+00  0.0000E+00  0.1120E+03  0.1120E+03
    -25.438  0.0000E+00  0.0000E+00  0.1120E+03  0.1120E+03
    -25.197  0.0000E+00  0.0000E+00  0.1120E+03  0.1120E+03
    -24.957  0.0000E+00  0.0000E+00  0.1120E+03  0.1120E+03
    -24.716  0.0000E+00  0.0000E+00  0.1120E+03  0.1120E+03
    -24.475  0.0000E+00  0.0000E+00  0.1120E+03  0.1120E+03
    -24.234  0.0000E+00  0.0000E+00  0.1120E+03  0.1120E+03
    -23.993  0.0000E+00  0.0000E+00  0.1120E+03  0.1120E+03
    -23.752  0.0000E+00  0.0000E+00  0.1120E+03  0.1120E+03
    -23.511  0.0000E+00  0.0000E+00  0.1120E+03  0.1120E+03
    -23.271  0.0000E+00  0.0000E+00  0.1120E+03  0.1120E+03
    -23.030  0.0000E+00  0.0000E+00  0.1120E+03  0.1120E+03
    -22.789  0.0000E+00  0.0000E+00  0.1120E+03  0.1120E+03
    -22.548  0.0000E+00  0.0000E+00  0.1120E+03  0.1120E+03
    -22.307  0.0000E+00  0.0000E+00  0.1120E+03  0.1120E+03
    -22.066  0.0000E+00  0.0000E+00  0.1120E+03  0.1120E+03
    -21.825  0.0000E+00  0.0000E+00  0.1120E+03  0.1120E+03
    -21.585  0.0000E+00  0.0000E+00  0.1120E+03  0.1120E+03
    -21.344  0.0000E+00  0.0000E+00  0.1120E+03  0.1120E+03
    -21.103  0.0000E+00  0.0000E+00  0.1120E+03  0.1120E+03
    -20.862  0.0000E+00  0.0000E+00  0.1120E+03  0.1120E+03
    -20.621  0.0000E+00  0.0000E+00  0.1120E+03  0.1120E+03
    -20.380  0.0000E+00  0.0000E+00  0.1120E+03  0.1120E+03
    -20.140  0.0000E+00  0.0000E+00  0.1120E+03  0.1120E+03
    -19.899  0.0000E+00  0.0000E+00  0.1120E+03  0.1120E+03
    -19.658  0.0000E+00  0.0000E+00  0.1120E+03  0.1120E+03
    -19.417  0.0000E+00  0.0000E+00  0.1120E+03  0.1120E+03
    -19.176  0.0000E+00  0.0000E+00  0.1120E+03  0.1120E+03
    -18.935  0.0000E+00  0.0000E+00  0.1120E+03  0.1120E+03
    -18.694  0.0000E+00  0.0000E+00  0.1120E+03  0.1120E+03
    -18.454  0.0000E+00  0.0000E+00  0.1120E+03  0.1120E+03
    -18.213  0.0000E+00  0.0000E+00  0.1120E+03  0.1120E+03
    -17.972  0.0000E+00  0.0000E+00  0.1120E+03  0.1120E+03
    -17.731  0.0000E+00  0.0000E+00  0.1120E+03  0.1120E+03
    -17.490  0.0000E+00  0.0000E+00  0.1120E+03  0.1120E+03
    -17.249  0.0000E+00  0.0000E+00  0.1120E+03  0.1120E+03
    -17.009  0.0000E+00  0.0000E+00  0.1120E+03  0.1120E+03
    -16.768  0.0000E+00  0.0000E+00  0.1120E+03  0.1120E+03
    -16.527  0.0000E+00  0.0000E+00  0.1120E+03  0.1120E+03
    -16.286  0.0000E+00  0.0000E+00  0.1120E+03  0.1120E+03
    -16.045  0.0000E+00  0.0000E+00  0.1120E+03  0.1120E+03
    -15.804  0.0000E+00  0.0000E+00  0.1120E+03  0.1120E+03
    -15.563  0.0000E+00  0.0000E+00  0.1120E+03  0.1120E+03
    -15.323  0.0000E+00  0.0000E+00  0.1120E+03  0.1120E+03
    -15.082  0.0000E+00  0.0000E+00  0.1120E+03  0.1120E+03
    -14.841  0.0000E+00  0.0000E+00  0.1120E+03  0.1120E+03
    -14.600  0.0000E+00  0.0000E+00  0.1120E+03  0.1120E+03
    -14.359  0.0000E+00  0.0000E+00  0.1120E+03  0.1120E+03
    -14.118  0.0000E+00  0.0000E+00  0.1120E+03  0.1120E+03
    -13.877  0.0000E+00  0.0000E+00  0.1120E+03  0.1120E+03
    -13.637  0.0000E+00  0.0000E+00  0.1120E+03  0.1120E+03
    -13.396  0.2197E-05  0.0000E+00  0.1120E+03  0.1120E+03
    -13.155  0.2062E+02  0.0000E+00  0.1170E+03  0.1120E+03
    -12.914  0.4481E+02  0.1669E-01  0.1278E+03  0.1120E+03
    -12.673  0.1005E+01  0.4421E+02  0.1280E+03  0.1227E+03
    -12.432  0.0000E+00  0.2221E+02  0.1280E+03  0.1280E+03
    -12.192  0.0000E+00  0.0000E+00  0.1280E+03  0.1280E+03
    -11.951  0.0000E+00  0.0000E+00  0.1280E+03  0.1280E+03
    -11.710  0.0000E+00  0.0000E+00  0.1280E+03  0.1280E+03
    -11.469  0.0000E+00  0.0000E+00  0.1280E+03  0.1280E+03
    -11.228  0.0000E+00  0.0000E+00  0.1280E+03  0.1280E+03
    -10.987  0.0000E+00  0.0000E+00  0.1280E+03  0.1280E+03
    -10.746  0.0000E+00  0.0000E+00  0.1280E+03  0.1280E+03
    -10.506  0.0000E+00  0.0000E+00  0.1280E+03  0.1280E+03
    -10.265  0.0000E+00  0.0000E+00  0.1280E+03  0.1280E+03
    -10.024  0.0000E+00  0.0000E+00  0.1280E+03  0.1280E+03
     -9.783  0.0000E+00  0.0000E+00  0.1280E+03  0.1280E+03
     -9.542  0.0000E+00  0.0000E+00  0.1280E+03  0.1280E+03
     -9.301  0.0000E+00  0.0000E+00  0.1280E+03  0.1280E+03
     -9.061  0.0000E+00  0.0000E+00  0.1280E+03  0.1280E+03
     -8.820  0.0000E+00  0.0000E+00  0.1280E+03  0.1280E+03
     -8.579  0.0000E+00  0.0000E+00  0.1280E+03  0.1280E+03
     -8.338  0.0000E+00  0.0000E+00  0.1280E+03  0.1280E+03
     -8.097  0.0000E+00  0.0000E+00  0.1280E+03  0.1280E+03
     -7.856  0.1666E-09  0.0000E+00  0.1280E+03  0.1280E+03
     -7.615  0.6612E+00  0.3093E-10  0.1282E+03  0.1280E+03
     -7.375  0.1310E+02  0.5898E+00  0.1313E+03  0.1281E+03
     -7.134  0.3022E+02  0.1440E+02  0.1386E+03  0.1316E+03
     -6.893  0.3470E+02  0.2935E+02  0.1469E+03  0.1387E+03
     -6.652  0.2098E+02  0.2661E+02  0.1520E+03  0.1451E+03
     -6.411  0.1163E-04  0.2865E+02  0.1520E+03  0.1520E+03
     -6.170  0.0000E+00  0.4061E-01  0.1520E+03  0.1520E+03
     -5.929  0.0000E+00  0.0000E+00  0.1520E+03  0.1520E+03
     -5.689  0.0000E+00  0.0000E+00  0.1520E+03  0.1520E+03
     -5.448  0.0000E+00  0.0000E+00  0.1520E+03  0.1520E+03
     -5.207  0.0000E+00  0.0000E+00  0.1520E+03  0.1520E+03
     -4.966  0.0000E+00  0.0000E+00  0.1520E+03  0.1520E+03
     -4.725  0.0000E+00  0.0000E+00  0.1520E+03  0.1520E+03
     -4.484  0.0000E+00  0.0000E+00  0.1520E+03  0.1520E+03
     -4.244  0.0000E+00  0.0000E+00  0.1520E+03  0.1520E+03
     -4.003  0.0000E+00  0.0000E+00  0.1520E+03  0.1520E+03
     -3.762  0.0000E+00  0.0000E+00  0.1520E+03  0.1520E+03
     -3.521  0.0000E+00  0.0000E+00  0.1520E+03  0.1520E+03
     -3.280  0.0000E+00  0.0000E+00  0.1520E+03  0.1520E+03
     -3.039  0.0000E+00  0.0000E+00  0.1520E+03  0.1520E+03
     -2.798  0.0000E+00  0.0000E+00  0.1520E+03  0.1520E+03
     -2.558  0.0000E+00  0.0000E+00  0.1520E+03  0.1520E+03
     -2.317  0.0000E+00  0.0000E+00  0.1520E+03  0.1520E+03
     -2.076  0.6292E-04  0.0000E+00  0.1520E+03  0.1520E+03
     -1.835  0.1681E+02  0.0000E+00  0.1560E+03  0.1520E+03
     -1.594  0.1926E+02  0.0000E+00  0.1607E+03  0.1520E+03
     -1.353  0.1455E+02  0.0000E+00  0.1642E+03  0.1520E+03
     -1.113  0.1735E+02  0.0000E+00  0.1684E+03  0.1520E+03
     -0.872  0.4675E+02  0.0000E+00  0.1796E+03  0.1520E+03
     -0.631  0.5907E+02  0.2326E-05  0.1939E+03  0.1520E+03
     -0.390  0.3864E+02  0.4685E+01  0.2032E+03  0.1531E+03
     -0.149  0.6852E+02  0.2029E+02  0.2197E+03  0.1580E+03
      0.092  0.7340E+02  0.1226E+02  0.2373E+03  0.1610E+03
      0.333  0.7768E+02  0.1883E+02  0.2561E+03  0.1655E+03
      0.573  0.7006E+02  0.2970E+02  0.2729E+03  0.1727E+03
      0.814  0.5452E+02  0.3951E+02  0.2861E+03  0.1822E+03
      1.055  0.3631E+02  0.3730E+02  0.2948E+03  0.1912E+03
      1.296  0.3077E+02  0.3073E+02  0.3022E+03  0.1986E+03
      1.537  0.4505E+02  0.2078E+02  0.3131E+03  0.2036E+03
      1.778  0.4296E+02  0.2876E+02  0.3234E+03  0.2105E+03
      2.019  0.6909E+02  0.3742E+02  0.3400E+03  0.2195E+03
      2.259  0.5675E+02  0.2696E+02  0.3537E+03  0.2260E+03
      2.500  0.2708E+02  0.2711E+02  0.3602E+03  0.2325E+03
      2.741  0.4283E+02  0.3134E+02  0.3706E+03  0.2401E+03
      2.982  0.2916E+02  0.4464E+02  0.3776E+03  0.2508E+03
      3.223  0.8750E+01  0.4540E+02  0.3797E+03  0.2618E+03
      3.464  0.2861E+02  0.3131E+02  0.3866E+03  0.2693E+03
      3.704  0.2678E+02  0.1215E+02  0.3930E+03  0.2722E+03
      3.945  0.3119E+02  0.1845E+02  0.4005E+03  0.2767E+03
      4.186  0.3590E+02  0.5208E+02  0.4092E+03  0.2892E+03
      4.427  0.3635E+02  0.4538E+02  0.4179E+03  0.3001E+03
      4.668  0.3001E+02  0.1602E+02  0.4252E+03  0.3040E+03
      4.909  0.2562E+02  0.2722E-02  0.4313E+03  0.3040E+03
      5.150  0.2761E+01  0.0000E+00  0.4320E+03  0.3040E+03
      5.390  0.0000E+00  0.0000E+00  0.4320E+03  0.3040E+03
      5.631  0.0000E+00  0.0000E+00  0.4320E+03  0.3040E+03
      5.872  0.0000E+00  0.0000E+00  0.4320E+03  0.3040E+03
      6.113  0.0000E+00  0.1025E-08  0.4320E+03  0.3040E+03
      6.354  0.0000E+00  0.4370E+00  0.4320E+03  0.3041E+03
      6.595  0.0000E+00  0.4214E+01  0.4320E+03  0.3051E+03
      6.835  0.0000E+00  0.8016E+01  0.4320E+03  0.3071E+03
      7.076  0.3107E-14  0.1989E+02  0.4320E+03  0.3118E+03
      7.317  0.3497E-01  0.4465E+02  0.4320E+03  0.3226E+03
      7.558  0.1188E+00  0.5394E+02  0.4320E+03  0.3356E+03
      7.799  0.2880E+00  0.6301E+02  0.4321E+03  0.3508E+03
      8.040  0.7067E+00  0.6621E+02  0.4323E+03  0.3667E+03
      8.281  0.2235E+01  0.7044E+02  0.4328E+03  0.3837E+03
      8.521  0.2658E+01  0.5869E+02  0.4335E+03  0.3978E+03
      8.762  0.8979E+01  0.5881E+02  0.4356E+03  0.4120E+03
      9.003  0.1264E+02  0.4699E+02  0.4387E+03  0.4233E+03
      9.244  0.1316E+02  0.2925E+02  0.4418E+03  0.4303E+03
      9.485  0.1814E+02  0.8629E+01  0.4462E+03  0.4324E+03
      9.726  0.1613E+02  0.3162E+01  0.4501E+03  0.4332E+03
      9.966  0.1574E+02  0.8470E+01  0.4539E+03  0.4352E+03
     10.207  0.2248E+02  0.1884E+02  0.4593E+03  0.4397E+03
     10.448  0.1487E+02  0.1798E+02  0.4629E+03  0.4441E+03
     10.689  0.1522E+02  0.1735E+02  0.4665E+03  0.4483E+03
     10.930  0.1334E+02  0.2752E+02  0.4698E+03  0.4549E+03
     11.171  0.2070E+02  0.1894E+02  0.4747E+03  0.4594E+03
     11.412  0.2504E+02  0.2409E+02  0.4808E+03  0.4653E+03
     11.652  0.2700E+02  0.1446E+02  0.4873E+03  0.4687E+03
     11.893  0.2500E+02  0.1391E+02  0.4933E+03  0.4721E+03
     12.134  0.3313E+02  0.1633E+02  0.5013E+03  0.4760E+03
     12.375  0.1981E+02  0.3721E+02  0.5060E+03  0.4850E+03
     12.616  0.2310E+02  0.3251E+02  0.5116E+03  0.4928E+03
     12.857  0.2155E+02  0.2936E+02  0.5168E+03  0.4999E+03
     13.098  0.1999E+02  0.2018E+02  0.5216E+03  0.5047E+03
     13.338  0.2444E+02  0.2252E+02  0.5275E+03  0.5102E+03
     13.579  0.2381E+02  0.2728E+02  0.5332E+03  0.5167E+03
     13.820  0.1328E+02  0.2374E+02  0.5364E+03  0.5224E+03
     14.061  0.6519E+01  0.2612E+02  0.5380E+03  0.5287E+03
     14.302  0.3261E-02  0.1911E+02  0.5380E+03  0.5333E+03
     14.543  0.0000E+00  0.1634E+02  0.5380E+03  0.5373E+03
     14.783  0.0000E+00  0.2984E+01  0.5380E+03  0.5380E+03
     15.024  0.0000E+00  0.2241E-05  0.5380E+03  0.5380E+03
     15.265  0.0000E+00  0.0000E+00  0.5380E+03  0.5380E+03
     15.506  0.0000E+00  0.0000E+00  0.5380E+03  0.5380E+03
     15.747  0.0000E+00  0.0000E+00  0.5380E+03  0.5380E+03
     15.988  0.0000E+00  0.0000E+00  0.5380E+03  0.5380E+03
     16.229  0.0000E+00  0.0000E+00  0.5380E+03  0.5380E+03
     16.469  0.0000E+00  0.0000E+00  0.5380E+03  0.5380E+03
     16.710  0.0000E+00  0.0000E+00  0.5380E+03  0.5380E+03
     16.951  0.0000E+00  0.0000E+00  0.5380E+03  0.5380E+03
     17.192  0.0000E+00  0.0000E+00  0.5380E+03  0.5380E+03
     17.433  0.0000E+00  0.0000E+00  0.5380E+03  0.5380E+03
     17.674  0.0000E+00  0.0000E+00  0.5380E+03  0.5380E+03
     17.914  0.0000E+00  0.0000E+00  0.5380E+03  0.5380E+03
