 160 160   0   0
  0.1215613E+02  0.1537564E-08  0.1124787E-08  0.1124760E-08  0.5000000E-15
  1.000000000000000E-004
  CAR 
 unknown system                          
     17.04887886    -54.79010154  301      4.89611801      1.00000000
    -54.790  0.0000E+00  0.0000E+00  0.0000E+00  0.0000E+00
    -54.551  0.0000E+00  0.0000E+00  0.0000E+00  0.0000E+00
    -54.311  0.0000E+00  0.0000E+00  0.0000E+00  0.0000E+00
    -54.072  0.0000E+00  0.0000E+00  0.0000E+00  0.0000E+00
    -53.832  0.0000E+00  0.0000E+00  0.0000E+00  0.0000E+00
    -53.593  0.0000E+00  0.0000E+00  0.0000E+00  0.0000E+00
    -53.353  0.0000E+00  0.0000E+00  0.0000E+00  0.0000E+00
    -53.114  0.0000E+00  0.0000E+00  0.0000E+00  0.0000E+00
    -52.874  0.0000E+00  0.0000E+00  0.0000E+00  0.0000E+00
    -52.635  0.0000E+00  0.0000E+00  0.0000E+00  0.0000E+00
    -52.395  0.0000E+00  0.0000E+00  0.0000E+00  0.0000E+00
    -52.156  0.0000E+00  0.0000E+00  0.0000E+00  0.0000E+00
    -51.917  0.0000E+00  0.0000E+00  0.0000E+00  0.0000E+00
    -51.677  0.3815E-03  0.0000E+00  0.9136E-04  0.0000E+00
    -51.438  0.8179E+02  0.0000E+00  0.1959E+02  0.0000E+00
    -51.198  0.5184E+02  0.0000E+00  0.3200E+02  0.0000E+00
    -50.959  0.0000E+00  0.0000E+00  0.3200E+02  0.0000E+00
    -50.719  0.0000E+00  0.0000E+00  0.3200E+02  0.0000E+00
    -50.480  0.5708E-13  0.0000E+00  0.3200E+02  0.0000E+00
    -50.240  0.7738E+01  0.0000E+00  0.3385E+02  0.0000E+00
    -50.001  0.1677E+03  0.0000E+00  0.7401E+02  0.0000E+00
    -49.761  0.9182E+02  0.0000E+00  0.9600E+02  0.0000E+00
    -49.522  0.0000E+00  0.0000E+00  0.9600E+02  0.0000E+00
    -49.282  0.0000E+00  0.0000E+00  0.9600E+02  0.0000E+00
    -49.043  0.0000E+00  0.0000E+00  0.9600E+02  0.0000E+00
    -48.804  0.0000E+00  0.0000E+00  0.9600E+02  0.0000E+00
    -48.564  0.0000E+00  0.0000E+00  0.9600E+02  0.0000E+00
    -48.325  0.0000E+00  0.0000E+00  0.9600E+02  0.0000E+00
    -48.085  0.0000E+00  0.0000E+00  0.9600E+02  0.0000E+00
    -47.846  0.0000E+00  0.0000E+00  0.9600E+02  0.0000E+00
    -47.606  0.0000E+00  0.0000E+00  0.9600E+02  0.0000E+00
    -47.367  0.0000E+00  0.0000E+00  0.9600E+02  0.0000E+00
    -47.127  0.0000E+00  0.0000E+00  0.9600E+02  0.0000E+00
    -46.888  0.0000E+00  0.1919E+00  0.9600E+02  0.4596E-01
    -46.648  0.0000E+00  0.1059E+03  0.9600E+02  0.2539E+02
    -46.409  0.0000E+00  0.1046E+03  0.9600E+02  0.5045E+02
    -46.169  0.0000E+00  0.1899E+03  0.9600E+02  0.9592E+02
    -45.930  0.0000E+00  0.3172E+00  0.9600E+02  0.9600E+02
    -45.690  0.0000E+00  0.0000E+00  0.9600E+02  0.9600E+02
    -45.451  0.0000E+00  0.0000E+00  0.9600E+02  0.9600E+02
    -45.212  0.0000E+00  0.0000E+00  0.9600E+02  0.9600E+02
    -44.972  0.0000E+00  0.0000E+00  0.9600E+02  0.9600E+02
    -44.733  0.0000E+00  0.0000E+00  0.9600E+02  0.9600E+02
    -44.493  0.0000E+00  0.0000E+00  0.9600E+02  0.9600E+02
    -44.254  0.0000E+00  0.0000E+00  0.9600E+02  0.9600E+02
    -44.014  0.0000E+00  0.0000E+00  0.9600E+02  0.9600E+02
    -43.775  0.0000E+00  0.0000E+00  0.9600E+02  0.9600E+02
    -43.535  0.0000E+00  0.0000E+00  0.9600E+02  0.9600E+02
    -43.296  0.0000E+00  0.0000E+00  0.9600E+02  0.9600E+02
    -43.056  0.0000E+00  0.0000E+00  0.9600E+02  0.9600E+02
    -42.817  0.0000E+00  0.0000E+00  0.9600E+02  0.9600E+02
    -42.577  0.0000E+00  0.0000E+00  0.9600E+02  0.9600E+02
    -42.338  0.0000E+00  0.0000E+00  0.9600E+02  0.9600E+02
    -42.099  0.0000E+00  0.0000E+00  0.9600E+02  0.9600E+02
    -41.859  0.0000E+00  0.0000E+00  0.9600E+02  0.9600E+02
    -41.620  0.0000E+00  0.0000E+00  0.9600E+02  0.9600E+02
    -41.380  0.0000E+00  0.0000E+00  0.9600E+02  0.9600E+02
    -41.141  0.0000E+00  0.0000E+00  0.9600E+02  0.9600E+02
    -40.901  0.0000E+00  0.0000E+00  0.9600E+02  0.9600E+02
    -40.662  0.1610E-14  0.2318E-15  0.9600E+02  0.9600E+02
    -40.422  0.3632E+01  0.3193E+01  0.9687E+02  0.9676E+02
    -40.183  0.1795E+03  0.1820E+03  0.1399E+03  0.1403E+03
    -39.943  0.8413E+02  0.8208E+02  0.1600E+03  0.1600E+03
    -39.704  0.0000E+00  0.0000E+00  0.1600E+03  0.1600E+03
    -39.464  0.0000E+00  0.0000E+00  0.1600E+03  0.1600E+03
    -39.225  0.0000E+00  0.0000E+00  0.1600E+03  0.1600E+03
    -38.986  0.0000E+00  0.0000E+00  0.1600E+03  0.1600E+03
    -38.746  0.0000E+00  0.0000E+00  0.1600E+03  0.1600E+03
    -38.507  0.0000E+00  0.0000E+00  0.1600E+03  0.1600E+03
    -38.267  0.0000E+00  0.0000E+00  0.1600E+03  0.1600E+03
    -38.028  0.0000E+00  0.0000E+00  0.1600E+03  0.1600E+03
    -37.788  0.0000E+00  0.0000E+00  0.1600E+03  0.1600E+03
    -37.549  0.0000E+00  0.0000E+00  0.1600E+03  0.1600E+03
    -37.309  0.0000E+00  0.0000E+00  0.1600E+03  0.1600E+03
    -37.070  0.0000E+00  0.0000E+00  0.1600E+03  0.1600E+03
    -36.830  0.0000E+00  0.0000E+00  0.1600E+03  0.1600E+03
    -36.591  0.0000E+00  0.0000E+00  0.1600E+03  0.1600E+03
    -36.351  0.0000E+00  0.0000E+00  0.1600E+03  0.1600E+03
    -36.112  0.0000E+00  0.0000E+00  0.1600E+03  0.1600E+03
    -35.873  0.0000E+00  0.0000E+00  0.1600E+03  0.1600E+03
    -35.633  0.0000E+00  0.0000E+00  0.1600E+03  0.1600E+03
    -35.394  0.0000E+00  0.0000E+00  0.1600E+03  0.1600E+03
    -35.154  0.0000E+00  0.0000E+00  0.1600E+03  0.1600E+03
    -34.915  0.0000E+00  0.0000E+00  0.1600E+03  0.1600E+03
    -34.675  0.0000E+00  0.0000E+00  0.1600E+03  0.1600E+03
    -34.436  0.0000E+00  0.0000E+00  0.1600E+03  0.1600E+03
    -34.196  0.0000E+00  0.0000E+00  0.1600E+03  0.1600E+03
    -33.957  0.0000E+00  0.0000E+00  0.1600E+03  0.1600E+03
    -33.717  0.0000E+00  0.0000E+00  0.1600E+03  0.1600E+03
    -33.478  0.0000E+00  0.0000E+00  0.1600E+03  0.1600E+03
    -33.238  0.0000E+00  0.0000E+00  0.1600E+03  0.1600E+03
    -32.999  0.0000E+00  0.0000E+00  0.1600E+03  0.1600E+03
    -32.759  0.0000E+00  0.0000E+00  0.1600E+03  0.1600E+03
    -32.520  0.0000E+00  0.0000E+00  0.1600E+03  0.1600E+03
    -32.281  0.0000E+00  0.0000E+00  0.1600E+03  0.1600E+03
    -32.041  0.0000E+00  0.0000E+00  0.1600E+03  0.1600E+03
    -31.802  0.0000E+00  0.0000E+00  0.1600E+03  0.1600E+03
    -31.562  0.0000E+00  0.0000E+00  0.1600E+03  0.1600E+03
    -31.323  0.0000E+00  0.0000E+00  0.1600E+03  0.1600E+03
    -31.083  0.0000E+00  0.0000E+00  0.1600E+03  0.1600E+03
    -30.844  0.0000E+00  0.0000E+00  0.1600E+03  0.1600E+03
    -30.604  0.0000E+00  0.0000E+00  0.1600E+03  0.1600E+03
    -30.365  0.0000E+00  0.0000E+00  0.1600E+03  0.1600E+03
    -30.125  0.0000E+00  0.0000E+00  0.1600E+03  0.1600E+03
    -29.886  0.0000E+00  0.0000E+00  0.1600E+03  0.1600E+03
    -29.646  0.0000E+00  0.0000E+00  0.1600E+03  0.1600E+03
    -29.407  0.0000E+00  0.0000E+00  0.1600E+03  0.1600E+03
    -29.168  0.0000E+00  0.0000E+00  0.1600E+03  0.1600E+03
    -28.928  0.0000E+00  0.0000E+00  0.1600E+03  0.1600E+03
    -28.689  0.0000E+00  0.0000E+00  0.1600E+03  0.1600E+03
    -28.449  0.0000E+00  0.0000E+00  0.1600E+03  0.1600E+03
    -28.210  0.0000E+00  0.0000E+00  0.1600E+03  0.1600E+03
    -27.970  0.0000E+00  0.0000E+00  0.1600E+03  0.1600E+03
    -27.731  0.0000E+00  0.0000E+00  0.1600E+03  0.1600E+03
    -27.491  0.0000E+00  0.0000E+00  0.1600E+03  0.1600E+03
    -27.252  0.0000E+00  0.0000E+00  0.1600E+03  0.1600E+03
    -27.012  0.0000E+00  0.0000E+00  0.1600E+03  0.1600E+03
    -26.773  0.0000E+00  0.0000E+00  0.1600E+03  0.1600E+03
    -26.533  0.0000E+00  0.0000E+00  0.1600E+03  0.1600E+03
    -26.294  0.0000E+00  0.0000E+00  0.1600E+03  0.1600E+03
    -26.055  0.0000E+00  0.0000E+00  0.1600E+03  0.1600E+03
    -25.815  0.0000E+00  0.0000E+00  0.1600E+03  0.1600E+03
    -25.576  0.0000E+00  0.0000E+00  0.1600E+03  0.1600E+03
    -25.336  0.0000E+00  0.0000E+00  0.1600E+03  0.1600E+03
    -25.097  0.0000E+00  0.0000E+00  0.1600E+03  0.1600E+03
    -24.857  0.0000E+00  0.0000E+00  0.1600E+03  0.1600E+03
    -24.618  0.0000E+00  0.0000E+00  0.1600E+03  0.1600E+03
    -24.378  0.0000E+00  0.0000E+00  0.1600E+03  0.1600E+03
    -24.139  0.0000E+00  0.0000E+00  0.1600E+03  0.1600E+03
    -23.899  0.0000E+00  0.0000E+00  0.1600E+03  0.1600E+03
    -23.660  0.0000E+00  0.0000E+00  0.1600E+03  0.1600E+03
    -23.420  0.0000E+00  0.0000E+00  0.1600E+03  0.1600E+03
    -23.181  0.0000E+00  0.0000E+00  0.1600E+03  0.1600E+03
    -22.941  0.0000E+00  0.0000E+00  0.1600E+03  0.1600E+03
    -22.702  0.0000E+00  0.0000E+00  0.1600E+03  0.1600E+03
    -22.463  0.0000E+00  0.0000E+00  0.1600E+03  0.1600E+03
    -22.223  0.0000E+00  0.0000E+00  0.1600E+03  0.1600E+03
    -21.984  0.0000E+00  0.0000E+00  0.1600E+03  0.1600E+03
    -21.744  0.0000E+00  0.0000E+00  0.1600E+03  0.1600E+03
    -21.505  0.0000E+00  0.0000E+00  0.1600E+03  0.1600E+03
    -21.265  0.0000E+00  0.0000E+00  0.1600E+03  0.1600E+03
    -21.026  0.0000E+00  0.0000E+00  0.1600E+03  0.1600E+03
    -20.786  0.0000E+00  0.0000E+00  0.1600E+03  0.1600E+03
    -20.547  0.0000E+00  0.0000E+00  0.1600E+03  0.1600E+03
    -20.307  0.0000E+00  0.0000E+00  0.1600E+03  0.1600E+03
    -20.068  0.0000E+00  0.0000E+00  0.1600E+03  0.1600E+03
    -19.828  0.0000E+00  0.0000E+00  0.1600E+03  0.1600E+03
    -19.589  0.0000E+00  0.0000E+00  0.1600E+03  0.1600E+03
    -19.350  0.0000E+00  0.0000E+00  0.1600E+03  0.1600E+03
    -19.110  0.0000E+00  0.0000E+00  0.1600E+03  0.1600E+03
    -18.871  0.0000E+00  0.0000E+00  0.1600E+03  0.1600E+03
    -18.631  0.0000E+00  0.0000E+00  0.1600E+03  0.1600E+03
    -18.392  0.0000E+00  0.0000E+00  0.1600E+03  0.1600E+03
    -18.152  0.0000E+00  0.0000E+00  0.1600E+03  0.1600E+03
    -17.913  0.0000E+00  0.0000E+00  0.1600E+03  0.1600E+03
    -17.673  0.0000E+00  0.0000E+00  0.1600E+03  0.1600E+03
    -17.434  0.0000E+00  0.0000E+00  0.1600E+03  0.1600E+03
    -17.194  0.0000E+00  0.0000E+00  0.1600E+03  0.1600E+03
    -16.955  0.0000E+00  0.0000E+00  0.1600E+03  0.1600E+03
    -16.715  0.0000E+00  0.0000E+00  0.1600E+03  0.1600E+03
    -16.476  0.0000E+00  0.0000E+00  0.1600E+03  0.1600E+03
    -16.237  0.0000E+00  0.0000E+00  0.1600E+03  0.1600E+03
    -15.997  0.0000E+00  0.0000E+00  0.1600E+03  0.1600E+03
    -15.758  0.0000E+00  0.0000E+00  0.1600E+03  0.1600E+03
    -15.518  0.0000E+00  0.0000E+00  0.1600E+03  0.1600E+03
    -15.279  0.0000E+00  0.0000E+00  0.1600E+03  0.1600E+03
    -15.039  0.0000E+00  0.0000E+00  0.1600E+03  0.1600E+03
    -14.800  0.0000E+00  0.0000E+00  0.1600E+03  0.1600E+03
    -14.560  0.0000E+00  0.0000E+00  0.1600E+03  0.1600E+03
    -14.321  0.0000E+00  0.0000E+00  0.1600E+03  0.1600E+03
    -14.081  0.0000E+00  0.0000E+00  0.1600E+03  0.1600E+03
    -13.842  0.0000E+00  0.0000E+00  0.1600E+03  0.1600E+03
    -13.602  0.1764E-01  0.0000E+00  0.1600E+03  0.1600E+03
    -13.363  0.5288E+02  0.1895E-05  0.1727E+03  0.1600E+03
    -13.123  0.7223E+02  0.2875E+02  0.1900E+03  0.1669E+03
    -12.884  0.8506E+01  0.1001E+03  0.1920E+03  0.1909E+03
    -12.645  0.0000E+00  0.4801E+01  0.1920E+03  0.1920E+03
    -12.405  0.0000E+00  0.0000E+00  0.1920E+03  0.1920E+03
    -12.166  0.0000E+00  0.0000E+00  0.1920E+03  0.1920E+03
    -11.926  0.0000E+00  0.0000E+00  0.1920E+03  0.1920E+03
    -11.687  0.0000E+00  0.0000E+00  0.1920E+03  0.1920E+03
    -11.447  0.0000E+00  0.0000E+00  0.1920E+03  0.1920E+03
    -11.208  0.0000E+00  0.0000E+00  0.1920E+03  0.1920E+03
    -10.968  0.0000E+00  0.0000E+00  0.1920E+03  0.1920E+03
    -10.729  0.0000E+00  0.0000E+00  0.1920E+03  0.1920E+03
    -10.489  0.0000E+00  0.0000E+00  0.1920E+03  0.1920E+03
    -10.250  0.0000E+00  0.0000E+00  0.1920E+03  0.1920E+03
    -10.010  0.0000E+00  0.0000E+00  0.1920E+03  0.1920E+03
     -9.771  0.0000E+00  0.0000E+00  0.1920E+03  0.1920E+03
     -9.532  0.0000E+00  0.0000E+00  0.1920E+03  0.1920E+03
     -9.292  0.0000E+00  0.0000E+00  0.1920E+03  0.1920E+03
     -9.053  0.0000E+00  0.0000E+00  0.1920E+03  0.1920E+03
     -8.813  0.0000E+00  0.0000E+00  0.1920E+03  0.1920E+03
     -8.574  0.0000E+00  0.0000E+00  0.1920E+03  0.1920E+03
     -8.334  0.0000E+00  0.0000E+00  0.1920E+03  0.1920E+03
     -8.095  0.0000E+00  0.0000E+00  0.1920E+03  0.1920E+03
     -7.855  0.4203E-10  0.0000E+00  0.1920E+03  0.1920E+03
     -7.616  0.1540E+01  0.4057E-07  0.1924E+03  0.1920E+03
     -7.376  0.4674E+02  0.7632E+01  0.2036E+03  0.1938E+03
     -7.137  0.6532E+02  0.6074E+02  0.2192E+03  0.2084E+03
     -6.897  0.2002E+02  0.5438E+02  0.2240E+03  0.2214E+03
     -6.658  0.1012E-01  0.1088E+02  0.2240E+03  0.2240E+03
     -6.419  0.0000E+00  0.3765E-02  0.2240E+03  0.2240E+03
     -6.179  0.0000E+00  0.0000E+00  0.2240E+03  0.2240E+03
     -5.940  0.0000E+00  0.0000E+00  0.2240E+03  0.2240E+03
     -5.700  0.0000E+00  0.0000E+00  0.2240E+03  0.2240E+03
     -5.461  0.0000E+00  0.0000E+00  0.2240E+03  0.2240E+03
     -5.221  0.0000E+00  0.0000E+00  0.2240E+03  0.2240E+03
     -4.982  0.0000E+00  0.0000E+00  0.2240E+03  0.2240E+03
     -4.742  0.0000E+00  0.0000E+00  0.2240E+03  0.2240E+03
     -4.503  0.0000E+00  0.0000E+00  0.2240E+03  0.2240E+03
     -4.263  0.0000E+00  0.0000E+00  0.2240E+03  0.2240E+03
     -4.024  0.0000E+00  0.0000E+00  0.2240E+03  0.2240E+03
     -3.784  0.0000E+00  0.0000E+00  0.2240E+03  0.2240E+03
     -3.545  0.0000E+00  0.0000E+00  0.2240E+03  0.2240E+03
     -3.305  0.0000E+00  0.0000E+00  0.2240E+03  0.2240E+03
     -3.066  0.0000E+00  0.0000E+00  0.2240E+03  0.2240E+03
     -2.827  0.3606E-15  0.0000E+00  0.2240E+03  0.2240E+03
     -2.587  0.3806E+00  0.0000E+00  0.2241E+03  0.2240E+03
     -2.348  0.3091E+02  0.0000E+00  0.2315E+03  0.2240E+03
     -2.108  0.1152E+02  0.0000E+00  0.2343E+03  0.2240E+03
     -1.869  0.1287E+02  0.0000E+00  0.2373E+03  0.2240E+03
     -1.629  0.1135E+02  0.0000E+00  0.2401E+03  0.2240E+03
     -1.390  0.1563E+02  0.0000E+00  0.2438E+03  0.2240E+03
     -1.150  0.6282E+02  0.2043E-05  0.2588E+03  0.2240E+03
     -0.911  0.7651E+02  0.3356E+01  0.2772E+03  0.2248E+03
     -0.671  0.6753E+02  0.3288E+02  0.2933E+03  0.2327E+03
     -0.432  0.7785E+02  0.1889E+02  0.3120E+03  0.2372E+03
     -0.192  0.1061E+03  0.1910E+02  0.3374E+03  0.2418E+03
      0.047  0.7861E+02  0.1223E+02  0.3562E+03  0.2447E+03
      0.286  0.5344E+02  0.3171E+02  0.3690E+03  0.2523E+03
      0.526  0.4757E+02  0.8132E+02  0.3804E+03  0.2718E+03
      0.765  0.4621E+02  0.6837E+02  0.3914E+03  0.2881E+03
      1.005  0.4670E+02  0.6981E+02  0.4026E+03  0.3049E+03
      1.244  0.7668E+02  0.6348E+02  0.4210E+03  0.3201E+03
      1.484  0.8763E+02  0.2170E+02  0.4420E+03  0.3253E+03
      1.723  0.5827E+02  0.5071E+02  0.4559E+03  0.3374E+03
      1.963  0.4005E+02  0.5158E+02  0.4655E+03  0.3497E+03
      2.202  0.4717E+02  0.3059E+02  0.4768E+03  0.3571E+03
      2.442  0.4166E+02  0.3904E+02  0.4868E+03  0.3664E+03
      2.681  0.5332E+02  0.6465E+02  0.4996E+03  0.3819E+03
      2.921  0.5385E+02  0.7220E+02  0.5125E+03  0.3992E+03
      3.160  0.5656E+02  0.5999E+02  0.5260E+03  0.4136E+03
      3.399  0.5306E+02  0.1610E+02  0.5387E+03  0.4174E+03
      3.639  0.5333E+02  0.3611E+02  0.5515E+03  0.4261E+03
      3.878  0.3992E+02  0.5935E+02  0.5610E+03  0.4403E+03
      4.118  0.3550E+02  0.3222E+02  0.5695E+03  0.4480E+03
      4.357  0.1926E+02  0.4577E-01  0.5741E+03  0.4480E+03
      4.597  0.7416E+01  0.0000E+00  0.5759E+03  0.4480E+03
      4.836  0.3218E+00  0.0000E+00  0.5760E+03  0.4480E+03
      5.076  0.0000E+00  0.0000E+00  0.5760E+03  0.4480E+03
      5.315  0.0000E+00  0.0000E+00  0.5760E+03  0.4480E+03
      5.555  0.0000E+00  0.0000E+00  0.5760E+03  0.4480E+03
      5.794  0.0000E+00  0.0000E+00  0.5760E+03  0.4480E+03
      6.034  0.0000E+00  0.0000E+00  0.5760E+03  0.4480E+03
      6.273  0.0000E+00  0.1545E-15  0.5760E+03  0.4480E+03
      6.512  0.0000E+00  0.6714E-01  0.5760E+03  0.4480E+03
      6.752  0.0000E+00  0.2428E+02  0.5760E+03  0.4538E+03
      6.991  0.6803E-06  0.7768E+02  0.5760E+03  0.4724E+03
      7.231  0.2291E+00  0.6322E+02  0.5761E+03  0.4876E+03
      7.470  0.1872E+00  0.6383E+02  0.5761E+03  0.5029E+03
      7.710  0.1386E+01  0.6309E+02  0.5764E+03  0.5180E+03
      7.949  0.3019E+01  0.9501E+02  0.5772E+03  0.5407E+03
      8.189  0.6548E+01  0.7272E+02  0.5787E+03  0.5581E+03
      8.428  0.9474E+01  0.4921E+02  0.5810E+03  0.5699E+03
      8.668  0.1874E+02  0.2503E+02  0.5855E+03  0.5759E+03
      8.907  0.2338E+02  0.7265E+01  0.5911E+03  0.5776E+03
      9.147  0.3137E+02  0.8599E+01  0.5986E+03  0.5797E+03
      9.386  0.2853E+02  0.1780E+02  0.6054E+03  0.5840E+03
      9.626  0.2978E+02  0.2684E+02  0.6126E+03  0.5904E+03
      9.865  0.2621E+02  0.3190E+02  0.6188E+03  0.5980E+03
     10.104  0.1755E+02  0.3782E+02  0.6230E+03  0.6071E+03
     10.344  0.2596E+02  0.3349E+02  0.6292E+03  0.6151E+03
     10.583  0.3630E+02  0.2858E+02  0.6379E+03  0.6220E+03
     10.823  0.4023E+02  0.3309E+02  0.6476E+03  0.6299E+03
     11.062  0.3301E+02  0.2821E+02  0.6555E+03  0.6366E+03
     11.302  0.4922E+02  0.2600E+02  0.6673E+03  0.6429E+03
     11.541  0.4114E+02  0.2920E+02  0.6771E+03  0.6499E+03
     11.781  0.4150E+02  0.5094E+02  0.6871E+03  0.6621E+03
     12.020  0.3405E+02  0.5025E+02  0.6952E+03  0.6741E+03
     12.260  0.3279E+02  0.5603E+02  0.7031E+03  0.6875E+03
     12.499  0.3251E+02  0.3156E+02  0.7108E+03  0.6951E+03
     12.739  0.3680E+02  0.3267E+02  0.7197E+03  0.7029E+03
     12.978  0.3449E+02  0.3216E+02  0.7279E+03  0.7106E+03
     13.217  0.1561E+02  0.3810E+02  0.7317E+03  0.7197E+03
     13.457  0.1086E+01  0.3352E+02  0.7319E+03  0.7277E+03
     13.696  0.3672E+00  0.1702E+02  0.7320E+03  0.7318E+03
     13.936  0.0000E+00  0.7914E+00  0.7320E+03  0.7320E+03
     14.175  0.0000E+00  0.3228E-05  0.7320E+03  0.7320E+03
     14.415  0.0000E+00  0.0000E+00  0.7320E+03  0.7320E+03
     14.654  0.0000E+00  0.0000E+00  0.7320E+03  0.7320E+03
     14.894  0.0000E+00  0.0000E+00  0.7320E+03  0.7320E+03
     15.133  0.0000E+00  0.0000E+00  0.7320E+03  0.7320E+03
     15.373  0.0000E+00  0.0000E+00  0.7320E+03  0.7320E+03
     15.612  0.0000E+00  0.0000E+00  0.7320E+03  0.7320E+03
     15.852  0.0000E+00  0.0000E+00  0.7320E+03  0.7320E+03
     16.091  0.0000E+00  0.0000E+00  0.7320E+03  0.7320E+03
     16.330  0.0000E+00  0.0000E+00  0.7320E+03  0.7320E+03
     16.570  0.0000E+00  0.0000E+00  0.7320E+03  0.7320E+03
     16.809  0.0000E+00  0.0000E+00  0.7320E+03  0.7320E+03
     17.049  0.0000E+00  0.0000E+00  0.7320E+03  0.7320E+03
