 320 320   0   0
  0.1216366E+02  0.1589065E-08  0.1589065E-08  0.1541455E-08  0.5000000E-15
  1.000000000000000E-004
  CAR 
 unknown system                          
     16.93669246    -54.72829355  301      5.02238854      1.00000000
    -54.728  0.0000E+00  0.0000E+00  0.0000E+00  0.0000E+00
    -54.489  0.0000E+00  0.0000E+00  0.0000E+00  0.0000E+00
    -54.251  0.0000E+00  0.0000E+00  0.0000E+00  0.0000E+00
    -54.012  0.0000E+00  0.0000E+00  0.0000E+00  0.0000E+00
    -53.773  0.0000E+00  0.0000E+00  0.0000E+00  0.0000E+00
    -53.534  0.0000E+00  0.0000E+00  0.0000E+00  0.0000E+00
    -53.295  0.0000E+00  0.0000E+00  0.0000E+00  0.0000E+00
    -53.056  0.0000E+00  0.0000E+00  0.0000E+00  0.0000E+00
    -52.817  0.0000E+00  0.0000E+00  0.0000E+00  0.0000E+00
    -52.578  0.0000E+00  0.0000E+00  0.0000E+00  0.0000E+00
    -52.339  0.0000E+00  0.0000E+00  0.0000E+00  0.0000E+00
    -52.101  0.0000E+00  0.0000E+00  0.0000E+00  0.0000E+00
    -51.862  0.0000E+00  0.0000E+00  0.0000E+00  0.0000E+00
    -51.623  0.1574E-02  0.0000E+00  0.3759E-03  0.0000E+00
    -51.384  0.2655E+03  0.0000E+00  0.6343E+02  0.0000E+00
    -51.145  0.2366E+01  0.0000E+00  0.6400E+02  0.0000E+00
    -50.906  0.0000E+00  0.0000E+00  0.6400E+02  0.0000E+00
    -50.667  0.0000E+00  0.0000E+00  0.6400E+02  0.0000E+00
    -50.428  0.0000E+00  0.0000E+00  0.6400E+02  0.0000E+00
    -50.190  0.3672E-01  0.0000E+00  0.6401E+02  0.0000E+00
    -49.951  0.5330E+03  0.0000E+00  0.1913E+03  0.0000E+00
    -49.712  0.2795E+01  0.0000E+00  0.1920E+03  0.0000E+00
    -49.473  0.0000E+00  0.0000E+00  0.1920E+03  0.0000E+00
    -49.234  0.0000E+00  0.0000E+00  0.1920E+03  0.0000E+00
    -48.995  0.0000E+00  0.0000E+00  0.1920E+03  0.0000E+00
    -48.756  0.0000E+00  0.0000E+00  0.1920E+03  0.0000E+00
    -48.517  0.0000E+00  0.0000E+00  0.1920E+03  0.0000E+00
    -48.278  0.0000E+00  0.0000E+00  0.1920E+03  0.0000E+00
    -48.040  0.0000E+00  0.0000E+00  0.1920E+03  0.0000E+00
    -47.801  0.0000E+00  0.0000E+00  0.1920E+03  0.0000E+00
    -47.562  0.0000E+00  0.0000E+00  0.1920E+03  0.0000E+00
    -47.323  0.0000E+00  0.0000E+00  0.1920E+03  0.0000E+00
    -47.084  0.0000E+00  0.0000E+00  0.1920E+03  0.0000E+00
    -46.845  0.0000E+00  0.9853E-01  0.1920E+03  0.2354E-01
    -46.606  0.0000E+00  0.2677E+03  0.1920E+03  0.6398E+02
    -46.367  0.0000E+00  0.1131E+03  0.1920E+03  0.9099E+02
    -46.128  0.0000E+00  0.4229E+03  0.1920E+03  0.1920E+03
    -45.890  0.0000E+00  0.0000E+00  0.1920E+03  0.1920E+03
    -45.651  0.0000E+00  0.0000E+00  0.1920E+03  0.1920E+03
    -45.412  0.0000E+00  0.0000E+00  0.1920E+03  0.1920E+03
    -45.173  0.0000E+00  0.0000E+00  0.1920E+03  0.1920E+03
    -44.934  0.0000E+00  0.0000E+00  0.1920E+03  0.1920E+03
    -44.695  0.0000E+00  0.0000E+00  0.1920E+03  0.1920E+03
    -44.456  0.0000E+00  0.0000E+00  0.1920E+03  0.1920E+03
    -44.217  0.0000E+00  0.0000E+00  0.1920E+03  0.1920E+03
    -43.979  0.0000E+00  0.0000E+00  0.1920E+03  0.1920E+03
    -43.740  0.0000E+00  0.0000E+00  0.1920E+03  0.1920E+03
    -43.501  0.0000E+00  0.0000E+00  0.1920E+03  0.1920E+03
    -43.262  0.0000E+00  0.0000E+00  0.1920E+03  0.1920E+03
    -43.023  0.0000E+00  0.0000E+00  0.1920E+03  0.1920E+03
    -42.784  0.0000E+00  0.0000E+00  0.1920E+03  0.1920E+03
    -42.545  0.0000E+00  0.0000E+00  0.1920E+03  0.1920E+03
    -42.306  0.0000E+00  0.0000E+00  0.1920E+03  0.1920E+03
    -42.067  0.0000E+00  0.0000E+00  0.1920E+03  0.1920E+03
    -41.829  0.0000E+00  0.0000E+00  0.1920E+03  0.1920E+03
    -41.590  0.0000E+00  0.0000E+00  0.1920E+03  0.1920E+03
    -41.351  0.0000E+00  0.0000E+00  0.1920E+03  0.1920E+03
    -41.112  0.0000E+00  0.0000E+00  0.1920E+03  0.1920E+03
    -40.873  0.0000E+00  0.0000E+00  0.1920E+03  0.1920E+03
    -40.634  0.5648E-10  0.3737E-10  0.1920E+03  0.1920E+03
    -40.395  0.8306E+02  0.7785E+02  0.2118E+03  0.2106E+03
    -40.156  0.4502E+03  0.4559E+03  0.3194E+03  0.3195E+03
    -39.918  0.2544E+01  0.2089E+01  0.3200E+03  0.3200E+03
    -39.679  0.0000E+00  0.0000E+00  0.3200E+03  0.3200E+03
    -39.440  0.0000E+00  0.0000E+00  0.3200E+03  0.3200E+03
    -39.201  0.0000E+00  0.0000E+00  0.3200E+03  0.3200E+03
    -38.962  0.0000E+00  0.0000E+00  0.3200E+03  0.3200E+03
    -38.723  0.0000E+00  0.0000E+00  0.3200E+03  0.3200E+03
    -38.484  0.0000E+00  0.0000E+00  0.3200E+03  0.3200E+03
    -38.245  0.0000E+00  0.0000E+00  0.3200E+03  0.3200E+03
    -38.006  0.0000E+00  0.0000E+00  0.3200E+03  0.3200E+03
    -37.768  0.0000E+00  0.0000E+00  0.3200E+03  0.3200E+03
    -37.529  0.0000E+00  0.0000E+00  0.3200E+03  0.3200E+03
    -37.290  0.0000E+00  0.0000E+00  0.3200E+03  0.3200E+03
    -37.051  0.0000E+00  0.0000E+00  0.3200E+03  0.3200E+03
    -36.812  0.0000E+00  0.0000E+00  0.3200E+03  0.3200E+03
    -36.573  0.0000E+00  0.0000E+00  0.3200E+03  0.3200E+03
    -36.334  0.0000E+00  0.0000E+00  0.3200E+03  0.3200E+03
    -36.095  0.0000E+00  0.0000E+00  0.3200E+03  0.3200E+03
    -35.857  0.0000E+00  0.0000E+00  0.3200E+03  0.3200E+03
    -35.618  0.0000E+00  0.0000E+00  0.3200E+03  0.3200E+03
    -35.379  0.0000E+00  0.0000E+00  0.3200E+03  0.3200E+03
    -35.140  0.0000E+00  0.0000E+00  0.3200E+03  0.3200E+03
    -34.901  0.0000E+00  0.0000E+00  0.3200E+03  0.3200E+03
    -34.662  0.0000E+00  0.0000E+00  0.3200E+03  0.3200E+03
    -34.423  0.0000E+00  0.0000E+00  0.3200E+03  0.3200E+03
    -34.184  0.0000E+00  0.0000E+00  0.3200E+03  0.3200E+03
    -33.945  0.0000E+00  0.0000E+00  0.3200E+03  0.3200E+03
    -33.707  0.0000E+00  0.0000E+00  0.3200E+03  0.3200E+03
    -33.468  0.0000E+00  0.0000E+00  0.3200E+03  0.3200E+03
    -33.229  0.0000E+00  0.0000E+00  0.3200E+03  0.3200E+03
    -32.990  0.0000E+00  0.0000E+00  0.3200E+03  0.3200E+03
    -32.751  0.0000E+00  0.0000E+00  0.3200E+03  0.3200E+03
    -32.512  0.0000E+00  0.0000E+00  0.3200E+03  0.3200E+03
    -32.273  0.0000E+00  0.0000E+00  0.3200E+03  0.3200E+03
    -32.034  0.0000E+00  0.0000E+00  0.3200E+03  0.3200E+03
    -31.795  0.0000E+00  0.0000E+00  0.3200E+03  0.3200E+03
    -31.557  0.0000E+00  0.0000E+00  0.3200E+03  0.3200E+03
    -31.318  0.0000E+00  0.0000E+00  0.3200E+03  0.3200E+03
    -31.079  0.0000E+00  0.0000E+00  0.3200E+03  0.3200E+03
    -30.840  0.0000E+00  0.0000E+00  0.3200E+03  0.3200E+03
    -30.601  0.0000E+00  0.0000E+00  0.3200E+03  0.3200E+03
    -30.362  0.0000E+00  0.0000E+00  0.3200E+03  0.3200E+03
    -30.123  0.0000E+00  0.0000E+00  0.3200E+03  0.3200E+03
    -29.884  0.0000E+00  0.0000E+00  0.3200E+03  0.3200E+03
    -29.646  0.0000E+00  0.0000E+00  0.3200E+03  0.3200E+03
    -29.407  0.0000E+00  0.0000E+00  0.3200E+03  0.3200E+03
    -29.168  0.0000E+00  0.0000E+00  0.3200E+03  0.3200E+03
    -28.929  0.0000E+00  0.0000E+00  0.3200E+03  0.3200E+03
    -28.690  0.0000E+00  0.0000E+00  0.3200E+03  0.3200E+03
    -28.451  0.0000E+00  0.0000E+00  0.3200E+03  0.3200E+03
    -28.212  0.0000E+00  0.0000E+00  0.3200E+03  0.3200E+03
    -27.973  0.0000E+00  0.0000E+00  0.3200E+03  0.3200E+03
    -27.734  0.0000E+00  0.0000E+00  0.3200E+03  0.3200E+03
    -27.496  0.0000E+00  0.0000E+00  0.3200E+03  0.3200E+03
    -27.257  0.0000E+00  0.0000E+00  0.3200E+03  0.3200E+03
    -27.018  0.0000E+00  0.0000E+00  0.3200E+03  0.3200E+03
    -26.779  0.0000E+00  0.0000E+00  0.3200E+03  0.3200E+03
    -26.540  0.0000E+00  0.0000E+00  0.3200E+03  0.3200E+03
    -26.301  0.0000E+00  0.0000E+00  0.3200E+03  0.3200E+03
    -26.062  0.0000E+00  0.0000E+00  0.3200E+03  0.3200E+03
    -25.823  0.0000E+00  0.0000E+00  0.3200E+03  0.3200E+03
    -25.585  0.0000E+00  0.0000E+00  0.3200E+03  0.3200E+03
    -25.346  0.0000E+00  0.0000E+00  0.3200E+03  0.3200E+03
    -25.107  0.0000E+00  0.0000E+00  0.3200E+03  0.3200E+03
    -24.868  0.0000E+00  0.0000E+00  0.3200E+03  0.3200E+03
    -24.629  0.0000E+00  0.0000E+00  0.3200E+03  0.3200E+03
    -24.390  0.0000E+00  0.0000E+00  0.3200E+03  0.3200E+03
    -24.151  0.0000E+00  0.0000E+00  0.3200E+03  0.3200E+03
    -23.912  0.0000E+00  0.0000E+00  0.3200E+03  0.3200E+03
    -23.673  0.0000E+00  0.0000E+00  0.3200E+03  0.3200E+03
    -23.435  0.0000E+00  0.0000E+00  0.3200E+03  0.3200E+03
    -23.196  0.0000E+00  0.0000E+00  0.3200E+03  0.3200E+03
    -22.957  0.0000E+00  0.0000E+00  0.3200E+03  0.3200E+03
    -22.718  0.0000E+00  0.0000E+00  0.3200E+03  0.3200E+03
    -22.479  0.0000E+00  0.0000E+00  0.3200E+03  0.3200E+03
    -22.240  0.0000E+00  0.0000E+00  0.3200E+03  0.3200E+03
    -22.001  0.0000E+00  0.0000E+00  0.3200E+03  0.3200E+03
    -21.762  0.0000E+00  0.0000E+00  0.3200E+03  0.3200E+03
    -21.524  0.0000E+00  0.0000E+00  0.3200E+03  0.3200E+03
    -21.285  0.0000E+00  0.0000E+00  0.3200E+03  0.3200E+03
    -21.046  0.0000E+00  0.0000E+00  0.3200E+03  0.3200E+03
    -20.807  0.0000E+00  0.0000E+00  0.3200E+03  0.3200E+03
    -20.568  0.0000E+00  0.0000E+00  0.3200E+03  0.3200E+03
    -20.329  0.0000E+00  0.0000E+00  0.3200E+03  0.3200E+03
    -20.090  0.0000E+00  0.0000E+00  0.3200E+03  0.3200E+03
    -19.851  0.0000E+00  0.0000E+00  0.3200E+03  0.3200E+03
    -19.612  0.0000E+00  0.0000E+00  0.3200E+03  0.3200E+03
    -19.374  0.0000E+00  0.0000E+00  0.3200E+03  0.3200E+03
    -19.135  0.0000E+00  0.0000E+00  0.3200E+03  0.3200E+03
    -18.896  0.0000E+00  0.0000E+00  0.3200E+03  0.3200E+03
    -18.657  0.0000E+00  0.0000E+00  0.3200E+03  0.3200E+03
    -18.418  0.0000E+00  0.0000E+00  0.3200E+03  0.3200E+03
    -18.179  0.0000E+00  0.0000E+00  0.3200E+03  0.3200E+03
    -17.940  0.0000E+00  0.0000E+00  0.3200E+03  0.3200E+03
    -17.701  0.0000E+00  0.0000E+00  0.3200E+03  0.3200E+03
    -17.463  0.0000E+00  0.0000E+00  0.3200E+03  0.3200E+03
    -17.224  0.0000E+00  0.0000E+00  0.3200E+03  0.3200E+03
    -16.985  0.0000E+00  0.0000E+00  0.3200E+03  0.3200E+03
    -16.746  0.0000E+00  0.0000E+00  0.3200E+03  0.3200E+03
    -16.507  0.0000E+00  0.0000E+00  0.3200E+03  0.3200E+03
    -16.268  0.0000E+00  0.0000E+00  0.3200E+03  0.3200E+03
    -16.029  0.0000E+00  0.0000E+00  0.3200E+03  0.3200E+03
    -15.790  0.0000E+00  0.0000E+00  0.3200E+03  0.3200E+03
    -15.551  0.0000E+00  0.0000E+00  0.3200E+03  0.3200E+03
    -15.313  0.0000E+00  0.0000E+00  0.3200E+03  0.3200E+03
    -15.074  0.0000E+00  0.0000E+00  0.3200E+03  0.3200E+03
    -14.835  0.0000E+00  0.0000E+00  0.3200E+03  0.3200E+03
    -14.596  0.0000E+00  0.0000E+00  0.3200E+03  0.3200E+03
    -14.357  0.0000E+00  0.0000E+00  0.3200E+03  0.3200E+03
    -14.118  0.0000E+00  0.0000E+00  0.3200E+03  0.3200E+03
    -13.879  0.6412E-08  0.0000E+00  0.3200E+03  0.3200E+03
    -13.640  0.2864E+02  0.0000E+00  0.3268E+03  0.3200E+03
    -13.401  0.1440E+03  0.5858E+00  0.3612E+03  0.3201E+03
    -13.163  0.9529E+02  0.1653E+03  0.3840E+03  0.3596E+03
    -12.924  0.1511E-01  0.1020E+03  0.3840E+03  0.3840E+03
    -12.685  0.0000E+00  0.1060E-02  0.3840E+03  0.3840E+03
    -12.446  0.0000E+00  0.0000E+00  0.3840E+03  0.3840E+03
    -12.207  0.0000E+00  0.0000E+00  0.3840E+03  0.3840E+03
    -11.968  0.0000E+00  0.0000E+00  0.3840E+03  0.3840E+03
    -11.729  0.0000E+00  0.0000E+00  0.3840E+03  0.3840E+03
    -11.490  0.0000E+00  0.0000E+00  0.3840E+03  0.3840E+03
    -11.252  0.0000E+00  0.0000E+00  0.3840E+03  0.3840E+03
    -11.013  0.0000E+00  0.0000E+00  0.3840E+03  0.3840E+03
    -10.774  0.0000E+00  0.0000E+00  0.3840E+03  0.3840E+03
    -10.535  0.0000E+00  0.0000E+00  0.3840E+03  0.3840E+03
    -10.296  0.0000E+00  0.0000E+00  0.3840E+03  0.3840E+03
    -10.057  0.0000E+00  0.0000E+00  0.3840E+03  0.3840E+03
     -9.818  0.0000E+00  0.0000E+00  0.3840E+03  0.3840E+03
     -9.579  0.0000E+00  0.0000E+00  0.3840E+03  0.3840E+03
     -9.340  0.0000E+00  0.0000E+00  0.3840E+03  0.3840E+03
     -9.102  0.0000E+00  0.0000E+00  0.3840E+03  0.3840E+03
     -8.863  0.0000E+00  0.0000E+00  0.3840E+03  0.3840E+03
     -8.624  0.0000E+00  0.0000E+00  0.3840E+03  0.3840E+03
     -8.385  0.0000E+00  0.0000E+00  0.3840E+03  0.3840E+03
     -8.146  0.0000E+00  0.0000E+00  0.3840E+03  0.3840E+03
     -7.907  0.0000E+00  0.0000E+00  0.3840E+03  0.3840E+03
     -7.668  0.8948E-04  0.0000E+00  0.3840E+03  0.3840E+03
     -7.429  0.2299E+02  0.4152E-02  0.3895E+03  0.3840E+03
     -7.191  0.1142E+03  0.5251E+02  0.4168E+03  0.3965E+03
     -6.952  0.1148E+03  0.1234E+03  0.4442E+03  0.4260E+03
     -6.713  0.1594E+02  0.8210E+02  0.4480E+03  0.4456E+03
     -6.474  0.5054E-04  0.9866E+01  0.4480E+03  0.4480E+03
     -6.235  0.0000E+00  0.3719E-04  0.4480E+03  0.4480E+03
     -5.996  0.0000E+00  0.0000E+00  0.4480E+03  0.4480E+03
     -5.757  0.0000E+00  0.0000E+00  0.4480E+03  0.4480E+03
     -5.518  0.0000E+00  0.0000E+00  0.4480E+03  0.4480E+03
     -5.279  0.0000E+00  0.0000E+00  0.4480E+03  0.4480E+03
     -5.041  0.0000E+00  0.0000E+00  0.4480E+03  0.4480E+03
     -4.802  0.0000E+00  0.0000E+00  0.4480E+03  0.4480E+03
     -4.563  0.0000E+00  0.0000E+00  0.4480E+03  0.4480E+03
     -4.324  0.0000E+00  0.0000E+00  0.4480E+03  0.4480E+03
     -4.085  0.0000E+00  0.0000E+00  0.4480E+03  0.4480E+03
     -3.846  0.0000E+00  0.0000E+00  0.4480E+03  0.4480E+03
     -3.607  0.0000E+00  0.0000E+00  0.4480E+03  0.4480E+03
     -3.368  0.0000E+00  0.0000E+00  0.4480E+03  0.4480E+03
     -3.130  0.0000E+00  0.0000E+00  0.4480E+03  0.4480E+03
     -2.891  0.1860E-06  0.0000E+00  0.4480E+03  0.4480E+03
     -2.652  0.2841E+02  0.0000E+00  0.4548E+03  0.4480E+03
     -2.413  0.5042E+02  0.0000E+00  0.4668E+03  0.4480E+03
     -2.174  0.2164E+02  0.0000E+00  0.4720E+03  0.4480E+03
     -1.935  0.7563E-06  0.0000E+00  0.4720E+03  0.4480E+03
     -1.696  0.4780E+02  0.0000E+00  0.4834E+03  0.4480E+03
     -1.457  0.2122E+02  0.0000E+00  0.4885E+03  0.4480E+03
     -1.218  0.1119E+03  0.4715E-03  0.5152E+03  0.4480E+03
     -0.980  0.1358E+03  0.1794E+02  0.5477E+03  0.4523E+03
     -0.741  0.1499E+03  0.7430E+02  0.5835E+03  0.4700E+03
     -0.502  0.1398E+03  0.1502E+02  0.6169E+03  0.4736E+03
     -0.263  0.1686E+03  0.5107E+02  0.6571E+03  0.4858E+03
     -0.024  0.1881E+03  0.1234E+02  0.7021E+03  0.4888E+03
      0.215  0.1126E+03  0.5591E+02  0.7290E+03  0.5021E+03
      0.454  0.1051E+03  0.1635E+03  0.7541E+03  0.5412E+03
      0.693  0.9868E+02  0.1500E+03  0.7776E+03  0.5770E+03
      0.932  0.9508E+02  0.2049E+03  0.8004E+03  0.6260E+03
      1.170  0.1223E+03  0.6059E+02  0.8296E+03  0.6404E+03
      1.409  0.1900E+03  0.2947E+02  0.8750E+03  0.6475E+03
      1.648  0.1684E+03  0.9460E+02  0.9152E+03  0.6701E+03
      1.887  0.5457E+02  0.8647E+02  0.9282E+03  0.6907E+03
      2.126  0.9693E+02  0.7644E+02  0.9514E+03  0.7090E+03
      2.365  0.6669E+02  0.5016E+02  0.9673E+03  0.7210E+03
      2.604  0.9408E+02  0.9686E+02  0.9898E+03  0.7441E+03
      2.843  0.1016E+03  0.1172E+03  0.1014E+04  0.7721E+03
      3.081  0.1068E+03  0.1516E+03  0.1040E+04  0.8083E+03
      3.320  0.1061E+03  0.7609E+02  0.1065E+04  0.8265E+03
      3.559  0.1004E+03  0.7136E+02  0.1089E+04  0.8436E+03
      3.798  0.9664E+02  0.1597E+03  0.1112E+04  0.8817E+03
      4.037  0.8411E+02  0.5986E+02  0.1132E+04  0.8960E+03
      4.276  0.4518E+02  0.6368E-02  0.1143E+04  0.8960E+03
      4.515  0.3486E+02  0.0000E+00  0.1151E+04  0.8960E+03
      4.754  0.3392E+01  0.0000E+00  0.1152E+04  0.8960E+03
      4.993  0.2708E-03  0.0000E+00  0.1152E+04  0.8960E+03
      5.231  0.0000E+00  0.0000E+00  0.1152E+04  0.8960E+03
      5.470  0.0000E+00  0.0000E+00  0.1152E+04  0.8960E+03
      5.709  0.0000E+00  0.0000E+00  0.1152E+04  0.8960E+03
      5.948  0.0000E+00  0.0000E+00  0.1152E+04  0.8960E+03
      6.187  0.0000E+00  0.0000E+00  0.1152E+04  0.8960E+03
      6.426  0.0000E+00  0.7819E-06  0.1152E+04  0.8960E+03
      6.665  0.0000E+00  0.1670E+02  0.1152E+04  0.9000E+03
      6.904  0.4967E-14  0.1350E+03  0.1152E+04  0.9322E+03
      7.142  0.9624E-01  0.1324E+03  0.1152E+04  0.9639E+03
      7.381  0.4270E+00  0.1347E+03  0.1152E+04  0.9961E+03
      7.620  0.2224E+01  0.1075E+03  0.1153E+04  0.1022E+04
      7.859  0.2130E+01  0.1614E+03  0.1153E+04  0.1060E+04
      8.098  0.7046E+01  0.1574E+03  0.1155E+04  0.1098E+04
      8.337  0.2027E+02  0.1365E+03  0.1160E+04  0.1131E+04
      8.576  0.3321E+02  0.7849E+02  0.1168E+04  0.1149E+04
      8.815  0.3332E+02  0.1921E+02  0.1176E+04  0.1154E+04
      9.054  0.4770E+02  0.1503E+02  0.1187E+04  0.1157E+04
      9.292  0.7535E+02  0.2022E+02  0.1205E+04  0.1162E+04
      9.531  0.5514E+02  0.3497E+02  0.1218E+04  0.1171E+04
      9.770  0.4920E+02  0.5730E+02  0.1230E+04  0.1184E+04
     10.009  0.3608E+02  0.8321E+02  0.1239E+04  0.1204E+04
     10.248  0.3820E+02  0.7208E+02  0.1248E+04  0.1221E+04
     10.487  0.7330E+02  0.6545E+02  0.1265E+04  0.1237E+04
     10.726  0.6529E+02  0.4180E+02  0.1281E+04  0.1247E+04
     10.965  0.6491E+02  0.8227E+02  0.1296E+04  0.1267E+04
     11.203  0.9896E+02  0.4490E+02  0.1320E+04  0.1277E+04
     11.442  0.1289E+03  0.4928E+02  0.1351E+04  0.1289E+04
     11.681  0.1176E+03  0.8999E+02  0.1379E+04  0.1311E+04
     11.920  0.8120E+02  0.1405E+03  0.1398E+04  0.1344E+04
     12.159  0.3543E+02  0.1487E+03  0.1407E+04  0.1380E+04
     12.398  0.6939E+02  0.6912E+02  0.1423E+04  0.1396E+04
     12.637  0.6369E+02  0.5138E+02  0.1438E+04  0.1409E+04
     12.876  0.6335E+02  0.5438E+02  0.1454E+04  0.1422E+04
     13.115  0.4800E+02  0.7903E+02  0.1465E+04  0.1440E+04
     13.353  0.1221E+02  0.5777E+02  0.1468E+04  0.1454E+04
     13.592  0.2293E+00  0.5304E+02  0.1468E+04  0.1467E+04
     13.831  0.0000E+00  0.4612E+01  0.1468E+04  0.1468E+04
     14.070  0.0000E+00  0.4475E-05  0.1468E+04  0.1468E+04
     14.309  0.0000E+00  0.0000E+00  0.1468E+04  0.1468E+04
     14.548  0.0000E+00  0.0000E+00  0.1468E+04  0.1468E+04
     14.787  0.0000E+00  0.0000E+00  0.1468E+04  0.1468E+04
     15.026  0.0000E+00  0.0000E+00  0.1468E+04  0.1468E+04
     15.265  0.0000E+00  0.0000E+00  0.1468E+04  0.1468E+04
     15.503  0.0000E+00  0.0000E+00  0.1468E+04  0.1468E+04
     15.742  0.0000E+00  0.0000E+00  0.1468E+04  0.1468E+04
     15.981  0.0000E+00  0.0000E+00  0.1468E+04  0.1468E+04
     16.220  0.0000E+00  0.0000E+00  0.1468E+04  0.1468E+04
     16.459  0.0000E+00  0.0000E+00  0.1468E+04  0.1468E+04
     16.698  0.0000E+00  0.0000E+00  0.1468E+04  0.1468E+04
     16.937  0.0000E+00  0.0000E+00  0.1468E+04  0.1468E+04
