  320  320    1    2
  0.1216366E+02  0.1589065E-08  0.1589065E-08  0.1541455E-08  0.5000000E-15
  1.000000000000000E-004
  CAR 
 unknown system                          
   2048      8   1468
 
  0.0000000E+00  0.0000000E+00  0.0000000E+00  0.1250000E+00
    1      -51.470793    -46.729088   1.000000   1.000000
    2      -51.469506    -46.727801   1.000000   1.000000
    3      -51.469063    -46.727429   1.000000   1.000000
    4      -51.468739    -46.727149   1.000000   1.000000
    5      -51.468689    -46.727087   1.000000   1.000000
    6      -51.468663    -46.727085   1.000000   1.000000
    7      -51.468649    -46.727040   1.000000   1.000000
    8      -51.468619    -46.727018   1.000000   1.000000
    9      -51.468609    -46.726982   1.000000   1.000000
   10      -51.468562    -46.726953   1.000000   1.000000
   11      -51.468541    -46.726911   1.000000   1.000000
   12      -51.468526    -46.726881   1.000000   1.000000
   13      -51.468487    -46.726855   1.000000   1.000000
   14      -51.468476    -46.726708   1.000000   1.000000
   15      -51.468454    -46.726669   1.000000   1.000000
   16      -51.468358    -46.726543   1.000000   1.000000
   17      -51.468325    -46.726515   1.000000   1.000000
   18      -51.468288    -46.726449   1.000000   1.000000
   19      -51.468250    -46.726244   1.000000   1.000000
   20      -51.468203    -46.726188   1.000000   1.000000
   21      -51.468163    -46.726104   1.000000   1.000000
   22      -51.468036    -46.725940   1.000000   1.000000
   23      -51.468004    -46.725894   1.000000   1.000000
   24      -51.467951    -46.725843   1.000000   1.000000
   25      -51.467936    -46.725831   1.000000   1.000000
   26      -51.467918    -46.725816   1.000000   1.000000
   27      -51.467903    -46.725799   1.000000   1.000000
   28      -51.467886    -46.725789   1.000000   1.000000
   29      -51.467874    -46.725773   1.000000   1.000000
   30      -51.467870    -46.725755   1.000000   1.000000
   31      -51.467853    -46.725750   1.000000   1.000000
   32      -51.467847    -46.725733   1.000000   1.000000
   33      -51.467831    -46.725722   1.000000   1.000000
   34      -51.467801    -46.725698   1.000000   1.000000
   35      -51.467798    -46.725675   1.000000   1.000000
   36      -51.467792    -46.725672   1.000000   1.000000
   37      -51.467783    -46.725664   1.000000   1.000000
   38      -51.467758    -46.725638   1.000000   1.000000
   39      -51.467747    -46.725629   1.000000   1.000000
   40      -51.467721    -46.725610   1.000000   1.000000
   41      -51.467716    -46.725601   1.000000   1.000000
   42      -51.467676    -46.725561   1.000000   1.000000
   43      -51.467619    -46.725499   1.000000   1.000000
   44      -51.467495    -46.725331   1.000000   1.000000
   45      -51.467449    -46.725247   1.000000   1.000000
   46      -51.467425    -46.725203   1.000000   1.000000
   47      -51.467362    -46.724991   1.000000   1.000000
   48      -51.467331    -46.724924   1.000000   1.000000
   49      -51.467319    -46.724917   1.000000   1.000000
   50      -51.467227    -46.724787   1.000000   1.000000
   51      -51.467183    -46.724745   1.000000   1.000000
   52      -51.467168    -46.724608   1.000000   1.000000
   53      -51.467150    -46.724562   1.000000   1.000000
   54      -51.467125    -46.724533   1.000000   1.000000
   55      -51.467117    -46.724501   1.000000   1.000000
   56      -51.467069    -46.724500   1.000000   1.000000
   57      -51.467045    -46.724448   1.000000   1.000000
   58      -51.467036    -46.724426   1.000000   1.000000
   59      -51.466994    -46.724411   1.000000   1.000000
   60      -51.466979    -46.724374   1.000000   1.000000
   61      -51.466941    -46.724324   1.000000   1.000000
   62      -51.466596    -46.724025   1.000000   1.000000
   63      -51.466150    -46.723653   1.000000   1.000000
   64      -51.464898    -46.722390   1.000000   1.000000
   65      -50.063405    -46.349825   1.000000   1.000000
   66      -50.062019    -46.348467   1.000000   1.000000
   67      -50.061429    -46.347886   1.000000   1.000000
   68      -50.061045    -46.347485   1.000000   1.000000
   69      -50.060962    -46.347398   1.000000   1.000000
   70      -50.060873    -46.347333   1.000000   1.000000
   71      -50.060832    -46.347303   1.000000   1.000000
   72      -50.060816    -46.347272   1.000000   1.000000
   73      -50.060750    -46.347221   1.000000   1.000000
   74      -50.060738    -46.347195   1.000000   1.000000
   75      -50.060714    -46.347174   1.000000   1.000000
   76      -50.060707    -46.347156   1.000000   1.000000
   77      -50.060665    -46.347121   1.000000   1.000000
   78      -50.060649    -46.347103   1.000000   1.000000
   79      -50.060636    -46.347094   1.000000   1.000000
   80      -50.060628    -46.347086   1.000000   1.000000
   81      -50.060622    -46.347079   1.000000   1.000000
   82      -50.060614    -46.347069   1.000000   1.000000
   83      -50.060610    -46.347059   1.000000   1.000000
   84      -50.060607    -46.347051   1.000000   1.000000
   85      -50.060588    -46.347036   1.000000   1.000000
   86      -50.060573    -46.347028   1.000000   1.000000
   87      -50.060569    -46.347014   1.000000   1.000000
   88      -50.060564    -46.347006   1.000000   1.000000
   89      -50.060556    -46.347003   1.000000   1.000000
   90      -50.060552    -46.346995   1.000000   1.000000
   91      -50.060541    -46.346985   1.000000   1.000000
   92      -50.060533    -46.346983   1.000000   1.000000
   93      -50.060526    -46.346967   1.000000   1.000000
   94      -50.060523    -46.346965   1.000000   1.000000
   95      -50.060499    -46.346940   1.000000   1.000000
   96      -50.060491    -46.346936   1.000000   1.000000
   97      -50.060487    -46.346919   1.000000   1.000000
   98      -50.060483    -46.346915   1.000000   1.000000
   99      -50.060475    -46.346910   1.000000   1.000000
  100      -50.060468    -46.346901   1.000000   1.000000
  101      -50.060461    -46.346898   1.000000   1.000000
  102      -50.060447    -46.346889   1.000000   1.000000
  103      -50.060443    -46.346885   1.000000   1.000000
  104      -50.060433    -46.346872   1.000000   1.000000
  105      -50.060417    -46.346865   1.000000   1.000000
  106      -50.060406    -46.346850   1.000000   1.000000
  107      -50.060399    -46.346844   1.000000   1.000000
  108      -50.060396    -46.346832   1.000000   1.000000
  109      -50.060385    -46.346817   1.000000   1.000000
  110      -50.060375    -46.346811   1.000000   1.000000
  111      -50.060367    -46.346795   1.000000   1.000000
  112      -50.060342    -46.346787   1.000000   1.000000
  113      -50.060341    -46.346775   1.000000   1.000000
  114      -50.060328    -46.346774   1.000000   1.000000
  115      -50.060324    -46.346761   1.000000   1.000000
  116      -50.060311    -46.346754   1.000000   1.000000
  117      -50.060303    -46.346714   1.000000   1.000000
  118      -50.060288    -46.346705   1.000000   1.000000
  119      -50.060282    -46.346698   1.000000   1.000000
  120      -50.060226    -46.346666   1.000000   1.000000
  121      -50.060120    -46.346576   1.000000   1.000000
  122      -50.060114    -46.346553   1.000000   1.000000
  123      -50.060080    -46.346533   1.000000   1.000000
  124      -50.060056    -46.346482   1.000000   1.000000
  125      -50.059978    -46.346405   1.000000   1.000000
  126      -50.059599    -46.346005   1.000000   1.000000
  127      -50.059005    -46.345420   1.000000   1.000000
  128      -50.057561    -46.344051   1.000000   1.000000
  129      -50.036238    -46.332178   1.000000   1.000000
  130      -50.035154    -46.330823   1.000000   1.000000
  131      -50.034486    -46.330074   1.000000   1.000000
  132      -50.034301    -46.330026   1.000000   1.000000
  133      -50.034195    -46.329917   1.000000   1.000000
  134      -50.034109    -46.329867   1.000000   1.000000
  135      -50.034094    -46.329763   1.000000   1.000000
  136      -50.034042    -46.329755   1.000000   1.000000
  137      -50.034035    -46.329736   1.000000   1.000000
  138      -50.034000    -46.329725   1.000000   1.000000
  139      -50.033979    -46.329661   1.000000   1.000000
  140      -50.033943    -46.329650   1.000000   1.000000
  141      -50.033940    -46.329642   1.000000   1.000000
  142      -50.033902    -46.329604   1.000000   1.000000
  143      -50.033866    -46.329538   1.000000   1.000000
  144      -50.033857    -46.329535   1.000000   1.000000
  145      -50.033840    -46.329525   1.000000   1.000000
  146      -50.033832    -46.329490   1.000000   1.000000
  147      -50.033805    -46.329438   1.000000   1.000000
  148      -50.033789    -46.329397   1.000000   1.000000
  149      -50.033754    -46.329397   1.000000   1.000000
  150      -50.033745    -46.329347   1.000000   1.000000
  151      -50.033741    -46.329345   1.000000   1.000000
  152      -50.033696    -46.329343   1.000000   1.000000
  153      -50.033684    -46.329337   1.000000   1.000000
  154      -50.033681    -46.329260   1.000000   1.000000
  155      -50.033651    -46.329259   1.000000   1.000000
  156      -50.033636    -46.329230   1.000000   1.000000
  157      -50.033625    -46.329225   1.000000   1.000000
  158      -50.033620    -46.329214   1.000000   1.000000
  159      -50.033582    -46.329194   1.000000   1.000000
  160      -50.033572    -46.329186   1.000000   1.000000
  161      -50.033567    -46.329165   1.000000   1.000000
  162      -50.033549    -46.329135   1.000000   1.000000
  163      -50.033547    -46.329131   1.000000   1.000000
  164      -50.033540    -46.329126   1.000000   1.000000
  165      -50.033535    -46.329119   1.000000   1.000000
  166      -50.033503    -46.329093   1.000000   1.000000
  167      -50.033493    -46.329086   1.000000   1.000000
  168      -50.033482    -46.329043   1.000000   1.000000
  169      -50.033480    -46.329036   1.000000   1.000000
  170      -50.033475    -46.329036   1.000000   1.000000
  171      -50.033462    -46.328994   1.000000   1.000000
  172      -50.033427    -46.328965   1.000000   1.000000
  173      -50.033423    -46.328916   1.000000   1.000000
  174      -50.033397    -46.328896   1.000000   1.000000
  175      -50.033386    -46.328859   1.000000   1.000000
  176      -50.033329    -46.328842   1.000000   1.000000
  177      -50.033327    -46.328822   1.000000   1.000000
  178      -50.033260    -46.328789   1.000000   1.000000
  179      -50.033256    -46.328770   1.000000   1.000000
  180      -50.033188    -46.328726   1.000000   1.000000
  181      -50.033186    -46.328724   1.000000   1.000000
  182      -50.033182    -46.328668   1.000000   1.000000
  183      -50.033174    -46.328662   1.000000   1.000000
  184      -50.033150    -46.328633   1.000000   1.000000
  185      -50.033126    -46.328611   1.000000   1.000000
  186      -50.033123    -46.328589   1.000000   1.000000
  187      -50.033116    -46.328553   1.000000   1.000000
  188      -50.033032    -46.328488   1.000000   1.000000
  189      -50.032823    -46.328301   1.000000   1.000000
  190      -50.032638    -46.328254   1.000000   1.000000
  191      -50.031967    -46.327502   1.000000   1.000000
  192      -50.030995    -46.326231   1.000000   1.000000
  193      -40.381146    -40.379262   1.000000   1.000000
  194      -40.380074    -40.378128   1.000000   1.000000
  195      -40.380028    -40.378089   1.000000   1.000000
  196      -40.379850    -40.377913   1.000000   1.000000
  197      -40.379801    -40.377861   1.000000   1.000000
  198      -40.379482    -40.377542   1.000000   1.000000
  199      -40.379334    -40.377397   1.000000   1.000000
  200      -40.379305    -40.377340   1.000000   1.000000
  201      -40.379207    -40.377235   1.000000   1.000000
  202      -40.379132    -40.377163   1.000000   1.000000
  203      -40.379082    -40.377116   1.000000   1.000000
  204      -40.378944    -40.376963   1.000000   1.000000
  205      -40.378850    -40.376859   1.000000   1.000000
  206      -40.378796    -40.376799   1.000000   1.000000
  207      -40.378710    -40.376747   1.000000   1.000000
  208      -40.378681    -40.376709   1.000000   1.000000
  209      -40.378645    -40.376685   1.000000   1.000000
  210      -40.378604    -40.376631   1.000000   1.000000
  211      -40.378536    -40.376562   1.000000   1.000000
  212      -40.378169    -40.376201   1.000000   1.000000
  213      -40.378085    -40.376119   1.000000   1.000000
  214      -40.378017    -40.376054   1.000000   1.000000
  215      -40.377984    -40.376007   1.000000   1.000000
  216      -40.377943    -40.375971   1.000000   1.000000
  217      -40.377892    -40.375910   1.000000   1.000000
  218      -40.377836    -40.375855   1.000000   1.000000
  219      -40.377801    -40.375818   1.000000   1.000000
  220      -40.377788    -40.375815   1.000000   1.000000
  221      -40.377771    -40.375798   1.000000   1.000000
  222      -40.377767    -40.375783   1.000000   1.000000
  223      -40.377713    -40.375745   1.000000   1.000000
  224      -40.377696    -40.375701   1.000000   1.000000
  225      -40.377634    -40.375655   1.000000   1.000000
  226      -40.377613    -40.375631   1.000000   1.000000
  227      -40.377591    -40.375606   1.000000   1.000000
  228      -40.377570    -40.375588   1.000000   1.000000
  229      -40.377502    -40.375516   1.000000   1.000000
  230      -40.377466    -40.375468   1.000000   1.000000
  231      -40.377391    -40.375398   1.000000   1.000000
  232      -40.377305    -40.375315   1.000000   1.000000
  233      -40.377215    -40.375225   1.000000   1.000000
  234      -40.377196    -40.375204   1.000000   1.000000
  235      -40.377085    -40.375093   1.000000   1.000000
  236      -40.377004    -40.375015   1.000000   1.000000
  237      -40.376953    -40.374960   1.000000   1.000000
  238      -40.376916    -40.374919   1.000000   1.000000
  239      -40.376782    -40.374791   1.000000   1.000000
  240      -40.376759    -40.374780   1.000000   1.000000
  241      -40.376747    -40.374749   1.000000   1.000000
  242      -40.376685    -40.374695   1.000000   1.000000
  243      -40.376640    -40.374643   1.000000   1.000000
  244      -40.376615    -40.374632   1.000000   1.000000
  245      -40.376581    -40.374596   1.000000   1.000000
  246      -40.376471    -40.374475   1.000000   1.000000
  247      -40.376459    -40.374473   1.000000   1.000000
  248      -40.376446    -40.374462   1.000000   1.000000
  249      -40.376430    -40.374438   1.000000   1.000000
  250      -40.376414    -40.374429   1.000000   1.000000
  251      -40.376300    -40.374317   1.000000   1.000000
  252      -40.376253    -40.374259   1.000000   1.000000
  253      -40.375994    -40.373992   1.000000   1.000000
  254      -40.375925    -40.373940   1.000000   1.000000
  255      -40.375854    -40.373876   1.000000   1.000000
  256      -40.375716    -40.373743   1.000000   1.000000
  257      -40.242845    -40.245427   1.000000   1.000000
  258      -40.240915    -40.243496   1.000000   1.000000
  259      -40.240633    -40.243219   1.000000   1.000000
  260      -40.240504    -40.243077   1.000000   1.000000
  261      -40.240362    -40.242948   1.000000   1.000000
  262      -40.240284    -40.242879   1.000000   1.000000
  263      -40.240252    -40.242847   1.000000   1.000000
  264      -40.240163    -40.242759   1.000000   1.000000
  265      -40.240077    -40.242674   1.000000   1.000000
  266      -40.240042    -40.242623   1.000000   1.000000
  267      -40.240014    -40.242587   1.000000   1.000000
  268      -40.239942    -40.242507   1.000000   1.000000
  269      -40.239912    -40.242494   1.000000   1.000000
  270      -40.239872    -40.242443   1.000000   1.000000
  271      -40.239832    -40.242421   1.000000   1.000000
  272      -40.239808    -40.242357   1.000000   1.000000
  273      -40.239751    -40.242312   1.000000   1.000000
  274      -40.239708    -40.242301   1.000000   1.000000
  275      -40.239687    -40.242274   1.000000   1.000000
  276      -40.239671    -40.242263   1.000000   1.000000
  277      -40.239659    -40.242247   1.000000   1.000000
  278      -40.239623    -40.242217   1.000000   1.000000
  279      -40.239612    -40.242200   1.000000   1.000000
  280      -40.239586    -40.242186   1.000000   1.000000
  281      -40.239568    -40.242159   1.000000   1.000000
  282      -40.239533    -40.242133   1.000000   1.000000
  283      -40.239531    -40.242113   1.000000   1.000000
  284      -40.239505    -40.242091   1.000000   1.000000
  285      -40.239494    -40.242080   1.000000   1.000000
  286      -40.239478    -40.242055   1.000000   1.000000
  287      -40.239450    -40.242033   1.000000   1.000000
  288      -40.239432    -40.242015   1.000000   1.000000
  289      -40.239422    -40.242005   1.000000   1.000000
  290      -40.239380    -40.241974   1.000000   1.000000
  291      -40.239364    -40.241948   1.000000   1.000000
  292      -40.239345    -40.241928   1.000000   1.000000
  293      -40.239299    -40.241886   1.000000   1.000000
  294      -40.239293    -40.241861   1.000000   1.000000
  295      -40.239242    -40.241817   1.000000   1.000000
  296      -40.239229    -40.241791   1.000000   1.000000
  297      -40.239219    -40.241772   1.000000   1.000000
  298      -40.239202    -40.241763   1.000000   1.000000
  299      -40.239178    -40.241735   1.000000   1.000000
  300      -40.239121    -40.241684   1.000000   1.000000
  301      -40.239106    -40.241661   1.000000   1.000000
  302      -40.239074    -40.241623   1.000000   1.000000
  303      -40.239042    -40.241594   1.000000   1.000000
  304      -40.238999    -40.241552   1.000000   1.000000
  305      -40.238935    -40.241496   1.000000   1.000000
  306      -40.238838    -40.241394   1.000000   1.000000
  307      -40.238811    -40.241370   1.000000   1.000000
  308      -40.238746    -40.241307   1.000000   1.000000
  309      -40.238673    -40.241223   1.000000   1.000000
  310      -40.238654    -40.241203   1.000000   1.000000
  311      -40.238572    -40.241118   1.000000   1.000000
  312      -40.238510    -40.241055   1.000000   1.000000
  313      -40.238505    -40.241051   1.000000   1.000000
  314      -40.238464    -40.241004   1.000000   1.000000
  315      -40.238362    -40.240901   1.000000   1.000000
  316      -40.238299    -40.240845   1.000000   1.000000
  317      -40.238159    -40.240708   1.000000   1.000000
  318      -40.238035    -40.240576   1.000000   1.000000
  319      -40.237687    -40.240229   1.000000   1.000000
  320      -40.235879    -40.238424   1.000000   1.000000
  321      -13.667554    -13.339933   1.000000   1.000000
  322      -13.667484    -13.339829   1.000000   1.000000
  323      -13.664883    -13.336054   1.000000   1.000000
  324      -13.664816    -13.335988   1.000000   1.000000
  325      -13.650105    -13.322610   1.000000   1.000000
  326      -13.649286    -13.322104   1.000000   1.000000
  327      -13.648936    -13.322073   1.000000   1.000000
  328      -13.648914    -13.321736   1.000000   1.000000
  329      -13.648485    -13.320808   1.000000   1.000000
  330      -13.644971    -13.316678   1.000000   1.000000
  331      -13.644575    -13.316266   1.000000   1.000000
  332      -13.644571    -13.316263   1.000000   1.000000
  333      -13.644108    -13.315799   1.000000   1.000000
  334      -13.624362    -13.296598   1.000000   1.000000
  335      -13.624344    -13.296587   1.000000   1.000000
  336      -13.598831    -13.272349   1.000000   1.000000
  337      -13.508097    -13.234110   1.000000   1.000000
  338      -13.507615    -13.233525   1.000000   1.000000
  339      -13.507587    -13.233509   1.000000   1.000000
  340      -13.507272    -13.233251   1.000000   1.000000
  341      -13.504058    -13.232322   1.000000   1.000000
  342      -13.504013    -13.232284   1.000000   1.000000
  343      -13.503942    -13.232201   1.000000   1.000000
  344      -13.503844    -13.231943   1.000000   1.000000
  345      -13.498412    -13.224255   1.000000   1.000000
  346      -13.498389    -13.224238   1.000000   1.000000
  347      -13.498383    -13.224230   1.000000   1.000000
  348      -13.498360    -13.224209   1.000000   1.000000
  349      -13.476562    -13.202453   1.000000   1.000000
  350      -13.475839    -13.201686   1.000000   1.000000
  351      -13.475810    -13.201673   1.000000   1.000000
  352      -13.475782    -13.201643   1.000000   1.000000
  353      -13.475758    -13.201618   1.000000   1.000000
  354      -13.475727    -13.201585   1.000000   1.000000
  355      -13.475700    -13.201573   1.000000   1.000000
  356      -13.474976    -13.200806   1.000000   1.000000
  357      -13.453087    -13.178968   1.000000   1.000000
  358      -13.453061    -13.178944   1.000000   1.000000
  359      -13.453056    -13.178938   1.000000   1.000000
  360      -13.453031    -13.178919   1.000000   1.000000
  361      -13.448722    -13.173237   1.000000   1.000000
  362      -13.448650    -13.173115   1.000000   1.000000
  363      -13.448580    -13.173024   1.000000   1.000000
  364      -13.448534    -13.172974   1.000000   1.000000
  365      -13.444085    -13.169917   1.000000   1.000000
  366      -13.443760    -13.169585   1.000000   1.000000
  367      -13.443732    -13.169572   1.000000   1.000000
  368      -13.443264    -13.169064   1.000000   1.000000
  369      -13.355928    -13.144071   1.000000   1.000000
  370      -13.319902    -13.107646   1.000000   1.000000
  371      -13.319889    -13.107643   1.000000   1.000000
  372      -13.294747    -13.082140   1.000000   1.000000
  373      -13.294291    -13.081686   1.000000   1.000000
  374      -13.294290    -13.081685   1.000000   1.000000
  375      -13.293876    -13.081253   1.000000   1.000000
  376      -13.288741    -13.073719   1.000000   1.000000
  377      -13.288326    -13.073288   1.000000   1.000000
  378      -13.288308    -13.073255   1.000000   1.000000
  379      -13.287872    -13.072837   1.000000   1.000000
  380      -13.283362    -13.070665   1.000000   1.000000
  381      -13.268514    -13.055545   1.000000   1.000000
  382      -13.268456    -13.055487   1.000000   1.000000
  383      -13.265513    -13.051357   1.000000   1.000000
  384      -13.265445    -13.051256   1.000000   1.000000
  385       -7.538701     -7.332745   1.000000   1.000000
  386       -7.469894     -7.287616   1.000000   1.000000
  387       -7.469650     -7.287369   1.000000   1.000000
  388       -7.469509     -7.287226   1.000000   1.000000
  389       -7.469278     -7.286993   1.000000   1.000000
  390       -7.404864     -7.245367   1.000000   1.000000
  391       -7.404619     -7.245115   1.000000   1.000000
  392       -7.395568     -7.219099   1.000000   1.000000
  393       -7.395293     -7.218814   1.000000   1.000000
  394       -7.356256     -7.188470   1.000000   1.000000
  395       -7.355993     -7.188210   1.000000   1.000000
  396       -7.355926     -7.188148   1.000000   1.000000
  397       -7.355696     -7.187900   1.000000   1.000000
  398       -7.351711     -7.166421   1.000000   1.000000
  399       -7.351495     -7.166187   1.000000   1.000000
  400       -7.351492     -7.166184   1.000000   1.000000
  401       -7.351254     -7.165955   1.000000   1.000000
  402       -7.315296     -7.117944   1.000000   1.000000
  403       -7.315293     -7.117860   1.000000   1.000000
  404       -7.277498     -7.116709   1.000000   1.000000
  405       -7.277274     -7.116522   1.000000   1.000000
  406       -7.277266     -7.116514   1.000000   1.000000
  407       -7.277050     -7.116259   1.000000   1.000000
  408       -7.238006     -7.092096   1.000000   1.000000
  409       -7.237764     -7.085415   1.000000   1.000000
  410       -7.237625     -7.085176   1.000000   1.000000
  411       -7.237396     -7.085036   1.000000   1.000000
  412       -7.233106     -7.084797   1.000000   1.000000
  413       -7.209740     -7.034736   1.000000   1.000000
  414       -7.209249     -7.034224   1.000000   1.000000
  415       -7.209221     -7.034194   1.000000   1.000000
  416       -7.209214     -7.034186   1.000000   1.000000
  417       -7.209186     -7.034165   1.000000   1.000000
  418       -7.209178     -7.034156   1.000000   1.000000
  419       -7.209151     -7.034128   1.000000   1.000000
  420       -7.208655     -7.033621   1.000000   1.000000
  421       -7.147477     -7.005142   1.000000   1.000000
  422       -7.147437     -7.005139   1.000000   1.000000
  423       -7.143216     -6.978940   1.000000   1.000000
  424       -7.142994     -6.978705   1.000000   1.000000
  425       -7.142984     -6.978564   1.000000   1.000000
  426       -7.142774     -6.978320   1.000000   1.000000
  427       -7.140910     -6.950842   1.000000   1.000000
  428       -7.140703     -6.950622   1.000000   1.000000
  429       -7.140563     -6.950612   1.000000   1.000000
  430       -7.140297     -6.950388   1.000000   1.000000
  431       -7.052361     -6.907040   1.000000   1.000000
  432       -7.052079     -6.889619   1.000000   1.000000
  433       -7.052078     -6.889389   1.000000   1.000000
  434       -7.051905     -6.889386   1.000000   1.000000
  435       -7.050821     -6.889152   1.000000   1.000000
  436       -7.046490     -6.862631   1.000000   1.000000
  437       -7.046255     -6.862375   1.000000   1.000000
  438       -7.046186     -6.862311   1.000000   1.000000
  439       -7.045933     -6.862060   1.000000   1.000000
  440       -7.042409     -6.856157   1.000000   1.000000
  441       -7.042158     -6.855900   1.000000   1.000000
  442       -6.950768     -6.764507   1.000000   1.000000
  443       -6.950486     -6.764215   1.000000   1.000000
  444       -6.946421     -6.737144   1.000000   1.000000
  445       -6.946198     -6.736906   1.000000   1.000000
  446       -6.946061     -6.736768   1.000000   1.000000
  447       -6.945801     -6.736516   1.000000   1.000000
  448       -6.844549     -6.608376   1.000000   1.000000
  449       -2.693708     -1.099989   1.000000   1.000000
  450       -2.693635     -1.099977   1.000000   1.000000
  451       -2.690670     -1.046671   1.000000   1.000000
  452       -2.690402     -1.046665   1.000000   1.000000
  453       -2.689909     -1.040281   1.000000   1.000000
  454       -2.689792     -1.040188   1.000000   1.000000
  455       -2.687564     -0.973309   1.000000   1.000000
  456       -2.687179     -0.972994   1.000000   1.000000
  457       -2.687081     -0.972959   1.000000   1.000000
  458       -2.687073     -0.972618   1.000000   1.000000
  459       -2.686996     -0.914700   1.000000   1.000000
  460       -2.686641     -0.914364   1.000000   1.000000
  461       -2.685624     -0.914350   1.000000   1.000000
  462       -2.685378     -0.913990   1.000000   1.000000
  463       -2.685331     -0.898307   1.000000   1.000000
  464       -2.684893     -0.898285   1.000000   1.000000
  465       -1.748486     -0.599762   1.000000   1.000000
  466       -1.748451     -0.599466   1.000000   1.000000
  467       -1.748429     -0.599430   1.000000   1.000000
  468       -1.748381     -0.599139   1.000000   1.000000
  469       -1.746494     -0.494255   1.000000   1.000000
  470       -1.746402     -0.494126   1.000000   1.000000
  471       -1.746393     -0.494093   1.000000   1.000000
  472       -1.746380     -0.493968   1.000000   1.000000
  473       -1.725444     -0.416906   1.000000   1.000000
  474       -1.725209     -0.416847   1.000000   1.000000
  475       -1.725085     -0.416831   1.000000   1.000000
  476       -1.724905     -0.416763   1.000000   1.000000
  477       -1.720028     -0.391534   1.000000   1.000000
  478       -1.719628     -0.391499   1.000000   1.000000
  479       -1.719514     -0.391442   1.000000   1.000000
  480       -1.719495     -0.391414   1.000000   1.000000
  481       -1.719484     -0.376080   1.000000   1.000000
  482       -1.719472     -0.376069   1.000000   1.000000
  483       -1.719350     -0.376006   1.000000   1.000000
  484       -1.719036     -0.375978   1.000000   1.000000
  485       -1.717922     -0.285811   1.000000   1.000000
  486       -1.717797     -0.285238   1.000000   1.000000
  487       -1.717662     -0.285220   1.000000   1.000000
  488       -1.717381     -0.285197   1.000000   1.000000
  489       -1.690791     -0.285170   1.000000   1.000000
  490       -1.690786     -0.285144   1.000000   1.000000
  491       -1.690769     -0.285112   1.000000   1.000000
  492       -1.690693     -0.284526   1.000000   1.000000
  493       -1.688832     -0.028381   1.000000   1.000000
  494       -1.688774     -0.028047   1.000000   1.000000
  495       -1.688750     -0.027983   1.000000   1.000000
  496       -1.688735     -0.027645   1.000000   1.000000
  497       -1.448996      0.029346   1.000000   1.000000
  498       -1.448993      0.029598   1.000000   1.000000
  499       -1.438452      0.046208   1.000000   1.000000
  500       -1.438438      0.046212   1.000000   1.000000
  501       -1.398170      0.186369   1.000000   1.000000
  502       -1.398123      0.186577   1.000000   1.000000
  503       -1.382536      0.186582   1.000000   1.000000
  504       -1.382518      0.186789   1.000000   1.000000
  505       -1.326558      0.212063   1.000000   1.000000
  506       -1.326308      0.212071   1.000000   1.000000
  507       -1.326276      0.262229   1.000000   1.000000
  508       -1.326055      0.262334   1.000000   1.000000
  509       -1.321060      0.262441   1.000000   1.000000
  510       -1.320821      0.262534   1.000000   1.000000
  511       -1.320793      0.284959   1.000000   1.000000
  512       -1.320547      0.285056   1.000000   1.000000