 320 320   0   0
  0.1216366E+02  0.1589065E-08  0.1589065E-08  0.1541455E-08  0.5000000E-15
  1.000000000000000E-004
  CAR 
 unknown system                          
     16.93733174    -54.72912974  301      5.02278252      1.00000000
    -54.729  0.0000E+00  0.0000E+00  0.0000E+00  0.0000E+00
    -54.490  0.0000E+00  0.0000E+00  0.0000E+00  0.0000E+00
    -54.251  0.0000E+00  0.0000E+00  0.0000E+00  0.0000E+00
    -54.012  0.0000E+00  0.0000E+00  0.0000E+00  0.0000E+00
    -53.774  0.0000E+00  0.0000E+00  0.0000E+00  0.0000E+00
    -53.535  0.0000E+00  0.0000E+00  0.0000E+00  0.0000E+00
    -53.296  0.0000E+00  0.0000E+00  0.0000E+00  0.0000E+00
    -53.057  0.0000E+00  0.0000E+00  0.0000E+00  0.0000E+00
    -52.818  0.0000E+00  0.0000E+00  0.0000E+00  0.0000E+00
    -52.579  0.0000E+00  0.0000E+00  0.0000E+00  0.0000E+00
    -52.340  0.0000E+00  0.0000E+00  0.0000E+00  0.0000E+00
    -52.101  0.0000E+00  0.0000E+00  0.0000E+00  0.0000E+00
    -51.862  0.0000E+00  0.0000E+00  0.0000E+00  0.0000E+00
    -51.624  0.1436E-02  0.0000E+00  0.3431E-03  0.0000E+00
    -51.385  0.2654E+03  0.0000E+00  0.6340E+02  0.0000E+00
    -51.146  0.2514E+01  0.0000E+00  0.6400E+02  0.0000E+00
    -50.907  0.0000E+00  0.0000E+00  0.6400E+02  0.0000E+00
    -50.668  0.0000E+00  0.0000E+00  0.6400E+02  0.0000E+00
    -50.429  0.0000E+00  0.0000E+00  0.6400E+02  0.0000E+00
    -50.190  0.3405E-01  0.0000E+00  0.6401E+02  0.0000E+00
    -49.951  0.5328E+03  0.0000E+00  0.1913E+03  0.0000E+00
    -49.712  0.2967E+01  0.0000E+00  0.1920E+03  0.0000E+00
    -49.474  0.0000E+00  0.0000E+00  0.1920E+03  0.0000E+00
    -49.235  0.0000E+00  0.0000E+00  0.1920E+03  0.0000E+00
    -48.996  0.0000E+00  0.0000E+00  0.1920E+03  0.0000E+00
    -48.757  0.0000E+00  0.0000E+00  0.1920E+03  0.0000E+00
    -48.518  0.0000E+00  0.0000E+00  0.1920E+03  0.0000E+00
    -48.279  0.0000E+00  0.0000E+00  0.1920E+03  0.0000E+00
    -48.040  0.0000E+00  0.0000E+00  0.1920E+03  0.0000E+00
    -47.801  0.0000E+00  0.0000E+00  0.1920E+03  0.0000E+00
    -47.562  0.0000E+00  0.0000E+00  0.1920E+03  0.0000E+00
    -47.324  0.0000E+00  0.0000E+00  0.1920E+03  0.0000E+00
    -47.085  0.0000E+00  0.0000E+00  0.1920E+03  0.0000E+00
    -46.846  0.0000E+00  0.9242E-01  0.1920E+03  0.2208E-01
    -46.607  0.0000E+00  0.2677E+03  0.1920E+03  0.6397E+02
    -46.368  0.0000E+00  0.1104E+03  0.1920E+03  0.9034E+02
    -46.129  0.0000E+00  0.4256E+03  0.1920E+03  0.1920E+03
    -45.890  0.0000E+00  0.0000E+00  0.1920E+03  0.1920E+03
    -45.651  0.0000E+00  0.0000E+00  0.1920E+03  0.1920E+03
    -45.412  0.0000E+00  0.0000E+00  0.1920E+03  0.1920E+03
    -45.174  0.0000E+00  0.0000E+00  0.1920E+03  0.1920E+03
    -44.935  0.0000E+00  0.0000E+00  0.1920E+03  0.1920E+03
    -44.696  0.0000E+00  0.0000E+00  0.1920E+03  0.1920E+03
    -44.457  0.0000E+00  0.0000E+00  0.1920E+03  0.1920E+03
    -44.218  0.0000E+00  0.0000E+00  0.1920E+03  0.1920E+03
    -43.979  0.0000E+00  0.0000E+00  0.1920E+03  0.1920E+03
    -43.740  0.0000E+00  0.0000E+00  0.1920E+03  0.1920E+03
    -43.501  0.0000E+00  0.0000E+00  0.1920E+03  0.1920E+03
    -43.262  0.0000E+00  0.0000E+00  0.1920E+03  0.1920E+03
    -43.024  0.0000E+00  0.0000E+00  0.1920E+03  0.1920E+03
    -42.785  0.0000E+00  0.0000E+00  0.1920E+03  0.1920E+03
    -42.546  0.0000E+00  0.0000E+00  0.1920E+03  0.1920E+03
    -42.307  0.0000E+00  0.0000E+00  0.1920E+03  0.1920E+03
    -42.068  0.0000E+00  0.0000E+00  0.1920E+03  0.1920E+03
    -41.829  0.0000E+00  0.0000E+00  0.1920E+03  0.1920E+03
    -41.590  0.0000E+00  0.0000E+00  0.1920E+03  0.1920E+03
    -41.351  0.0000E+00  0.0000E+00  0.1920E+03  0.1920E+03
    -41.113  0.0000E+00  0.0000E+00  0.1920E+03  0.1920E+03
    -40.874  0.0000E+00  0.0000E+00  0.1920E+03  0.1920E+03
    -40.635  0.5397E-10  0.3564E-10  0.1920E+03  0.1920E+03
    -40.396  0.8197E+02  0.7678E+02  0.2116E+03  0.2103E+03
    -40.157  0.4512E+03  0.4569E+03  0.3194E+03  0.3195E+03
    -39.918  0.2629E+01  0.2169E+01  0.3200E+03  0.3200E+03
    -39.679  0.0000E+00  0.0000E+00  0.3200E+03  0.3200E+03
    -39.440  0.0000E+00  0.0000E+00  0.3200E+03  0.3200E+03
    -39.201  0.0000E+00  0.0000E+00  0.3200E+03  0.3200E+03
    -38.963  0.0000E+00  0.0000E+00  0.3200E+03  0.3200E+03
    -38.724  0.0000E+00  0.0000E+00  0.3200E+03  0.3200E+03
    -38.485  0.0000E+00  0.0000E+00  0.3200E+03  0.3200E+03
    -38.246  0.0000E+00  0.0000E+00  0.3200E+03  0.3200E+03
    -38.007  0.0000E+00  0.0000E+00  0.3200E+03  0.3200E+03
    -37.768  0.0000E+00  0.0000E+00  0.3200E+03  0.3200E+03
    -37.529  0.0000E+00  0.0000E+00  0.3200E+03  0.3200E+03
    -37.290  0.0000E+00  0.0000E+00  0.3200E+03  0.3200E+03
    -37.051  0.0000E+00  0.0000E+00  0.3200E+03  0.3200E+03
    -36.813  0.0000E+00  0.0000E+00  0.3200E+03  0.3200E+03
    -36.574  0.0000E+00  0.0000E+00  0.3200E+03  0.3200E+03
    -36.335  0.0000E+00  0.0000E+00  0.3200E+03  0.3200E+03
    -36.096  0.0000E+00  0.0000E+00  0.3200E+03  0.3200E+03
    -35.857  0.0000E+00  0.0000E+00  0.3200E+03  0.3200E+03
    -35.618  0.0000E+00  0.0000E+00  0.3200E+03  0.3200E+03
    -35.379  0.0000E+00  0.0000E+00  0.3200E+03  0.3200E+03
    -35.140  0.0000E+00  0.0000E+00  0.3200E+03  0.3200E+03
    -34.901  0.0000E+00  0.0000E+00  0.3200E+03  0.3200E+03
    -34.663  0.0000E+00  0.0000E+00  0.3200E+03  0.3200E+03
    -34.424  0.0000E+00  0.0000E+00  0.3200E+03  0.3200E+03
    -34.185  0.0000E+00  0.0000E+00  0.3200E+03  0.3200E+03
    -33.946  0.0000E+00  0.0000E+00  0.3200E+03  0.3200E+03
    -33.707  0.0000E+00  0.0000E+00  0.3200E+03  0.3200E+03
    -33.468  0.0000E+00  0.0000E+00  0.3200E+03  0.3200E+03
    -33.229  0.0000E+00  0.0000E+00  0.3200E+03  0.3200E+03
    -32.990  0.0000E+00  0.0000E+00  0.3200E+03  0.3200E+03
    -32.751  0.0000E+00  0.0000E+00  0.3200E+03  0.3200E+03
    -32.513  0.0000E+00  0.0000E+00  0.3200E+03  0.3200E+03
    -32.274  0.0000E+00  0.0000E+00  0.3200E+03  0.3200E+03
    -32.035  0.0000E+00  0.0000E+00  0.3200E+03  0.3200E+03
    -31.796  0.0000E+00  0.0000E+00  0.3200E+03  0.3200E+03
    -31.557  0.0000E+00  0.0000E+00  0.3200E+03  0.3200E+03
    -31.318  0.0000E+00  0.0000E+00  0.3200E+03  0.3200E+03
    -31.079  0.0000E+00  0.0000E+00  0.3200E+03  0.3200E+03
    -30.840  0.0000E+00  0.0000E+00  0.3200E+03  0.3200E+03
    -30.601  0.0000E+00  0.0000E+00  0.3200E+03  0.3200E+03
    -30.363  0.0000E+00  0.0000E+00  0.3200E+03  0.3200E+03
    -30.124  0.0000E+00  0.0000E+00  0.3200E+03  0.3200E+03
    -29.885  0.0000E+00  0.0000E+00  0.3200E+03  0.3200E+03
    -29.646  0.0000E+00  0.0000E+00  0.3200E+03  0.3200E+03
    -29.407  0.0000E+00  0.0000E+00  0.3200E+03  0.3200E+03
    -29.168  0.0000E+00  0.0000E+00  0.3200E+03  0.3200E+03
    -28.929  0.0000E+00  0.0000E+00  0.3200E+03  0.3200E+03
    -28.690  0.0000E+00  0.0000E+00  0.3200E+03  0.3200E+03
    -28.451  0.0000E+00  0.0000E+00  0.3200E+03  0.3200E+03
    -28.213  0.0000E+00  0.0000E+00  0.3200E+03  0.3200E+03
    -27.974  0.0000E+00  0.0000E+00  0.3200E+03  0.3200E+03
    -27.735  0.0000E+00  0.0000E+00  0.3200E+03  0.3200E+03
    -27.496  0.0000E+00  0.0000E+00  0.3200E+03  0.3200E+03
    -27.257  0.0000E+00  0.0000E+00  0.3200E+03  0.3200E+03
    -27.018  0.0000E+00  0.0000E+00  0.3200E+03  0.3200E+03
    -26.779  0.0000E+00  0.0000E+00  0.3200E+03  0.3200E+03
    -26.540  0.0000E+00  0.0000E+00  0.3200E+03  0.3200E+03
    -26.301  0.0000E+00  0.0000E+00  0.3200E+03  0.3200E+03
    -26.063  0.0000E+00  0.0000E+00  0.3200E+03  0.3200E+03
    -25.824  0.0000E+00  0.0000E+00  0.3200E+03  0.3200E+03
    -25.585  0.0000E+00  0.0000E+00  0.3200E+03  0.3200E+03
    -25.346  0.0000E+00  0.0000E+00  0.3200E+03  0.3200E+03
    -25.107  0.0000E+00  0.0000E+00  0.3200E+03  0.3200E+03
    -24.868  0.0000E+00  0.0000E+00  0.3200E+03  0.3200E+03
    -24.629  0.0000E+00  0.0000E+00  0.3200E+03  0.3200E+03
    -24.390  0.0000E+00  0.0000E+00  0.3200E+03  0.3200E+03
    -24.151  0.0000E+00  0.0000E+00  0.3200E+03  0.3200E+03
    -23.913  0.0000E+00  0.0000E+00  0.3200E+03  0.3200E+03
    -23.674  0.0000E+00  0.0000E+00  0.3200E+03  0.3200E+03
    -23.435  0.0000E+00  0.0000E+00  0.3200E+03  0.3200E+03
    -23.196  0.0000E+00  0.0000E+00  0.3200E+03  0.3200E+03
    -22.957  0.0000E+00  0.0000E+00  0.3200E+03  0.3200E+03
    -22.718  0.0000E+00  0.0000E+00  0.3200E+03  0.3200E+03
    -22.479  0.0000E+00  0.0000E+00  0.3200E+03  0.3200E+03
    -22.240  0.0000E+00  0.0000E+00  0.3200E+03  0.3200E+03
    -22.001  0.0000E+00  0.0000E+00  0.3200E+03  0.3200E+03
    -21.763  0.0000E+00  0.0000E+00  0.3200E+03  0.3200E+03
    -21.524  0.0000E+00  0.0000E+00  0.3200E+03  0.3200E+03
    -21.285  0.0000E+00  0.0000E+00  0.3200E+03  0.3200E+03
    -21.046  0.0000E+00  0.0000E+00  0.3200E+03  0.3200E+03
    -20.807  0.0000E+00  0.0000E+00  0.3200E+03  0.3200E+03
    -20.568  0.0000E+00  0.0000E+00  0.3200E+03  0.3200E+03
    -20.329  0.0000E+00  0.0000E+00  0.3200E+03  0.3200E+03
    -20.090  0.0000E+00  0.0000E+00  0.3200E+03  0.3200E+03
    -19.851  0.0000E+00  0.0000E+00  0.3200E+03  0.3200E+03
    -19.613  0.0000E+00  0.0000E+00  0.3200E+03  0.3200E+03
    -19.374  0.0000E+00  0.0000E+00  0.3200E+03  0.3200E+03
    -19.135  0.0000E+00  0.0000E+00  0.3200E+03  0.3200E+03
    -18.896  0.0000E+00  0.0000E+00  0.3200E+03  0.3200E+03
    -18.657  0.0000E+00  0.0000E+00  0.3200E+03  0.3200E+03
    -18.418  0.0000E+00  0.0000E+00  0.3200E+03  0.3200E+03
    -18.179  0.0000E+00  0.0000E+00  0.3200E+03  0.3200E+03
    -17.940  0.0000E+00  0.0000E+00  0.3200E+03  0.3200E+03
    -17.701  0.0000E+00  0.0000E+00  0.3200E+03  0.3200E+03
    -17.463  0.0000E+00  0.0000E+00  0.3200E+03  0.3200E+03
    -17.224  0.0000E+00  0.0000E+00  0.3200E+03  0.3200E+03
    -16.985  0.0000E+00  0.0000E+00  0.3200E+03  0.3200E+03
    -16.746  0.0000E+00  0.0000E+00  0.3200E+03  0.3200E+03
    -16.507  0.0000E+00  0.0000E+00  0.3200E+03  0.3200E+03
    -16.268  0.0000E+00  0.0000E+00  0.3200E+03  0.3200E+03
    -16.029  0.0000E+00  0.0000E+00  0.3200E+03  0.3200E+03
    -15.790  0.0000E+00  0.0000E+00  0.3200E+03  0.3200E+03
    -15.551  0.0000E+00  0.0000E+00  0.3200E+03  0.3200E+03
    -15.313  0.0000E+00  0.0000E+00  0.3200E+03  0.3200E+03
    -15.074  0.0000E+00  0.0000E+00  0.3200E+03  0.3200E+03
    -14.835  0.0000E+00  0.0000E+00  0.3200E+03  0.3200E+03
    -14.596  0.0000E+00  0.0000E+00  0.3200E+03  0.3200E+03
    -14.357  0.0000E+00  0.0000E+00  0.3200E+03  0.3200E+03
    -14.118  0.0000E+00  0.0000E+00  0.3200E+03  0.3200E+03
    -13.879  0.6460E-08  0.0000E+00  0.3200E+03  0.3200E+03
    -13.640  0.2866E+02  0.0000E+00  0.3268E+03  0.3200E+03
    -13.401  0.1440E+03  0.5874E+00  0.3612E+03  0.3201E+03
    -13.163  0.9528E+02  0.1653E+03  0.3840E+03  0.3596E+03
    -12.924  0.1506E-01  0.1020E+03  0.3840E+03  0.3840E+03
    -12.685  0.0000E+00  0.1055E-02  0.3840E+03  0.3840E+03
    -12.446  0.0000E+00  0.0000E+00  0.3840E+03  0.3840E+03
    -12.207  0.0000E+00  0.0000E+00  0.3840E+03  0.3840E+03
    -11.968  0.0000E+00  0.0000E+00  0.3840E+03  0.3840E+03
    -11.729  0.0000E+00  0.0000E+00  0.3840E+03  0.3840E+03
    -11.490  0.0000E+00  0.0000E+00  0.3840E+03  0.3840E+03
    -11.251  0.0000E+00  0.0000E+00  0.3840E+03  0.3840E+03
    -11.013  0.0000E+00  0.0000E+00  0.3840E+03  0.3840E+03
    -10.774  0.0000E+00  0.0000E+00  0.3840E+03  0.3840E+03
    -10.535  0.0000E+00  0.0000E+00  0.3840E+03  0.3840E+03
    -10.296  0.0000E+00  0.0000E+00  0.3840E+03  0.3840E+03
    -10.057  0.0000E+00  0.0000E+00  0.3840E+03  0.3840E+03
     -9.818  0.0000E+00  0.0000E+00  0.3840E+03  0.3840E+03
     -9.579  0.0000E+00  0.0000E+00  0.3840E+03  0.3840E+03
     -9.340  0.0000E+00  0.0000E+00  0.3840E+03  0.3840E+03
     -9.101  0.0000E+00  0.0000E+00  0.3840E+03  0.3840E+03
     -8.863  0.0000E+00  0.0000E+00  0.3840E+03  0.3840E+03
     -8.624  0.0000E+00  0.0000E+00  0.3840E+03  0.3840E+03
     -8.385  0.0000E+00  0.0000E+00  0.3840E+03  0.3840E+03
     -8.146  0.0000E+00  0.0000E+00  0.3840E+03  0.3840E+03
     -7.907  0.0000E+00  0.0000E+00  0.3840E+03  0.3840E+03
     -7.668  0.9067E-04  0.0000E+00  0.3840E+03  0.3840E+03
     -7.429  0.2303E+02  0.4200E-02  0.3895E+03  0.3840E+03
     -7.190  0.1142E+03  0.5257E+02  0.4168E+03  0.3966E+03
     -6.951  0.1147E+03  0.1234E+03  0.4442E+03  0.4260E+03
     -6.713  0.1591E+02  0.8205E+02  0.4480E+03  0.4456E+03
     -6.474  0.4980E-04  0.9847E+01  0.4480E+03  0.4480E+03
     -6.235  0.0000E+00  0.3661E-04  0.4480E+03  0.4480E+03
     -5.996  0.0000E+00  0.0000E+00  0.4480E+03  0.4480E+03
     -5.757  0.0000E+00  0.0000E+00  0.4480E+03  0.4480E+03
     -5.518  0.0000E+00  0.0000E+00  0.4480E+03  0.4480E+03
     -5.279  0.0000E+00  0.0000E+00  0.4480E+03  0.4480E+03
     -5.040  0.0000E+00  0.0000E+00  0.4480E+03  0.4480E+03
     -4.801  0.0000E+00  0.0000E+00  0.4480E+03  0.4480E+03
     -4.563  0.0000E+00  0.0000E+00  0.4480E+03  0.4480E+03
     -4.324  0.0000E+00  0.0000E+00  0.4480E+03  0.4480E+03
     -4.085  0.0000E+00  0.0000E+00  0.4480E+03  0.4480E+03
     -3.846  0.0000E+00  0.0000E+00  0.4480E+03  0.4480E+03
     -3.607  0.0000E+00  0.0000E+00  0.4480E+03  0.4480E+03
     -3.368  0.0000E+00  0.0000E+00  0.4480E+03  0.4480E+03
     -3.129  0.0000E+00  0.0000E+00  0.4480E+03  0.4480E+03
     -2.890  0.1944E-06  0.0000E+00  0.4480E+03  0.4480E+03
     -2.652  0.2846E+02  0.0000E+00  0.4548E+03  0.4480E+03
     -2.413  0.5053E+02  0.0000E+00  0.4669E+03  0.4480E+03
     -2.174  0.2147E+02  0.0000E+00  0.4720E+03  0.4480E+03
     -1.935  0.7906E-06  0.0000E+00  0.4720E+03  0.4480E+03
     -1.696  0.4794E+02  0.0000E+00  0.4835E+03  0.4480E+03
     -1.457  0.2110E+02  0.0000E+00  0.4885E+03  0.4480E+03
     -1.218  0.1121E+03  0.4852E-03  0.5153E+03  0.4480E+03
     -0.979  0.1358E+03  0.1800E+02  0.5477E+03  0.4523E+03
     -0.740  0.1498E+03  0.7430E+02  0.5835E+03  0.4701E+03
     -0.502  0.1399E+03  0.1499E+02  0.6169E+03  0.4736E+03
     -0.263  0.1687E+03  0.5107E+02  0.6572E+03  0.4858E+03
     -0.024  0.1880E+03  0.1234E+02  0.7021E+03  0.4888E+03
      0.215  0.1126E+03  0.5597E+02  0.7290E+03  0.5021E+03
      0.454  0.1051E+03  0.1636E+03  0.7541E+03  0.5412E+03
      0.693  0.9865E+02  0.1500E+03  0.7777E+03  0.5771E+03
      0.932  0.9510E+02  0.2048E+03  0.8004E+03  0.6260E+03
      1.171  0.1225E+03  0.6043E+02  0.8296E+03  0.6404E+03
      1.410  0.1900E+03  0.2951E+02  0.8750E+03  0.6475E+03
      1.648  0.1683E+03  0.9464E+02  0.9153E+03  0.6701E+03
      1.887  0.5450E+02  0.8649E+02  0.9283E+03  0.6908E+03
      2.126  0.9690E+02  0.7642E+02  0.9514E+03  0.7090E+03
      2.365  0.6665E+02  0.5012E+02  0.9673E+03  0.7210E+03
      2.604  0.9413E+02  0.9696E+02  0.9898E+03  0.7441E+03
      2.843  0.1017E+03  0.1172E+03  0.1014E+04  0.7721E+03
      3.082  0.1068E+03  0.1517E+03  0.1040E+04  0.8084E+03
      3.321  0.1060E+03  0.7601E+02  0.1065E+04  0.8265E+03
      3.560  0.1004E+03  0.7132E+02  0.1089E+04  0.8436E+03
      3.798  0.9662E+02  0.1599E+03  0.1112E+04  0.8818E+03
      4.037  0.8407E+02  0.5961E+02  0.1132E+04  0.8960E+03
      4.276  0.4521E+02  0.6165E-02  0.1143E+04  0.8960E+03
      4.515  0.3476E+02  0.0000E+00  0.1151E+04  0.8960E+03
      4.754  0.3373E+01  0.0000E+00  0.1152E+04  0.8960E+03
      4.993  0.2596E-03  0.0000E+00  0.1152E+04  0.8960E+03
      5.232  0.0000E+00  0.0000E+00  0.1152E+04  0.8960E+03
      5.471  0.0000E+00  0.0000E+00  0.1152E+04  0.8960E+03
      5.710  0.0000E+00  0.0000E+00  0.1152E+04  0.8960E+03
      5.948  0.0000E+00  0.0000E+00  0.1152E+04  0.8960E+03
      6.187  0.0000E+00  0.0000E+00  0.1152E+04  0.8960E+03
      6.426  0.0000E+00  0.8325E-06  0.1152E+04  0.8960E+03
      6.665  0.0000E+00  0.1683E+02  0.1152E+04  0.9000E+03
      6.904  0.5461E-14  0.1352E+03  0.1152E+04  0.9323E+03
      7.143  0.9798E-01  0.1324E+03  0.1152E+04  0.9639E+03
      7.382  0.4253E+00  0.1347E+03  0.1152E+04  0.9961E+03
      7.621  0.2232E+01  0.1074E+03  0.1153E+04  0.1022E+04
      7.860  0.2137E+01  0.1615E+03  0.1153E+04  0.1060E+04
      8.098  0.7048E+01  0.1576E+03  0.1155E+04  0.1098E+04
      8.337  0.2031E+02  0.1362E+03  0.1160E+04  0.1131E+04
      8.576  0.3322E+02  0.7843E+02  0.1168E+04  0.1149E+04
      8.815  0.3334E+02  0.1917E+02  0.1176E+04  0.1154E+04
      9.054  0.4773E+02  0.1503E+02  0.1187E+04  0.1157E+04
      9.293  0.7535E+02  0.2022E+02  0.1205E+04  0.1162E+04
      9.532  0.5522E+02  0.3503E+02  0.1218E+04  0.1171E+04
      9.771  0.4905E+02  0.5732E+02  0.1230E+04  0.1184E+04
     10.010  0.3614E+02  0.8325E+02  0.1239E+04  0.1204E+04
     10.248  0.3818E+02  0.7212E+02  0.1248E+04  0.1221E+04
     10.487  0.7339E+02  0.6536E+02  0.1265E+04  0.1237E+04
     10.726  0.6517E+02  0.4181E+02  0.1281E+04  0.1247E+04
     10.965  0.6497E+02  0.8234E+02  0.1296E+04  0.1267E+04
     11.204  0.9903E+02  0.4489E+02  0.1320E+04  0.1277E+04
     11.443  0.1289E+03  0.4923E+02  0.1351E+04  0.1289E+04
     11.682  0.1176E+03  0.9004E+02  0.1379E+04  0.1311E+04
     11.921  0.8105E+02  0.1406E+03  0.1398E+04  0.1344E+04
     12.160  0.3545E+02  0.1486E+03  0.1407E+04  0.1380E+04
     12.398  0.6939E+02  0.6910E+02  0.1423E+04  0.1396E+04
     12.637  0.6374E+02  0.5143E+02  0.1438E+04  0.1409E+04
     12.876  0.6329E+02  0.5441E+02  0.1454E+04  0.1422E+04
     13.115  0.4796E+02  0.7899E+02  0.1465E+04  0.1440E+04
     13.354  0.1215E+02  0.5780E+02  0.1468E+04  0.1454E+04
     13.593  0.2323E+00  0.5289E+02  0.1468E+04  0.1467E+04
     13.832  0.0000E+00  0.4583E+01  0.1468E+04  0.1468E+04
     14.071  0.0000E+00  0.4473E-05  0.1468E+04  0.1468E+04
     14.310  0.0000E+00  0.0000E+00  0.1468E+04  0.1468E+04
     14.548  0.0000E+00  0.0000E+00  0.1468E+04  0.1468E+04
     14.787  0.0000E+00  0.0000E+00  0.1468E+04  0.1468E+04
     15.026  0.0000E+00  0.0000E+00  0.1468E+04  0.1468E+04
     15.265  0.0000E+00  0.0000E+00  0.1468E+04  0.1468E+04
     15.504  0.0000E+00  0.0000E+00  0.1468E+04  0.1468E+04
     15.743  0.0000E+00  0.0000E+00  0.1468E+04  0.1468E+04
     15.982  0.0000E+00  0.0000E+00  0.1468E+04  0.1468E+04
     16.221  0.0000E+00  0.0000E+00  0.1468E+04  0.1468E+04
     16.460  0.0000E+00  0.0000E+00  0.1468E+04  0.1468E+04
     16.698  0.0000E+00  0.0000E+00  0.1468E+04  0.1468E+04
     16.937  0.0000E+00  0.0000E+00  0.1468E+04  0.1468E+04
