  320  320    1    2
  0.1216366E+02  0.1589065E-08  0.1589065E-08  0.1541455E-08  0.5000000E-15
  1.000000000000000E-004
  CAR 
 unknown system                          
   2048      8   1468
 
  0.0000000E+00  0.0000000E+00  0.0000000E+00  0.1250000E+00
    1      -51.471562    -46.729659   1.000000   1.000000
    2      -51.471535    -46.729600   1.000000   1.000000
    3      -51.469788    -46.727650   1.000000   1.000000
    4      -51.469762    -46.727603   1.000000   1.000000
    5      -51.469163    -46.727558   1.000000   1.000000
    6      -51.468894    -46.727294   1.000000   1.000000
    7      -51.468879    -46.727291   1.000000   1.000000
    8      -51.468820    -46.727233   1.000000   1.000000
    9      -51.468788    -46.727201   1.000000   1.000000
   10      -51.468758    -46.727132   1.000000   1.000000
   11      -51.468564    -46.726984   1.000000   1.000000
   12      -51.468555    -46.726974   1.000000   1.000000
   13      -51.468478    -46.726905   1.000000   1.000000
   14      -51.468448    -46.726836   1.000000   1.000000
   15      -51.468384    -46.726703   1.000000   1.000000
   16      -51.468314    -46.726631   1.000000   1.000000
   17      -51.468298    -46.726536   1.000000   1.000000
   18      -51.468282    -46.726291   1.000000   1.000000
   19      -51.468154    -46.726193   1.000000   1.000000
   20      -51.468149    -46.726154   1.000000   1.000000
   21      -51.468145    -46.726101   1.000000   1.000000
   22      -51.468134    -46.726056   1.000000   1.000000
   23      -51.468131    -46.726024   1.000000   1.000000
   24      -51.468116    -46.726020   1.000000   1.000000
   25      -51.468095    -46.725997   1.000000   1.000000
   26      -51.468053    -46.725945   1.000000   1.000000
   27      -51.468035    -46.725920   1.000000   1.000000
   28      -51.468009    -46.725910   1.000000   1.000000
   29      -51.468008    -46.725895   1.000000   1.000000
   30      -51.467970    -46.725875   1.000000   1.000000
   31      -51.467943    -46.725864   1.000000   1.000000
   32      -51.467829    -46.725823   1.000000   1.000000
   33      -51.467828    -46.725723   1.000000   1.000000
   34      -51.467825    -46.725720   1.000000   1.000000
   35      -51.467806    -46.725714   1.000000   1.000000
   36      -51.467730    -46.725712   1.000000   1.000000
   37      -51.467705    -46.725623   1.000000   1.000000
   38      -51.467700    -46.725604   1.000000   1.000000
   39      -51.467699    -46.725574   1.000000   1.000000
   40      -51.467672    -46.725554   1.000000   1.000000
   41      -51.467576    -46.725445   1.000000   1.000000
   42      -51.467558    -46.725394   1.000000   1.000000
   43      -51.467549    -46.725301   1.000000   1.000000
   44      -51.467411    -46.725273   1.000000   1.000000
   45      -51.467392    -46.725222   1.000000   1.000000
   46      -51.467351    -46.725156   1.000000   1.000000
   47      -51.467340    -46.724956   1.000000   1.000000
   48      -51.467324    -46.724849   1.000000   1.000000
   49      -51.467304    -46.724811   1.000000   1.000000
   50      -51.467286    -46.724771   1.000000   1.000000
   51      -51.467285    -46.724728   1.000000   1.000000
   52      -51.467261    -46.724686   1.000000   1.000000
   53      -51.467216    -46.724611   1.000000   1.000000
   54      -51.467191    -46.724578   1.000000   1.000000
   55      -51.467096    -46.724478   1.000000   1.000000
   56      -51.467084    -46.724470   1.000000   1.000000
   57      -51.466960    -46.724344   1.000000   1.000000
   58      -51.466936    -46.724312   1.000000   1.000000
   59      -51.466625    -46.724183   1.000000   1.000000
   60      -51.466601    -46.724034   1.000000   1.000000
   61      -51.466494    -46.724001   1.000000   1.000000
   62      -51.466245    -46.723913   1.000000   1.000000
   63      -51.466106    -46.723840   1.000000   1.000000
   64      -51.460697    -46.718477   1.000000   1.000000
   65      -50.064538    -46.350698   1.000000   1.000000
   66      -50.064505    -46.350653   1.000000   1.000000
   67      -50.062271    -46.348726   1.000000   1.000000
   68      -50.062238    -46.348681   1.000000   1.000000
   69      -50.061484    -46.347900   1.000000   1.000000
   70      -50.061169    -46.347590   1.000000   1.000000
   71      -50.060995    -46.347456   1.000000   1.000000
   72      -50.060983    -46.347439   1.000000   1.000000
   73      -50.060980    -46.347417   1.000000   1.000000
   74      -50.060958    -46.347406   1.000000   1.000000
   75      -50.060910    -46.347378   1.000000   1.000000
   76      -50.060875    -46.347339   1.000000   1.000000
   77      -50.060819    -46.347253   1.000000   1.000000
   78      -50.060815    -46.347250   1.000000   1.000000
   79      -50.060756    -46.347217   1.000000   1.000000
   80      -50.060736    -46.347173   1.000000   1.000000
   81      -50.060730    -46.347166   1.000000   1.000000
   82      -50.060719    -46.347162   1.000000   1.000000
   83      -50.060703    -46.347152   1.000000   1.000000
   84      -50.060701    -46.347141   1.000000   1.000000
   85      -50.060693    -46.347128   1.000000   1.000000
   86      -50.060670    -46.347102   1.000000   1.000000
   87      -50.060635    -46.347086   1.000000   1.000000
   88      -50.060604    -46.347056   1.000000   1.000000
   89      -50.060596    -46.347054   1.000000   1.000000
   90      -50.060579    -46.347038   1.000000   1.000000
   91      -50.060578    -46.347013   1.000000   1.000000
   92      -50.060562    -46.347002   1.000000   1.000000
   93      -50.060550    -46.346994   1.000000   1.000000
   94      -50.060543    -46.346994   1.000000   1.000000
   95      -50.060541    -46.346991   1.000000   1.000000
   96      -50.060527    -46.346976   1.000000   1.000000
   97      -50.060520    -46.346964   1.000000   1.000000
   98      -50.060516    -46.346952   1.000000   1.000000
   99      -50.060503    -46.346938   1.000000   1.000000
  100      -50.060500    -46.346935   1.000000   1.000000
  101      -50.060491    -46.346932   1.000000   1.000000
  102      -50.060486    -46.346906   1.000000   1.000000
  103      -50.060439    -46.346880   1.000000   1.000000
  104      -50.060423    -46.346842   1.000000   1.000000
  105      -50.060393    -46.346837   1.000000   1.000000
  106      -50.060348    -46.346800   1.000000   1.000000
  107      -50.060340    -46.346792   1.000000   1.000000
  108      -50.060316    -46.346763   1.000000   1.000000
  109      -50.060308    -46.346749   1.000000   1.000000
  110      -50.060298    -46.346745   1.000000   1.000000
  111      -50.060296    -46.346737   1.000000   1.000000
  112      -50.060263    -46.346710   1.000000   1.000000
  113      -50.060220    -46.346682   1.000000   1.000000
  114      -50.060150    -46.346651   1.000000   1.000000
  115      -50.060127    -46.346591   1.000000   1.000000
  116      -50.060103    -46.346562   1.000000   1.000000
  117      -50.060103    -46.346536   1.000000   1.000000
  118      -50.060062    -46.346530   1.000000   1.000000
  119      -50.060031    -46.346505   1.000000   1.000000
  120      -50.059818    -46.346470   1.000000   1.000000
  121      -50.059785    -46.346290   1.000000   1.000000
  122      -50.059691    -46.346246   1.000000   1.000000
  123      -50.059654    -46.346153   1.000000   1.000000
  124      -50.059648    -46.346108   1.000000   1.000000
  125      -50.059551    -46.345949   1.000000   1.000000
  126      -50.059163    -46.345604   1.000000   1.000000
  127      -50.059158    -46.345597   1.000000   1.000000
  128      -50.053345    -46.339790   1.000000   1.000000
  129      -50.037031    -46.332950   1.000000   1.000000
  130      -50.036681    -46.332454   1.000000   1.000000
  131      -50.035610    -46.331270   1.000000   1.000000
  132      -50.035260    -46.330773   1.000000   1.000000
  133      -50.034603    -46.330342   1.000000   1.000000
  134      -50.034581    -46.329970   1.000000   1.000000
  135      -50.034230    -46.329957   1.000000   1.000000
  136      -50.034228    -46.329874   1.000000   1.000000
  137      -50.034205    -46.329854   1.000000   1.000000
  138      -50.034134    -46.329796   1.000000   1.000000
  139      -50.034079    -46.329768   1.000000   1.000000
  140      -50.034072    -46.329752   1.000000   1.000000
  141      -50.034045    -46.329746   1.000000   1.000000
  142      -50.034026    -46.329689   1.000000   1.000000
  143      -50.034009    -46.329658   1.000000   1.000000
  144      -50.034003    -46.329621   1.000000   1.000000
  145      -50.033913    -46.329587   1.000000   1.000000
  146      -50.033881    -46.329585   1.000000   1.000000
  147      -50.033862    -46.329516   1.000000   1.000000
  148      -50.033854    -46.329432   1.000000   1.000000
  149      -50.033843    -46.329432   1.000000   1.000000
  150      -50.033839    -46.329426   1.000000   1.000000
  151      -50.033830    -46.329398   1.000000   1.000000
  152      -50.033794    -46.329388   1.000000   1.000000
  153      -50.033791    -46.329352   1.000000   1.000000
  154      -50.033730    -46.329351   1.000000   1.000000
  155      -50.033727    -46.329331   1.000000   1.000000
  156      -50.033719    -46.329296   1.000000   1.000000
  157      -50.033707    -46.329295   1.000000   1.000000
  158      -50.033687    -46.329264   1.000000   1.000000
  159      -50.033657    -46.329246   1.000000   1.000000
  160      -50.033652    -46.329243   1.000000   1.000000
  161      -50.033649    -46.329234   1.000000   1.000000
  162      -50.033629    -46.329211   1.000000   1.000000
  163      -50.033543    -46.329198   1.000000   1.000000
  164      -50.033521    -46.329138   1.000000   1.000000
  165      -50.033508    -46.329085   1.000000   1.000000
  166      -50.033496    -46.329076   1.000000   1.000000
  167      -50.033486    -46.329056   1.000000   1.000000
  168      -50.033484    -46.329040   1.000000   1.000000
  169      -50.033457    -46.329009   1.000000   1.000000
  170      -50.033427    -46.328987   1.000000   1.000000
  171      -50.033393    -46.328928   1.000000   1.000000
  172      -50.033390    -46.328866   1.000000   1.000000
  173      -50.033381    -46.328865   1.000000   1.000000
  174      -50.033357    -46.328863   1.000000   1.000000
  175      -50.033305    -46.328846   1.000000   1.000000
  176      -50.033295    -46.328809   1.000000   1.000000
  177      -50.033285    -46.328749   1.000000   1.000000
  178      -50.033278    -46.328748   1.000000   1.000000
  179      -50.033172    -46.328730   1.000000   1.000000
  180      -50.033148    -46.328718   1.000000   1.000000
  181      -50.033139    -46.328714   1.000000   1.000000
  182      -50.033138    -46.328662   1.000000   1.000000
  183      -50.033064    -46.328592   1.000000   1.000000
  184      -50.033061    -46.328559   1.000000   1.000000
  185      -50.032989    -46.328537   1.000000   1.000000
  186      -50.032938    -46.328379   1.000000   1.000000
  187      -50.032716    -46.328169   1.000000   1.000000
  188      -50.032641    -46.328106   1.000000   1.000000
  189      -50.032478    -46.328076   1.000000   1.000000
  190      -50.032150    -46.327716   1.000000   1.000000
  191      -50.032144    -46.327708   1.000000   1.000000
  192      -50.026155    -46.321867   1.000000   1.000000
  193      -40.385722    -40.383733   1.000000   1.000000
  194      -40.381138    -40.379238   1.000000   1.000000
  195      -40.380160    -40.378208   1.000000   1.000000
  196      -40.380132    -40.378179   1.000000   1.000000
  197      -40.379983    -40.378031   1.000000   1.000000
  198      -40.379869    -40.377912   1.000000   1.000000
  199      -40.379511    -40.377563   1.000000   1.000000
  200      -40.379399    -40.377453   1.000000   1.000000
  201      -40.379331    -40.377342   1.000000   1.000000
  202      -40.379309    -40.377328   1.000000   1.000000
  203      -40.379240    -40.377253   1.000000   1.000000
  204      -40.379172    -40.377205   1.000000   1.000000
  205      -40.379153    -40.377162   1.000000   1.000000
  206      -40.379050    -40.377080   1.000000   1.000000
  207      -40.378911    -40.376916   1.000000   1.000000
  208      -40.378876    -40.376896   1.000000   1.000000
  209      -40.378748    -40.376773   1.000000   1.000000
  210      -40.378659    -40.376650   1.000000   1.000000
  211      -40.378617    -40.376627   1.000000   1.000000
  212      -40.378593    -40.376620   1.000000   1.000000
  213      -40.378466    -40.376488   1.000000   1.000000
  214      -40.378251    -40.376263   1.000000   1.000000
  215      -40.378158    -40.376180   1.000000   1.000000
  216      -40.378061    -40.376083   1.000000   1.000000
  217      -40.378059    -40.376076   1.000000   1.000000
  218      -40.378051    -40.376067   1.000000   1.000000
  219      -40.377959    -40.375956   1.000000   1.000000
  220      -40.377883    -40.375891   1.000000   1.000000
  221      -40.377850    -40.375867   1.000000   1.000000
  222      -40.377844    -40.375858   1.000000   1.000000
  223      -40.377807    -40.375824   1.000000   1.000000
  224      -40.377796    -40.375807   1.000000   1.000000
  225      -40.377705    -40.375716   1.000000   1.000000
  226      -40.377680    -40.375684   1.000000   1.000000
  227      -40.377673    -40.375679   1.000000   1.000000
  228      -40.377602    -40.375607   1.000000   1.000000
  229      -40.377559    -40.375564   1.000000   1.000000
  230      -40.377481    -40.375488   1.000000   1.000000
  231      -40.377435    -40.375443   1.000000   1.000000
  232      -40.377375    -40.375369   1.000000   1.000000
  233      -40.377337    -40.375342   1.000000   1.000000
  234      -40.377261    -40.375263   1.000000   1.000000
  235      -40.377158    -40.375159   1.000000   1.000000
  236      -40.377148    -40.375152   1.000000   1.000000
  237      -40.377085    -40.375083   1.000000   1.000000
  238      -40.377017    -40.375019   1.000000   1.000000
  239      -40.376916    -40.374919   1.000000   1.000000
  240      -40.376910    -40.374904   1.000000   1.000000
  241      -40.376891    -40.374891   1.000000   1.000000
  242      -40.376826    -40.374830   1.000000   1.000000
  243      -40.376754    -40.374752   1.000000   1.000000
  244      -40.376677    -40.374687   1.000000   1.000000
  245      -40.376583    -40.374583   1.000000   1.000000
  246      -40.376552    -40.374546   1.000000   1.000000
  247      -40.376470    -40.374460   1.000000   1.000000
  248      -40.376391    -40.374393   1.000000   1.000000
  249      -40.376298    -40.374299   1.000000   1.000000
  250      -40.376285    -40.374285   1.000000   1.000000
  251      -40.376223    -40.374224   1.000000   1.000000
  252      -40.376035    -40.374038   1.000000   1.000000
  253      -40.375731    -40.373740   1.000000   1.000000
  254      -40.375717    -40.373729   1.000000   1.000000
  255      -40.373853    -40.371868   1.000000   1.000000
  256      -40.373770    -40.371785   1.000000   1.000000
  257      -40.243218    -40.245742   1.000000   1.000000
  258      -40.242973    -40.245504   1.000000   1.000000
  259      -40.241705    -40.244230   1.000000   1.000000
  260      -40.241389    -40.243903   1.000000   1.000000
  261      -40.240767    -40.243287   1.000000   1.000000
  262      -40.240504    -40.243044   1.000000   1.000000
  263      -40.240488    -40.243025   1.000000   1.000000
  264      -40.240411    -40.242937   1.000000   1.000000
  265      -40.240364    -40.242906   1.000000   1.000000
  266      -40.240280    -40.242817   1.000000   1.000000
  267      -40.240200    -40.242735   1.000000   1.000000
  268      -40.240145    -40.242670   1.000000   1.000000
  269      -40.240144    -40.242667   1.000000   1.000000
  270      -40.240069    -40.242596   1.000000   1.000000
  271      -40.240019    -40.242529   1.000000   1.000000
  272      -40.239986    -40.242523   1.000000   1.000000
  273      -40.239937    -40.242455   1.000000   1.000000
  274      -40.239936    -40.242453   1.000000   1.000000
  275      -40.239903    -40.242422   1.000000   1.000000
  276      -40.239881    -40.242418   1.000000   1.000000
  277      -40.239836    -40.242377   1.000000   1.000000
  278      -40.239832    -40.242357   1.000000   1.000000
  279      -40.239801    -40.242331   1.000000   1.000000
  280      -40.239765    -40.242298   1.000000   1.000000
  281      -40.239744    -40.242281   1.000000   1.000000
  282      -40.239687    -40.242222   1.000000   1.000000
  283      -40.239683    -40.242195   1.000000   1.000000
  284      -40.239614    -40.242152   1.000000   1.000000
  285      -40.239595    -40.242135   1.000000   1.000000
  286      -40.239587    -40.242118   1.000000   1.000000
  287      -40.239537    -40.242077   1.000000   1.000000
  288      -40.239527    -40.242052   1.000000   1.000000
  289      -40.239527    -40.242042   1.000000   1.000000
  290      -40.239513    -40.242031   1.000000   1.000000
  291      -40.239493    -40.242021   1.000000   1.000000
  292      -40.239476    -40.242008   1.000000   1.000000
  293      -40.239464    -40.241978   1.000000   1.000000
  294      -40.239419    -40.241942   1.000000   1.000000
  295      -40.239375    -40.241877   1.000000   1.000000
  296      -40.239341    -40.241861   1.000000   1.000000
  297      -40.239280    -40.241794   1.000000   1.000000
  298      -40.239265    -40.241770   1.000000   1.000000
  299      -40.239252    -40.241761   1.000000   1.000000
  300      -40.239161    -40.241671   1.000000   1.000000
  301      -40.239134    -40.241649   1.000000   1.000000
  302      -40.239084    -40.241580   1.000000   1.000000
  303      -40.239034    -40.241533   1.000000   1.000000
  304      -40.239022    -40.241526   1.000000   1.000000
  305      -40.238988    -40.241519   1.000000   1.000000
  306      -40.238895    -40.241404   1.000000   1.000000
  307      -40.238840    -40.241342   1.000000   1.000000
  308      -40.238814    -40.241307   1.000000   1.000000
  309      -40.238809    -40.241306   1.000000   1.000000
  310      -40.238782    -40.241275   1.000000   1.000000
  311      -40.238685    -40.241178   1.000000   1.000000
  312      -40.238518    -40.241003   1.000000   1.000000
  313      -40.238510    -40.241001   1.000000   1.000000
  314      -40.238394    -40.240886   1.000000   1.000000
  315      -40.238386    -40.240879   1.000000   1.000000
  316      -40.238072    -40.240559   1.000000   1.000000
  317      -40.237491    -40.240008   1.000000   1.000000
  318      -40.237133    -40.239634   1.000000   1.000000
  319      -40.236032    -40.238542   1.000000   1.000000
  320      -40.235735    -40.238243   1.000000   1.000000
  321      -13.667823    -13.340167   1.000000   1.000000
  322      -13.667395    -13.339734   1.000000   1.000000
  323      -13.664997    -13.336196   1.000000   1.000000
  324      -13.664592    -13.335776   1.000000   1.000000
  325      -13.650102    -13.322442   1.000000   1.000000
  326      -13.649199    -13.322336   1.000000   1.000000
  327      -13.649183    -13.322101   1.000000   1.000000
  328      -13.648933    -13.321824   1.000000   1.000000
  329      -13.648561    -13.320849   1.000000   1.000000
  330      -13.644770    -13.316478   1.000000   1.000000
  331      -13.644767    -13.316471   1.000000   1.000000
  332      -13.644590    -13.316285   1.000000   1.000000
  333      -13.644039    -13.315734   1.000000   1.000000
  334      -13.624598    -13.296841   1.000000   1.000000
  335      -13.624148    -13.296378   1.000000   1.000000
  336      -13.598841    -13.272353   1.000000   1.000000
  337      -13.507870    -13.233872   1.000000   1.000000
  338      -13.507826    -13.233755   1.000000   1.000000
  339      -13.507473    -13.233412   1.000000   1.000000
  340      -13.507465    -13.233404   1.000000   1.000000
  341      -13.504447    -13.232648   1.000000   1.000000
  342      -13.504062    -13.232339   1.000000   1.000000
  343      -13.503803    -13.232001   1.000000   1.000000
  344      -13.503791    -13.231983   1.000000   1.000000
  345      -13.498714    -13.224600   1.000000   1.000000
  346      -13.498432    -13.224280   1.000000   1.000000
  347      -13.498154    -13.224005   1.000000   1.000000
  348      -13.498144    -13.223993   1.000000   1.000000
  349      -13.476197    -13.202075   1.000000   1.000000
  350      -13.476168    -13.202047   1.000000   1.000000
  351      -13.475835    -13.201691   1.000000   1.000000
  352      -13.475833    -13.201689   1.000000   1.000000
  353      -13.475789    -13.201652   1.000000   1.000000
  354      -13.475788    -13.201651   1.000000   1.000000
  355      -13.475366    -13.201209   1.000000   1.000000
  356      -13.475350    -13.201188   1.000000   1.000000
  357      -13.453572    -13.179454   1.000000   1.000000
  358      -13.453145    -13.179019   1.000000   1.000000
  359      -13.452915    -13.178780   1.000000   1.000000
  360      -13.452910    -13.178773   1.000000   1.000000
  361      -13.448930    -13.173424   1.000000   1.000000
  362      -13.448667    -13.173124   1.000000   1.000000
  363      -13.448410    -13.172893   1.000000   1.000000
  364      -13.448378    -13.172837   1.000000   1.000000
  365      -13.443954    -13.169797   1.000000   1.000000
  366      -13.443929    -13.169764   1.000000   1.000000
  367      -13.443530    -13.169341   1.000000   1.000000
  368      -13.443519    -13.169324   1.000000   1.000000
  369      -13.355957    -13.144107   1.000000   1.000000
  370      -13.320130    -13.107889   1.000000   1.000000
  371      -13.319705    -13.107447   1.000000   1.000000
  372      -13.294561    -13.081953   1.000000   1.000000
  373      -13.294560    -13.081953   1.000000   1.000000
  374      -13.294312    -13.081708   1.000000   1.000000
  375      -13.293958    -13.081311   1.000000   1.000000
  376      -13.288542    -13.073536   1.000000   1.000000
  377      -13.288516    -13.073472   1.000000   1.000000
  378      -13.288326    -13.073276   1.000000   1.000000
  379      -13.287874    -13.072861   1.000000   1.000000
  380      -13.283362    -13.070652   1.000000   1.000000
  381      -13.268800    -13.055822   1.000000   1.000000
  382      -13.268357    -13.055358   1.000000   1.000000
  383      -13.265663    -13.051512   1.000000   1.000000
  384      -13.265205    -13.051043   1.000000   1.000000
  385       -7.538683     -7.332727   1.000000   1.000000
  386       -7.469741     -7.287468   1.000000   1.000000
  387       -7.469584     -7.287298   1.000000   1.000000
  388       -7.469562     -7.287280   1.000000   1.000000
  389       -7.469372     -7.287088   1.000000   1.000000
  390       -7.404749     -7.245246   1.000000   1.000000
  391       -7.404693     -7.245198   1.000000   1.000000
  392       -7.395474     -7.218992   1.000000   1.000000
  393       -7.395353     -7.218886   1.000000   1.000000
  394       -7.356037     -7.188244   1.000000   1.000000
  395       -7.355986     -7.188197   1.000000   1.000000
  396       -7.355942     -7.188162   1.000000   1.000000
  397       -7.355821     -7.188055   1.000000   1.000000
  398       -7.351596     -7.166300   1.000000   1.000000
  399       -7.351492     -7.166181   1.000000   1.000000
  400       -7.351452     -7.166153   1.000000   1.000000
  401       -7.351358     -7.166047   1.000000   1.000000
  402       -7.315349     -7.117932   1.000000   1.000000
  403       -7.315203     -7.117778   1.000000   1.000000
  404       -7.277419     -7.116650   1.000000   1.000000
  405       -7.277279     -7.116523   1.000000   1.000000
  406       -7.277215     -7.116465   1.000000   1.000000
  407       -7.277106     -7.116360   1.000000   1.000000
  408       -7.237935     -7.092075   1.000000   1.000000
  409       -7.237726     -7.085349   1.000000   1.000000
  410       -7.237700     -7.085129   1.000000   1.000000
  411       -7.237358     -7.085107   1.000000   1.000000
  412       -7.233089     -7.084775   1.000000   1.000000
  413       -7.209502     -7.034492   1.000000   1.000000
  414       -7.209235     -7.034200   1.000000   1.000000
  415       -7.209218     -7.034187   1.000000   1.000000
  416       -7.209184     -7.034162   1.000000   1.000000
  417       -7.209178     -7.034154   1.000000   1.000000
  418       -7.209155     -7.034141   1.000000   1.000000
  419       -7.209130     -7.034119   1.000000   1.000000
  420       -7.208858     -7.033829   1.000000   1.000000
  421       -7.147496     -7.005185   1.000000   1.000000
  422       -7.147367     -7.005064   1.000000   1.000000
  423       -7.143161     -6.978776   1.000000   1.000000
  424       -7.143033     -6.978634   1.000000   1.000000
  425       -7.142993     -6.978629   1.000000   1.000000
  426       -7.142754     -6.978416   1.000000   1.000000
  427       -7.140752     -6.950791   1.000000   1.000000
  428       -7.140639     -6.950644   1.000000   1.000000
  429       -7.140590     -6.950620   1.000000   1.000000
  430       -7.140384     -6.950344   1.000000   1.000000
  431       -7.052244     -6.907019   1.000000   1.000000
  432       -7.052082     -6.889564   1.000000   1.000000
  433       -7.052074     -6.889385   1.000000   1.000000
  434       -7.051943     -6.889311   1.000000   1.000000
  435       -7.050826     -6.889227   1.000000   1.000000
  436       -7.046243     -6.862404   1.000000   1.000000
  437       -7.046240     -6.862359   1.000000   1.000000
  438       -7.046198     -6.862323   1.000000   1.000000
  439       -7.046082     -6.862206   1.000000   1.000000
  440       -7.042281     -6.856017   1.000000   1.000000
  441       -7.042254     -6.856008   1.000000   1.000000
  442       -6.950669     -6.764407   1.000000   1.000000
  443       -6.950567     -6.764283   1.000000   1.000000
  444       -6.946341     -6.737074   1.000000   1.000000
  445       -6.946132     -6.736836   1.000000   1.000000
  446       -6.946101     -6.736824   1.000000   1.000000
  447       -6.945807     -6.736520   1.000000   1.000000
  448       -6.844528     -6.608356   1.000000   1.000000
  449       -2.693949     -1.100096   1.000000   1.000000
  450       -2.693523     -1.099889   1.000000   1.000000
  451       -2.690609     -1.046784   1.000000   1.000000
  452       -2.690291     -1.046554   1.000000   1.000000
  453       -2.690242     -1.040441   1.000000   1.000000
  454       -2.689803     -1.040060   1.000000   1.000000
  455       -2.687638     -0.973244   1.000000   1.000000
  456       -2.687379     -0.973113   1.000000   1.000000
  457       -2.687252     -0.972954   1.000000   1.000000
  458       -2.687088     -0.972616   1.000000   1.000000
  459       -2.686972     -0.914602   1.000000   1.000000
  460       -2.686636     -0.914496   1.000000   1.000000
  461       -2.685501     -0.914360   1.000000   1.000000
  462       -2.685488     -0.913980   1.000000   1.000000
  463       -2.685355     -0.898520   1.000000   1.000000
  464       -2.684308     -0.898084   1.000000   1.000000
  465       -1.748900     -0.599497   1.000000   1.000000
  466       -1.748603     -0.599474   1.000000   1.000000
  467       -1.748354     -0.599431   1.000000   1.000000
  468       -1.748310     -0.599421   1.000000   1.000000
  469       -1.746587     -0.494366   1.000000   1.000000
  470       -1.746481     -0.494179   1.000000   1.000000
  471       -1.746210     -0.494005   1.000000   1.000000
  472       -1.746073     -0.493915   1.000000   1.000000
  473       -1.725263     -0.417016   1.000000   1.000000
  474       -1.725238     -0.416867   1.000000   1.000000
  475       -1.725188     -0.416793   1.000000   1.000000
  476       -1.725120     -0.416717   1.000000   1.000000
  477       -1.719874     -0.391641   1.000000   1.000000
  478       -1.719849     -0.391484   1.000000   1.000000
  479       -1.719651     -0.391423   1.000000   1.000000
  480       -1.719637     -0.391340   1.000000   1.000000
  481       -1.719493     -0.376317   1.000000   1.000000
  482       -1.719487     -0.376064   1.000000   1.000000
  483       -1.719235     -0.375921   1.000000   1.000000
  484       -1.719120     -0.375884   1.000000   1.000000
  485       -1.717767     -0.285547   1.000000   1.000000
  486       -1.717757     -0.285440   1.000000   1.000000
  487       -1.717554     -0.285232   1.000000   1.000000
  488       -1.717344     -0.285228   1.000000   1.000000
  489       -1.691225     -0.285193   1.000000   1.000000
  490       -1.690953     -0.285161   1.000000   1.000000
  491       -1.690675     -0.284866   1.000000   1.000000
  492       -1.690627     -0.284841   1.000000   1.000000
  493       -1.688954     -0.028081   1.000000   1.000000
  494       -1.688860     -0.028063   1.000000   1.000000
  495       -1.688534     -0.027985   1.000000   1.000000
  496       -1.688367     -0.027984   1.000000   1.000000
  497       -1.449147      0.029436   1.000000   1.000000
  498       -1.448861      0.029491   1.000000   1.000000
  499       -1.438588      0.046140   1.000000   1.000000
  500       -1.438323      0.046280   1.000000   1.000000
  501       -1.398307      0.186533   1.000000   1.000000
  502       -1.397997      0.186539   1.000000   1.000000
  503       -1.382682      0.186573   1.000000   1.000000
  504       -1.382387      0.186647   1.000000   1.000000
  505       -1.326500      0.212014   1.000000   1.000000
  506       -1.326450      0.212103   1.000000   1.000000
  507       -1.326303      0.262323   1.000000   1.000000
  508       -1.325994      0.262354   1.000000   1.000000
  509       -1.321001      0.262385   1.000000   1.000000
  510       -1.320972      0.262450   1.000000   1.000000
  511       -1.320794      0.284926   1.000000   1.000000
  512       -1.320499      0.285044   1.000000   1.000000