 160 160   0   0
  0.1218736E+02  0.1542482E-08  0.1121024E-08  0.1127703E-08  0.5000000E-15
  1.000000000000000E-004
  CAR 
 unknown system                          
     16.85418234    -54.75628665  301      4.94894187      1.00000000
    -54.756  0.0000E+00  0.0000E+00  0.0000E+00  0.0000E+00
    -54.518  0.0000E+00  0.0000E+00  0.0000E+00  0.0000E+00
    -54.279  0.0000E+00  0.0000E+00  0.0000E+00  0.0000E+00
    -54.040  0.0000E+00  0.0000E+00  0.0000E+00  0.0000E+00
    -53.801  0.0000E+00  0.0000E+00  0.0000E+00  0.0000E+00
    -53.563  0.0000E+00  0.0000E+00  0.0000E+00  0.0000E+00
    -53.324  0.0000E+00  0.0000E+00  0.0000E+00  0.0000E+00
    -53.085  0.0000E+00  0.0000E+00  0.0000E+00  0.0000E+00
    -52.847  0.0000E+00  0.0000E+00  0.0000E+00  0.0000E+00
    -52.608  0.0000E+00  0.0000E+00  0.0000E+00  0.0000E+00
    -52.369  0.0000E+00  0.0000E+00  0.0000E+00  0.0000E+00
    -52.131  0.0000E+00  0.0000E+00  0.0000E+00  0.0000E+00
    -51.892  0.0000E+00  0.0000E+00  0.0000E+00  0.0000E+00
    -51.653  0.1800E-03  0.0000E+00  0.4297E-04  0.0000E+00
    -51.414  0.1311E+03  0.0000E+00  0.3129E+02  0.0000E+00
    -51.176  0.2972E+01  0.0000E+00  0.3200E+02  0.0000E+00
    -50.937  0.0000E+00  0.0000E+00  0.3200E+02  0.0000E+00
    -50.698  0.0000E+00  0.0000E+00  0.3200E+02  0.0000E+00
    -50.460  0.0000E+00  0.0000E+00  0.3200E+02  0.0000E+00
    -50.221  0.2578E-01  0.0000E+00  0.3201E+02  0.0000E+00
    -49.982  0.2634E+03  0.0000E+00  0.9488E+02  0.0000E+00
    -49.744  0.4675E+01  0.0000E+00  0.9600E+02  0.0000E+00
    -49.505  0.0000E+00  0.0000E+00  0.9600E+02  0.0000E+00
    -49.266  0.0000E+00  0.0000E+00  0.9600E+02  0.0000E+00
    -49.027  0.0000E+00  0.0000E+00  0.9600E+02  0.0000E+00
    -48.789  0.0000E+00  0.0000E+00  0.9600E+02  0.0000E+00
    -48.550  0.0000E+00  0.0000E+00  0.9600E+02  0.0000E+00
    -48.311  0.0000E+00  0.0000E+00  0.9600E+02  0.0000E+00
    -48.073  0.0000E+00  0.0000E+00  0.9600E+02  0.0000E+00
    -47.834  0.0000E+00  0.0000E+00  0.9600E+02  0.0000E+00
    -47.595  0.0000E+00  0.0000E+00  0.9600E+02  0.0000E+00
    -47.357  0.0000E+00  0.0000E+00  0.9600E+02  0.0000E+00
    -47.118  0.0000E+00  0.0000E+00  0.9600E+02  0.0000E+00
    -46.879  0.0000E+00  0.7611E-02  0.9600E+02  0.1817E-02
    -46.640  0.0000E+00  0.1338E+03  0.9600E+02  0.3193E+02
    -46.402  0.0000E+00  0.3602E+02  0.9600E+02  0.4053E+02
    -46.163  0.0000E+00  0.2324E+03  0.9600E+02  0.9600E+02
    -45.924  0.0000E+00  0.0000E+00  0.9600E+02  0.9600E+02
    -45.686  0.0000E+00  0.0000E+00  0.9600E+02  0.9600E+02
    -45.447  0.0000E+00  0.0000E+00  0.9600E+02  0.9600E+02
    -45.208  0.0000E+00  0.0000E+00  0.9600E+02  0.9600E+02
    -44.970  0.0000E+00  0.0000E+00  0.9600E+02  0.9600E+02
    -44.731  0.0000E+00  0.0000E+00  0.9600E+02  0.9600E+02
    -44.492  0.0000E+00  0.0000E+00  0.9600E+02  0.9600E+02
    -44.253  0.0000E+00  0.0000E+00  0.9600E+02  0.9600E+02
    -44.015  0.0000E+00  0.0000E+00  0.9600E+02  0.9600E+02
    -43.776  0.0000E+00  0.0000E+00  0.9600E+02  0.9600E+02
    -43.537  0.0000E+00  0.0000E+00  0.9600E+02  0.9600E+02
    -43.299  0.0000E+00  0.0000E+00  0.9600E+02  0.9600E+02
    -43.060  0.0000E+00  0.0000E+00  0.9600E+02  0.9600E+02
    -42.821  0.0000E+00  0.0000E+00  0.9600E+02  0.9600E+02
    -42.583  0.0000E+00  0.0000E+00  0.9600E+02  0.9600E+02
    -42.344  0.0000E+00  0.0000E+00  0.9600E+02  0.9600E+02
    -42.105  0.0000E+00  0.0000E+00  0.9600E+02  0.9600E+02
    -41.866  0.0000E+00  0.0000E+00  0.9600E+02  0.9600E+02
    -41.628  0.0000E+00  0.0000E+00  0.9600E+02  0.9600E+02
    -41.389  0.0000E+00  0.0000E+00  0.9600E+02  0.9600E+02
    -41.150  0.0000E+00  0.0000E+00  0.9600E+02  0.9600E+02
    -40.912  0.0000E+00  0.0000E+00  0.9600E+02  0.9600E+02
    -40.673  0.0000E+00  0.0000E+00  0.9600E+02  0.9600E+02
    -40.434  0.3047E+00  0.2680E+00  0.9607E+02  0.9606E+02
    -40.195  0.2334E+03  0.2355E+03  0.1518E+03  0.1523E+03
    -39.957  0.3438E+02  0.3238E+02  0.1600E+03  0.1600E+03
    -39.718  0.0000E+00  0.0000E+00  0.1600E+03  0.1600E+03
    -39.479  0.0000E+00  0.0000E+00  0.1600E+03  0.1600E+03
    -39.241  0.0000E+00  0.0000E+00  0.1600E+03  0.1600E+03
    -39.002  0.0000E+00  0.0000E+00  0.1600E+03  0.1600E+03
    -38.763  0.0000E+00  0.0000E+00  0.1600E+03  0.1600E+03
    -38.525  0.0000E+00  0.0000E+00  0.1600E+03  0.1600E+03
    -38.286  0.0000E+00  0.0000E+00  0.1600E+03  0.1600E+03
    -38.047  0.0000E+00  0.0000E+00  0.1600E+03  0.1600E+03
    -37.808  0.0000E+00  0.0000E+00  0.1600E+03  0.1600E+03
    -37.570  0.0000E+00  0.0000E+00  0.1600E+03  0.1600E+03
    -37.331  0.0000E+00  0.0000E+00  0.1600E+03  0.1600E+03
    -37.092  0.0000E+00  0.0000E+00  0.1600E+03  0.1600E+03
    -36.854  0.0000E+00  0.0000E+00  0.1600E+03  0.1600E+03
    -36.615  0.0000E+00  0.0000E+00  0.1600E+03  0.1600E+03
    -36.376  0.0000E+00  0.0000E+00  0.1600E+03  0.1600E+03
    -36.138  0.0000E+00  0.0000E+00  0.1600E+03  0.1600E+03
    -35.899  0.0000E+00  0.0000E+00  0.1600E+03  0.1600E+03
    -35.660  0.0000E+00  0.0000E+00  0.1600E+03  0.1600E+03
    -35.421  0.0000E+00  0.0000E+00  0.1600E+03  0.1600E+03
    -35.183  0.0000E+00  0.0000E+00  0.1600E+03  0.1600E+03
    -34.944  0.0000E+00  0.0000E+00  0.1600E+03  0.1600E+03
    -34.705  0.0000E+00  0.0000E+00  0.1600E+03  0.1600E+03
    -34.467  0.0000E+00  0.0000E+00  0.1600E+03  0.1600E+03
    -34.228  0.0000E+00  0.0000E+00  0.1600E+03  0.1600E+03
    -33.989  0.0000E+00  0.0000E+00  0.1600E+03  0.1600E+03
    -33.751  0.0000E+00  0.0000E+00  0.1600E+03  0.1600E+03
    -33.512  0.0000E+00  0.0000E+00  0.1600E+03  0.1600E+03
    -33.273  0.0000E+00  0.0000E+00  0.1600E+03  0.1600E+03
    -33.034  0.0000E+00  0.0000E+00  0.1600E+03  0.1600E+03
    -32.796  0.0000E+00  0.0000E+00  0.1600E+03  0.1600E+03
    -32.557  0.0000E+00  0.0000E+00  0.1600E+03  0.1600E+03
    -32.318  0.0000E+00  0.0000E+00  0.1600E+03  0.1600E+03
    -32.080  0.0000E+00  0.0000E+00  0.1600E+03  0.1600E+03
    -31.841  0.0000E+00  0.0000E+00  0.1600E+03  0.1600E+03
    -31.602  0.0000E+00  0.0000E+00  0.1600E+03  0.1600E+03
    -31.364  0.0000E+00  0.0000E+00  0.1600E+03  0.1600E+03
    -31.125  0.0000E+00  0.0000E+00  0.1600E+03  0.1600E+03
    -30.886  0.0000E+00  0.0000E+00  0.1600E+03  0.1600E+03
    -30.647  0.0000E+00  0.0000E+00  0.1600E+03  0.1600E+03
    -30.409  0.0000E+00  0.0000E+00  0.1600E+03  0.1600E+03
    -30.170  0.0000E+00  0.0000E+00  0.1600E+03  0.1600E+03
    -29.931  0.0000E+00  0.0000E+00  0.1600E+03  0.1600E+03
    -29.693  0.0000E+00  0.0000E+00  0.1600E+03  0.1600E+03
    -29.454  0.0000E+00  0.0000E+00  0.1600E+03  0.1600E+03
    -29.215  0.0000E+00  0.0000E+00  0.1600E+03  0.1600E+03
    -28.977  0.0000E+00  0.0000E+00  0.1600E+03  0.1600E+03
    -28.738  0.0000E+00  0.0000E+00  0.1600E+03  0.1600E+03
    -28.499  0.0000E+00  0.0000E+00  0.1600E+03  0.1600E+03
    -28.260  0.0000E+00  0.0000E+00  0.1600E+03  0.1600E+03
    -28.022  0.0000E+00  0.0000E+00  0.1600E+03  0.1600E+03
    -27.783  0.0000E+00  0.0000E+00  0.1600E+03  0.1600E+03
    -27.544  0.0000E+00  0.0000E+00  0.1600E+03  0.1600E+03
    -27.306  0.0000E+00  0.0000E+00  0.1600E+03  0.1600E+03
    -27.067  0.0000E+00  0.0000E+00  0.1600E+03  0.1600E+03
    -26.828  0.0000E+00  0.0000E+00  0.1600E+03  0.1600E+03
    -26.590  0.0000E+00  0.0000E+00  0.1600E+03  0.1600E+03
    -26.351  0.0000E+00  0.0000E+00  0.1600E+03  0.1600E+03
    -26.112  0.0000E+00  0.0000E+00  0.1600E+03  0.1600E+03
    -25.873  0.0000E+00  0.0000E+00  0.1600E+03  0.1600E+03
    -25.635  0.0000E+00  0.0000E+00  0.1600E+03  0.1600E+03
    -25.396  0.0000E+00  0.0000E+00  0.1600E+03  0.1600E+03
    -25.157  0.0000E+00  0.0000E+00  0.1600E+03  0.1600E+03
    -24.919  0.0000E+00  0.0000E+00  0.1600E+03  0.1600E+03
    -24.680  0.0000E+00  0.0000E+00  0.1600E+03  0.1600E+03
    -24.441  0.0000E+00  0.0000E+00  0.1600E+03  0.1600E+03
    -24.202  0.0000E+00  0.0000E+00  0.1600E+03  0.1600E+03
    -23.964  0.0000E+00  0.0000E+00  0.1600E+03  0.1600E+03
    -23.725  0.0000E+00  0.0000E+00  0.1600E+03  0.1600E+03
    -23.486  0.0000E+00  0.0000E+00  0.1600E+03  0.1600E+03
    -23.248  0.0000E+00  0.0000E+00  0.1600E+03  0.1600E+03
    -23.009  0.0000E+00  0.0000E+00  0.1600E+03  0.1600E+03
    -22.770  0.0000E+00  0.0000E+00  0.1600E+03  0.1600E+03
    -22.532  0.0000E+00  0.0000E+00  0.1600E+03  0.1600E+03
    -22.293  0.0000E+00  0.0000E+00  0.1600E+03  0.1600E+03
    -22.054  0.0000E+00  0.0000E+00  0.1600E+03  0.1600E+03
    -21.815  0.0000E+00  0.0000E+00  0.1600E+03  0.1600E+03
    -21.577  0.0000E+00  0.0000E+00  0.1600E+03  0.1600E+03
    -21.338  0.0000E+00  0.0000E+00  0.1600E+03  0.1600E+03
    -21.099  0.0000E+00  0.0000E+00  0.1600E+03  0.1600E+03
    -20.861  0.0000E+00  0.0000E+00  0.1600E+03  0.1600E+03
    -20.622  0.0000E+00  0.0000E+00  0.1600E+03  0.1600E+03
    -20.383  0.0000E+00  0.0000E+00  0.1600E+03  0.1600E+03
    -20.145  0.0000E+00  0.0000E+00  0.1600E+03  0.1600E+03
    -19.906  0.0000E+00  0.0000E+00  0.1600E+03  0.1600E+03
    -19.667  0.0000E+00  0.0000E+00  0.1600E+03  0.1600E+03
    -19.428  0.0000E+00  0.0000E+00  0.1600E+03  0.1600E+03
    -19.190  0.0000E+00  0.0000E+00  0.1600E+03  0.1600E+03
    -18.951  0.0000E+00  0.0000E+00  0.1600E+03  0.1600E+03
    -18.712  0.0000E+00  0.0000E+00  0.1600E+03  0.1600E+03
    -18.474  0.0000E+00  0.0000E+00  0.1600E+03  0.1600E+03
    -18.235  0.0000E+00  0.0000E+00  0.1600E+03  0.1600E+03
    -17.996  0.0000E+00  0.0000E+00  0.1600E+03  0.1600E+03
    -17.758  0.0000E+00  0.0000E+00  0.1600E+03  0.1600E+03
    -17.519  0.0000E+00  0.0000E+00  0.1600E+03  0.1600E+03
    -17.280  0.0000E+00  0.0000E+00  0.1600E+03  0.1600E+03
    -17.041  0.0000E+00  0.0000E+00  0.1600E+03  0.1600E+03
    -16.803  0.0000E+00  0.0000E+00  0.1600E+03  0.1600E+03
    -16.564  0.0000E+00  0.0000E+00  0.1600E+03  0.1600E+03
    -16.325  0.0000E+00  0.0000E+00  0.1600E+03  0.1600E+03
    -16.087  0.0000E+00  0.0000E+00  0.1600E+03  0.1600E+03
    -15.848  0.0000E+00  0.0000E+00  0.1600E+03  0.1600E+03
    -15.609  0.0000E+00  0.0000E+00  0.1600E+03  0.1600E+03
    -15.371  0.0000E+00  0.0000E+00  0.1600E+03  0.1600E+03
    -15.132  0.0000E+00  0.0000E+00  0.1600E+03  0.1600E+03
    -14.893  0.0000E+00  0.0000E+00  0.1600E+03  0.1600E+03
    -14.654  0.0000E+00  0.0000E+00  0.1600E+03  0.1600E+03
    -14.416  0.0000E+00  0.0000E+00  0.1600E+03  0.1600E+03
    -14.177  0.0000E+00  0.0000E+00  0.1600E+03  0.1600E+03
    -13.938  0.0000E+00  0.0000E+00  0.1600E+03  0.1600E+03
    -13.700  0.6871E-06  0.0000E+00  0.1600E+03  0.1600E+03
    -13.461  0.3094E+02  0.1829E-12  0.1674E+03  0.1600E+03
    -13.222  0.7606E+02  0.3751E+01  0.1855E+03  0.1609E+03
    -12.984  0.2706E+02  0.1064E+03  0.1920E+03  0.1863E+03
    -12.745  0.0000E+00  0.2394E+02  0.1920E+03  0.1920E+03
    -12.506  0.0000E+00  0.0000E+00  0.1920E+03  0.1920E+03
    -12.267  0.0000E+00  0.0000E+00  0.1920E+03  0.1920E+03
    -12.029  0.0000E+00  0.0000E+00  0.1920E+03  0.1920E+03
    -11.790  0.0000E+00  0.0000E+00  0.1920E+03  0.1920E+03
    -11.551  0.0000E+00  0.0000E+00  0.1920E+03  0.1920E+03
    -11.313  0.0000E+00  0.0000E+00  0.1920E+03  0.1920E+03
    -11.074  0.0000E+00  0.0000E+00  0.1920E+03  0.1920E+03
    -10.835  0.0000E+00  0.0000E+00  0.1920E+03  0.1920E+03
    -10.596  0.0000E+00  0.0000E+00  0.1920E+03  0.1920E+03
    -10.358  0.0000E+00  0.0000E+00  0.1920E+03  0.1920E+03
    -10.119  0.0000E+00  0.0000E+00  0.1920E+03  0.1920E+03
     -9.880  0.0000E+00  0.0000E+00  0.1920E+03  0.1920E+03
     -9.642  0.0000E+00  0.0000E+00  0.1920E+03  0.1920E+03
     -9.403  0.0000E+00  0.0000E+00  0.1920E+03  0.1920E+03
     -9.164  0.0000E+00  0.0000E+00  0.1920E+03  0.1920E+03
     -8.926  0.0000E+00  0.0000E+00  0.1920E+03  0.1920E+03
     -8.687  0.0000E+00  0.0000E+00  0.1920E+03  0.1920E+03
     -8.448  0.0000E+00  0.0000E+00  0.1920E+03  0.1920E+03
     -8.209  0.0000E+00  0.0000E+00  0.1920E+03  0.1920E+03
     -7.971  0.0000E+00  0.0000E+00  0.1920E+03  0.1920E+03
     -7.732  0.2344E-02  0.1292E-16  0.1920E+03  0.1920E+03
     -7.493  0.2079E+02  0.7180E-01  0.1970E+03  0.1920E+03
     -7.255  0.6212E+02  0.3939E+02  0.2118E+03  0.2014E+03
     -7.016  0.4894E+02  0.6382E+02  0.2235E+03  0.2167E+03
     -6.777  0.2212E+01  0.2965E+02  0.2240E+03  0.2237E+03
     -6.539  0.0000E+00  0.1127E+01  0.2240E+03  0.2240E+03
     -6.300  0.0000E+00  0.0000E+00  0.2240E+03  0.2240E+03
     -6.061  0.0000E+00  0.0000E+00  0.2240E+03  0.2240E+03
     -5.822  0.0000E+00  0.0000E+00  0.2240E+03  0.2240E+03
     -5.584  0.0000E+00  0.0000E+00  0.2240E+03  0.2240E+03
     -5.345  0.0000E+00  0.0000E+00  0.2240E+03  0.2240E+03
     -5.106  0.0000E+00  0.0000E+00  0.2240E+03  0.2240E+03
     -4.868  0.0000E+00  0.0000E+00  0.2240E+03  0.2240E+03
     -4.629  0.0000E+00  0.0000E+00  0.2240E+03  0.2240E+03
     -4.390  0.0000E+00  0.0000E+00  0.2240E+03  0.2240E+03
     -4.152  0.0000E+00  0.0000E+00  0.2240E+03  0.2240E+03
     -3.913  0.0000E+00  0.0000E+00  0.2240E+03  0.2240E+03
     -3.674  0.0000E+00  0.0000E+00  0.2240E+03  0.2240E+03
     -3.435  0.0000E+00  0.0000E+00  0.2240E+03  0.2240E+03
     -3.197  0.0000E+00  0.0000E+00  0.2240E+03  0.2240E+03
     -2.958  0.0000E+00  0.0000E+00  0.2240E+03  0.2240E+03
     -2.719  0.1161E-04  0.0000E+00  0.2240E+03  0.2240E+03
     -2.481  0.1407E+02  0.0000E+00  0.2274E+03  0.2240E+03
     -2.242  0.1948E+02  0.0000E+00  0.2320E+03  0.2240E+03
     -2.003  0.2231E+02  0.0000E+00  0.2373E+03  0.2240E+03
     -1.765  0.8484E-01  0.0000E+00  0.2374E+03  0.2240E+03
     -1.526  0.2226E+02  0.0000E+00  0.2427E+03  0.2240E+03
     -1.287  0.2741E+02  0.2713E-15  0.2492E+03  0.2240E+03
     -1.048  0.7852E+02  0.6009E-01  0.2679E+03  0.2240E+03
     -0.810  0.7154E+02  0.2011E+02  0.2850E+03  0.2288E+03
     -0.571  0.7009E+02  0.2860E+02  0.3018E+03  0.2356E+03
     -0.332  0.9394E+02  0.1573E+02  0.3242E+03  0.2394E+03
     -0.094  0.1039E+03  0.1455E+02  0.3490E+03  0.2429E+03
      0.145  0.5543E+02  0.2569E+02  0.3622E+03  0.2490E+03
      0.384  0.4750E+02  0.5015E+02  0.3736E+03  0.2610E+03
      0.622  0.5237E+02  0.7920E+02  0.3861E+03  0.2799E+03
      0.861  0.4341E+02  0.7146E+02  0.3964E+03  0.2969E+03
      1.100  0.6192E+02  0.7675E+02  0.4112E+03  0.3153E+03
      1.339  0.8280E+02  0.3062E+02  0.4310E+03  0.3226E+03
      1.577  0.8185E+02  0.3681E+02  0.4505E+03  0.3314E+03
      1.816  0.4302E+02  0.4951E+02  0.4608E+03  0.3432E+03
      2.055  0.3931E+02  0.4427E+02  0.4702E+03  0.3537E+03
      2.293  0.4862E+02  0.2803E+02  0.4818E+03  0.3604E+03
      2.532  0.4239E+02  0.5067E+02  0.4919E+03  0.3725E+03
      2.771  0.5578E+02  0.6772E+02  0.5052E+03  0.3887E+03
      3.009  0.5572E+02  0.8245E+02  0.5185E+03  0.4084E+03
      3.248  0.5435E+02  0.2994E+02  0.5315E+03  0.4155E+03
      3.487  0.4675E+02  0.2161E+02  0.5426E+03  0.4207E+03
      3.726  0.5565E+02  0.4706E+02  0.5559E+03  0.4319E+03
      3.964  0.3815E+02  0.5587E+02  0.5650E+03  0.4452E+03
      4.203  0.2748E+02  0.1156E+02  0.5716E+03  0.4480E+03
      4.442  0.1630E+02  0.8027E-03  0.5755E+03  0.4480E+03
      4.680  0.2226E+01  0.0000E+00  0.5760E+03  0.4480E+03
      4.919  0.2161E-03  0.0000E+00  0.5760E+03  0.4480E+03
      5.158  0.0000E+00  0.0000E+00  0.5760E+03  0.4480E+03
      5.397  0.0000E+00  0.0000E+00  0.5760E+03  0.4480E+03
      5.635  0.0000E+00  0.0000E+00  0.5760E+03  0.4480E+03
      5.874  0.0000E+00  0.0000E+00  0.5760E+03  0.4480E+03
      6.113  0.0000E+00  0.0000E+00  0.5760E+03  0.4480E+03
      6.351  0.0000E+00  0.2556E-11  0.5760E+03  0.4480E+03
      6.590  0.0000E+00  0.1153E+01  0.5760E+03  0.4483E+03
      6.829  0.1809E-15  0.5238E+02  0.5760E+03  0.4608E+03
      7.067  0.2578E-01  0.7705E+02  0.5760E+03  0.4792E+03
      7.306  0.2070E+00  0.5829E+02  0.5761E+03  0.4931E+03
      7.545  0.9545E+00  0.6840E+02  0.5763E+03  0.5094E+03
      7.784  0.1425E+01  0.6299E+02  0.5766E+03  0.5244E+03
      8.022  0.3026E+01  0.9798E+02  0.5773E+03  0.5478E+03
      8.261  0.8233E+01  0.7065E+02  0.5793E+03  0.5647E+03
      8.500  0.1097E+02  0.3572E+02  0.5819E+03  0.5732E+03
      8.738  0.2220E+02  0.1359E+02  0.5872E+03  0.5765E+03
      8.977  0.2762E+02  0.8390E+01  0.5938E+03  0.5785E+03
      9.216  0.2845E+02  0.1149E+02  0.6006E+03  0.5812E+03
      9.454  0.3212E+02  0.2030E+02  0.6083E+03  0.5861E+03
      9.693  0.2950E+02  0.2556E+02  0.6153E+03  0.5922E+03
      9.932  0.2082E+02  0.4158E+02  0.6203E+03  0.6021E+03
     10.171  0.2174E+02  0.3285E+02  0.6255E+03  0.6099E+03
     10.409  0.2569E+02  0.3375E+02  0.6316E+03  0.6180E+03
     10.648  0.3991E+02  0.3295E+02  0.6411E+03  0.6258E+03
     10.887  0.4003E+02  0.2335E+02  0.6507E+03  0.6314E+03
     11.125  0.4444E+02  0.3402E+02  0.6613E+03  0.6395E+03
     11.364  0.4046E+02  0.2339E+02  0.6710E+03  0.6451E+03
     11.603  0.3865E+02  0.3538E+02  0.6802E+03  0.6536E+03
     11.841  0.4776E+02  0.5236E+02  0.6916E+03  0.6661E+03
     12.080  0.3023E+02  0.5782E+02  0.6988E+03  0.6799E+03
     12.319  0.2906E+02  0.4628E+02  0.7057E+03  0.6909E+03
     12.558  0.3358E+02  0.3112E+02  0.7138E+03  0.6983E+03
     12.796  0.4107E+02  0.3246E+02  0.7236E+03  0.7061E+03
     13.035  0.1990E+02  0.3524E+02  0.7283E+03  0.7145E+03
     13.274  0.1525E+02  0.3679E+02  0.7319E+03  0.7233E+03
     13.512  0.2133E+00  0.2886E+02  0.7320E+03  0.7302E+03
     13.751  0.0000E+00  0.7652E+01  0.7320E+03  0.7320E+03
     13.990  0.0000E+00  0.4040E-05  0.7320E+03  0.7320E+03
     14.228  0.0000E+00  0.0000E+00  0.7320E+03  0.7320E+03
     14.467  0.0000E+00  0.0000E+00  0.7320E+03  0.7320E+03
     14.706  0.0000E+00  0.0000E+00  0.7320E+03  0.7320E+03
     14.945  0.0000E+00  0.0000E+00  0.7320E+03  0.7320E+03
     15.183  0.0000E+00  0.0000E+00  0.7320E+03  0.7320E+03
     15.422  0.0000E+00  0.0000E+00  0.7320E+03  0.7320E+03
     15.661  0.0000E+00  0.0000E+00  0.7320E+03  0.7320E+03
     15.899  0.0000E+00  0.0000E+00  0.7320E+03  0.7320E+03
     16.138  0.0000E+00  0.0000E+00  0.7320E+03  0.7320E+03
     16.377  0.0000E+00  0.0000E+00  0.7320E+03  0.7320E+03
     16.615  0.0000E+00  0.0000E+00  0.7320E+03  0.7320E+03
     16.854  0.0000E+00  0.0000E+00  0.7320E+03  0.7320E+03
