<?xml version="1.0" encoding="ISO-8859-1"?>
<modeling>
 <generator>
  <i name="program" type="string">vasp </i>
  <i name="version" type="string">5.4.4.18Apr17-6-g9f103f2a35  </i>
  <i name="subversion" type="string">(build Oct 25 2017 14:42:18) complex            parallel </i>
  <i name="platform" type="string">LinuxIFC </i>
  <i name="date" type="string">2021 06 15 </i>
  <i name="time" type="string">09:20:38 </i>
 </generator>
 <incar>
  <i type="string" name="PREC">accurate</i>
  <i type="string" name="ALGO"> normal</i>
  <i type="logical" name="ADDGRID"> T  </i>
  <i type="int" name="ISPIN">     2</i>
  <i type="int" name="ICHARG">     1</i>
  <i type="int" name="NELM">   200</i>
  <i type="int" name="NELMIN">     8</i>
  <i name="EDIFF">      0.00000100</i>
  <i type="int" name="ISYM">     2</i>
  <i name="ENCUT">    650.00000000</i>
  <v name="MAGMOM">      0.60000000      0.60000000      0.60000000      0.60000000      0.60000000      0.60000000      0.60000000      0.60000000      0.60000000      0.60000000      0.60000000      0.60000000      0.60000000      0.60000000      0.60000000      0.60000000      0.60000000      0.60000000      0.60000000      0.60000000
      0.60000000      0.60000000      0.60000000      0.60000000      0.60000000      0.60000000      0.60000000      0.60000000      0.60000000      0.60000000      0.60000000      0.60000000      0.60000000      0.60000000      0.60000000      0.60000000      0.60000000      0.60000000      0.60000000      0.60000000
      0.60000000      0.60000000      0.60000000      0.60000000      0.60000000      0.60000000      0.60000000      0.60000000      0.60000000      0.60000000      0.60000000      0.60000000      0.60000000      0.60000000      0.60000000      0.60000000      0.60000000      0.60000000      0.60000000      0.60000000
      0.60000000      0.60000000      0.60000000      0.60000000      5.00000000      5.00000000      5.00000000      5.00000000      5.00000000      5.00000000      5.00000000      5.00000000      5.00000000      5.00000000      5.00000000      5.00000000      5.00000000      5.00000000      5.00000000      5.00000000
      5.00000000      5.00000000      5.00000000      5.00000000      5.00000000      5.00000000      5.00000000      5.00000000      5.00000000      5.00000000      5.00000000      5.00000000      5.00000000      5.00000000      5.00000000      5.00000000      0.60000000      0.60000000      0.60000000      0.60000000
      0.60000000      0.60000000      0.60000000      0.60000000      0.60000000      0.60000000      0.60000000      0.60000000      0.60000000      0.60000000      0.60000000      0.60000000      0.60000000      0.60000000      0.60000000      0.60000000      0.60000000      0.60000000      0.60000000      0.60000000
      0.60000000      0.60000000      0.60000000      0.60000000      0.60000000      0.60000000      0.60000000      0.60000000      0.60000000      0.60000000      0.60000000      0.60000000      0.60000000      0.60000000      0.60000000      0.60000000      0.60000000      0.60000000      0.60000000      0.60000000
      0.60000000      0.60000000      0.60000000      0.60000000      0.60000000      0.60000000      0.60000000      0.60000000      0.60000000      0.60000000      0.60000000      0.60000000      0.60000000      0.60000000      0.60000000      0.60000000      0.60000000      0.60000000      0.60000000      0.60000000
</v>
  <i type="logical" name="LREAL"> F  </i>
  <i type="int" name="ISMEAR">     0</i>
  <i name="SIGMA">      0.05000000</i>
  <i type="int" name="NWRITE">     1</i>
  <i type="int" name="LMAXMIX">     4</i>
  <i type="logical" name="LWAVE"> F  </i>
  <i type="logical" name="LASPH"> T  </i>
  <v type="int" name="KPOINT_BSE">    -1     0     0     0</v>
  <i type="int" name="NELM">   200</i>
  <i type="string" name="GGA"> pe</i>
  <i type="logical" name="LDAU"> T  </i>
  <v type="int" name="LDAUTYPE">     2</v>
  <v type="int" name="LDAUL">    -1     2    -1    -1</v>
  <v name="LDAUU">      0.00000000      4.00000000      0.00000000      0.00000000</v>
  <v name="LDAUJ">      0.00000000      0.00000000      0.00000000      0.00000000</v>
  <i type="logical" name="LASPH"> T  </i>
 </incar>
 <structure name="primitive_cell" >
  <crystal>
   <varray name="basis" >
    <v>      15.42482202       0.00000000       0.00000000 </v>
    <v>       0.00000000      11.21024242       0.00000000 </v>
    <v>       0.00000000       0.00000000      11.27702698 </v>
   </varray>
   <i name="volume">   1949.97833107 </i>
   <varray name="rec_basis" >
    <v>       0.06483057       0.00000000       0.00000000 </v>
    <v>       0.00000000       0.08920414       0.00000000 </v>
    <v>       0.00000000       0.00000000       0.08867585 </v>
   </varray>
  </crystal>
  <varray name="positions" >
   <v>       0.12500000       0.25000000       0.46751009 </v>
   <v>       0.00000000       0.25000000      -0.50000000 </v>
   <v>       0.25000000       0.25000000      -0.50000000 </v>
   <v>       0.12500000       0.25000000       0.24893947 </v>
   <v>      -0.01393352       0.37500000       0.37500000 </v>
   <v>       0.26393352       0.12500000       0.37500000 </v>
   <v>       0.23075932       0.12500000      -0.37500000 </v>
   <v>       0.01924068       0.37500000      -0.37500000 </v>
   <v>       0.12500000       0.00000000      -0.49893947 </v>
   <v>       0.12500000      -0.50000000      -0.49893947 </v>
   <v>       0.26924068       0.37500000       0.37500000 </v>
   <v>      -0.01924068       0.12500000       0.37500000 </v>
   <v>       0.01393352       0.12500000      -0.37500000 </v>
   <v>       0.23606648       0.37500000      -0.37500000 </v>
   <v>       0.12500000       0.25000000      -0.25106053 </v>
   <v>       0.12500000       0.00000000       0.28248991 </v>
   <v>       0.12500000      -0.50000000       0.28248991 </v>
   <v>       0.37500000       0.25000000      -0.46751009 </v>
   <v>      -0.12500000       0.25000000      -0.46751009 </v>
   <v>       0.00000000       0.00000000       0.25000000 </v>
   <v>       0.00000000      -0.50000000       0.25000000 </v>
   <v>       0.25000000       0.00000000       0.25000000 </v>
   <v>       0.25000000      -0.50000000       0.25000000 </v>
   <v>       0.23075932       0.12500000       0.12500000 </v>
   <v>       0.01924068       0.37500000       0.12500000 </v>
   <v>       0.01393352       0.12500000       0.12500000 </v>
   <v>       0.23606648       0.37500000       0.12500000 </v>
   <v>       0.12500000       0.00000000      -0.21751009 </v>
   <v>       0.12500000      -0.50000000      -0.21751009 </v>
   <v>       0.37500000       0.25000000       0.25106053 </v>
   <v>      -0.12500000       0.25000000       0.25106053 </v>
   <v>       0.00000000       0.00000000      -0.25000000 </v>
   <v>       0.00000000      -0.50000000      -0.25000000 </v>
   <v>       0.25000000       0.00000000      -0.25000000 </v>
   <v>       0.25000000      -0.50000000      -0.25000000 </v>
   <v>       0.37500000       0.00000000       0.49893947 </v>
   <v>      -0.12500000       0.00000000       0.49893947 </v>
   <v>       0.37500000      -0.50000000       0.49893947 </v>
   <v>      -0.12500000      -0.50000000       0.49893947 </v>
   <v>      -0.01393352      -0.12500000       0.37500000 </v>
   <v>       0.26393352      -0.37500000       0.37500000 </v>
   <v>       0.23075932      -0.37500000      -0.37500000 </v>
   <v>       0.01924068      -0.12500000      -0.37500000 </v>
   <v>       0.26924068      -0.12500000       0.37500000 </v>
   <v>      -0.01924068      -0.37500000       0.37500000 </v>
   <v>       0.01393352      -0.37500000      -0.37500000 </v>
   <v>       0.23606648      -0.12500000      -0.37500000 </v>
   <v>       0.37500000       0.25000000      -0.24893947 </v>
   <v>      -0.12500000       0.25000000      -0.24893947 </v>
   <v>      -0.01393352       0.37500000      -0.12500000 </v>
   <v>       0.26393352       0.12500000      -0.12500000 </v>
   <v>       0.26924068       0.37500000      -0.12500000 </v>
   <v>      -0.01924068       0.12500000      -0.12500000 </v>
   <v>       0.37500000       0.00000000       0.21751009 </v>
   <v>      -0.12500000       0.00000000       0.21751009 </v>
   <v>       0.37500000      -0.50000000       0.21751009 </v>
   <v>      -0.12500000      -0.50000000       0.21751009 </v>
   <v>       0.37500000       0.00000000      -0.28248991 </v>
   <v>      -0.12500000       0.00000000      -0.28248991 </v>
   <v>       0.37500000      -0.50000000      -0.28248991 </v>
   <v>      -0.12500000      -0.50000000      -0.28248991 </v>
   <v>       0.12500000      -0.25000000       0.46751009 </v>
   <v>       0.25000000       0.25000000       0.00000000 </v>
   <v>       0.00000000       0.25089204       0.00000000 </v>
   <v>       0.12500000       0.25000000      -0.03248991 </v>
   <v>      -0.23075932       0.37500000       0.37500000 </v>
   <v>       0.48075932       0.12500000       0.37500000 </v>
   <v>      -0.50000000       0.25000000      -0.50000000 </v>
   <v>      -0.25000000       0.25000000      -0.50000000 </v>
   <v>       0.48606648       0.37500000       0.37500000 </v>
   <v>      -0.23606648       0.12500000       0.37500000 </v>
   <v>       0.23075932      -0.37500000       0.12500000 </v>
   <v>       0.01924068      -0.12500000       0.12500000 </v>
   <v>       0.00000000      -0.25000000      -0.50000000 </v>
   <v>       0.25000000      -0.25000000      -0.50000000 </v>
   <v>       0.12500000       0.00000000       0.00106053 </v>
   <v>       0.12500000      -0.50000000       0.00106053 </v>
   <v>       0.01393352      -0.37500000       0.12500000 </v>
   <v>       0.23606648      -0.12500000       0.12500000 </v>
   <v>       0.12500000      -0.25000000       0.24893947 </v>
   <v>       0.37500000       0.25000000       0.03248991 </v>
   <v>      -0.12500000       0.25000000       0.03248991 </v>
   <v>      -0.48606648       0.12500000      -0.37500000 </v>
   <v>      -0.26393352       0.37500000      -0.37500000 </v>
   <v>       0.12500000      -0.25000000      -0.25106053 </v>
   <v>      -0.26924068       0.12500000      -0.37500000 </v>
   <v>      -0.48075932       0.37500000      -0.37500000 </v>
   <v>      -0.01393352      -0.12500000      -0.12500000 </v>
   <v>       0.26393352      -0.37500000      -0.12500000 </v>
   <v>       0.26924068      -0.12500000      -0.12500000 </v>
   <v>      -0.01924068      -0.37500000      -0.12500000 </v>
   <v>       0.37500000      -0.25000000      -0.46751009 </v>
   <v>      -0.12500000      -0.25000000      -0.46751009 </v>
   <v>      -0.50000000       0.00000000       0.25000000 </v>
   <v>      -0.50000000      -0.50000000       0.25000000 </v>
   <v>      -0.25000000       0.00000000       0.25000000 </v>
   <v>      -0.25000000      -0.50000000       0.25000000 </v>
   <v>      -0.23075932      -0.12500000       0.37500000 </v>
   <v>       0.48075932      -0.37500000       0.37500000 </v>
   <v>       0.48606648      -0.12500000       0.37500000 </v>
   <v>      -0.23606648      -0.37500000       0.37500000 </v>
   <v>       0.37500000       0.00000000      -0.00106053 </v>
   <v>      -0.12500000       0.00000000      -0.00106053 </v>
   <v>       0.37500000      -0.50000000      -0.00106053 </v>
   <v>      -0.12500000      -0.50000000      -0.00106053 </v>
   <v>      -0.50000000       0.00000000      -0.25000000 </v>
   <v>      -0.50000000      -0.50000000      -0.25000000 </v>
   <v>      -0.25000000       0.00000000      -0.25000000 </v>
   <v>      -0.25000000      -0.50000000      -0.25000000 </v>
   <v>       0.37500000      -0.25000000       0.25106053 </v>
   <v>      -0.12500000      -0.25000000       0.25106053 </v>
   <v>      -0.48606648       0.12500000       0.12500000 </v>
   <v>      -0.26393352       0.37500000       0.12500000 </v>
   <v>      -0.23075932       0.37500000      -0.12500000 </v>
   <v>       0.48075932       0.12500000      -0.12500000 </v>
   <v>      -0.26924068       0.12500000       0.12500000 </v>
   <v>      -0.48075932       0.37500000       0.12500000 </v>
   <v>       0.48606648       0.37500000      -0.12500000 </v>
   <v>      -0.23606648       0.12500000      -0.12500000 </v>
   <v>       0.37500000      -0.25000000      -0.24893947 </v>
   <v>      -0.12500000      -0.25000000      -0.24893947 </v>
   <v>      -0.48606648      -0.37500000      -0.37500000 </v>
   <v>      -0.26393352      -0.12500000      -0.37500000 </v>
   <v>      -0.26924068      -0.37500000      -0.37500000 </v>
   <v>      -0.48075932      -0.12500000      -0.37500000 </v>
   <v>      -0.37500000       0.25000000       0.46751009 </v>
   <v>      -0.50000000       0.25000000       0.00000000 </v>
   <v>      -0.25000000       0.25000000       0.00000000 </v>
   <v>       0.00000000      -0.25000000       0.00000000 </v>
   <v>       0.25000000      -0.25000000       0.00000000 </v>
   <v>       0.12500000      -0.25000000      -0.03248991 </v>
   <v>      -0.50000000      -0.25000000      -0.50000000 </v>
   <v>      -0.25000000      -0.25000000      -0.50000000 </v>
   <v>      -0.37500000       0.25000000       0.24893947 </v>
   <v>      -0.37500000       0.00000000      -0.49893947 </v>
   <v>      -0.37500000      -0.50000000      -0.49893947 </v>
   <v>      -0.48606648      -0.37500000       0.12500000 </v>
   <v>      -0.26393352      -0.12500000       0.12500000 </v>
   <v>      -0.23075932      -0.12500000      -0.12500000 </v>
   <v>       0.48075932      -0.37500000      -0.12500000 </v>
   <v>      -0.37500000       0.25000000      -0.25106053 </v>
   <v>      -0.26924068      -0.37500000       0.12500000 </v>
   <v>      -0.48075932      -0.12500000       0.12500000 </v>
   <v>       0.48606648      -0.12500000      -0.12500000 </v>
   <v>      -0.23606648      -0.37500000      -0.12500000 </v>
   <v>       0.37500000      -0.25000000       0.03248991 </v>
   <v>      -0.12500000      -0.25000000       0.03248991 </v>
   <v>      -0.37500000       0.00000000       0.28248991 </v>
   <v>      -0.37500000      -0.50000000       0.28248991 </v>
   <v>      -0.37500000       0.00000000      -0.21751009 </v>
   <v>      -0.37500000      -0.50000000      -0.21751009 </v>
   <v>      -0.37500000      -0.25000000       0.46751009 </v>
   <v>      -0.37500000       0.25000000      -0.03248991 </v>
   <v>      -0.50000000      -0.25000000       0.00000000 </v>
   <v>      -0.25000000      -0.25000000       0.00000000 </v>
   <v>      -0.37500000       0.00000000       0.00106053 </v>
   <v>      -0.37500000      -0.50000000       0.00106053 </v>
   <v>      -0.37500000      -0.25000000       0.24893947 </v>
   <v>      -0.37500000      -0.25000000      -0.25106053 </v>
   <v>      -0.37500000      -0.25000000      -0.03248991 </v>
  </varray>
 </structure>
 <varray name="primitive_index" >
  <v type="int" >        1 </v>
  <v type="int" >      133 </v>
  <v type="int" >      149 </v>
  <v type="int" >      105 </v>
  <v type="int" >       66 </v>
  <v type="int" >       89 </v>
  <v type="int" >       45 </v>
  <v type="int" >       53 </v>
  <v type="int" >       97 </v>
  <v type="int" >       99 </v>
  <v type="int" >       33 </v>
  <v type="int" >       58 </v>
  <v type="int" >       77 </v>
  <v type="int" >       85 </v>
  <v type="int" >      109 </v>
  <v type="int" >        9 </v>
  <v type="int" >       11 </v>
  <v type="int" >       21 </v>
  <v type="int" >       22 </v>
  <v type="int" >      137 </v>
  <v type="int" >      139 </v>
  <v type="int" >      153 </v>
  <v type="int" >      155 </v>
  <v type="int" >       41 </v>
  <v type="int" >       49 </v>
  <v type="int" >       73 </v>
  <v type="int" >       81 </v>
  <v type="int" >       13 </v>
  <v type="int" >       15 </v>
  <v type="int" >      121 </v>
  <v type="int" >      122 </v>
  <v type="int" >      141 </v>
  <v type="int" >      143 </v>
  <v type="int" >      157 </v>
  <v type="int" >      159 </v>
  <v type="int" >      117 </v>
  <v type="int" >      118 </v>
  <v type="int" >      119 </v>
  <v type="int" >      120 </v>
  <v type="int" >       68 </v>
  <v type="int" >       91 </v>
  <v type="int" >       47 </v>
  <v type="int" >       55 </v>
  <v type="int" >       35 </v>
  <v type="int" >       60 </v>
  <v type="int" >       79 </v>
  <v type="int" >       87 </v>
  <v type="int" >      125 </v>
  <v type="int" >      126 </v>
  <v type="int" >       70 </v>
  <v type="int" >       93 </v>
  <v type="int" >       37 </v>
  <v type="int" >       62 </v>
  <v type="int" >       25 </v>
  <v type="int" >       26 </v>
  <v type="int" >       27 </v>
  <v type="int" >       28 </v>
  <v type="int" >       29 </v>
  <v type="int" >       30 </v>
  <v type="int" >       31 </v>
  <v type="int" >       32 </v>
  <v type="int" >        3 </v>
  <v type="int" >      145 </v>
  <v type="int" >      129 </v>
  <v type="int" >        5 </v>
  <v type="int" >       34 </v>
  <v type="int" >       57 </v>
  <v type="int" >      134 </v>
  <v type="int" >      150 </v>
  <v type="int" >       65 </v>
  <v type="int" >       90 </v>
  <v type="int" >       43 </v>
  <v type="int" >       51 </v>
  <v type="int" >      135 </v>
  <v type="int" >      151 </v>
  <v type="int" >      101 </v>
  <v type="int" >      103 </v>
  <v type="int" >       75 </v>
  <v type="int" >       83 </v>
  <v type="int" >      107 </v>
  <v type="int" >       17 </v>
  <v type="int" >       18 </v>
  <v type="int" >       78 </v>
  <v type="int" >       86 </v>
  <v type="int" >      111 </v>
  <v type="int" >       46 </v>
  <v type="int" >       54 </v>
  <v type="int" >       72 </v>
  <v type="int" >       95 </v>
  <v type="int" >       39 </v>
  <v type="int" >       64 </v>
  <v type="int" >       23 </v>
  <v type="int" >       24 </v>
  <v type="int" >      138 </v>
  <v type="int" >      140 </v>
  <v type="int" >      154 </v>
  <v type="int" >      156 </v>
  <v type="int" >       36 </v>
  <v type="int" >       59 </v>
  <v type="int" >       67 </v>
  <v type="int" >       92 </v>
  <v type="int" >      113 </v>
  <v type="int" >      114 </v>
  <v type="int" >      115 </v>
  <v type="int" >      116 </v>
  <v type="int" >      142 </v>
  <v type="int" >      144 </v>
  <v type="int" >      158 </v>
  <v type="int" >      160 </v>
  <v type="int" >      123 </v>
  <v type="int" >      124 </v>
  <v type="int" >       74 </v>
  <v type="int" >       82 </v>
  <v type="int" >       38 </v>
  <v type="int" >       61 </v>
  <v type="int" >       42 </v>
  <v type="int" >       50 </v>
  <v type="int" >       69 </v>
  <v type="int" >       94 </v>
  <v type="int" >      127 </v>
  <v type="int" >      128 </v>
  <v type="int" >       80 </v>
  <v type="int" >       88 </v>
  <v type="int" >       48 </v>
  <v type="int" >       56 </v>
  <v type="int" >        2 </v>
  <v type="int" >      130 </v>
  <v type="int" >      146 </v>
  <v type="int" >      131 </v>
  <v type="int" >      147 </v>
  <v type="int" >        7 </v>
  <v type="int" >      136 </v>
  <v type="int" >      152 </v>
  <v type="int" >      106 </v>
  <v type="int" >       98 </v>
  <v type="int" >      100 </v>
  <v type="int" >       76 </v>
  <v type="int" >       84 </v>
  <v type="int" >       40 </v>
  <v type="int" >       63 </v>
  <v type="int" >      110 </v>
  <v type="int" >       44 </v>
  <v type="int" >       52 </v>
  <v type="int" >       71 </v>
  <v type="int" >       96 </v>
  <v type="int" >       19 </v>
  <v type="int" >       20 </v>
  <v type="int" >       10 </v>
  <v type="int" >       12 </v>
  <v type="int" >       14 </v>
  <v type="int" >       16 </v>
  <v type="int" >        4 </v>
  <v type="int" >        6 </v>
  <v type="int" >      132 </v>
  <v type="int" >      148 </v>
  <v type="int" >      102 </v>
  <v type="int" >      104 </v>
  <v type="int" >      108 </v>
  <v type="int" >      112 </v>
  <v type="int" >        8 </v>
 </varray>
 <kpoints>
  <generation param="Gamma">
   <v type="int" name="divisions">       2        3        3 </v>
   <v name="usershift">      0.00000000       0.00000000       0.00000000 </v>
   <v name="genvec1">      0.50000000       0.00000000       0.00000000 </v>
   <v name="genvec2">      0.00000000       0.33333333       0.00000000 </v>
   <v name="genvec3">      0.00000000       0.00000000       0.33333333 </v>
   <v name="shift">      0.00000000       0.00000000       0.00000000 </v>
  </generation>
  <varray name="kpointlist" >
   <v>       0.00000000       0.00000000       0.00000000 </v>
   <v>       0.50000000       0.00000000       0.00000000 </v>
   <v>       0.00000000       0.33333333       0.00000000 </v>
   <v>       0.50000000       0.33333333       0.00000000 </v>
   <v>       0.00000000       0.00000000       0.33333333 </v>
   <v>       0.50000000       0.00000000       0.33333333 </v>
   <v>       0.00000000       0.33333333       0.33333333 </v>
   <v>       0.50000000       0.33333333       0.33333333 </v>
   <v>       0.00000000      -0.33333333       0.33333333 </v>
   <v>       0.50000000      -0.33333333       0.33333333 </v>
  </varray>
  <varray name="weights" >
   <v>       0.05555556 </v>
   <v>       0.05555556 </v>
   <v>       0.11111111 </v>
   <v>       0.11111111 </v>
   <v>       0.11111111 </v>
   <v>       0.11111111 </v>
   <v>       0.11111111 </v>
   <v>       0.11111111 </v>
   <v>       0.11111111 </v>
   <v>       0.11111111 </v>
  </varray>
 </kpoints>
 <parameters>
  <separator name="general" >
   <i type="string" name="SYSTEM">unknown system</i>
   <i type="logical" name="LCOMPAT"> F  </i>
  </separator>
  <separator name="electronic" >
   <i type="string" name="PREC">accura</i>
   <i name="ENMAX">    650.00000000</i>
   <i name="ENAUG">    628.94500000</i>
   <i name="EDIFF">      0.00000100</i>
   <i type="int" name="IALGO">    38</i>
   <i type="int" name="IWAVPR">    10</i>
   <i type="int" name="NBANDS">   732</i>
   <i name="NELECT">   1024.00000000</i>
   <i type="int" name="TURBO">     0</i>
   <i type="int" name="IRESTART">     0</i>
   <i type="int" name="NREBOOT">     0</i>
   <i type="int" name="NMIN">     0</i>
   <i name="EREF">      0.00000000</i>
   <separator name="electronic smearing" >
    <i type="int" name="ISMEAR">     0</i>
    <i name="SIGMA">      0.05000000</i>
    <i name="KSPACING">      0.50000000</i>
    <i type="logical" name="KGAMMA"> T  </i>
   </separator>
   <separator name="electronic projectors" >
    <i type="logical" name="LREAL"> F  </i>
    <v name="ROPT">      0.00000000      0.00000000      0.00000000      0.00000000</v>
    <i type="int" name="LMAXPAW">  -100</i>
    <i type="int" name="LMAXMIX">     4</i>
    <i type="logical" name="NLSPLINE"> F  </i>
   </separator>
   <separator name="electronic startup" >
    <i type="int" name="ISTART">     0</i>
    <i type="int" name="ICHARG">     1</i>
    <i type="int" name="INIWAV">     1</i>
   </separator>
   <separator name="electronic spin" >
    <i type="int" name="ISPIN">     2</i>
    <i type="logical" name="LNONCOLLINEAR"> F  </i>
    <v name="MAGMOM">      0.60000000      0.60000000      0.60000000      0.60000000      0.60000000      0.60000000      0.60000000      0.60000000      0.60000000      0.60000000      0.60000000      0.60000000      0.60000000      0.60000000      0.60000000      0.60000000      0.60000000      0.60000000      0.60000000      0.60000000
      0.60000000      0.60000000      0.60000000      0.60000000      0.60000000      0.60000000      0.60000000      0.60000000      0.60000000      0.60000000      0.60000000      0.60000000      0.60000000      0.60000000      0.60000000      0.60000000      0.60000000      0.60000000      0.60000000      0.60000000
      0.60000000      0.60000000      0.60000000      0.60000000      0.60000000      0.60000000      0.60000000      0.60000000      0.60000000      0.60000000      0.60000000      0.60000000      0.60000000      0.60000000      0.60000000      0.60000000      0.60000000      0.60000000      0.60000000      0.60000000
      0.60000000      0.60000000      0.60000000      0.60000000      5.00000000      5.00000000      5.00000000      5.00000000      5.00000000      5.00000000      5.00000000      5.00000000      5.00000000      5.00000000      5.00000000      5.00000000      5.00000000      5.00000000      5.00000000      5.00000000
      5.00000000      5.00000000      5.00000000      5.00000000      5.00000000      5.00000000      5.00000000      5.00000000      5.00000000      5.00000000      5.00000000      5.00000000      5.00000000      5.00000000      5.00000000      5.00000000      0.60000000      0.60000000      0.60000000      0.60000000
      0.60000000      0.60000000      0.60000000      0.60000000      0.60000000      0.60000000      0.60000000      0.60000000      0.60000000      0.60000000      0.60000000      0.60000000      0.60000000      0.60000000      0.60000000      0.60000000      0.60000000      0.60000000      0.60000000      0.60000000
      0.60000000      0.60000000      0.60000000      0.60000000      0.60000000      0.60000000      0.60000000      0.60000000      0.60000000      0.60000000      0.60000000      0.60000000      0.60000000      0.60000000      0.60000000      0.60000000      0.60000000      0.60000000      0.60000000      0.60000000
      0.60000000      0.60000000      0.60000000      0.60000000      0.60000000      0.60000000      0.60000000      0.60000000      0.60000000      0.60000000      0.60000000      0.60000000      0.60000000      0.60000000      0.60000000      0.60000000      0.60000000      0.60000000      0.60000000      0.60000000
</v>
    <i name="NUPDOWN">     -1.00000000</i>
    <i type="logical" name="LSORBIT"> F  </i>
    <v name="SAXIS">      0.00000000      0.00000000      1.00000000</v>
    <i type="logical" name="LSPIRAL"> F  </i>
    <v name="QSPIRAL">      0.00000000      0.00000000      0.00000000</v>
    <i type="logical" name="LZEROZ"> F  </i>
   </separator>
   <separator name="electronic exchange-correlation" >
    <i type="logical" name="LASPH"> T  </i>
    <i type="logical" name="LMETAGGA"> F  </i>
   </separator>
   <separator name="electronic convergence" >
    <i type="int" name="NELM">   200</i>
    <i type="int" name="NELMDL">     0</i>
    <i type="int" name="NELMIN">     8</i>
    <i name="ENINI">    650.00000000</i>
    <separator name="electronic convergence detail" >
     <i type="logical" name="LDIAG"> T  </i>
     <i type="logical" name="LSUBROT"> F  </i>
     <i name="WEIMIN">      0.00000000</i>
     <i name="EBREAK">      0.00000000</i>
     <i name="DEPER">      0.30000000</i>
     <i type="int" name="NRMM">     4</i>
     <i name="TIME">      0.40000000</i>
    </separator>
   </separator>
   <separator name="electronic mixer" >
    <i name="AMIX">      0.40000000</i>
    <i name="BMIX">      1.00000000</i>
    <i name="AMIN">      0.10000000</i>
    <i name="AMIX_MAG">      1.60000000</i>
    <i name="BMIX_MAG">      1.00000000</i>
    <separator name="electronic mixer details" >
     <i type="int" name="IMIX">     4</i>
     <i type="logical" name="MIXFIRST"> F  </i>
     <i type="int" name="MAXMIX">   -45</i>
     <i name="WC">    100.00000000</i>
     <i type="int" name="INIMIX">     1</i>
     <i type="int" name="MIXPRE">     1</i>
     <i type="int" name="MREMOVE">     5</i>
    </separator>
   </separator>
   <separator name="electronic dipolcorrection" >
    <i type="logical" name="LDIPOL"> F  </i>
    <i type="logical" name="LMONO"> F  </i>
    <i type="int" name="IDIPOL">     0</i>
    <i name="EPSILON">      1.00000000</i>
    <v name="DIPOL">   -100.00000000   -100.00000000   -100.00000000</v>
    <i name="EFIELD">      0.00000000</i>
   </separator>
  </separator>
  <separator name="grids" >
   <i type="int" name="NGX">   128</i>
   <i type="int" name="NGY">    96</i>
   <i type="int" name="NGZ">    96</i>
   <i type="int" name="NGXF">   256</i>
   <i type="int" name="NGYF">   192</i>
   <i type="int" name="NGZF">   192</i>
   <i type="logical" name="ADDGRID"> T  </i>
  </separator>
  <separator name="ionic" >
   <i type="int" name="NSW">     0</i>
   <i type="int" name="IBRION">    -1</i>
   <i type="int" name="MDALGO">     0</i>
   <i type="int" name="ISIF">     2</i>
   <i name="PSTRESS">      0.00000000</i>
   <i name="EDIFFG">      0.00001000</i>
   <i type="int" name="NFREE">     0</i>
   <i name="POTIM">      0.50000000</i>
   <i name="SMASS">     -3.00000000</i>
   <i name="SCALEE">      1.00000000</i>
  </separator>
  <separator name="ionic md" >
   <i name="TEBEG">      0.00010000</i>
   <i name="TEEND">      0.00010000</i>
   <i type="int" name="NBLOCK">     1</i>
   <i type="int" name="KBLOCK">     1</i>
   <i type="int" name="NPACO">   256</i>
   <i name="APACO">     16.00000000</i>
  </separator>
  <separator name="symmetry" >
   <i type="int" name="ISYM">     2</i>
   <i name="SYMPREC">      0.00001000</i>
  </separator>
  <separator name="dos" >
   <i type="int" name="LORBIT">     0</i>
   <v name="RWIGS">     -1.00000000     -1.00000000     -1.00000000     -1.00000000</v>
   <i type="int" name="NEDOS">   301</i>
   <i name="EMIN">     10.00000000</i>
   <i name="EMAX">    -10.00000000</i>
   <i name="EFERMI">      0.00000000</i>
  </separator>
  <separator name="writing" >
   <i type="int" name="NWRITE">     1</i>
   <i type="logical" name="LWAVE"> F  </i>
   <i type="logical" name="LDOWNSAMPLE"> F  </i>
   <i type="logical" name="LCHARG"> T  </i>
   <i type="logical" name="LPARD"> F  </i>
   <i type="logical" name="LVTOT"> F  </i>
   <i type="logical" name="LVHAR"> F  </i>
   <i type="logical" name="LELF"> F  </i>
   <i type="logical" name="LOPTICS"> F  </i>
   <v name="STM">      0.00000000      0.00000000      0.00000000      0.00000000      0.00000000      0.00000000      0.00000000</v>
  </separator>
  <separator name="performance" >
   <i type="int" name="NPAR">     4</i>
   <i type="int" name="NSIM">     4</i>
   <i type="int" name="NBLK">    -1</i>
   <i type="logical" name="LPLANE"> T  </i>
   <i type="logical" name="LSCALAPACK"> T  </i>
   <i type="logical" name="LSCAAWARE"> F  </i>
   <i type="logical" name="LSCALU"> F  </i>
   <i type="logical" name="LASYNC"> F  </i>
   <i type="logical" name="LORBITALREAL"> F  </i>
  </separator>
  <separator name="miscellaneous" >
   <i type="int" name="IDIOT">     3</i>
   <i type="int" name="ISPECIAL">     0</i>
   <i type="logical" name="LMUSIC"> F  </i>
   <v name="POMASS">      7.01000000     55.84700000     32.06600000     16.00000000</v>
   <v name="DARWINR">      0.00000000      0.00000000      0.00000000      0.00000000</v>
   <v name="DARWINV">      1.00000000      1.00000000      1.00000000      1.00000000</v>
   <i type="logical" name="LCORR"> T  </i>
  </separator>
  <i type="logical" name="GGA_COMPAT"> T  </i>
  <i type="logical" name="LBERRY"> F  </i>
  <i type="int" name="ICORELEVEL">     0</i>
  <i type="logical" name="LDAU"> T  </i>
  <v type="int" name="LDAUTYPE">     2</v>
  <v type="int" name="LDAUL">    -1</v>
  <v name="LDAUU">      0.00000000</v>
  <v name="LDAUJ">      0.00000000</v>
  <i type="int" name="LDAUPRINT">     0</i>
  <i type="int" name="I_CONSTRAINED_M">     0</i>
  <separator name="electronic exchange-correlation" >
   <i type="string" name="GGA">PE</i>
   <i type="int" name="VOSKOWN">     0</i>
   <i type="logical" name="LHFCALC"> F  </i>
   <i type="string" name="PRECFOCK"></i>
   <i type="logical" name="LSYMGRAD"> F  </i>
   <i type="logical" name="LHFONE"> F  </i>
   <i type="logical" name="LRHFCALC"> F  </i>
   <i type="logical" name="LTHOMAS"> F  </i>
   <i type="logical" name="LMODELHF"> F  </i>
   <i name="ENCUT4O">     -1.00000000</i>
   <i type="int" name="EXXOEP">     0</i>
   <i type="int" name="FOURORBIT">     0</i>
   <i name="AEXX">      0.00000000</i>
   <i name="HFALPHA">      0.00000000</i>
   <i name="MCALPHA">      0.00000000</i>
   <i name="ALDAX">      1.00000000</i>
   <i name="AGGAX">      1.00000000</i>
   <i name="ALDAC">      1.00000000</i>
   <i name="AGGAC">      1.00000000</i>
   <i type="int" name="NKREDX">     1</i>
   <i type="int" name="NKREDY">     1</i>
   <i type="int" name="NKREDZ">     1</i>
   <i type="logical" name="SHIFTRED"> F  </i>
   <i type="logical" name="ODDONLY"> F  </i>
   <i type="logical" name="EVENONLY"> F  </i>
   <i type="int" name="LMAXFOCK">     0</i>
   <i type="int" name="NMAXFOCKAE">     0</i>
   <i type="logical" name="LFOCKAEDFT"> F  </i>
   <i name="HFSCREEN">      0.00000000</i>
   <i name="HFSCREENC">      0.00000000</i>
   <i type="int" name="NBANDSGWLOW">     0</i>
  </separator>
  <separator name="vdW DFT" >
   <i type="logical" name="LUSE_VDW"> F  </i>
   <i name="Zab_VDW">     -0.84910000</i>
   <i name="PARAM1">      0.12340000</i>
   <i name="PARAM2">      1.00000000</i>
   <i name="PARAM3">      0.00000000</i>
  </separator>
  <separator name="model GW" >
   <i type="int" name="MODEL_GW">     0</i>
   <i name="MODEL_EPS0">      7.31241874</i>
   <i name="MODEL_ALPHA">      1.00000000</i>
  </separator>
  <separator name="linear response parameters" >
   <i type="logical" name="LEPSILON"> F  </i>
   <i type="logical" name="LRPA"> F  </i>
   <i type="logical" name="LNABLA"> F  </i>
   <i type="logical" name="LVEL"> F  </i>
   <i type="int" name="KINTER">     0</i>
   <i name="CSHIFT">      0.10000000</i>
   <i name="OMEGAMAX">     -1.00000000</i>
   <i name="DEG_THRESHOLD">      0.00200000</i>
   <i name="RTIME">     -0.10000000</i>
   <i name="WPLASMAI">      0.00000000</i>
   <v name="DFIELD">      0.00000000      0.00000000      0.00000000</v>
   <v name="WPLASMA">      0.00000000      0.00000000      0.00000000      0.00000000      0.00000000      0.00000000      0.00000000      0.00000000      0.00000000</v>
  </separator>
  <separator name="orbital magnetization" >
   <i type="logical" name="NUCIND"> F  </i>
   <v name="MAGPOS">      0.00000000      0.00000000      0.00000000</v>
   <i type="logical" name="LNICSALL"> T  </i>
   <i type="logical" name="ORBITALMAG"> F  </i>
   <i type="logical" name="LMAGBLOCH"> F  </i>
   <i type="logical" name="LCHIMAG"> F  </i>
   <i type="logical" name="LGAUGE"> T  </i>
   <i type="int" name="MAGATOM">     0</i>
   <v name="MAGDIPOL">      0.00000000      0.00000000      0.00000000</v>
   <v name="AVECCONST">      0.00000000      0.00000000      0.00000000</v>
  </separator>
  <separator name="response functions" >
   <i type="logical" name="LADDER"> F  </i>
   <i type="logical" name="LRPAFORCE"> F  </i>
   <i type="logical" name="LFXC"> F  </i>
   <i type="logical" name="LHARTREE"> T  </i>
   <i type="int" name="IBSE">     0</i>
   <v type="int" name="KPOINT">    -1     0     0     0</v>
   <i type="logical" name="LTCTE"> F  </i>
   <i type="logical" name="LTETE"> F  </i>
   <i type="logical" name="LTRIPLET"> F  </i>
   <i type="logical" name="LFXCEPS"> F  </i>
   <i type="logical" name="LFXHEG"> F  </i>
   <i type="int" name="NATURALO">     2</i>
   <i type="logical" name="L2ORDER"> F  </i>
   <i type="logical" name="LMP2LT"> F  </i>
   <i type="logical" name="LUSEW"> F  </i>
   <i name="ENCUTGW">     -2.00000000</i>
   <i name="ENCUTGWSOFT">     -2.00000000</i>
   <i name="ENCUTLF">     -1.00000000</i>
   <i type="int" name="LMAXMP2">    -1</i>
   <i name="SCISSOR">      0.00000000</i>
   <i type="int" name="NOMEGA">     0</i>
   <i type="int" name="NOMEGAR">     0</i>
   <i type="int" name="NBANDSGW">    -1</i>
   <i type="int" name="NBANDSO">    -1</i>
   <i type="int" name="NBANDSV">    -1</i>
   <i type="int" name="NELM">   200</i>
   <i type="int" name="NELMHF">     1</i>
   <i type="int" name="DIM">     3</i>
   <i type="int" name="ANTIRES">     0</i>
   <i name="OMEGAMAX">    -30.00000000</i>
   <i name="OMEGAMIN">    -30.00000000</i>
   <i name="OMEGATL">   -200.00000000</i>
   <i type="int" name="OMEGAGRID">   140</i>
   <i name="CSHIFT">     -0.10000000</i>
   <i type="logical" name="SELFENERGY"> F  </i>
   <i type="logical" name="LSPECTRAL"> F  </i>
   <i type="logical" name="LSPECTRALGW"> F  </i>
   <i type="logical" name="LSINGLES"> F  </i>
   <i type="logical" name="LFERMIGW"> F  </i>
   <i type="logical" name="ODDONLYGW"> F  </i>
   <i type="logical" name="EVENONLYGW"> F  </i>
   <i type="int" name="NKREDLFX">     1</i>
   <i type="int" name="NKREDLFY">     1</i>
   <i type="int" name="NKREDLFZ">     1</i>
   <i type="int" name="MAXMEM">  2800</i>
   <i type="int" name="TELESCOPE">     0</i>
   <i type="int" name="TAUPAR">     1</i>
   <i type="int" name="OMEGAPAR">    -1</i>
   <i name="LAMBDA">      1.00000000</i>
  </separator>
  <separator name="External order field" >
   <i name="OFIELD_KAPPA">      0.00000000</i>
   <v name="OFIELD_K">      0.00000000      0.00000000      0.00000000</v>
   <i name="OFIELD_Q6_NEAR">      0.00000000</i>
   <i name="OFIELD_Q6_FAR">      0.00000000</i>
   <i name="OFIELD_A">      0.00000000</i>
  </separator>
 </parameters>
 <atominfo>
  <atoms>     160 </atoms>
  <types>       4 </types>
  <array name="atoms" >
   <dimension dim="1">ion</dimension>
   <field type="string">element</field>
   <field type="int">atomtype</field>
   <set>
    <rc><c>Li</c><c>   1</c></rc>
    <rc><c>Li</c><c>   1</c></rc>
    <rc><c>Li</c><c>   1</c></rc>
    <rc><c>Li</c><c>   1</c></rc>
    <rc><c>Li</c><c>   1</c></rc>
    <rc><c>Li</c><c>   1</c></rc>
    <rc><c>Li</c><c>   1</c></rc>
    <rc><c>Li</c><c>   1</c></rc>
    <rc><c>Li</c><c>   1</c></rc>
    <rc><c>Li</c><c>   1</c></rc>
    <rc><c>Li</c><c>   1</c></rc>
    <rc><c>Li</c><c>   1</c></rc>
    <rc><c>Li</c><c>   1</c></rc>
    <rc><c>Li</c><c>   1</c></rc>
    <rc><c>Li</c><c>   1</c></rc>
    <rc><c>Li</c><c>   1</c></rc>
    <rc><c>Li</c><c>   1</c></rc>
    <rc><c>Li</c><c>   1</c></rc>
    <rc><c>Li</c><c>   1</c></rc>
    <rc><c>Li</c><c>   1</c></rc>
    <rc><c>Li</c><c>   1</c></rc>
    <rc><c>Li</c><c>   1</c></rc>
    <rc><c>Li</c><c>   1</c></rc>
    <rc><c>Li</c><c>   1</c></rc>
    <rc><c>Li</c><c>   1</c></rc>
    <rc><c>Li</c><c>   1</c></rc>
    <rc><c>Li</c><c>   1</c></rc>
    <rc><c>Li</c><c>   1</c></rc>
    <rc><c>Li</c><c>   1</c></rc>
    <rc><c>Li</c><c>   1</c></rc>
    <rc><c>Li</c><c>   1</c></rc>
    <rc><c>Li</c><c>   1</c></rc>
    <rc><c>Li</c><c>   1</c></rc>
    <rc><c>Li</c><c>   1</c></rc>
    <rc><c>Li</c><c>   1</c></rc>
    <rc><c>Li</c><c>   1</c></rc>
    <rc><c>Li</c><c>   1</c></rc>
    <rc><c>Li</c><c>   1</c></rc>
    <rc><c>Li</c><c>   1</c></rc>
    <rc><c>Li</c><c>   1</c></rc>
    <rc><c>Li</c><c>   1</c></rc>
    <rc><c>Li</c><c>   1</c></rc>
    <rc><c>Li</c><c>   1</c></rc>
    <rc><c>Li</c><c>   1</c></rc>
    <rc><c>Li</c><c>   1</c></rc>
    <rc><c>Li</c><c>   1</c></rc>
    <rc><c>Li</c><c>   1</c></rc>
    <rc><c>Li</c><c>   1</c></rc>
    <rc><c>Li</c><c>   1</c></rc>
    <rc><c>Li</c><c>   1</c></rc>
    <rc><c>Li</c><c>   1</c></rc>
    <rc><c>Li</c><c>   1</c></rc>
    <rc><c>Li</c><c>   1</c></rc>
    <rc><c>Li</c><c>   1</c></rc>
    <rc><c>Li</c><c>   1</c></rc>
    <rc><c>Li</c><c>   1</c></rc>
    <rc><c>Li</c><c>   1</c></rc>
    <rc><c>Li</c><c>   1</c></rc>
    <rc><c>Li</c><c>   1</c></rc>
    <rc><c>Li</c><c>   1</c></rc>
    <rc><c>Li</c><c>   1</c></rc>
    <rc><c>Li</c><c>   1</c></rc>
    <rc><c>Li</c><c>   1</c></rc>
    <rc><c>Li</c><c>   1</c></rc>
    <rc><c>Fe</c><c>   2</c></rc>
    <rc><c>Fe</c><c>   2</c></rc>
    <rc><c>Fe</c><c>   2</c></rc>
    <rc><c>Fe</c><c>   2</c></rc>
    <rc><c>Fe</c><c>   2</c></rc>
    <rc><c>Fe</c><c>   2</c></rc>
    <rc><c>Fe</c><c>   2</c></rc>
    <rc><c>Fe</c><c>   2</c></rc>
    <rc><c>Fe</c><c>   2</c></rc>
    <rc><c>Fe</c><c>   2</c></rc>
    <rc><c>Fe</c><c>   2</c></rc>
    <rc><c>Fe</c><c>   2</c></rc>
    <rc><c>Fe</c><c>   2</c></rc>
    <rc><c>Fe</c><c>   2</c></rc>
    <rc><c>Fe</c><c>   2</c></rc>
    <rc><c>Fe</c><c>   2</c></rc>
    <rc><c>Fe</c><c>   2</c></rc>
    <rc><c>Fe</c><c>   2</c></rc>
    <rc><c>Fe</c><c>   2</c></rc>
    <rc><c>Fe</c><c>   2</c></rc>
    <rc><c>Fe</c><c>   2</c></rc>
    <rc><c>Fe</c><c>   2</c></rc>
    <rc><c>Fe</c><c>   2</c></rc>
    <rc><c>Fe</c><c>   2</c></rc>
    <rc><c>Fe</c><c>   2</c></rc>
    <rc><c>Fe</c><c>   2</c></rc>
    <rc><c>Fe</c><c>   2</c></rc>
    <rc><c>Fe</c><c>   2</c></rc>
    <rc><c>Fe</c><c>   2</c></rc>
    <rc><c>Fe</c><c>   2</c></rc>
    <rc><c>Fe</c><c>   2</c></rc>
    <rc><c>Fe</c><c>   2</c></rc>
    <rc><c>S </c><c>   3</c></rc>
    <rc><c>S </c><c>   3</c></rc>
    <rc><c>S </c><c>   3</c></rc>
    <rc><c>S </c><c>   3</c></rc>
    <rc><c>S </c><c>   3</c></rc>
    <rc><c>S </c><c>   3</c></rc>
    <rc><c>S </c><c>   3</c></rc>
    <rc><c>S </c><c>   3</c></rc>
    <rc><c>S </c><c>   3</c></rc>
    <rc><c>S </c><c>   3</c></rc>
    <rc><c>S </c><c>   3</c></rc>
    <rc><c>S </c><c>   3</c></rc>
    <rc><c>S </c><c>   3</c></rc>
    <rc><c>S </c><c>   3</c></rc>
    <rc><c>S </c><c>   3</c></rc>
    <rc><c>S </c><c>   3</c></rc>
    <rc><c>S </c><c>   3</c></rc>
    <rc><c>S </c><c>   3</c></rc>
    <rc><c>S </c><c>   3</c></rc>
    <rc><c>S </c><c>   3</c></rc>
    <rc><c>S </c><c>   3</c></rc>
    <rc><c>S </c><c>   3</c></rc>
    <rc><c>S </c><c>   3</c></rc>
    <rc><c>S </c><c>   3</c></rc>
    <rc><c>S </c><c>   3</c></rc>
    <rc><c>S </c><c>   3</c></rc>
    <rc><c>S </c><c>   3</c></rc>
    <rc><c>S </c><c>   3</c></rc>
    <rc><c>S </c><c>   3</c></rc>
    <rc><c>S </c><c>   3</c></rc>
    <rc><c>S </c><c>   3</c></rc>
    <rc><c>S </c><c>   3</c></rc>
    <rc><c>O </c><c>   4</c></rc>
    <rc><c>O </c><c>   4</c></rc>
    <rc><c>O </c><c>   4</c></rc>
    <rc><c>O </c><c>   4</c></rc>
    <rc><c>O </c><c>   4</c></rc>
    <rc><c>O </c><c>   4</c></rc>
    <rc><c>O </c><c>   4</c></rc>
    <rc><c>O </c><c>   4</c></rc>
    <rc><c>O </c><c>   4</c></rc>
    <rc><c>O </c><c>   4</c></rc>
    <rc><c>O </c><c>   4</c></rc>
    <rc><c>O </c><c>   4</c></rc>
    <rc><c>O </c><c>   4</c></rc>
    <rc><c>O </c><c>   4</c></rc>
    <rc><c>O </c><c>   4</c></rc>
    <rc><c>O </c><c>   4</c></rc>
    <rc><c>O </c><c>   4</c></rc>
    <rc><c>O </c><c>   4</c></rc>
    <rc><c>O </c><c>   4</c></rc>
    <rc><c>O </c><c>   4</c></rc>
    <rc><c>O </c><c>   4</c></rc>
    <rc><c>O </c><c>   4</c></rc>
    <rc><c>O </c><c>   4</c></rc>
    <rc><c>O </c><c>   4</c></rc>
    <rc><c>O </c><c>   4</c></rc>
    <rc><c>O </c><c>   4</c></rc>
    <rc><c>O </c><c>   4</c></rc>
    <rc><c>O </c><c>   4</c></rc>
    <rc><c>O </c><c>   4</c></rc>
    <rc><c>O </c><c>   4</c></rc>
    <rc><c>O </c><c>   4</c></rc>
    <rc><c>O </c><c>   4</c></rc>
   </set>
  </array>
  <array name="atomtypes" >
   <dimension dim="1">type</dimension>
   <field type="int">atomspertype</field>
   <field type="string">element</field>
   <field>mass</field>
   <field>valence</field>
   <field type="string">pseudopotential</field>
   <set>
    <rc><c>  64</c><c>Li</c><c>      7.01000000</c><c>      3.00000000</c><c>  PAW_PBE Li_sv 10Sep2004               </c></rc>
    <rc><c>  32</c><c>Fe</c><c>     55.84700000</c><c>     14.00000000</c><c>  PAW_PBE Fe_pv 02Aug2007               </c></rc>
    <rc><c>  32</c><c>S </c><c>     32.06600000</c><c>      6.00000000</c><c>  PAW_PBE S 06Sep2000                   </c></rc>
    <rc><c>  32</c><c>O </c><c>     16.00000000</c><c>      6.00000000</c><c>  PAW_PBE O 08Apr2002                   </c></rc>
   </set>
  </array>
 </atominfo>
 <structure name="initialpos" >
  <crystal>
   <varray name="basis" >
    <v>      15.42482202       0.00000000       0.00000000 </v>
    <v>       0.00000000      11.21024242       0.00000000 </v>
    <v>       0.00000000       0.00000000      11.27702698 </v>
   </varray>
   <i name="volume">   1949.97833107 </i>
   <varray name="rec_basis" >
    <v>       0.06483057       0.00000000       0.00000000 </v>
    <v>       0.00000000       0.08920414       0.00000000 </v>
    <v>       0.00000000       0.00000000       0.08867585 </v>
   </varray>
  </crystal>
  <varray name="positions" >
   <v>       0.12500000       0.25000000       0.46751010 </v>
   <v>       0.62500000       0.25000000       0.46751010 </v>
   <v>       0.12500000       0.75000000       0.46751010 </v>
   <v>       0.62500000       0.75000000       0.46751010 </v>
   <v>       0.12500000       0.25000000       0.96751010 </v>
   <v>       0.62500000       0.25000000       0.96751010 </v>
   <v>       0.12500000       0.75000000       0.96751010 </v>
   <v>       0.62500000       0.75000000       0.96751010 </v>
   <v>       0.12500000       0.00000000       0.28248990 </v>
   <v>       0.62500000       0.00000000       0.28248990 </v>
   <v>       0.12500000       0.50000000       0.28248990 </v>
   <v>       0.62500000       0.50000000       0.28248990 </v>
   <v>       0.12500000       0.00000000       0.78248990 </v>
   <v>       0.62500000       0.00000000       0.78248990 </v>
   <v>       0.12500000       0.50000000       0.78248990 </v>
   <v>       0.62500000       0.50000000       0.78248990 </v>
   <v>       0.37500000       0.25000000       0.03248990 </v>
   <v>       0.87500000       0.25000000       0.03248990 </v>
   <v>       0.37500000       0.75000000       0.03248990 </v>
   <v>       0.87500000       0.75000000       0.03248990 </v>
   <v>       0.37500000       0.25000000       0.53248990 </v>
   <v>       0.87500000       0.25000000       0.53248990 </v>
   <v>       0.37500000       0.75000000       0.53248990 </v>
   <v>       0.87500000       0.75000000       0.53248990 </v>
   <v>       0.37500000       0.00000000       0.21751010 </v>
   <v>       0.87500000       0.00000000       0.21751010 </v>
   <v>       0.37500000       0.50000000       0.21751010 </v>
   <v>       0.87500000       0.50000000       0.21751010 </v>
   <v>       0.37500000       0.00000000       0.71751010 </v>
   <v>       0.87500000       0.00000000       0.71751010 </v>
   <v>       0.37500000       0.50000000       0.71751010 </v>
   <v>       0.87500000       0.50000000       0.71751010 </v>
   <v>       0.26924068       0.37500000       0.37500000 </v>
   <v>       0.76924068       0.37500000       0.37500000 </v>
   <v>       0.26924068       0.87500000       0.37500000 </v>
   <v>       0.76924068       0.87500000       0.37500000 </v>
   <v>       0.26924068       0.37500000       0.87500000 </v>
   <v>       0.76924068       0.37500000       0.87500000 </v>
   <v>       0.26924068       0.87500000       0.87500000 </v>
   <v>       0.76924068       0.87500000       0.87500000 </v>
   <v>       0.23075932       0.12500000       0.12500000 </v>
   <v>       0.73075932       0.12500000       0.12500000 </v>
   <v>       0.23075932       0.62500000       0.12500000 </v>
   <v>       0.73075932       0.62500000       0.12500000 </v>
   <v>       0.23075932       0.12500000       0.62500000 </v>
   <v>       0.73075932       0.12500000       0.62500000 </v>
   <v>       0.23075932       0.62500000       0.62500000 </v>
   <v>       0.73075932       0.62500000       0.62500000 </v>
   <v>       0.01924068       0.37500000       0.12500000 </v>
   <v>       0.51924068       0.37500000       0.12500000 </v>
   <v>       0.01924068       0.87500000       0.12500000 </v>
   <v>       0.51924068       0.87500000       0.12500000 </v>
   <v>       0.01924068       0.37500000       0.62500000 </v>
   <v>       0.51924068       0.37500000       0.62500000 </v>
   <v>       0.01924068       0.87500000       0.62500000 </v>
   <v>       0.51924068       0.87500000       0.62500000 </v>
   <v>       0.48075932       0.12500000       0.37500000 </v>
   <v>       0.98075932       0.12500000       0.37500000 </v>
   <v>       0.48075932       0.62500000       0.37500000 </v>
   <v>       0.98075932       0.62500000       0.37500000 </v>
   <v>       0.48075932       0.12500000       0.87500000 </v>
   <v>       0.98075932       0.12500000       0.87500000 </v>
   <v>       0.48075932       0.62500000       0.87500000 </v>
   <v>       0.98075932       0.62500000       0.87500000 </v>
   <v>       0.48606648       0.37500000       0.37500000 </v>
   <v>       0.98606648       0.37500000       0.37500000 </v>
   <v>       0.48606648       0.87500000       0.37500000 </v>
   <v>       0.98606648       0.87500000       0.37500000 </v>
   <v>       0.48606648       0.37500000       0.87500000 </v>
   <v>       0.98606648       0.37500000       0.87500000 </v>
   <v>       0.48606648       0.87500000       0.87500000 </v>
   <v>       0.98606648       0.87500000       0.87500000 </v>
   <v>       0.01393352       0.12500000       0.12500000 </v>
   <v>       0.51393352       0.12500000       0.12500000 </v>
   <v>       0.01393352       0.62500000       0.12500000 </v>
   <v>       0.51393352       0.62500000       0.12500000 </v>
   <v>       0.01393352       0.12500000       0.62500000 </v>
   <v>       0.51393352       0.12500000       0.62500000 </v>
   <v>       0.01393352       0.62500000       0.62500000 </v>
   <v>       0.51393352       0.62500000       0.62500000 </v>
   <v>       0.23606648       0.37500000       0.12500000 </v>
   <v>       0.73606648       0.37500000       0.12500000 </v>
   <v>       0.23606648       0.87500000       0.12500000 </v>
   <v>       0.73606648       0.87500000       0.12500000 </v>
   <v>       0.23606648       0.37500000       0.62500000 </v>
   <v>       0.73606648       0.37500000       0.62500000 </v>
   <v>       0.23606648       0.87500000       0.62500000 </v>
   <v>       0.73606648       0.87500000       0.62500000 </v>
   <v>       0.26393352       0.12500000       0.37500000 </v>
   <v>       0.76393352       0.12500000       0.37500000 </v>
   <v>       0.26393352       0.62500000       0.37500000 </v>
   <v>       0.76393352       0.62500000       0.37500000 </v>
   <v>       0.26393352       0.12500000       0.87500000 </v>
   <v>       0.76393352       0.12500000       0.87500000 </v>
   <v>       0.26393352       0.62500000       0.87500000 </v>
   <v>       0.76393352       0.62500000       0.87500000 </v>
   <v>       0.12500000       0.00000000       0.50106053 </v>
   <v>       0.62500000       0.00000000       0.50106053 </v>
   <v>       0.12500000       0.50000000       0.50106053 </v>
   <v>       0.62500000       0.50000000       0.50106053 </v>
   <v>       0.12500000       0.00000000       0.00106053 </v>
   <v>       0.62500000       0.00000000       0.00106053 </v>
   <v>       0.12500000       0.50000000       0.00106053 </v>
   <v>       0.62500000       0.50000000       0.00106053 </v>
   <v>       0.12500000       0.25000000       0.24893947 </v>
   <v>       0.62500000       0.25000000       0.24893947 </v>
   <v>       0.12500000       0.75000000       0.24893947 </v>
   <v>       0.62500000       0.75000000       0.24893947 </v>
   <v>       0.12500000       0.25000000       0.74893947 </v>
   <v>       0.62500000       0.25000000       0.74893947 </v>
   <v>       0.12500000       0.75000000       0.74893947 </v>
   <v>       0.62500000       0.75000000       0.74893947 </v>
   <v>       0.37500000       0.00000000       0.99893947 </v>
   <v>       0.87500000       0.00000000       0.99893947 </v>
   <v>       0.37500000       0.50000000       0.99893947 </v>
   <v>       0.87500000       0.50000000       0.99893947 </v>
   <v>       0.37500000       0.00000000       0.49893947 </v>
   <v>       0.87500000       0.00000000       0.49893947 </v>
   <v>       0.37500000       0.50000000       0.49893947 </v>
   <v>       0.87500000       0.50000000       0.49893947 </v>
   <v>       0.37500000       0.25000000       0.25106053 </v>
   <v>       0.87500000       0.25000000       0.25106053 </v>
   <v>       0.37500000       0.75000000       0.25106053 </v>
   <v>       0.87500000       0.75000000       0.25106053 </v>
   <v>       0.37500000       0.25000000       0.75106053 </v>
   <v>       0.87500000       0.25000000       0.75106053 </v>
   <v>       0.37500000       0.75000000       0.75106053 </v>
   <v>       0.87500000       0.75000000       0.75106053 </v>
   <v>       0.00000000       0.25089204       0.00000000 </v>
   <v>       0.50000000       0.25000000       0.00000000 </v>
   <v>       0.00000000       0.75000000       0.00000000 </v>
   <v>       0.50000000       0.75000000       0.00000000 </v>
   <v>       0.00000000       0.25000000       0.50000000 </v>
   <v>       0.50000000       0.25000000       0.50000000 </v>
   <v>       0.00000000       0.75000000       0.50000000 </v>
   <v>       0.50000000       0.75000000       0.50000000 </v>
   <v>       0.00000000       0.00000000       0.25000000 </v>
   <v>       0.50000000       0.00000000       0.25000000 </v>
   <v>       0.00000000       0.50000000       0.25000000 </v>
   <v>       0.50000000       0.50000000       0.25000000 </v>
   <v>       0.00000000       0.00000000       0.75000000 </v>
   <v>       0.50000000       0.00000000       0.75000000 </v>
   <v>       0.00000000       0.50000000       0.75000000 </v>
   <v>       0.50000000       0.50000000       0.75000000 </v>
   <v>       0.25000000       0.25000000       0.00000000 </v>
   <v>       0.75000000       0.25000000       0.00000000 </v>
   <v>       0.25000000       0.75000000       0.00000000 </v>
   <v>       0.75000000       0.75000000       0.00000000 </v>
   <v>       0.25000000       0.25000000       0.50000000 </v>
   <v>       0.75000000       0.25000000       0.50000000 </v>
   <v>       0.25000000       0.75000000       0.50000000 </v>
   <v>       0.75000000       0.75000000       0.50000000 </v>
   <v>       0.25000000       0.00000000       0.25000000 </v>
   <v>       0.75000000       0.00000000       0.25000000 </v>
   <v>       0.25000000       0.50000000       0.25000000 </v>
   <v>       0.75000000       0.50000000       0.25000000 </v>
   <v>       0.25000000       0.00000000       0.75000000 </v>
   <v>       0.75000000       0.00000000       0.75000000 </v>
   <v>       0.25000000       0.50000000       0.75000000 </v>
   <v>       0.75000000       0.50000000       0.75000000 </v>
  </varray>
 </structure>
 <calculation>
  <scstep>
   <time name="dav">  360.45  369.46</time>
   <time name="total">  362.79  371.87</time>
   <energy>
    <i name="alphaZ">   2574.33730679 </i>
    <i name="ewald"> -67378.52299818 </i>
    <i name="hartreedc"> -36045.55151263 </i>
    <i name="XCdc">   4397.16327220 </i>
    <i name="pawpsdc"> 108725.82191982 </i>
    <i name="pawaedc">-112342.66432617 </i>
    <i name="eentropy">     -0.02980434 </i>
    <i name="bandstr">   -780.40325984 </i>
    <i name="atom"> 114309.28505226 </i>
    <i name="e_fr_energy">  13459.43564991 </i>
    <i name="e_wo_entrp">  13459.46545425 </i>
    <i name="e_0_energy">  13459.45055208 </i>
   </energy>
  </scstep>
  <scstep>
   <time name="dav">  346.84  354.83</time>
   <time name="total">  346.85  354.84</time>
   <energy>
    <i name="e_fr_energy">   1408.36734201 </i>
    <i name="e_wo_entrp">   1408.43723875 </i>
    <i name="e_0_energy">   1408.40229038 </i>
   </energy>
  </scstep>
  <scstep>
   <time name="dav">  376.58  385.24</time>
   <time name="total">  376.58  385.24</time>
   <energy>
    <i name="e_fr_energy">   -528.16617404 </i>
    <i name="e_wo_entrp">   -528.16617404 </i>
    <i name="e_0_energy">   -528.16617404 </i>
   </energy>
  </scstep>
  <scstep>
   <time name="dav">  434.43  443.39</time>
   <time name="total">  434.44  443.40</time>
   <energy>
    <i name="e_fr_energy">   -788.77188249 </i>
    <i name="e_wo_entrp">   -788.77188249 </i>
    <i name="e_0_energy">   -788.77188249 </i>
   </energy>
  </scstep>
  <scstep>
   <time name="dav">  545.98  558.77</time>
   <time name="total">  554.31  567.30</time>
   <energy>
    <i name="e_fr_energy">   -820.40453513 </i>
    <i name="e_wo_entrp">   -820.40453513 </i>
    <i name="e_0_energy">   -820.40453513 </i>
   </energy>
  </scstep>
  <scstep>
   <time name="dav">  446.69  456.82</time>
   <time name="total">  457.53  467.77</time>
   <energy>
    <i name="e_fr_energy">   -821.84649622 </i>
    <i name="e_wo_entrp">   -821.84649622 </i>
    <i name="e_0_energy">   -821.84649622 </i>
   </energy>
  </scstep>
  <scstep>
   <time name="dav">  507.45  519.15</time>
   <time name="total">  518.24  530.09</time>
   <energy>
    <i name="e_fr_energy">   -821.92567916 </i>
    <i name="e_wo_entrp">   -821.92567916 </i>
    <i name="e_0_energy">   -821.92567916 </i>
   </energy>
  </scstep>
  <scstep>
   <time name="dav">  482.77  493.75</time>
   <time name="total">  493.62  504.80</time>
   <energy>
    <i name="e_fr_energy">   -821.92597437 </i>
    <i name="e_wo_entrp">   -821.92597437 </i>
    <i name="e_0_energy">   -821.92597437 </i>
   </energy>
  </scstep>
  <scstep>
   <time name="dav">  513.29  524.37</time>
   <time name="total">  523.97  535.33</time>
   <energy>
    <i name="e_fr_energy">   -821.92486944 </i>
    <i name="e_wo_entrp">   -821.92486944 </i>
    <i name="e_0_energy">   -821.92486944 </i>
   </energy>
  </scstep>
  <scstep>
   <time name="dav">  523.70  535.04</time>
   <time name="total">  534.40  546.00</time>
   <energy>
    <i name="e_fr_energy">   -821.92360897 </i>
    <i name="e_wo_entrp">   -821.92360897 </i>
    <i name="e_0_energy">   -821.92360897 </i>
   </energy>
  </scstep>
  <scstep>
   <time name="dav">  527.95  539.80</time>
   <time name="total">  538.68  550.74</time>
   <energy>
    <i name="e_fr_energy">   -821.91995737 </i>
    <i name="e_wo_entrp">   -821.91995737 </i>
    <i name="e_0_energy">   -821.91995737 </i>
   </energy>
  </scstep>
  <scstep>
   <time name="dav">  400.57  409.26</time>
   <time name="total">  411.34  420.29</time>
   <energy>
    <i name="e_fr_energy">   -821.91986028 </i>
    <i name="e_wo_entrp">   -821.91986028 </i>
    <i name="e_0_energy">   -821.91986028 </i>
   </energy>
  </scstep>
  <scstep>
   <time name="dav">  473.05  483.75</time>
   <time name="total">  483.72  494.61</time>
   <energy>
    <i name="e_fr_energy">   -821.91986467 </i>
    <i name="e_wo_entrp">   -821.91986467 </i>
    <i name="e_0_energy">   -821.91986467 </i>
   </energy>
  </scstep>
  <scstep>
   <time name="dav">  412.66  421.59</time>
   <time name="total">  423.44  432.61</time>
   <energy>
    <i name="e_fr_energy">   -821.91987845 </i>
    <i name="e_wo_entrp">   -821.91987845 </i>
    <i name="e_0_energy">   -821.91987845 </i>
   </energy>
  </scstep>
  <scstep>
   <time name="dav">  388.53  396.92</time>
   <time name="total">  399.27  407.89</time>
   <energy>
    <i name="e_fr_energy">   -821.91988353 </i>
    <i name="e_wo_entrp">   -821.91988353 </i>
    <i name="e_0_energy">   -821.91988353 </i>
   </energy>
  </scstep>
  <scstep>
   <time name="dav">  374.08  382.70</time>
   <time name="total">  384.86  393.74</time>
   <energy>
    <i name="e_fr_energy">   -821.91988785 </i>
    <i name="e_wo_entrp">   -821.91988785 </i>
    <i name="e_0_energy">   -821.91988785 </i>
   </energy>
  </scstep>
  <scstep>
   <time name="dav">  250.63  256.57</time>
   <time name="total">  261.37  267.59</time>
   <energy>
    <i name="e_fr_energy">   -821.91988960 </i>
    <i name="e_wo_entrp">   -821.91988960 </i>
    <i name="e_0_energy">   -821.91988960 </i>
   </energy>
  </scstep>
  <scstep>
   <time name="dav">  243.91  249.26</time>
   <time name="total">  254.64  260.26</time>
   <energy>
    <i name="e_fr_energy">   -821.91989170 </i>
    <i name="e_wo_entrp">   -821.91989170 </i>
    <i name="e_0_energy">   -821.91989170 </i>
   </energy>
  </scstep>
  <scstep>
   <time name="dav">  241.68  246.62</time>
   <time name="total">  244.09  249.05</time>
   <energy>
    <i name="alphaZ">   2574.33730679 </i>
    <i name="ewald"> -67378.52299818 </i>
    <i name="hartreedc"> -36045.56267019 </i>
    <i name="XCdc">   4397.16249019 </i>
    <i name="pawpsdc"> 108726.21012705 </i>
    <i name="pawaedc">-112343.04485381 </i>
    <i name="eentropy">     -0.00000000 </i>
    <i name="bandstr"> -15061.78434654 </i>
    <i name="atom"> 114309.28505226 </i>
    <i name="e_fr_energy">   -821.91989243 </i>
    <i name="e_wo_entrp">   -821.91989243 </i>
    <i name="e_0_energy">   -821.91989243 </i>
   </energy>
  </scstep>
  <structure>
   <crystal>
    <varray name="basis" >
     <v>      15.42482202       0.00000000       0.00000000 </v>
     <v>       0.00000000      11.21024242       0.00000000 </v>
     <v>       0.00000000       0.00000000      11.27702698 </v>
    </varray>
    <i name="volume">   1949.97833107 </i>
    <varray name="rec_basis" >
     <v>       0.06483057       0.00000000       0.00000000 </v>
     <v>       0.00000000       0.08920414       0.00000000 </v>
     <v>       0.00000000       0.00000000       0.08867585 </v>
    </varray>
   </crystal>
   <varray name="positions" >
    <v>       0.12500000       0.25000000       0.46751010 </v>
    <v>       0.62500000       0.25000000       0.46751010 </v>
    <v>       0.12500000       0.75000000       0.46751010 </v>
    <v>       0.62500000       0.75000000       0.46751010 </v>
    <v>       0.12500000       0.25000000       0.96751010 </v>
    <v>       0.62500000       0.25000000       0.96751010 </v>
    <v>       0.12500000       0.75000000       0.96751010 </v>
    <v>       0.62500000       0.75000000       0.96751010 </v>
    <v>       0.12500000       0.00000000       0.28248990 </v>
    <v>       0.62500000       0.00000000       0.28248990 </v>
    <v>       0.12500000       0.50000000       0.28248990 </v>
    <v>       0.62500000       0.50000000       0.28248990 </v>
    <v>       0.12500000       0.00000000       0.78248990 </v>
    <v>       0.62500000       0.00000000       0.78248990 </v>
    <v>       0.12500000       0.50000000       0.78248990 </v>
    <v>       0.62500000       0.50000000       0.78248990 </v>
    <v>       0.37500000       0.25000000       0.03248990 </v>
    <v>       0.87500000       0.25000000       0.03248990 </v>
    <v>       0.37500000       0.75000000       0.03248990 </v>
    <v>       0.87500000       0.75000000       0.03248990 </v>
    <v>       0.37500000       0.25000000       0.53248990 </v>
    <v>       0.87500000       0.25000000       0.53248990 </v>
    <v>       0.37500000       0.75000000       0.53248990 </v>
    <v>       0.87500000       0.75000000       0.53248990 </v>
    <v>       0.37500000       0.00000000       0.21751010 </v>
    <v>       0.87500000       0.00000000       0.21751010 </v>
    <v>       0.37500000       0.50000000       0.21751010 </v>
    <v>       0.87500000       0.50000000       0.21751010 </v>
    <v>       0.37500000       0.00000000       0.71751010 </v>
    <v>       0.87500000       0.00000000       0.71751010 </v>
    <v>       0.37500000       0.50000000       0.71751010 </v>
    <v>       0.87500000       0.50000000       0.71751010 </v>
    <v>       0.26924068       0.37500000       0.37500000 </v>
    <v>       0.76924068       0.37500000       0.37500000 </v>
    <v>       0.26924068       0.87500000       0.37500000 </v>
    <v>       0.76924068       0.87500000       0.37500000 </v>
    <v>       0.26924068       0.37500000       0.87500000 </v>
    <v>       0.76924068       0.37500000       0.87500000 </v>
    <v>       0.26924068       0.87500000       0.87500000 </v>
    <v>       0.76924068       0.87500000       0.87500000 </v>
    <v>       0.23075932       0.12500000       0.12500000 </v>
    <v>       0.73075932       0.12500000       0.12500000 </v>
    <v>       0.23075932       0.62500000       0.12500000 </v>
    <v>       0.73075932       0.62500000       0.12500000 </v>
    <v>       0.23075932       0.12500000       0.62500000 </v>
    <v>       0.73075932       0.12500000       0.62500000 </v>
    <v>       0.23075932       0.62500000       0.62500000 </v>
    <v>       0.73075932       0.62500000       0.62500000 </v>
    <v>       0.01924068       0.37500000       0.12500000 </v>
    <v>       0.51924068       0.37500000       0.12500000 </v>
    <v>       0.01924068       0.87500000       0.12500000 </v>
    <v>       0.51924068       0.87500000       0.12500000 </v>
    <v>       0.01924068       0.37500000       0.62500000 </v>
    <v>       0.51924068       0.37500000       0.62500000 </v>
    <v>       0.01924068       0.87500000       0.62500000 </v>
    <v>       0.51924068       0.87500000       0.62500000 </v>
    <v>       0.48075932       0.12500000       0.37500000 </v>
    <v>       0.98075932       0.12500000       0.37500000 </v>
    <v>       0.48075932       0.62500000       0.37500000 </v>
    <v>       0.98075932       0.62500000       0.37500000 </v>
    <v>       0.48075932       0.12500000       0.87500000 </v>
    <v>       0.98075932       0.12500000       0.87500000 </v>
    <v>       0.48075932       0.62500000       0.87500000 </v>
    <v>       0.98075932       0.62500000       0.87500000 </v>
    <v>       0.48606648       0.37500000       0.37500000 </v>
    <v>       0.98606648       0.37500000       0.37500000 </v>
    <v>       0.48606648       0.87500000       0.37500000 </v>
    <v>       0.98606648       0.87500000       0.37500000 </v>
    <v>       0.48606648       0.37500000       0.87500000 </v>
    <v>       0.98606648       0.37500000       0.87500000 </v>
    <v>       0.48606648       0.87500000       0.87500000 </v>
    <v>       0.98606648       0.87500000       0.87500000 </v>
    <v>       0.01393352       0.12500000       0.12500000 </v>
    <v>       0.51393352       0.12500000       0.12500000 </v>
    <v>       0.01393352       0.62500000       0.12500000 </v>
    <v>       0.51393352       0.62500000       0.12500000 </v>
    <v>       0.01393352       0.12500000       0.62500000 </v>
    <v>       0.51393352       0.12500000       0.62500000 </v>
    <v>       0.01393352       0.62500000       0.62500000 </v>
    <v>       0.51393352       0.62500000       0.62500000 </v>
    <v>       0.23606648       0.37500000       0.12500000 </v>
    <v>       0.73606648       0.37500000       0.12500000 </v>
    <v>       0.23606648       0.87500000       0.12500000 </v>
    <v>       0.73606648       0.87500000       0.12500000 </v>
    <v>       0.23606648       0.37500000       0.62500000 </v>
    <v>       0.73606648       0.37500000       0.62500000 </v>
    <v>       0.23606648       0.87500000       0.62500000 </v>
    <v>       0.73606648       0.87500000       0.62500000 </v>
    <v>       0.26393352       0.12500000       0.37500000 </v>
    <v>       0.76393352       0.12500000       0.37500000 </v>
    <v>       0.26393352       0.62500000       0.37500000 </v>
    <v>       0.76393352       0.62500000       0.37500000 </v>
    <v>       0.26393352       0.12500000       0.87500000 </v>
    <v>       0.76393352       0.12500000       0.87500000 </v>
    <v>       0.26393352       0.62500000       0.87500000 </v>
    <v>       0.76393352       0.62500000       0.87500000 </v>
    <v>       0.12500000       0.00000000       0.50106053 </v>
    <v>       0.62500000       0.00000000       0.50106053 </v>
    <v>       0.12500000       0.50000000       0.50106053 </v>
    <v>       0.62500000       0.50000000       0.50106053 </v>
    <v>       0.12500000       0.00000000       0.00106053 </v>
    <v>       0.62500000       0.00000000       0.00106053 </v>
    <v>       0.12500000       0.50000000       0.00106053 </v>
    <v>       0.62500000       0.50000000       0.00106053 </v>
    <v>       0.12500000       0.25000000       0.24893947 </v>
    <v>       0.62500000       0.25000000       0.24893947 </v>
    <v>       0.12500000       0.75000000       0.24893947 </v>
    <v>       0.62500000       0.75000000       0.24893947 </v>
    <v>       0.12500000       0.25000000       0.74893947 </v>
    <v>       0.62500000       0.25000000       0.74893947 </v>
    <v>       0.12500000       0.75000000       0.74893947 </v>
    <v>       0.62500000       0.75000000       0.74893947 </v>
    <v>       0.37500000       0.00000000       0.99893947 </v>
    <v>       0.87500000       0.00000000       0.99893947 </v>
    <v>       0.37500000       0.50000000       0.99893947 </v>
    <v>       0.87500000       0.50000000       0.99893947 </v>
    <v>       0.37500000       0.00000000       0.49893947 </v>
    <v>       0.87500000       0.00000000       0.49893947 </v>
    <v>       0.37500000       0.50000000       0.49893947 </v>
    <v>       0.87500000       0.50000000       0.49893947 </v>
    <v>       0.37500000       0.25000000       0.25106053 </v>
    <v>       0.87500000       0.25000000       0.25106053 </v>
    <v>       0.37500000       0.75000000       0.25106053 </v>
    <v>       0.87500000       0.75000000       0.25106053 </v>
    <v>       0.37500000       0.25000000       0.75106053 </v>
    <v>       0.87500000       0.25000000       0.75106053 </v>
    <v>       0.37500000       0.75000000       0.75106053 </v>
    <v>       0.87500000       0.75000000       0.75106053 </v>
    <v>       0.00000000       0.25089204       0.00000000 </v>
    <v>       0.50000000       0.25000000       0.00000000 </v>
    <v>       0.00000000       0.75000000       0.00000000 </v>
    <v>       0.50000000       0.75000000       0.00000000 </v>
    <v>       0.00000000       0.25000000       0.50000000 </v>
    <v>       0.50000000       0.25000000       0.50000000 </v>
    <v>       0.00000000       0.75000000       0.50000000 </v>
    <v>       0.50000000       0.75000000       0.50000000 </v>
    <v>       0.00000000       0.00000000       0.25000000 </v>
    <v>       0.50000000       0.00000000       0.25000000 </v>
    <v>       0.00000000       0.50000000       0.25000000 </v>
    <v>       0.50000000       0.50000000       0.25000000 </v>
    <v>       0.00000000       0.00000000       0.75000000 </v>
    <v>       0.50000000       0.00000000       0.75000000 </v>
    <v>       0.00000000       0.50000000       0.75000000 </v>
    <v>       0.50000000       0.50000000       0.75000000 </v>
    <v>       0.25000000       0.25000000       0.00000000 </v>
    <v>       0.75000000       0.25000000       0.00000000 </v>
    <v>       0.25000000       0.75000000       0.00000000 </v>
    <v>       0.75000000       0.75000000       0.00000000 </v>
    <v>       0.25000000       0.25000000       0.50000000 </v>
    <v>       0.75000000       0.25000000       0.50000000 </v>
    <v>       0.25000000       0.75000000       0.50000000 </v>
    <v>       0.75000000       0.75000000       0.50000000 </v>
    <v>       0.25000000       0.00000000       0.25000000 </v>
    <v>       0.75000000       0.00000000       0.25000000 </v>
    <v>       0.25000000       0.50000000       0.25000000 </v>
    <v>       0.75000000       0.50000000       0.25000000 </v>
    <v>       0.25000000       0.00000000       0.75000000 </v>
    <v>       0.75000000       0.00000000       0.75000000 </v>
    <v>       0.25000000       0.50000000       0.75000000 </v>
    <v>       0.75000000       0.50000000       0.75000000 </v>
   </varray>
  </structure>
  <varray name="forces" >
   <v>      -0.00008790      -0.00000713       0.00045400 </v>
   <v>       0.00001359       0.00005737      -0.00005205 </v>
   <v>       0.00001815      -0.00008308      -0.00001078 </v>
   <v>       0.00001293      -0.00005470      -0.00003942 </v>
   <v>      -0.00011922       0.00590588      -0.00089071 </v>
   <v>       0.00001051       0.00020866      -0.00011155 </v>
   <v>      -0.00001968      -0.00259354      -0.00012049 </v>
   <v>       0.00004684      -0.00020974      -0.00014921 </v>
   <v>       0.00072303      -0.00026213       0.00094061 </v>
   <v>      -0.00011376       0.00000848       0.00015256 </v>
   <v>      -0.00025141       0.00025022      -0.00053008 </v>
   <v>       0.00008849      -0.00001074       0.00004915 </v>
   <v>       0.00019877       0.00013825      -0.00117163 </v>
   <v>      -0.00006564      -0.00000686      -0.00001917 </v>
   <v>      -0.00106513      -0.00045336       0.00122953 </v>
   <v>       0.00017374       0.00001708       0.00016632 </v>
   <v>       0.00001106       0.00020797       0.00006143 </v>
   <v>      -0.00008038       0.00590480      -0.00073057 </v>
   <v>       0.00004481      -0.00021022       0.00002484 </v>
   <v>      -0.00002214      -0.00259451       0.00005073 </v>
   <v>       0.00001535       0.00005617       0.00012374 </v>
   <v>      -0.00008630      -0.00000556       0.00062397 </v>
   <v>       0.00001576      -0.00005442       0.00013477 </v>
   <v>       0.00001788      -0.00008529       0.00016377 </v>
   <v>       0.00017384       0.00001683      -0.00000936 </v>
   <v>      -0.00105974      -0.00045413       0.00104472 </v>
   <v>      -0.00006757      -0.00000313      -0.00019532 </v>
   <v>       0.00019264       0.00014009      -0.00135961 </v>
   <v>       0.00008828      -0.00001053      -0.00012630 </v>
   <v>      -0.00025457       0.00025110      -0.00070932 </v>
   <v>      -0.00011548       0.00001120      -0.00002175 </v>
   <v>       0.00073092      -0.00025997       0.00077032 </v>
   <v>       0.00018883       0.00034795       0.00016740 </v>
   <v>      -0.00036948       0.00038844       0.00023581 </v>
   <v>      -0.00008443      -0.00017342       0.00012619 </v>
   <v>      -0.00010145      -0.00016780       0.00009828 </v>
   <v>      -0.00070439       0.00047774       0.00019198 </v>
   <v>       0.00086149       0.00063384       0.00035917 </v>
   <v>       0.00077912      -0.00068268      -0.00066011 </v>
   <v>      -0.00101680      -0.00090711      -0.00105569 </v>
   <v>       0.00106684       0.00062825       0.00036146 </v>
   <v>      -0.00049792       0.00047107       0.00019214 </v>
   <v>      -0.00081731      -0.00090806      -0.00105589 </v>
   <v>       0.00098494      -0.00068014      -0.00065769 </v>
   <v>      -0.00016181       0.00038397       0.00023920 </v>
   <v>       0.00039509       0.00034246       0.00017251 </v>
   <v>       0.00010588      -0.00016634       0.00010452 </v>
   <v>       0.00012102      -0.00017084       0.00013126 </v>
   <v>       0.00117551       0.00866890       0.00175326 </v>
   <v>      -0.00006480       0.00019664      -0.00015803 </v>
   <v>      -0.00020706      -0.00194233       0.00032502 </v>
   <v>      -0.00009683      -0.00015241       0.00006778 </v>
   <v>      -0.00025668       0.00048533       0.00085256 </v>
   <v>      -0.00007147       0.00005513       0.00002499 </v>
   <v>      -0.00010706      -0.00032712      -0.00006811 </v>
   <v>      -0.00008044      -0.00009890       0.00005740 </v>
   <v>       0.00013340       0.00005512       0.00002925 </v>
   <v>      -0.00005074       0.00049164       0.00085050 </v>
   <v>       0.00012774      -0.00009504       0.00006172 </v>
   <v>       0.00009670      -0.00032556      -0.00006319 </v>
   <v>       0.00013958       0.00019134      -0.00015448 </v>
   <v>       0.00128084       0.00828794       0.00129647 </v>
   <v>       0.00010883      -0.00015198       0.00007141 </v>
   <v>       0.00000069      -0.00194610       0.00033132 </v>
   <v>       0.00003825       0.00017011       0.00006821 </v>
   <v>      -0.00002829       0.00105357      -0.00023676 </v>
   <v>       0.00002131      -0.00011782       0.00009464 </v>
   <v>      -0.00031193      -0.00197292       0.00185458 </v>
   <v>       0.00004519       0.00032061       0.00010853 </v>
   <v>      -0.00354229       0.02968565      -0.02196544 </v>
   <v>       0.00001511      -0.00036577      -0.00026128 </v>
   <v>       0.00004691      -0.00246383      -0.00113040 </v>
   <v>      -0.00325740       0.02849672      -0.02042420 </v>
   <v>       0.00007888       0.00031695       0.00010424 </v>
   <v>       0.00009507      -0.00246642      -0.00114028 </v>
   <v>       0.00005328      -0.00036555      -0.00026441 </v>
   <v>       0.00000076       0.00104227      -0.00024021 </v>
   <v>       0.00006469       0.00017032       0.00006596 </v>
   <v>      -0.00026667      -0.00197804       0.00185903 </v>
   <v>       0.00005881      -0.00011554       0.00009191 </v>
   <v>      -0.00088814       0.00171379      -0.00127643 </v>
   <v>       0.00085297       0.00133063      -0.00099790 </v>
   <v>       0.00185557      -0.00172131       0.00138072 </v>
   <v>      -0.00153831      -0.00142221       0.00091690 </v>
   <v>      -0.00016450       0.00021567       0.00048862 </v>
   <v>       0.00029131       0.00019972       0.00054025 </v>
   <v>      -0.00003348      -0.00039149      -0.00005418 </v>
   <v>      -0.00002763      -0.00035201      -0.00002420 </v>
   <v>       0.00034148       0.00018863       0.00053681 </v>
   <v>      -0.00013833       0.00020447       0.00048809 </v>
   <v>       0.00000498      -0.00034863      -0.00002827 </v>
   <v>       0.00000209      -0.00038955      -0.00005586 </v>
   <v>       0.00089824       0.00131976      -0.00099608 </v>
   <v>      -0.00084425       0.00169944      -0.00127557 </v>
   <v>      -0.00149812      -0.00142109       0.00092647 </v>
   <v>       0.00190679      -0.00172139       0.00138721 </v>
   <v>      -0.00025806      -0.00003931      -0.00045530 </v>
   <v>       0.00007873      -0.00000232      -0.00006038 </v>
   <v>       0.00034206      -0.00011638      -0.00048079 </v>
   <v>      -0.00014893       0.00002606      -0.00008287 </v>
   <v>      -0.00763266       0.00858101       0.00050832 </v>
   <v>       0.00054635      -0.00002798       0.00005803 </v>
   <v>       0.00772298       0.00822756       0.00118489 </v>
   <v>      -0.00066162      -0.00004889       0.00014225 </v>
   <v>      -0.00171986      -0.00289454      -0.00160210 </v>
   <v>       0.00005239      -0.00026860       0.00003940 </v>
   <v>      -0.00001362       0.00148375      -0.00005134 </v>
   <v>       0.00007222       0.00029314      -0.00004191 </v>
   <v>       0.00157033      -0.00270230      -0.00101768 </v>
   <v>      -0.00018095      -0.00024736       0.00001365 </v>
   <v>       0.00015180       0.00133104       0.00003263 </v>
   <v>      -0.00016438       0.00027855      -0.00008343 </v>
   <v>      -0.00065771      -0.00004861       0.00011549 </v>
   <v>       0.00765507       0.00817749       0.00114693 </v>
   <v>       0.00055291      -0.00002445       0.00003513 </v>
   <v>      -0.00770351       0.00862928       0.00048052 </v>
   <v>      -0.00015244       0.00002352      -0.00011064 </v>
   <v>       0.00033922      -0.00011139      -0.00051235 </v>
   <v>       0.00007625      -0.00000084      -0.00008723 </v>
   <v>      -0.00026286      -0.00004529      -0.00048388 </v>
   <v>      -0.00018356      -0.00024672       0.00003704 </v>
   <v>       0.00159754      -0.00269031      -0.00102556 </v>
   <v>      -0.00016360       0.00027981      -0.00005585 </v>
   <v>       0.00014852       0.00133150       0.00006804 </v>
   <v>       0.00005371      -0.00027492       0.00006513 </v>
   <v>      -0.00169347      -0.00289946      -0.00152558 </v>
   <v>       0.00007391       0.00029089      -0.00001498 </v>
   <v>      -0.00001517       0.00148200      -0.00002555 </v>
   <v>       0.00541293      -0.11137521       0.04646438 </v>
   <v>      -0.00002328      -0.00052412       0.00023338 </v>
   <v>       0.00006888       0.00342908      -0.00064455 </v>
   <v>      -0.00004805       0.00043339      -0.00002834 </v>
   <v>       0.00006764      -0.00022760      -0.00062295 </v>
   <v>      -0.00004475      -0.00010191      -0.00002784 </v>
   <v>       0.00000016       0.00075998      -0.00068042 </v>
   <v>      -0.00005314       0.00015903      -0.00016771 </v>
   <v>       0.00020798       0.00340680      -0.00497717 </v>
[...]
       <r>   -27.7830     0.0000   160.0000 </r>
       <r>   -27.5443     0.0000   160.0000 </r>
       <r>   -27.3056     0.0000   160.0000 </r>
       <r>   -27.0669     0.0000   160.0000 </r>
       <r>   -26.8282     0.0000   160.0000 </r>
       <r>   -26.5895     0.0000   160.0000 </r>
       <r>   -26.3508     0.0000   160.0000 </r>
       <r>   -26.1121     0.0000   160.0000 </r>
       <r>   -25.8734     0.0000   160.0000 </r>
       <r>   -25.6347     0.0000   160.0000 </r>
       <r>   -25.3960     0.0000   160.0000 </r>
       <r>   -25.1573     0.0000   160.0000 </r>
       <r>   -24.9186     0.0000   160.0000 </r>
       <r>   -24.6799     0.0000   160.0000 </r>
       <r>   -24.4412     0.0000   160.0000 </r>
       <r>   -24.2025     0.0000   160.0000 </r>
       <r>   -23.9638     0.0000   160.0000 </r>
       <r>   -23.7251     0.0000   160.0000 </r>
       <r>   -23.4864     0.0000   160.0000 </r>
       <r>   -23.2477     0.0000   160.0000 </r>
       <r>   -23.0090     0.0000   160.0000 </r>
       <r>   -22.7703     0.0000   160.0000 </r>
       <r>   -22.5316     0.0000   160.0000 </r>
       <r>   -22.2929     0.0000   160.0000 </r>
       <r>   -22.0542     0.0000   160.0000 </r>
       <r>   -21.8155     0.0000   160.0000 </r>
       <r>   -21.5768     0.0000   160.0000 </r>
       <r>   -21.3381     0.0000   160.0000 </r>
       <r>   -21.0994     0.0000   160.0000 </r>
       <r>   -20.8607     0.0000   160.0000 </r>
       <r>   -20.6220     0.0000   160.0000 </r>
       <r>   -20.3833     0.0000   160.0000 </r>
       <r>   -20.1446     0.0000   160.0000 </r>
       <r>   -19.9059     0.0000   160.0000 </r>
       <r>   -19.6672     0.0000   160.0000 </r>
       <r>   -19.4285     0.0000   160.0000 </r>
       <r>   -19.1898     0.0000   160.0000 </r>
       <r>   -18.9511     0.0000   160.0000 </r>
       <r>   -18.7124     0.0000   160.0000 </r>
       <r>   -18.4736     0.0000   160.0000 </r>
       <r>   -18.2349     0.0000   160.0000 </r>
       <r>   -17.9962     0.0000   160.0000 </r>
       <r>   -17.7575     0.0000   160.0000 </r>
       <r>   -17.5188     0.0000   160.0000 </r>
       <r>   -17.2801     0.0000   160.0000 </r>
       <r>   -17.0414     0.0000   160.0000 </r>
       <r>   -16.8027     0.0000   160.0000 </r>
       <r>   -16.5640     0.0000   160.0000 </r>
       <r>   -16.3253     0.0000   160.0000 </r>
       <r>   -16.0866     0.0000   160.0000 </r>
       <r>   -15.8479     0.0000   160.0000 </r>
       <r>   -15.6092     0.0000   160.0000 </r>
       <r>   -15.3705     0.0000   160.0000 </r>
       <r>   -15.1318     0.0000   160.0000 </r>
       <r>   -14.8931     0.0000   160.0000 </r>
       <r>   -14.6544     0.0000   160.0000 </r>
       <r>   -14.4157     0.0000   160.0000 </r>
       <r>   -14.1770     0.0000   160.0000 </r>
       <r>   -13.9383     0.0000   160.0000 </r>
       <r>   -13.6996     0.0000   160.0000 </r>
       <r>   -13.4609     0.0000   160.0000 </r>
       <r>   -13.2222     3.7511   160.8954 </r>
       <r>   -12.9835   106.3687   186.2858 </r>
       <r>   -12.7448    23.9388   192.0000 </r>
       <r>   -12.5061     0.0000   192.0000 </r>
       <r>   -12.2674     0.0000   192.0000 </r>
       <r>   -12.0287     0.0000   192.0000 </r>
       <r>   -11.7900     0.0000   192.0000 </r>
       <r>   -11.5513     0.0000   192.0000 </r>
       <r>   -11.3126     0.0000   192.0000 </r>
       <r>   -11.0739     0.0000   192.0000 </r>
       <r>   -10.8352     0.0000   192.0000 </r>
       <r>   -10.5965     0.0000   192.0000 </r>
       <r>   -10.3578     0.0000   192.0000 </r>
       <r>   -10.1191     0.0000   192.0000 </r>
       <r>    -9.8804     0.0000   192.0000 </r>
       <r>    -9.6417     0.0000   192.0000 </r>
       <r>    -9.4030     0.0000   192.0000 </r>
       <r>    -9.1643     0.0000   192.0000 </r>
       <r>    -8.9256     0.0000   192.0000 </r>
       <r>    -8.6869     0.0000   192.0000 </r>
       <r>    -8.4482     0.0000   192.0000 </r>
       <r>    -8.2095     0.0000   192.0000 </r>
       <r>    -7.9708     0.0000   192.0000 </r>
       <r>    -7.7321     0.0000   192.0000 </r>
       <r>    -7.4934     0.0718   192.0171 </r>
       <r>    -7.2547    39.3935   201.4204 </r>
       <r>    -7.0160    63.8193   216.6542 </r>
       <r>    -6.7773    29.6470   223.7310 </r>
       <r>    -6.5386     1.1270   224.0000 </r>
       <r>    -6.2999     0.0000   224.0000 </r>
       <r>    -6.0612     0.0000   224.0000 </r>
       <r>    -5.8225     0.0000   224.0000 </r>
       <r>    -5.5838     0.0000   224.0000 </r>
       <r>    -5.3451     0.0000   224.0000 </r>
       <r>    -5.1064     0.0000   224.0000 </r>
       <r>    -4.8677     0.0000   224.0000 </r>
       <r>    -4.6290     0.0000   224.0000 </r>
       <r>    -4.3903     0.0000   224.0000 </r>
       <r>    -4.1516     0.0000   224.0000 </r>
       <r>    -3.9129     0.0000   224.0000 </r>
       <r>    -3.6742     0.0000   224.0000 </r>
       <r>    -3.4355     0.0000   224.0000 </r>
       <r>    -3.1967     0.0000   224.0000 </r>
       <r>    -2.9580     0.0000   224.0000 </r>
       <r>    -2.7193     0.0000   224.0000 </r>
       <r>    -2.4806     0.0000   224.0000 </r>
       <r>    -2.2419     0.0000   224.0000 </r>
       <r>    -2.0032     0.0000   224.0000 </r>
       <r>    -1.7645     0.0000   224.0000 </r>
       <r>    -1.5258     0.0000   224.0000 </r>
       <r>    -1.2871     0.0000   224.0000 </r>
       <r>    -1.0484     0.0601   224.0143 </r>
       <r>    -0.8097    20.1075   228.8140 </r>
       <r>    -0.5710    28.6011   235.6412 </r>
       <r>    -0.3323    15.7323   239.3965 </r>
       <r>    -0.0936    14.5465   242.8688 </r>
       <r>     0.1451    25.6899   249.0010 </r>
       <r>     0.3838    50.1531   260.9726 </r>
       <r>     0.6225    79.1962   279.8769 </r>
       <r>     0.8612    71.4583   296.9341 </r>
       <r>     1.0999    76.7477   315.2539 </r>
       <r>     1.3386    30.6225   322.5635 </r>
       <r>     1.5773    36.8104   331.3502 </r>
       <r>     1.8160    49.5082   343.1679 </r>
       <r>     2.0547    44.2663   353.7344 </r>
       <r>     2.2934    28.0257   360.4242 </r>
       <r>     2.5321    50.6692   372.5190 </r>
       <r>     2.7708    67.7248   388.6850 </r>
       <r>     3.0095    82.4523   408.3665 </r>
       <r>     3.2482    29.9429   415.5139 </r>
       <r>     3.4869    21.6102   420.6723 </r>
       <r>     3.7256    47.0559   431.9046 </r>
       <r>     3.9643    55.8683   445.2405 </r>
       <r>     4.2030    11.5598   447.9998 </r>
       <r>     4.4417     0.0008   448.0000 </r>
       <r>     4.6804     0.0000   448.0000 </r>
       <r>     4.9191     0.0000   448.0000 </r>
       <r>     5.1578     0.0000   448.0000 </r>
       <r>     5.3965     0.0000   448.0000 </r>
       <r>     5.6352     0.0000   448.0000 </r>
       <r>     5.8739     0.0000   448.0000 </r>
       <r>     6.1126     0.0000   448.0000 </r>
       <r>     6.3513     0.0000   448.0000 </r>
       <r>     6.5900     1.1530   448.2752 </r>
       <r>     6.8287    52.3773   460.7778 </r>
       <r>     7.0674    77.0500   479.1697 </r>
       <r>     7.3061    58.2873   493.0830 </r>
       <r>     7.5448    68.4007   509.4104 </r>
       <r>     7.7835    62.9868   524.4454 </r>
       <r>     8.0222    97.9801   547.8334 </r>
       <r>     8.2609    70.6504   564.6978 </r>
       <r>     8.4996    35.7173   573.2235 </r>
       <r>     8.7383    13.5903   576.4676 </r>
       <r>     8.9770     8.3900   578.4703 </r>
       <r>     9.2157    11.4875   581.2124 </r>
       <r>     9.4544    20.3014   586.0583 </r>
       <r>     9.6931    25.5572   592.1589 </r>
       <r>     9.9318    41.5755   602.0830 </r>
       <r>    10.1705    32.8451   609.9232 </r>
       <r>    10.4092    33.7529   617.9801 </r>
       <r>    10.6479    32.9545   625.8464 </r>
       <r>    10.8866    23.3464   631.4192 </r>
       <r>    11.1253    34.0163   639.5389 </r>
       <r>    11.3640    23.3891   645.1220 </r>
       <r>    11.6027    35.3825   653.5678 </r>
       <r>    11.8414    52.3592   666.0661 </r>
       <r>    12.0802    57.8163   679.8669 </r>
       <r>    12.3189    46.2770   690.9133 </r>
       <r>    12.5576    31.1198   698.3416 </r>
       <r>    12.7963    32.4636   706.0907 </r>
       <r>    13.0350    35.2397   714.5025 </r>
       <r>    13.2737    36.7868   723.2836 </r>
       <r>    13.5124    28.8642   730.1735 </r>
       <r>    13.7511     7.6518   732.0000 </r>
       <r>    13.9898     0.0000   732.0000 </r>
       <r>    14.2285     0.0000   732.0000 </r>
       <r>    14.4672     0.0000   732.0000 </r>
       <r>    14.7059     0.0000   732.0000 </r>
       <r>    14.9446     0.0000   732.0000 </r>
       <r>    15.1833     0.0000   732.0000 </r>
       <r>    15.4220     0.0000   732.0000 </r>
       <r>    15.6607     0.0000   732.0000 </r>
       <r>    15.8994     0.0000   732.0000 </r>
       <r>    16.1381     0.0000   732.0000 </r>
       <r>    16.3768     0.0000   732.0000 </r>
       <r>    16.6155     0.0000   732.0000 </r>
       <r>    16.8542     0.0000   732.0000 </r>
      </set>
     </set>
    </array>
   </total>
  </dos>
 </calculation>
 <structure name="finalpos" >
  <crystal>
   <varray name="basis" >
    <v>      15.42482202       0.00000000       0.00000000 </v>
    <v>       0.00000000      11.21024242       0.00000000 </v>
    <v>       0.00000000       0.00000000      11.27702698 </v>
   </varray>
   <i name="volume">   1949.97833107 </i>
   <varray name="rec_basis" >
    <v>       0.06483057       0.00000000       0.00000000 </v>
    <v>       0.00000000       0.08920414       0.00000000 </v>
    <v>       0.00000000       0.00000000       0.08867585 </v>
   </varray>
  </crystal>
  <varray name="positions" >
   <v>       0.12500000       0.25000000       0.46751010 </v>
   <v>       0.62500000       0.25000000       0.46751010 </v>
   <v>       0.12500000       0.75000000       0.46751010 </v>
   <v>       0.62500000       0.75000000       0.46751010 </v>
   <v>       0.12500000       0.25000000       0.96751010 </v>
   <v>       0.62500000       0.25000000       0.96751010 </v>
   <v>       0.12500000       0.75000000       0.96751010 </v>
   <v>       0.62500000       0.75000000       0.96751010 </v>
   <v>       0.12500000       0.00000000       0.28248990 </v>
   <v>       0.62500000       0.00000000       0.28248990 </v>
   <v>       0.12500000       0.50000000       0.28248990 </v>
   <v>       0.62500000       0.50000000       0.28248990 </v>
   <v>       0.12500000       0.00000000       0.78248990 </v>
   <v>       0.62500000       0.00000000       0.78248990 </v>
   <v>       0.12500000       0.50000000       0.78248990 </v>
   <v>       0.62500000       0.50000000       0.78248990 </v>
   <v>       0.37500000       0.25000000       0.03248990 </v>
   <v>       0.87500000       0.25000000       0.03248990 </v>
   <v>       0.37500000       0.75000000       0.03248990 </v>
   <v>       0.87500000       0.75000000       0.03248990 </v>
   <v>       0.37500000       0.25000000       0.53248990 </v>
   <v>       0.87500000       0.25000000       0.53248990 </v>
   <v>       0.37500000       0.75000000       0.53248990 </v>
   <v>       0.87500000       0.75000000       0.53248990 </v>
   <v>       0.37500000       0.00000000       0.21751010 </v>
   <v>       0.87500000       0.00000000       0.21751010 </v>
   <v>       0.37500000       0.50000000       0.21751010 </v>
   <v>       0.87500000       0.50000000       0.21751010 </v>
   <v>       0.37500000       0.00000000       0.71751010 </v>
   <v>       0.87500000       0.00000000       0.71751010 </v>
   <v>       0.37500000       0.50000000       0.71751010 </v>
   <v>       0.87500000       0.50000000       0.71751010 </v>
   <v>       0.26924068       0.37500000       0.37500000 </v>
   <v>       0.76924068       0.37500000       0.37500000 </v>
   <v>       0.26924068       0.87500000       0.37500000 </v>
   <v>       0.76924068       0.87500000       0.37500000 </v>
   <v>       0.26924068       0.37500000       0.87500000 </v>
   <v>       0.76924068       0.37500000       0.87500000 </v>
   <v>       0.26924068       0.87500000       0.87500000 </v>
   <v>       0.76924068       0.87500000       0.87500000 </v>
   <v>       0.23075932       0.12500000       0.12500000 </v>
   <v>       0.73075932       0.12500000       0.12500000 </v>
   <v>       0.23075932       0.62500000       0.12500000 </v>
   <v>       0.73075932       0.62500000       0.12500000 </v>
   <v>       0.23075932       0.12500000       0.62500000 </v>
   <v>       0.73075932       0.12500000       0.62500000 </v>
   <v>       0.23075932       0.62500000       0.62500000 </v>
   <v>       0.73075932       0.62500000       0.62500000 </v>
   <v>       0.01924068       0.37500000       0.12500000 </v>
   <v>       0.51924068       0.37500000       0.12500000 </v>
   <v>       0.01924068       0.87500000       0.12500000 </v>
   <v>       0.51924068       0.87500000       0.12500000 </v>
   <v>       0.01924068       0.37500000       0.62500000 </v>
   <v>       0.51924068       0.37500000       0.62500000 </v>
   <v>       0.01924068       0.87500000       0.62500000 </v>
   <v>       0.51924068       0.87500000       0.62500000 </v>
   <v>       0.48075932       0.12500000       0.37500000 </v>
   <v>       0.98075932       0.12500000       0.37500000 </v>
   <v>       0.48075932       0.62500000       0.37500000 </v>
   <v>       0.98075932       0.62500000       0.37500000 </v>
   <v>       0.48075932       0.12500000       0.87500000 </v>
   <v>       0.98075932       0.12500000       0.87500000 </v>
   <v>       0.48075932       0.62500000       0.87500000 </v>
   <v>       0.98075932       0.62500000       0.87500000 </v>
   <v>       0.48606648       0.37500000       0.37500000 </v>
   <v>       0.98606648       0.37500000       0.37500000 </v>
   <v>       0.48606648       0.87500000       0.37500000 </v>
   <v>       0.98606648       0.87500000       0.37500000 </v>
   <v>       0.48606648       0.37500000       0.87500000 </v>
   <v>       0.98606648       0.37500000       0.87500000 </v>
   <v>       0.48606648       0.87500000       0.87500000 </v>
   <v>       0.98606648       0.87500000       0.87500000 </v>
   <v>       0.01393352       0.12500000       0.12500000 </v>
   <v>       0.51393352       0.12500000       0.12500000 </v>
   <v>       0.01393352       0.62500000       0.12500000 </v>
   <v>       0.51393352       0.62500000       0.12500000 </v>
   <v>       0.01393352       0.12500000       0.62500000 </v>
   <v>       0.51393352       0.12500000       0.62500000 </v>
   <v>       0.01393352       0.62500000       0.62500000 </v>
   <v>       0.51393352       0.62500000       0.62500000 </v>
   <v>       0.23606648       0.37500000       0.12500000 </v>
   <v>       0.73606648       0.37500000       0.12500000 </v>
   <v>       0.23606648       0.87500000       0.12500000 </v>
   <v>       0.73606648       0.87500000       0.12500000 </v>
   <v>       0.23606648       0.37500000       0.62500000 </v>
   <v>       0.73606648       0.37500000       0.62500000 </v>
   <v>       0.23606648       0.87500000       0.62500000 </v>
   <v>       0.73606648       0.87500000       0.62500000 </v>
   <v>       0.26393352       0.12500000       0.37500000 </v>
   <v>       0.76393352       0.12500000       0.37500000 </v>
   <v>       0.26393352       0.62500000       0.37500000 </v>
   <v>       0.76393352       0.62500000       0.37500000 </v>
   <v>       0.26393352       0.12500000       0.87500000 </v>
   <v>       0.76393352       0.12500000       0.87500000 </v>
   <v>       0.26393352       0.62500000       0.87500000 </v>
   <v>       0.76393352       0.62500000       0.87500000 </v>
   <v>       0.12500000       0.00000000       0.50106053 </v>
   <v>       0.62500000       0.00000000       0.50106053 </v>
   <v>       0.12500000       0.50000000       0.50106053 </v>
   <v>       0.62500000       0.50000000       0.50106053 </v>
   <v>       0.12500000       0.00000000       0.00106053 </v>
   <v>       0.62500000       0.00000000       0.00106053 </v>
   <v>       0.12500000       0.50000000       0.00106053 </v>
   <v>       0.62500000       0.50000000       0.00106053 </v>
   <v>       0.12500000       0.25000000       0.24893947 </v>
   <v>       0.62500000       0.25000000       0.24893947 </v>
   <v>       0.12500000       0.75000000       0.24893947 </v>
   <v>       0.62500000       0.75000000       0.24893947 </v>
   <v>       0.12500000       0.25000000       0.74893947 </v>
   <v>       0.62500000       0.25000000       0.74893947 </v>
   <v>       0.12500000       0.75000000       0.74893947 </v>
   <v>       0.62500000       0.75000000       0.74893947 </v>
   <v>       0.37500000       0.00000000       0.99893947 </v>
   <v>       0.87500000       0.00000000       0.99893947 </v>
   <v>       0.37500000       0.50000000       0.99893947 </v>
   <v>       0.87500000       0.50000000       0.99893947 </v>
   <v>       0.37500000       0.00000000       0.49893947 </v>
   <v>       0.87500000       0.00000000       0.49893947 </v>
   <v>       0.37500000       0.50000000       0.49893947 </v>
   <v>       0.87500000       0.50000000       0.49893947 </v>
   <v>       0.37500000       0.25000000       0.25106053 </v>
   <v>       0.87500000       0.25000000       0.25106053 </v>
   <v>       0.37500000       0.75000000       0.25106053 </v>
   <v>       0.87500000       0.75000000       0.25106053 </v>
   <v>       0.37500000       0.25000000       0.75106053 </v>
   <v>       0.87500000       0.25000000       0.75106053 </v>
   <v>       0.37500000       0.75000000       0.75106053 </v>
   <v>       0.87500000       0.75000000       0.75106053 </v>
   <v>       0.00000000       0.25089204       0.00000000 </v>
   <v>       0.50000000       0.25000000       0.00000000 </v>
   <v>       0.00000000       0.75000000       0.00000000 </v>
   <v>       0.50000000       0.75000000       0.00000000 </v>
   <v>       0.00000000       0.25000000       0.50000000 </v>
   <v>       0.50000000       0.25000000       0.50000000 </v>
   <v>       0.00000000       0.75000000       0.50000000 </v>
   <v>       0.50000000       0.75000000       0.50000000 </v>
   <v>       0.00000000       0.00000000       0.25000000 </v>
   <v>       0.50000000       0.00000000       0.25000000 </v>
   <v>       0.00000000       0.50000000       0.25000000 </v>
   <v>       0.50000000       0.50000000       0.25000000 </v>
   <v>       0.00000000       0.00000000       0.75000000 </v>
   <v>       0.50000000       0.00000000       0.75000000 </v>
   <v>       0.00000000       0.50000000       0.75000000 </v>
   <v>       0.50000000       0.50000000       0.75000000 </v>
   <v>       0.25000000       0.25000000       0.00000000 </v>
   <v>       0.75000000       0.25000000       0.00000000 </v>
   <v>       0.25000000       0.75000000       0.00000000 </v>
   <v>       0.75000000       0.75000000       0.00000000 </v>
   <v>       0.25000000       0.25000000       0.50000000 </v>
   <v>       0.75000000       0.25000000       0.50000000 </v>
   <v>       0.25000000       0.75000000       0.50000000 </v>
   <v>       0.75000000       0.75000000       0.50000000 </v>
   <v>       0.25000000       0.00000000       0.25000000 </v>
   <v>       0.75000000       0.00000000       0.25000000 </v>
   <v>       0.25000000       0.50000000       0.25000000 </v>
   <v>       0.75000000       0.50000000       0.25000000 </v>
   <v>       0.25000000       0.00000000       0.75000000 </v>
   <v>       0.75000000       0.00000000       0.75000000 </v>
   <v>       0.25000000       0.50000000       0.75000000 </v>
   <v>       0.75000000       0.50000000       0.75000000 </v>
  </varray>
 </structure>
</modeling>
