   12   12   60    2
  0.1496832E+02  0.9271355E-09  0.7028872E-09  0.7028872E-09  0.5000000E-15
  1.000000000000000E-004
  CAR 
 unknown system                          
     84     47     60
 
  0.0000000E+00  0.0000000E+00  0.0000000E+00  0.6944444E-02
    1      -56.893069    -50.235684   1.000000   1.000000
    2      -56.892462    -50.233939   1.000000   1.000000
    3      -56.664384    -50.201129   1.000000   1.000000
    4      -55.389578    -50.199902   1.000000   1.000000
    5      -55.388857    -50.187344   1.000000   1.000000
    6      -55.329084    -50.185836   1.000000   1.000000
    7      -55.328610    -50.015299   1.000000   1.000000
    8      -55.194715    -49.976021   1.000000   1.000000
    9      -55.160873    -49.958693   1.000000   1.000000
   10      -44.513004    -44.499636   1.000000   1.000000
   11      -44.493298    -44.480131   1.000000   1.000000
   12      -44.467423    -44.454185   1.000000   1.000000
   13      -44.452259    -44.439169   1.000000   1.000000
   14      -16.784286    -16.086431   1.000000   1.000000
   15      -10.369089    -10.119354   1.000000   1.000000
   16       -9.545343     -9.291920   1.000000   1.000000
   17       -9.416051     -9.196404   1.000000   1.000000
   18       -9.317200     -9.087949   1.000000   1.000000
   19       -3.466435     -2.014777   1.000000   1.000000
   20       -2.392322     -1.173186   1.000000   1.000000
   21       -2.385368     -0.888999   1.000000   1.000000
   22       -2.087981     -0.829013   1.000000   1.000000
   23       -2.019120     -0.538852   1.000000   1.000000
   24       -1.960293     -0.070789   1.000000   1.000000
   25       -1.670813      0.803712   1.000000   1.000000
   26       -1.467446      1.011855   1.000000   1.000000
   27       -1.321255      1.364016   1.000000   1.000000
   28       -1.313706      1.488066   1.000000   1.000000
   29       -1.089446      1.526356   1.000000   1.000000
   30       -0.907371      1.866360   1.000000   1.000000
   31       -0.755760      2.575266   1.000000   1.000000
   32       -0.743496      2.608497   1.000000   1.000000
   33       -0.076500      2.843356   1.000000   1.000000
   34       -0.075318      2.855919   1.000000   1.000000
   35        0.289509      3.027744   1.000000   1.000000
   36        0.357521      3.359707   1.000000   1.000000
   37        0.673794      5.615279   1.000000   0.000000
   38        0.839971      6.635439   1.000000   0.000000
   39        1.045244      7.050205   1.000000   0.000000
   40        1.436191      7.231539   1.000000   0.000000
   41        1.897124      7.603502   1.000000   0.000000
   42        1.951762      7.616527   1.000000   0.000000
   43        2.325305      7.622048   1.000000   0.000000
   44        2.397504      7.887427   1.000000   0.000000
   45        2.429646      7.954220   1.000000   0.000000
   46        2.754400      8.251612   1.000000   0.000000
   47        2.872135      8.359293   1.000000   0.000000
   48        3.012163      8.415571   1.000000   0.000000
   49        7.524847      8.753594   0.000000   0.000000
   50        8.965644      9.500819   0.000000   0.000000
   51        9.112745      9.511567   0.000000   0.000000
   52        9.375988      9.952680   0.000000   0.000000
   53       10.057195     10.837387   0.000000   0.000000
   54       10.627943     10.978244   0.000000   0.000000
   55       10.942240     11.349900   0.000000   0.000000
   56       11.400257     11.875571   0.000000   0.000000
   57       11.731103     12.450741   0.000000   0.000000
   58       11.941347     12.494435   0.000000   0.000000
   59       12.201340     12.736069   0.000000   0.000000
   60       12.259116     12.742652   0.000000   0.000000
 
  0.2500000E+00  0.8866081E-17 -0.4983249E-15  0.1388889E-01
    1      -56.892967    -50.236517   1.000000   1.000000
    2      -56.892533    -50.233160   1.000000   1.000000
    3      -56.664377    -50.202077   1.000000   1.000000
    4      -55.389468    -50.198933   1.000000   1.000000
    5      -55.388955    -50.187614   1.000000   1.000000
    6      -55.329109    -50.185572   1.000000   1.000000
    7      -55.328584    -50.015256   1.000000   1.000000
    8      -55.194715    -49.976002   1.000000   1.000000
    9      -55.160869    -49.958687   1.000000   1.000000
   10      -44.512761    -44.499399   1.000000   1.000000
   11      -44.493812    -44.480623   1.000000   1.000000
   12      -44.466973    -44.453756   1.000000   1.000000
   13      -44.452387    -44.439291   1.000000   1.000000
   14      -16.782192    -16.083954   1.000000   1.000000
   15      -10.328302    -10.082216   1.000000   1.000000
   16       -9.657938     -9.405088   1.000000   1.000000
   17       -9.403126     -9.171356   1.000000   1.000000
   18       -9.298552     -9.072588   1.000000   1.000000
   19       -3.361544     -1.886982   1.000000   1.000000
   20       -2.358952     -1.320602   1.000000   1.000000
   21       -2.340539     -0.829760   1.000000   1.000000
   22       -2.143549     -0.718689   1.000000   1.000000
   23       -1.984011     -0.308552   1.000000   1.000000
   24       -1.855035     -0.090253   1.000000   1.000000
   25       -1.641508      0.975943   1.000000   1.000000
   26       -1.511156      1.046268   1.000000   1.000000
   27       -1.434369      1.220652   1.000000   1.000000
   28       -1.373085      1.396100   1.000000   1.000000
   29       -0.976909      1.722866   1.000000   1.000000
   30       -0.873088      1.815038   1.000000   1.000000
   31       -0.839704      2.100422   1.000000   1.000000
   32       -0.698055      2.397579   1.000000   1.000000
   33       -0.211219      2.734746   1.000000   1.000000
   34        0.138706      2.892548   1.000000   1.000000
   35        0.211864      2.967168   1.000000   1.000000
   36        0.385136      3.368828   1.000000   1.000000
   37        0.682701      5.903403   1.000000   0.000000
   38        0.767889      6.933638   1.000000   0.000000
   39        1.056550      7.099513   1.000000   0.000000
   40        1.516540      7.205458   1.000000   0.000000
   41        1.590285      7.528814   1.000000   0.000000
   42        2.151015      7.645947   1.000000   0.000000
   43        2.231704      7.686771   1.000000   0.000000
   44        2.360807      7.851656   1.000000   0.000000
   45        2.395815      7.949667   1.000000   0.000000
   46        2.682779      8.121881   1.000000   0.000000
   47        2.768059      8.307355   1.000000   0.000000
   48        3.170323      8.495722   1.000000   0.000000
   49        8.071017      8.837150   0.000000   0.000000
   50        8.332831      9.084021   0.000000   0.000000
   51        9.104189      9.666832   0.000000   0.000000
   52        9.342338      9.805009   0.000000   0.000000
   53       10.057630     10.561537   0.000000   0.000000
   54       10.656471     11.082524   0.000000   0.000000
   55       10.711079     11.433635   0.000000   0.000000
   56       10.769410     11.437698   0.000000   0.000000
   57       11.541141     12.204566   0.000000   0.000000
   58       11.830238     12.291633   0.000000   0.000000
   59       12.151778     12.786978   0.000000   0.000000
   60       12.440986     13.215721   0.000000   0.000000
 
  0.5000000E+00  0.1773216E-16 -0.9966497E-15  0.6944444E-02
    1      -56.892845    -50.237087   1.000000   1.000000
    2      -56.892680    -50.232673   1.000000   1.000000
    3      -56.664382    -50.202637   1.000000   1.000000
    4      -55.389265    -50.198367   1.000000   1.000000
    5      -55.389159    -50.187825   1.000000   1.000000
    6      -55.329130    -50.185366   1.000000   1.000000
    7      -55.328562    -50.015218   1.000000   1.000000
    8      -55.194716    -49.975983   1.000000   1.000000
    9      -55.160869    -49.958689   1.000000   1.000000
   10      -44.512498    -44.499142   1.000000   1.000000
   11      -44.494369    -44.481160   1.000000   1.000000
   12      -44.466510    -44.453314   1.000000   1.000000
   13      -44.452550    -44.439447   1.000000   1.000000
   14      -16.780126    -16.081505   1.000000   1.000000
   15      -10.273882    -10.034395   1.000000   1.000000
   16       -9.772226     -9.512359   1.000000   1.000000
   17       -9.381944     -9.123826   1.000000   1.000000
   18       -9.299454     -9.095874   1.000000   1.000000
   19       -3.213059     -1.818865   1.000000   1.000000
   20       -2.359514     -1.234790   1.000000   1.000000
   21       -2.323831     -0.877564   1.000000   1.000000
   22       -2.194204     -0.830467   1.000000   1.000000
   23       -2.026546      0.060170   1.000000   1.000000
   24       -1.789114      0.548879   1.000000   1.000000
   25       -1.610448      0.639110   1.000000   1.000000
   26       -1.575365      0.894338   1.000000   1.000000
   27       -1.491264      1.030305   1.000000   1.000000
   28       -1.447435      1.230477   1.000000   1.000000
   29       -0.866553      1.499187   1.000000   1.000000
   30       -0.795226      1.974711   1.000000   1.000000
   31       -0.551819      2.079817   1.000000   1.000000
   32       -0.413384      2.329714   1.000000   1.000000
   33       -0.350533      2.499511   1.000000   1.000000
   34       -0.309932      2.828753   1.000000   1.000000
   35        0.324352      3.026233   1.000000   1.000000
   36        0.404972      3.361658   1.000000   1.000000
   37        0.573421      6.234773   1.000000   0.000000
   38        0.769097      7.138841   1.000000   0.000000
   39        1.093990      7.308150   1.000000   0.000000
   40        1.170184      7.327179   1.000000   0.000000
   41        1.604284      7.336466   1.000000   0.000000
   42        2.024492      7.382562   1.000000   0.000000
   43        2.341438      7.544021   1.000000   0.000000
   44        2.395257      7.816707   1.000000   0.000000
   45        2.432995      8.110621   1.000000   0.000000
   46        2.804228      8.131040   1.000000   0.000000
   47        2.878408      8.156019   1.000000   0.000000
   48        2.990049      8.323511   1.000000   0.000000
   49        8.331318      8.715506   0.000000   0.000000
   50        8.398122      9.363048   0.000000   0.000000
   51        9.060314      9.731049   0.000000   0.000000
   52        9.404316     10.347965   0.000000   0.000000
   53        9.835010     10.550769   0.000000   0.000000
   54       10.227802     10.822420   0.000000   0.000000
   55       10.696986     11.208380   0.000000   0.000000
   56       11.103609     12.328553   0.000000   0.000000
   57       11.991964     12.495068   0.000000   0.000000
   58       12.437155     12.997293   0.000000   0.000000
   59       12.644150     13.548927   0.000000   0.000000
   60       13.322685     14.418524   0.000000   0.000000
 
  0.4677177E-18  0.1666667E+00 -0.3409156E-15  0.2777778E-01
    1      -56.893611    -50.235339   1.000000   1.000000
    2      -56.892445    -50.234664   1.000000   1.000000
    3      -56.663957    -50.200961   1.000000   1.000000
    4      -55.390179    -50.200285   1.000000   1.000000
    5      -55.389048    -50.187132   1.000000   1.000000
    6      -55.329025    -50.185782   1.000000   1.000000
    7      -55.328595    -50.014797   1.000000   1.000000
    8      -55.194578    -49.975832   1.000000   1.000000
    9      -55.160543    -49.958301   1.000000   1.000000
   10      -44.511261    -44.497909   1.000000   1.000000
   11      -44.494223    -44.481043   1.000000   1.000000
   12      -44.467579    -44.454325   1.000000   1.000000
   13      -44.452494    -44.439383   1.000000   1.000000
   14      -16.720262    -16.024279   1.000000   1.000000
   15      -10.265655    -10.017547   1.000000   1.000000
   16       -9.526422     -9.267870   1.000000   1.000000
   17       -9.415773     -9.191255   1.000000   1.000000
   18       -9.284767     -9.053510   1.000000   1.000000
   19       -3.564716     -2.013305   1.000000   1.000000
   20       -2.942774     -1.569848   1.000000   1.000000
   21       -2.315100     -1.046889   1.000000   1.000000
   22       -2.236385     -0.535651   1.000000   1.000000
   23       -1.939815     -0.409361   1.000000   1.000000
   24       -1.896067     -0.177163   1.000000   1.000000
   25       -1.628683      0.775200   1.000000   1.000000
   26       -1.481516      0.891784   1.000000   1.000000
   27       -1.443314      0.961122   1.000000   1.000000
   28       -1.294879      1.049481   1.000000   1.000000
   29       -1.022509      1.544952   1.000000   1.000000
   30       -0.889320      1.709129   1.000000   1.000000
   31       -0.848931      1.921049   1.000000   1.000000
   32       -0.730808      2.323202   1.000000   1.000000
   33       -0.352483      2.647643   1.000000   1.000000
   34        0.007713      2.991065   1.000000   1.000000
   35        0.130677      3.090925   1.000000   1.000000
   36        0.437811      3.352353   1.000000   1.000000
   37        0.850693      5.920827   1.000000   0.000000
   38        0.940998      6.822240   1.000000   0.000000
   39        1.051215      7.044746   1.000000   0.000000
   40        1.297658      7.349341   1.000000   0.000000
   41        1.466943      7.482790   1.000000   0.000000
   42        1.768609      7.654164   1.000000   0.000000
   43        2.062113      7.972900   1.000000   0.000000
   44        2.106958      8.003982   1.000000   0.000000
   45        2.438056      8.089265   1.000000   0.000000
   46        2.870340      8.324691   1.000000   0.000000
   47        2.994832      8.356447   1.000000   0.000000
   48        3.351542      8.884909   1.000000   0.000000
   49        8.243258      9.270802   0.000000   0.000000
   50        9.122237      9.822525   0.000000   0.000000
   51        9.824133     10.293818   0.000000   0.000000
   52        9.901363     10.372053   0.000000   0.000000
   53       10.109881     10.536249   0.000000   0.000000
   54       10.435227     10.825897   0.000000   0.000000
   55       10.593933     11.012385   0.000000   0.000000
   56       10.898158     11.610742   0.000000   0.000000
   57       11.439196     11.970590   0.000000   0.000000
   58       11.545444     12.439104   0.000000   0.000000
   59       12.337828     12.644547   0.000000   0.000000
   60       13.185628     13.886609   0.000000   0.000000
 
  0.2500000E+00  0.1666667E+00 -0.8125967E-15  0.2777778E-01
    1      -56.893556    -50.235640   1.000000   1.000000
    2      -56.892493    -50.234358   1.000000   1.000000
    3      -56.663957    -50.201220   1.000000   1.000000
    4      -55.390135    -50.200054   1.000000   1.000000
    5      -55.389097    -50.187235   1.000000   1.000000
    6      -55.329033    -50.185688   1.000000   1.000000
    7      -55.328590    -50.014778   1.000000   1.000000
    8      -55.194579    -49.975829   1.000000   1.000000
    9      -55.160545    -49.958297   1.000000   1.000000
   10      -44.511195    -44.497844   1.000000   1.000000
   11      -44.494367    -44.481181   1.000000   1.000000
   12      -44.467482    -44.454234   1.000000   1.000000
   13      -44.452518    -44.439405   1.000000   1.000000
   14      -16.719602    -16.023501   1.000000   1.000000
   15      -10.250866    -10.003413   1.000000   1.000000
   16       -9.572571     -9.309853   1.000000   1.000000
   17       -9.389295     -9.180547   1.000000   1.000000
   18       -9.293897     -9.048891   1.000000   1.000000
   19       -3.538576     -1.977424   1.000000   1.000000
   20       -2.924559     -1.530518   1.000000   1.000000
   21       -2.342763     -1.079662   1.000000   1.000000
   22       -2.195658     -0.516512   1.000000   1.000000
   23       -1.913810     -0.372362   1.000000   1.000000
   24       -1.845120     -0.149988   1.000000   1.000000
   25       -1.648628      0.692576   1.000000   1.000000
   26       -1.516072      0.795174   1.000000   1.000000
   27       -1.481396      1.078556   1.000000   1.000000
   28       -1.232992      1.179792   1.000000   1.000000
   29       -1.009221      1.509260   1.000000   1.000000
   30       -0.907329      1.711000   1.000000   1.000000
   31       -0.843433      1.869142   1.000000   1.000000
   32       -0.825402      2.223348   1.000000   1.000000
   33       -0.345142      2.602364   1.000000   1.000000
   34        0.078153      2.975390   1.000000   1.000000
   35        0.131679      3.024531   1.000000   1.000000
   36        0.476319      3.370054   1.000000   1.000000
   37        0.747138      5.968829   1.000000   0.000000
   38        0.826244      6.963256   1.000000   0.000000
   39        1.160914      7.135515   1.000000   0.000000
   40        1.354577      7.277538   1.000000   0.000000
   41        1.556759      7.565051   1.000000   0.000000
   42        1.649250      7.635271   1.000000   0.000000
   43        1.915904      7.927872   1.000000   0.000000
   44        2.081974      7.982402   1.000000   0.000000
   45        2.548999      8.159673   1.000000   0.000000
   46        2.900477      8.184759   1.000000   0.000000
   47        2.999187      8.379555   1.000000   0.000000
   48        3.327167      8.802908   1.000000   0.000000
   49        8.400135      9.380554   0.000000   0.000000
   50        9.014294      9.643644   0.000000   0.000000
   51        9.620633     10.249451   0.000000   0.000000
   52       10.006179     10.371426   0.000000   0.000000
   53       10.187853     10.485401   0.000000   0.000000
   54       10.496982     10.970669   0.000000   0.000000
   55       10.702460     11.145448   0.000000   0.000000
   56       11.296724     11.967361   0.000000   0.000000
   57       11.652093     12.068170   0.000000   0.000000
   58       12.099708     12.644587   0.000000   0.000000
   59       12.506409     13.081715   0.000000   0.000000
   60       13.672390     14.136361   0.000000   0.000000
 
  0.5000000E+00  0.1666667E+00 -0.1256522E-14  0.2777778E-01
    1      -56.893329    -50.236224   1.000000   1.000000
    2      -56.892733    -50.233780   1.000000   1.000000
    3      -56.663961    -50.201789   1.000000   1.000000
    4      -55.389885    -50.199583   1.000000   1.000000
    5      -55.389355    -50.187525   1.000000   1.000000
    6      -55.329055    -50.185426   1.000000   1.000000
    7      -55.328575    -50.014719   1.000000   1.000000
    8      -55.194582    -49.975810   1.000000   1.000000
    9      -55.160548    -49.958288   1.000000   1.000000
   10      -44.510935    -44.497591   1.000000   1.000000
   11      -44.494909    -44.481702   1.000000   1.000000
   12      -44.467068    -44.453841   1.000000   1.000000
   13      -44.452652    -44.439533   1.000000   1.000000
   14      -16.717140    -16.020597   1.000000   1.000000
   15      -10.175504     -9.933343   1.000000   1.000000
   16       -9.717074     -9.457288   1.000000   1.000000
   17       -9.369634     -9.128520   1.000000   1.000000
   18       -9.297048     -9.071103   1.000000   1.000000
   19       -3.380471     -1.806580   1.000000   1.000000
   20       -2.878688     -1.514929   1.000000   1.000000
   21       -2.416485     -0.886549   1.000000   1.000000
   22       -2.092713     -0.670233   1.000000   1.000000
   23       -1.991937     -0.159787   1.000000   1.000000
   24       -1.759102      0.003749   1.000000   1.000000
   25       -1.629845      0.409446   1.000000   1.000000
   26       -1.548644      0.912238   1.000000   1.000000
   27       -1.520736      1.031725   1.000000   1.000000
   28       -1.319582      1.157115   1.000000   1.000000
   29       -0.956797      1.481211   1.000000   1.000000
   30       -0.904577      1.577568   1.000000   1.000000
   31       -0.847524      1.817189   1.000000   1.000000
   32       -0.629158      2.138135   1.000000   1.000000
   33       -0.251415      2.285483   1.000000   1.000000
   34        0.117389      2.965280   1.000000   1.000000
   35        0.169469      3.084851   1.000000   1.000000
   36        0.424375      3.379132   1.000000   1.000000
   37        0.572264      6.289317   1.000000   0.000000
   38        0.646975      7.025207   1.000000   0.000000
   39        0.867020      7.235190   1.000000   0.000000
   40        1.152932      7.341163   1.000000   0.000000
   41        1.661381      7.449627   1.000000   0.000000
   42        1.800326      7.626419   1.000000   0.000000
   43        2.042801      7.709656   1.000000   0.000000
   44        2.142616      8.065454   1.000000   0.000000
   45        2.670435      8.126643   1.000000   0.000000
   46        2.821688      8.192376   1.000000   0.000000
   47        3.017301      8.393639   1.000000   0.000000
   48        3.201831      8.586556   1.000000   0.000000
   49        8.818771      9.196465   0.000000   0.000000
   50        9.035366      9.826623   0.000000   0.000000
   51        9.155361     10.191066   0.000000   0.000000
   52        9.729320     10.348324   0.000000   0.000000
   53        9.896837     10.570865   0.000000   0.000000
   54       10.497715     10.954108   0.000000   0.000000
   55       10.755221     11.349497   0.000000   0.000000
   56       11.491329     11.884597   0.000000   0.000000
   57       11.891125     12.266984   0.000000   0.000000
   58       12.251664     13.077435   0.000000   0.000000
   59       12.762451     13.296804   0.000000   0.000000
   60       13.163303     13.688023   0.000000   0.000000
 
 -0.2500000E+00  0.1666667E+00  0.1851649E-15  0.2777778E-01
    1      -56.893390    -50.236085   1.000000   1.000000
    2      -56.892642    -50.233898   1.000000   1.000000
    3      -56.663956    -50.201662   1.000000   1.000000
    4      -55.389963    -50.199673   1.000000   1.000000
    5      -55.389263    -50.187444   1.000000   1.000000
    6      -55.329040    -50.185486   1.000000   1.000000
    7      -55.328576    -50.014730   1.000000   1.000000
    8      -55.194575    -49.975808   1.000000   1.000000
    9      -55.160538    -49.958287   1.000000   1.000000
   10      -44.511001    -44.497655   1.000000   1.000000
   11      -44.494761    -44.481559   1.000000   1.000000
   12      -44.467165    -44.453931   1.000000   1.000000
   13      -44.452622    -44.439505   1.000000   1.000000
   14      -16.717787    -16.021363   1.000000   1.000000
   15      -10.199014     -9.954660   1.000000   1.000000
   16       -9.670108     -9.416396   1.000000   1.000000
   17       -9.395900     -9.144407   1.000000   1.000000
   18       -9.280564     -9.062542   1.000000   1.000000
   19       -3.427417     -1.826739   1.000000   1.000000
   20       -2.888480     -1.513552   1.000000   1.000000
   21       -2.411792     -1.040657   1.000000   1.000000
   22       -2.053930     -0.514278   1.000000   1.000000
   23       -1.940824     -0.281373   1.000000   1.000000
   24       -1.825237     -0.113826   1.000000   1.000000
   25       -1.627461      0.684745   1.000000   1.000000
   26       -1.590929      0.817180   1.000000   1.000000
   27       -1.512841      1.010240   1.000000   1.000000
   28       -1.283387      1.233194   1.000000   1.000000
   29       -0.982200      1.366403   1.000000   1.000000
   30       -0.921568      1.691266   1.000000   1.000000
   31       -0.866032      1.821253   1.000000   1.000000
   32       -0.633434      2.025043   1.000000   1.000000
   33       -0.344692      2.444364   1.000000   1.000000
   34        0.063929      2.992559   1.000000   1.000000
   35        0.161668      3.113497   1.000000   1.000000
   36        0.449773      3.375932   1.000000   1.000000
   37        0.705884      6.195929   1.000000   0.000000
   38        0.725767      7.004798   1.000000   0.000000
   39        1.044559      7.158367   1.000000   0.000000
   40        1.072165      7.352066   1.000000   0.000000
   41        1.668294      7.493729   1.000000   0.000000
   42        1.788785      7.612365   1.000000   0.000000
   43        2.026547      7.757422   1.000000   0.000000
   44        2.126144      8.028122   1.000000   0.000000
   45        2.603172      8.078048   1.000000   0.000000
   46        2.832259      8.206348   1.000000   0.000000
   47        2.939736      8.349294   1.000000   0.000000
   48        3.281047      8.662519   1.000000   0.000000
   49        8.546097      9.324218   0.000000   0.000000
   50        8.938203      9.768174   0.000000   0.000000
   51        9.422695     10.028137   0.000000   0.000000
   52        9.751043     10.339230   0.000000   0.000000
   53        9.977428     10.571860   0.000000   0.000000
   54       10.513991     11.203973   0.000000   0.000000
   55       10.917429     11.425377   0.000000   0.000000
   56       11.219691     11.623288   0.000000   0.000000
   57       12.097942     12.500462   0.000000   0.000000
   58       12.166724     12.611579   0.000000   0.000000
   59       12.714871     12.791617   0.000000   0.000000
   60       12.865024     13.305778   0.000000   0.000000
 
  0.5017546E-18  0.3333333E+00  0.4286417E-14  0.2777778E-01
    1      -56.894682    -50.236426   1.000000   1.000000
    2      -56.892427    -50.233971   1.000000   1.000000
    3      -56.663092    -50.202502   1.000000   1.000000
    4      -55.391366    -50.199579   1.000000   1.000000
    5      -55.389447    -50.186628   1.000000   1.000000
    6      -55.328871    -50.185783   1.000000   1.000000
    7      -55.328595    -50.013792   1.000000   1.000000
    8      -55.194314    -49.975456   1.000000   1.000000
    9      -55.159882    -49.957521   1.000000   1.000000
   10      -44.506786    -44.493476   1.000000   1.000000
   11      -44.496978    -44.483767   1.000000   1.000000
   12      -44.468054    -44.454763   1.000000   1.000000
   13      -44.452886    -44.439738   1.000000   1.000000
   14      -16.587347    -15.895731   1.000000   1.000000
   15      -10.009563     -9.760514   1.000000   1.000000
   16       -9.542445     -9.268666   1.000000   1.000000
   17       -9.365179     -9.145093   1.000000   1.000000
   18       -9.258287     -9.020368   1.000000   1.000000
   19       -3.868411     -2.328259   1.000000   1.000000
   20       -3.699305     -2.006756   1.000000   1.000000
   21       -2.545681     -0.846836   1.000000   1.000000
   22       -2.128568     -0.670449   1.000000   1.000000
   23       -1.908095     -0.397197   1.000000   1.000000
   24       -1.778010     -0.022143   1.000000   1.000000
   25       -1.711472      0.100545   1.000000   1.000000
   26       -1.631462      0.465488   1.000000   1.000000
   27       -1.421937      0.815885   1.000000   1.000000
   28       -1.266401      0.945083   1.000000   1.000000
   29       -1.041563      1.114962   1.000000   1.000000
   30       -0.921964      1.348654   1.000000   1.000000
   31       -0.776493      1.773071   1.000000   1.000000
   32       -0.523614      1.889592   1.000000   1.000000
   33       -0.417392      2.202360   1.000000   1.000000
   34       -0.304880      3.005499   1.000000   1.000000
   35       -0.028576      3.072338   1.000000   1.000000
   36        0.338540      3.267462   1.000000   1.000000
   37        0.623862      6.437278   1.000000   0.000000
   38        0.842020      6.818158   1.000000   0.000000
   39        0.925956      7.033237   1.000000   0.000000
   40        1.066003      7.364786   1.000000   0.000000
   41        1.399906      7.528885   1.000000   0.000000
   42        1.688699      7.743956   1.000000   0.000000
   43        1.899458      7.986232   1.000000   0.000000
   44        2.094012      8.149978   1.000000   0.000000
   45        2.646706      8.282176   1.000000   0.000000
   46        2.836377      8.417910   1.000000   0.000000
   47        2.972023      8.678517   1.000000   0.000000
   48        3.394384      8.846051   1.000000   0.000000
   49        8.582208      9.402726   0.000000   0.000000
   50        8.912219      9.783302   0.000000   0.000000
   51        9.578745     10.551955   0.000000   0.000000
   52       10.140198     10.777804   0.000000   0.000000
   53       10.374179     10.887671   0.000000   0.000000
   54       10.461108     11.264061   0.000000   0.000000
   55       11.146439     11.648437   0.000000   0.000000
   56       11.516294     12.084325   0.000000   0.000000
   57       11.685557     12.217162   0.000000   0.000000
   58       12.397922     12.923937   0.000000   0.000000
   59       12.606957     13.200531   0.000000   0.000000
   60       12.930780     13.418586   0.000000   0.000000
 
  0.2500000E+00  0.3333333E+00  0.3791427E-14  0.2777778E-01
    1      -56.894714    -50.236540   1.000000   1.000000
    2      -56.892405    -50.233896   1.000000   1.000000
    3      -56.663100    -50.202595   1.000000   1.000000
    4      -55.391404    -50.199454   1.000000   1.000000
    5      -55.389418    -50.186550   1.000000   1.000000
    6      -55.328877    -50.185860   1.000000   1.000000
    7      -55.328597    -50.013810   1.000000   1.000000
    8      -55.194320    -49.975463   1.000000   1.000000
    9      -55.159886    -49.957532   1.000000   1.000000
   10      -44.506824    -44.493513   1.000000   1.000000
   11      -44.496927    -44.483718   1.000000   1.000000
   12      -44.468078    -44.454787   1.000000   1.000000
   13      -44.452887    -44.439737   1.000000   1.000000
   14      -16.587758    -15.896204   1.000000   1.000000
   15      -10.026167     -9.777107   1.000000   1.000000
   16       -9.529642     -9.251452   1.000000   1.000000
   17       -9.342707     -9.139824   1.000000   1.000000
   18       -9.266641     -9.016496   1.000000   1.000000
   19       -3.853344     -2.315360   1.000000   1.000000
   20       -3.739688     -2.098268   1.000000   1.000000
   21       -2.531120     -0.890599   1.000000   1.000000
   22       -2.218809     -0.674534   1.000000   1.000000
   23       -1.837464     -0.164838   1.000000   1.000000
   24       -1.780640     -0.102826   1.000000   1.000000