 108 108   0   0
  0.1367340E+02  0.1151037E-08  0.1132740E-08  0.1132740E-08  0.5000000E-15
  1.000000000000000E-004
  CAR 
 unknown system                          
     17.82439787    -54.65657625  301      5.29122943      1.00000000
    -54.657  0.0000E+00  0.0000E+00  0.0000E+00  0.0000E+00
    -54.415  0.0000E+00  0.0000E+00  0.0000E+00  0.0000E+00
    -54.173  0.0000E+00  0.0000E+00  0.0000E+00  0.0000E+00
    -53.932  0.0000E+00  0.0000E+00  0.0000E+00  0.0000E+00
    -53.690  0.0000E+00  0.0000E+00  0.0000E+00  0.0000E+00
    -53.449  0.0000E+00  0.0000E+00  0.0000E+00  0.0000E+00
    -53.207  0.0000E+00  0.0000E+00  0.0000E+00  0.0000E+00
    -52.965  0.0000E+00  0.0000E+00  0.0000E+00  0.0000E+00
    -52.724  0.0000E+00  0.0000E+00  0.0000E+00  0.0000E+00
    -52.482  0.0000E+00  0.0000E+00  0.0000E+00  0.0000E+00
    -52.241  0.0000E+00  0.0000E+00  0.0000E+00  0.0000E+00
    -51.999  0.0000E+00  0.0000E+00  0.0000E+00  0.0000E+00
    -51.757  0.0000E+00  0.0000E+00  0.0000E+00  0.0000E+00
    -51.516  0.4362E-03  0.0000E+00  0.1054E-03  0.0000E+00
    -51.274  0.9848E+02  0.0000E+00  0.2379E+02  0.0000E+00
    -51.033  0.4348E+02  0.0000E+00  0.3430E+02  0.0000E+00
    -50.791  0.7046E+01  0.0000E+00  0.3600E+02  0.0000E+00
    -50.549  0.0000E+00  0.0000E+00  0.3600E+02  0.0000E+00
    -50.308  0.2051E-03  0.0000E+00  0.3600E+02  0.0000E+00
    -50.066  0.9803E+02  0.0000E+00  0.5969E+02  0.0000E+00
    -49.825  0.5150E+02  0.0000E+00  0.7213E+02  0.0000E+00
    -49.583  0.1233E+03  0.0000E+00  0.1019E+03  0.0000E+00
    -49.341  0.2517E+02  0.0000E+00  0.1080E+03  0.0000E+00
    -49.100  0.0000E+00  0.0000E+00  0.1080E+03  0.0000E+00
    -48.858  0.0000E+00  0.0000E+00  0.1080E+03  0.0000E+00
    -48.616  0.0000E+00  0.0000E+00  0.1080E+03  0.0000E+00
    -48.375  0.0000E+00  0.0000E+00  0.1080E+03  0.0000E+00
    -48.133  0.0000E+00  0.0000E+00  0.1080E+03  0.0000E+00
    -47.892  0.0000E+00  0.0000E+00  0.1080E+03  0.0000E+00
    -47.650  0.0000E+00  0.0000E+00  0.1080E+03  0.0000E+00
    -47.408  0.0000E+00  0.0000E+00  0.1080E+03  0.0000E+00
    -47.167  0.0000E+00  0.0000E+00  0.1080E+03  0.0000E+00
    -46.925  0.0000E+00  0.0000E+00  0.1080E+03  0.0000E+00
    -46.684  0.0000E+00  0.1485E+01  0.1080E+03  0.3588E+00
    -46.442  0.0000E+00  0.9788E+02  0.1080E+03  0.2401E+02
    -46.200  0.0000E+00  0.1764E+03  0.1080E+03  0.6662E+02
    -45.959  0.0000E+00  0.8301E+02  0.1080E+03  0.8667E+02
    -45.717  0.0000E+00  0.8827E+02  0.1080E+03  0.1080E+03
    -45.476  0.0000E+00  0.3356E-03  0.1080E+03  0.1080E+03
    -45.234  0.0000E+00  0.0000E+00  0.1080E+03  0.1080E+03
    -44.992  0.0000E+00  0.0000E+00  0.1080E+03  0.1080E+03
    -44.751  0.0000E+00  0.0000E+00  0.1080E+03  0.1080E+03
    -44.509  0.0000E+00  0.0000E+00  0.1080E+03  0.1080E+03
    -44.268  0.0000E+00  0.0000E+00  0.1080E+03  0.1080E+03
    -44.026  0.0000E+00  0.0000E+00  0.1080E+03  0.1080E+03
    -43.784  0.0000E+00  0.0000E+00  0.1080E+03  0.1080E+03
    -43.543  0.0000E+00  0.0000E+00  0.1080E+03  0.1080E+03
    -43.301  0.0000E+00  0.0000E+00  0.1080E+03  0.1080E+03
    -43.060  0.0000E+00  0.0000E+00  0.1080E+03  0.1080E+03
    -42.818  0.0000E+00  0.0000E+00  0.1080E+03  0.1080E+03
    -42.576  0.0000E+00  0.0000E+00  0.1080E+03  0.1080E+03
    -42.335  0.0000E+00  0.0000E+00  0.1080E+03  0.1080E+03
    -42.093  0.0000E+00  0.0000E+00  0.1080E+03  0.1080E+03
    -41.852  0.0000E+00  0.0000E+00  0.1080E+03  0.1080E+03
    -41.610  0.0000E+00  0.0000E+00  0.1080E+03  0.1080E+03
    -41.368  0.0000E+00  0.0000E+00  0.1080E+03  0.1080E+03
    -41.127  0.0000E+00  0.0000E+00  0.1080E+03  0.1080E+03
    -40.885  0.0000E+00  0.0000E+00  0.1080E+03  0.1080E+03
    -40.644  0.0000E+00  0.0000E+00  0.1080E+03  0.1080E+03
    -40.402  0.4116E-12  0.8024E-12  0.1080E+03  0.1080E+03
    -40.160  0.1748E+02  0.1975E+02  0.1122E+03  0.1128E+03
    -39.919  0.8186E+02  0.7959E+02  0.1320E+03  0.1320E+03
    -39.677  0.0000E+00  0.0000E+00  0.1320E+03  0.1320E+03
    -39.436  0.0000E+00  0.0000E+00  0.1320E+03  0.1320E+03
    -39.194  0.0000E+00  0.0000E+00  0.1320E+03  0.1320E+03
    -38.952  0.0000E+00  0.0000E+00  0.1320E+03  0.1320E+03
    -38.711  0.0000E+00  0.0000E+00  0.1320E+03  0.1320E+03
    -38.469  0.0000E+00  0.0000E+00  0.1320E+03  0.1320E+03
    -38.228  0.0000E+00  0.0000E+00  0.1320E+03  0.1320E+03
    -37.986  0.0000E+00  0.0000E+00  0.1320E+03  0.1320E+03
    -37.744  0.0000E+00  0.0000E+00  0.1320E+03  0.1320E+03
    -37.503  0.0000E+00  0.0000E+00  0.1320E+03  0.1320E+03
    -37.261  0.0000E+00  0.0000E+00  0.1320E+03  0.1320E+03
    -37.020  0.0000E+00  0.0000E+00  0.1320E+03  0.1320E+03
    -36.778  0.0000E+00  0.0000E+00  0.1320E+03  0.1320E+03
    -36.536  0.0000E+00  0.0000E+00  0.1320E+03  0.1320E+03
    -36.295  0.0000E+00  0.0000E+00  0.1320E+03  0.1320E+03
    -36.053  0.0000E+00  0.0000E+00  0.1320E+03  0.1320E+03
    -35.812  0.0000E+00  0.0000E+00  0.1320E+03  0.1320E+03
    -35.570  0.0000E+00  0.0000E+00  0.1320E+03  0.1320E+03
    -35.328  0.0000E+00  0.0000E+00  0.1320E+03  0.1320E+03
    -35.087  0.0000E+00  0.0000E+00  0.1320E+03  0.1320E+03
    -34.845  0.0000E+00  0.0000E+00  0.1320E+03  0.1320E+03
    -34.604  0.0000E+00  0.0000E+00  0.1320E+03  0.1320E+03
    -34.362  0.0000E+00  0.0000E+00  0.1320E+03  0.1320E+03
    -34.120  0.0000E+00  0.0000E+00  0.1320E+03  0.1320E+03
    -33.879  0.0000E+00  0.0000E+00  0.1320E+03  0.1320E+03
    -33.637  0.0000E+00  0.0000E+00  0.1320E+03  0.1320E+03
    -33.395  0.0000E+00  0.0000E+00  0.1320E+03  0.1320E+03
    -33.154  0.0000E+00  0.0000E+00  0.1320E+03  0.1320E+03
    -32.912  0.0000E+00  0.0000E+00  0.1320E+03  0.1320E+03
    -32.671  0.0000E+00  0.0000E+00  0.1320E+03  0.1320E+03
    -32.429  0.0000E+00  0.0000E+00  0.1320E+03  0.1320E+03
    -32.187  0.0000E+00  0.0000E+00  0.1320E+03  0.1320E+03
    -31.946  0.0000E+00  0.0000E+00  0.1320E+03  0.1320E+03
    -31.704  0.0000E+00  0.0000E+00  0.1320E+03  0.1320E+03
    -31.463  0.0000E+00  0.0000E+00  0.1320E+03  0.1320E+03
    -31.221  0.0000E+00  0.0000E+00  0.1320E+03  0.1320E+03
    -30.979  0.0000E+00  0.0000E+00  0.1320E+03  0.1320E+03
    -30.738  0.0000E+00  0.0000E+00  0.1320E+03  0.1320E+03
    -30.496  0.0000E+00  0.0000E+00  0.1320E+03  0.1320E+03
    -30.255  0.0000E+00  0.0000E+00  0.1320E+03  0.1320E+03
    -30.013  0.0000E+00  0.0000E+00  0.1320E+03  0.1320E+03
    -29.771  0.0000E+00  0.0000E+00  0.1320E+03  0.1320E+03
    -29.530  0.0000E+00  0.0000E+00  0.1320E+03  0.1320E+03
    -29.288  0.0000E+00  0.0000E+00  0.1320E+03  0.1320E+03
    -29.047  0.0000E+00  0.0000E+00  0.1320E+03  0.1320E+03
    -28.805  0.0000E+00  0.0000E+00  0.1320E+03  0.1320E+03
    -28.563  0.0000E+00  0.0000E+00  0.1320E+03  0.1320E+03
    -28.322  0.0000E+00  0.0000E+00  0.1320E+03  0.1320E+03
    -28.080  0.0000E+00  0.0000E+00  0.1320E+03  0.1320E+03
    -27.839  0.0000E+00  0.0000E+00  0.1320E+03  0.1320E+03
    -27.597  0.0000E+00  0.0000E+00  0.1320E+03  0.1320E+03
    -27.355  0.0000E+00  0.0000E+00  0.1320E+03  0.1320E+03
    -27.114  0.0000E+00  0.0000E+00  0.1320E+03  0.1320E+03
    -26.872  0.0000E+00  0.0000E+00  0.1320E+03  0.1320E+03
    -26.631  0.0000E+00  0.0000E+00  0.1320E+03  0.1320E+03
    -26.389  0.0000E+00  0.0000E+00  0.1320E+03  0.1320E+03
    -26.147  0.0000E+00  0.0000E+00  0.1320E+03  0.1320E+03
    -25.906  0.0000E+00  0.0000E+00  0.1320E+03  0.1320E+03
    -25.664  0.0000E+00  0.0000E+00  0.1320E+03  0.1320E+03
    -25.423  0.0000E+00  0.0000E+00  0.1320E+03  0.1320E+03
    -25.181  0.0000E+00  0.0000E+00  0.1320E+03  0.1320E+03
    -24.939  0.0000E+00  0.0000E+00  0.1320E+03  0.1320E+03
    -24.698  0.0000E+00  0.0000E+00  0.1320E+03  0.1320E+03
    -24.456  0.0000E+00  0.0000E+00  0.1320E+03  0.1320E+03
    -24.215  0.0000E+00  0.0000E+00  0.1320E+03  0.1320E+03
    -23.973  0.0000E+00  0.0000E+00  0.1320E+03  0.1320E+03
    -23.731  0.0000E+00  0.0000E+00  0.1320E+03  0.1320E+03
    -23.490  0.0000E+00  0.0000E+00  0.1320E+03  0.1320E+03
    -23.248  0.0000E+00  0.0000E+00  0.1320E+03  0.1320E+03
    -23.007  0.0000E+00  0.0000E+00  0.1320E+03  0.1320E+03
    -22.765  0.0000E+00  0.0000E+00  0.1320E+03  0.1320E+03
    -22.523  0.0000E+00  0.0000E+00  0.1320E+03  0.1320E+03
    -22.282  0.0000E+00  0.0000E+00  0.1320E+03  0.1320E+03
    -22.040  0.0000E+00  0.0000E+00  0.1320E+03  0.1320E+03
    -21.799  0.0000E+00  0.0000E+00  0.1320E+03  0.1320E+03
    -21.557  0.0000E+00  0.0000E+00  0.1320E+03  0.1320E+03
    -21.315  0.0000E+00  0.0000E+00  0.1320E+03  0.1320E+03
    -21.074  0.0000E+00  0.0000E+00  0.1320E+03  0.1320E+03
    -20.832  0.0000E+00  0.0000E+00  0.1320E+03  0.1320E+03
    -20.591  0.0000E+00  0.0000E+00  0.1320E+03  0.1320E+03
    -20.349  0.0000E+00  0.0000E+00  0.1320E+03  0.1320E+03
    -20.107  0.0000E+00  0.0000E+00  0.1320E+03  0.1320E+03
    -19.866  0.0000E+00  0.0000E+00  0.1320E+03  0.1320E+03
    -19.624  0.0000E+00  0.0000E+00  0.1320E+03  0.1320E+03
    -19.383  0.0000E+00  0.0000E+00  0.1320E+03  0.1320E+03
    -19.141  0.0000E+00  0.0000E+00  0.1320E+03  0.1320E+03
    -18.899  0.0000E+00  0.0000E+00  0.1320E+03  0.1320E+03
    -18.658  0.0000E+00  0.0000E+00  0.1320E+03  0.1320E+03
    -18.416  0.0000E+00  0.0000E+00  0.1320E+03  0.1320E+03
    -18.174  0.0000E+00  0.0000E+00  0.1320E+03  0.1320E+03
    -17.933  0.0000E+00  0.0000E+00  0.1320E+03  0.1320E+03
    -17.691  0.0000E+00  0.0000E+00  0.1320E+03  0.1320E+03
    -17.450  0.0000E+00  0.0000E+00  0.1320E+03  0.1320E+03
    -17.208  0.0000E+00  0.0000E+00  0.1320E+03  0.1320E+03
    -16.966  0.0000E+00  0.0000E+00  0.1320E+03  0.1320E+03
    -16.725  0.0000E+00  0.0000E+00  0.1320E+03  0.1320E+03
    -16.483  0.0000E+00  0.0000E+00  0.1320E+03  0.1320E+03
    -16.242  0.0000E+00  0.0000E+00  0.1320E+03  0.1320E+03
    -16.000  0.0000E+00  0.0000E+00  0.1320E+03  0.1320E+03
    -15.758  0.0000E+00  0.0000E+00  0.1320E+03  0.1320E+03
    -15.517  0.0000E+00  0.0000E+00  0.1320E+03  0.1320E+03
    -15.275  0.0000E+00  0.0000E+00  0.1320E+03  0.1320E+03
    -15.034  0.0000E+00  0.0000E+00  0.1320E+03  0.1320E+03
    -14.792  0.0000E+00  0.0000E+00  0.1320E+03  0.1320E+03
    -14.550  0.0000E+00  0.0000E+00  0.1320E+03  0.1320E+03
    -14.309  0.0000E+00  0.0000E+00  0.1320E+03  0.1320E+03
    -14.067  0.0000E+00  0.0000E+00  0.1320E+03  0.1320E+03
    -13.826  0.1575E-11  0.0000E+00  0.1320E+03  0.1320E+03
    -13.584  0.2353E+01  0.0000E+00  0.1326E+03  0.1320E+03
    -13.342  0.5799E+02  0.1760E-05  0.1466E+03  0.1320E+03
    -13.101  0.3885E+02  0.1907E+02  0.1560E+03  0.1366E+03
    -12.859  0.1369E+00  0.7624E+02  0.1560E+03  0.1550E+03
    -12.618  0.0000E+00  0.4026E+01  0.1560E+03  0.1560E+03
    -12.376  0.0000E+00  0.0000E+00  0.1560E+03  0.1560E+03
    -12.134  0.0000E+00  0.0000E+00  0.1560E+03  0.1560E+03
    -11.893  0.0000E+00  0.0000E+00  0.1560E+03  0.1560E+03
    -11.651  0.0000E+00  0.0000E+00  0.1560E+03  0.1560E+03
    -11.410  0.0000E+00  0.0000E+00  0.1560E+03  0.1560E+03
    -11.168  0.0000E+00  0.0000E+00  0.1560E+03  0.1560E+03
    -10.926  0.0000E+00  0.0000E+00  0.1560E+03  0.1560E+03
    -10.685  0.0000E+00  0.0000E+00  0.1560E+03  0.1560E+03
    -10.443  0.0000E+00  0.0000E+00  0.1560E+03  0.1560E+03
    -10.202  0.0000E+00  0.0000E+00  0.1560E+03  0.1560E+03
     -9.960  0.0000E+00  0.0000E+00  0.1560E+03  0.1560E+03
     -9.718  0.0000E+00  0.0000E+00  0.1560E+03  0.1560E+03
     -9.477  0.0000E+00  0.0000E+00  0.1560E+03  0.1560E+03
     -9.235  0.0000E+00  0.0000E+00  0.1560E+03  0.1560E+03
     -8.994  0.0000E+00  0.0000E+00  0.1560E+03  0.1560E+03
     -8.752  0.0000E+00  0.0000E+00  0.1560E+03  0.1560E+03
     -8.510  0.0000E+00  0.0000E+00  0.1560E+03  0.1560E+03
     -8.269  0.0000E+00  0.0000E+00  0.1560E+03  0.1560E+03
     -8.027  0.0000E+00  0.0000E+00  0.1560E+03  0.1560E+03
     -7.786  0.3374E-13  0.0000E+00  0.1560E+03  0.1560E+03
     -7.544  0.2244E+00  0.4255E-16  0.1561E+03  0.1560E+03
     -7.302  0.2240E+02  0.6777E-01  0.1615E+03  0.1560E+03
     -7.061  0.4721E+02  0.2454E+02  0.1729E+03  0.1619E+03
     -6.819  0.2926E+02  0.4657E+02  0.1799E+03  0.1732E+03
     -6.578  0.2435E+00  0.2667E+02  0.1800E+03  0.1796E+03
     -6.336  0.0000E+00  0.1490E+01  0.1800E+03  0.1800E+03
     -6.094  0.0000E+00  0.0000E+00  0.1800E+03  0.1800E+03
     -5.853  0.0000E+00  0.0000E+00  0.1800E+03  0.1800E+03
     -5.611  0.0000E+00  0.0000E+00  0.1800E+03  0.1800E+03
     -5.370  0.0000E+00  0.0000E+00  0.1800E+03  0.1800E+03
     -5.128  0.0000E+00  0.0000E+00  0.1800E+03  0.1800E+03
     -4.886  0.0000E+00  0.0000E+00  0.1800E+03  0.1800E+03
     -4.645  0.0000E+00  0.0000E+00  0.1800E+03  0.1800E+03
     -4.403  0.0000E+00  0.0000E+00  0.1800E+03  0.1800E+03
     -4.161  0.0000E+00  0.0000E+00  0.1800E+03  0.1800E+03
     -3.920  0.0000E+00  0.0000E+00  0.1800E+03  0.1800E+03
     -3.678  0.0000E+00  0.0000E+00  0.1800E+03  0.1800E+03
     -3.437  0.0000E+00  0.0000E+00  0.1800E+03  0.1800E+03
     -3.195  0.0000E+00  0.0000E+00  0.1800E+03  0.1800E+03
     -2.953  0.0000E+00  0.0000E+00  0.1800E+03  0.1800E+03
     -2.712  0.0000E+00  0.0000E+00  0.1800E+03  0.1800E+03
     -2.470  0.0000E+00  0.0000E+00  0.1800E+03  0.1800E+03
     -2.229  0.1464E-01  0.0000E+00  0.1800E+03  0.1800E+03
     -1.987  0.2727E+02  0.0000E+00  0.1866E+03  0.1800E+03
     -1.745  0.5012E+02  0.0000E+00  0.1987E+03  0.1800E+03
     -1.504  0.1581E+02  0.0000E+00  0.2025E+03  0.1800E+03
     -1.262  0.1903E+02  0.0000E+00  0.2071E+03  0.1800E+03
     -1.021  0.5917E+02  0.1600E-03  0.2214E+03  0.1800E+03
     -0.779  0.7327E+02  0.1909E+01  0.2391E+03  0.1805E+03
     -0.537  0.6482E+02  0.1001E+02  0.2548E+03  0.1829E+03
     -0.296  0.6330E+02  0.2040E+02  0.2701E+03  0.1878E+03
     -0.054  0.6206E+02  0.3415E+02  0.2851E+03  0.1961E+03
      0.187  0.5481E+02  0.2516E+02  0.2983E+03  0.2021E+03
      0.429  0.1067E+03  0.3706E+02  0.3241E+03  0.2111E+03
      0.671  0.5268E+02  0.3617E+02  0.3368E+03  0.2198E+03
      0.912  0.4680E+02  0.5714E+02  0.3481E+03  0.2336E+03
      1.154  0.5300E+02  0.5594E+02  0.3609E+03  0.2472E+03
      1.395  0.6427E+02  0.1980E+02  0.3765E+03  0.2519E+03
      1.637  0.5397E+02  0.2523E+02  0.3895E+03  0.2580E+03
      1.879  0.5844E+02  0.4735E+02  0.4036E+03  0.2695E+03
      2.120  0.4838E+02  0.3570E+02  0.4153E+03  0.2781E+03
      2.362  0.2753E+02  0.3020E+02  0.4220E+03  0.2854E+03
      2.603  0.3529E+02  0.3337E+02  0.4305E+03  0.2935E+03
      2.845  0.3374E+02  0.4465E+02  0.4386E+03  0.3042E+03
      3.087  0.3661E+02  0.3815E+02  0.4475E+03  0.3135E+03
      3.328  0.3371E+02  0.5964E+02  0.4556E+03  0.3279E+03
      3.570  0.2572E+02  0.2786E+02  0.4618E+03  0.3346E+03
      3.811  0.4118E+02  0.9323E+01  0.4718E+03  0.3369E+03
      4.053  0.4595E+02  0.1087E+02  0.4829E+03  0.3395E+03
      4.295  0.3576E+02  0.4076E+02  0.4915E+03  0.3493E+03
      4.536  0.3623E+02  0.2271E+02  0.5003E+03  0.3548E+03
      4.778  0.1541E+02  0.1990E+02  0.5040E+03  0.3596E+03
      5.019  0.1253E-01  0.1578E+01  0.5040E+03  0.3600E+03
      5.261  0.0000E+00  0.1826E-04  0.5040E+03  0.3600E+03
      5.503  0.0000E+00  0.0000E+00  0.5040E+03  0.3600E+03
      5.744  0.0000E+00  0.0000E+00  0.5040E+03  0.3600E+03
      5.986  0.0000E+00  0.2244E-07  0.5040E+03  0.3600E+03
      6.227  0.0000E+00  0.3159E+00  0.5040E+03  0.3601E+03
      6.469  0.0000E+00  0.3684E+01  0.5040E+03  0.3610E+03
      6.711  0.4689E-02  0.9763E+01  0.5040E+03  0.3633E+03
      6.952  0.1486E+00  0.3275E+02  0.5040E+03  0.3712E+03
      7.194  0.3168E+00  0.7775E+02  0.5041E+03  0.3900E+03
      7.435  0.7589E+00  0.6508E+02  0.5043E+03  0.4057E+03
      7.677  0.2531E+01  0.5152E+02  0.5049E+03  0.4182E+03
      7.919  0.2210E+01  0.8557E+02  0.5054E+03  0.4389E+03
      8.160  0.2119E+01  0.7828E+02  0.5060E+03  0.4578E+03
      8.402  0.5337E+01  0.5285E+02  0.5072E+03  0.4705E+03
      8.643  0.7900E+01  0.7295E+02  0.5092E+03  0.4882E+03
      8.885  0.1654E+02  0.4503E+02  0.5131E+03  0.4991E+03
      9.127  0.1347E+02  0.2213E+02  0.5164E+03  0.5044E+03
      9.368  0.1856E+02  0.4831E+01  0.5209E+03  0.5056E+03
      9.610  0.1985E+02  0.6647E+01  0.5257E+03  0.5072E+03
      9.851  0.1784E+02  0.1156E+02  0.5300E+03  0.5100E+03
     10.093  0.1802E+02  0.1443E+02  0.5343E+03  0.5134E+03
     10.335  0.1976E+02  0.1814E+02  0.5391E+03  0.5178E+03
     10.576  0.2425E+02  0.3198E+02  0.5450E+03  0.5256E+03
     10.818  0.2129E+02  0.2821E+02  0.5501E+03  0.5324E+03
     11.060  0.2851E+02  0.2191E+02  0.5570E+03  0.5377E+03
     11.301  0.2878E+02  0.2486E+02  0.5640E+03  0.5437E+03
     11.543  0.2221E+02  0.2208E+02  0.5693E+03  0.5490E+03
     11.784  0.2725E+02  0.2152E+02  0.5759E+03  0.5542E+03
     12.026  0.3937E+02  0.1858E+02  0.5854E+03  0.5587E+03
     12.268  0.3437E+02  0.3067E+02  0.5937E+03  0.5661E+03
     12.509  0.2812E+02  0.4271E+02  0.6005E+03  0.5764E+03
     12.751  0.2537E+02  0.3528E+02  0.6067E+03  0.5849E+03
     12.992  0.2861E+02  0.2853E+02  0.6136E+03  0.5918E+03
     13.234  0.2534E+02  0.2741E+02  0.6197E+03  0.5985E+03
     13.476  0.2166E+02  0.3662E+02  0.6249E+03  0.6073E+03
     13.717  0.1791E+02  0.2945E+02  0.6293E+03  0.6144E+03
     13.959  0.2923E+01  0.2309E+02  0.6300E+03  0.6200E+03
     14.200  0.1787E+00  0.2361E+02  0.6300E+03  0.6257E+03
     14.442  0.0000E+00  0.1638E+02  0.6300E+03  0.6297E+03
     14.684  0.0000E+00  0.1390E+01  0.6300E+03  0.6300E+03
     14.925  0.0000E+00  0.2100E-05  0.6300E+03  0.6300E+03
     15.167  0.0000E+00  0.0000E+00  0.6300E+03  0.6300E+03
     15.408  0.0000E+00  0.0000E+00  0.6300E+03  0.6300E+03
     15.650  0.0000E+00  0.0000E+00  0.6300E+03  0.6300E+03
     15.892  0.0000E+00  0.0000E+00  0.6300E+03  0.6300E+03
     16.133  0.0000E+00  0.0000E+00  0.6300E+03  0.6300E+03
     16.375  0.0000E+00  0.0000E+00  0.6300E+03  0.6300E+03
     16.616  0.0000E+00  0.0000E+00  0.6300E+03  0.6300E+03
     16.858  0.0000E+00  0.0000E+00  0.6300E+03  0.6300E+03
     17.100  0.0000E+00  0.0000E+00  0.6300E+03  0.6300E+03
     17.341  0.0000E+00  0.0000E+00  0.6300E+03  0.6300E+03
     17.583  0.0000E+00  0.0000E+00  0.6300E+03  0.6300E+03
     17.824  0.0000E+00  0.0000E+00  0.6300E+03  0.6300E+03
