<?xml version="1.0" encoding="ISO-8859-1"?>
<modeling>
 <generator>
  <i name="program" type="string">vasp </i>
  <i name="version" type="string">5.4.4.18Apr17-6-g9f103f2a35  </i>
  <i name="subversion" type="string">(build Oct 25 2017 14:42:18) complex            parallel </i>
  <i name="platform" type="string">LinuxIFC </i>
  <i name="date" type="string">2021 04 15 </i>
  <i name="time" type="string">01:03:45 </i>
 </generator>
 <incar>
  <i type="string" name="PREC">accurate</i>
  <i type="string" name="ALGO"> normal</i>
  <i type="logical" name="ADDGRID"> T  </i>
  <i type="int" name="ISPIN">     2</i>
  <i type="int" name="NELM">   200</i>
  <i type="int" name="NELMIN">     8</i>
  <i name="EDIFF">      0.00000001</i>
  <i type="int" name="ISIF">     3</i>
  <i type="int" name="ISYM">     0</i>
  <i name="ENCUT">    650.00000000</i>
  <v name="MAGMOM">      0.60000000      0.60000000      0.60000000      0.60000000      0.60000000      0.60000000      0.60000000      0.60000000      0.60000000      0.60000000      0.60000000      0.60000000      0.60000000      0.60000000      0.60000000      0.60000000      0.60000000      0.60000000      0.60000000      0.60000000
      0.60000000      0.60000000      0.60000000      0.60000000      0.60000000      0.60000000      0.60000000      0.60000000      0.60000000      0.60000000      0.60000000      0.60000000      0.60000000      0.60000000      0.60000000      0.60000000      0.60000000      0.60000000      0.60000000      0.60000000
      0.60000000      0.60000000      0.60000000      0.60000000      0.60000000      0.60000000      0.60000000      0.60000000      0.60000000      0.60000000      0.60000000      0.60000000      0.60000000      0.60000000      0.60000000      0.60000000      0.60000000      0.60000000      0.60000000      0.60000000
      0.60000000      0.60000000      0.60000000      0.60000000      0.60000000      0.60000000      0.60000000      0.60000000      0.60000000      0.60000000      0.60000000      0.60000000      5.00000000      5.00000000      5.00000000      5.00000000      5.00000000      5.00000000      5.00000000      5.00000000
      5.00000000      5.00000000      5.00000000      5.00000000      5.00000000      5.00000000      5.00000000      5.00000000      5.00000000      5.00000000      5.00000000      5.00000000      5.00000000      5.00000000      5.00000000      5.00000000      5.00000000      5.00000000      5.00000000      5.00000000
      5.00000000      5.00000000      5.00000000      5.00000000      5.00000000      5.00000000      5.00000000      5.00000000</v>
  <i type="logical" name="LREAL"> F  </i>
  <i type="int" name="ISMEAR">     0</i>
  <i name="SIGMA">      0.05000000</i>
  <i type="int" name="NWRITE">     1</i>
  <i type="int" name="LMAXMIX">     4</i>
  <i type="logical" name="LWAVE"> F  </i>
  <i type="logical" name="LASPH"> T  </i>
  <v type="int" name="KPOINT_BSE">    -1     0     0     0</v>
  <i type="int" name="NELM">   200</i>
  <i type="string" name="GGA"> pe</i>
  <i type="logical" name="LDAU"> T  </i>
  <v type="int" name="LDAUTYPE">     2</v>
  <v type="int" name="LDAUL">    -1    -1    -1     2</v>
  <v name="LDAUU">      0.00000000      0.00000000      0.00000000      4.00000000</v>
  <v name="LDAUJ">      0.00000000      0.00000000      0.00000000      0.00000000</v>
  <i type="logical" name="LASPH"> T  </i>
 </incar>
 <structure name="primitive_cell" >
  <crystal>
   <varray name="basis" >
    <v>      11.51036847       0.00000000       0.00000000 </v>
    <v>       0.00000000      11.32670916       0.12548940 </v>
    <v>       0.00000000      -0.29683152      11.32351444 </v>
   </varray>
   <i name="volume">   1476.72737236 </i>
   <varray name="rec_basis" >
    <v>       0.08687819       0.00000000       0.00000000 </v>
    <v>       0.00000000       0.08826126       0.00231366 </v>
    <v>       0.00000000      -0.00097813       0.08828616 </v>
   </varray>
  </crystal>
  <varray name="positions" >
   <v>       0.10513295       0.25000000       0.00088281 </v>
   <v>       0.10614906       0.37472338       0.12527662 </v>
   <v>       0.10614906       0.12527662      -0.12527662 </v>
   <v>      -0.06053449       0.11809471       0.11809471 </v>
   <v>      -0.06053449       0.38190529      -0.11809471 </v>
   <v>       0.27279884       0.11809471       0.11809471 </v>
   <v>       0.27279884       0.38190529      -0.11809471 </v>
   <v>      -0.06046182       0.33907427       0.16092573 </v>
   <v>      -0.06046182       0.16092573      -0.16092573 </v>
   <v>       0.27287151       0.33907427       0.16092573 </v>
   <v>       0.10731129       0.00000000       0.00000000 </v>
   <v>       0.10731129      -0.50000000       0.00000000 </v>
   <v>       0.27287151       0.16092573      -0.16092573 </v>
   <v>       0.43846628       0.25000000       0.00000000 </v>
   <v>      -0.22820039       0.25000000       0.00000000 </v>
   <v>       0.10513295      -0.50000000       0.25000000 </v>
   <v>       0.10513295       0.00000000      -0.25000000 </v>
   <v>       0.10513295       0.00000000       0.25000000 </v>
   <v>       0.10513295      -0.50000000      -0.25000000 </v>
   <v>      -0.22718428       0.37472338       0.12527662 </v>
   <v>      -0.22718428       0.12527662      -0.12527662 </v>
   <v>       0.43948239       0.37472338       0.12527662 </v>
   <v>       0.43948239       0.12527662      -0.12527662 </v>
   <v>      -0.06046182       0.16092573       0.33907427 </v>
   <v>       0.27287151       0.16092573       0.33907427 </v>
   <v>      -0.06046182       0.33907427      -0.33907427 </v>
   <v>       0.27287151       0.33907427      -0.33907427 </v>
   <v>       0.10614906       0.12527662       0.37472338 </v>
   <v>       0.10614906      -0.12527662       0.12527662 </v>
   <v>       0.10614906       0.37472338      -0.37472338 </v>
   <v>       0.10614906      -0.37472338      -0.12527662 </v>
   <v>      -0.22602204       0.00000000       0.00000000 </v>
   <v>      -0.22602204      -0.50000000       0.00000000 </v>
   <v>      -0.06053449      -0.38190529       0.11809471 </v>
   <v>      -0.06053449      -0.11809471      -0.11809471 </v>
   <v>       0.27279884      -0.38190529       0.11809471 </v>
   <v>       0.27279884      -0.11809471      -0.11809471 </v>
   <v>       0.44064462       0.00000000       0.00000000 </v>
   <v>       0.44064462      -0.50000000       0.00000000 </v>
   <v>      -0.06053449       0.38190529       0.38190529 </v>
   <v>       0.27279884       0.38190529       0.38190529 </v>
   <v>      -0.06053449       0.11809471      -0.38190529 </v>
   <v>       0.27279884       0.11809471      -0.38190529 </v>
   <v>      -0.06046182      -0.16092573       0.16092573 </v>
   <v>      -0.06046182      -0.33907427      -0.16092573 </v>
   <v>       0.27287151      -0.16092573       0.16092573 </v>
   <v>       0.27287151      -0.33907427      -0.16092573 </v>
   <v>       0.43846628      -0.50000000       0.25000000 </v>
   <v>      -0.22820039      -0.50000000       0.25000000 </v>
   <v>       0.43846628       0.00000000      -0.25000000 </v>
   <v>      -0.22820039       0.00000000      -0.25000000 </v>
   <v>       0.43846628       0.00000000       0.25000000 </v>
   <v>      -0.22820039       0.00000000       0.25000000 </v>
   <v>       0.43846628      -0.50000000      -0.25000000 </v>
   <v>      -0.22820039      -0.50000000      -0.25000000 </v>
   <v>       0.10513295       0.25000000      -0.50000000 </v>
   <v>       0.10513295      -0.25000000       0.00000000 </v>
   <v>      -0.22718428       0.12527662       0.37472338 </v>
   <v>      -0.22718428      -0.12527662       0.12527662 </v>
   <v>      -0.22718428       0.37472338      -0.37472338 </v>
   <v>       0.43948239       0.12527662       0.37472338 </v>
   <v>      -0.22718428      -0.37472338      -0.12527662 </v>
   <v>       0.43948239      -0.12527662       0.12527662 </v>
   <v>       0.43948239       0.37472338      -0.37472338 </v>
   <v>       0.43948239      -0.37472338      -0.12527662 </v>
   <v>       0.10614906      -0.37472338       0.37472338 </v>
   <v>       0.10614906      -0.12527662      -0.37472338 </v>
   <v>      -0.39386782       0.11809471       0.11809471 </v>
   <v>      -0.39386782       0.38190529      -0.11809471 </v>
   <v>      -0.39379516       0.33907427       0.16092573 </v>
   <v>      -0.39379516       0.16092573      -0.16092573 </v>
   <v>      -0.06046182      -0.33907427       0.33907427 </v>
   <v>       0.10731129      -0.50000000      -0.50000000 </v>
   <v>       0.27287151      -0.33907427       0.33907427 </v>
   <v>      -0.06046182      -0.16092573      -0.33907427 </v>
   <v>       0.27287151      -0.16092573      -0.33907427 </v>
   <v>       0.10731129       0.00000000      -0.50000000 </v>
   <v>      -0.06053449      -0.11809471       0.38190529 </v>
   <v>       0.27279884      -0.11809471       0.38190529 </v>
   <v>      -0.06053449      -0.38190529      -0.38190529 </v>
   <v>       0.27279884      -0.38190529      -0.38190529 </v>
   <v>       0.43846628       0.25000000      -0.50000000 </v>
   <v>      -0.22820039       0.25000000      -0.50000000 </v>
   <v>       0.43846628      -0.25000000       0.00000000 </v>
   <v>      -0.22820039      -0.25000000       0.00000000 </v>
   <v>      -0.39379516       0.16092573       0.33907427 </v>
   <v>      -0.39379516       0.33907427      -0.33907427 </v>
   <v>      -0.22718428      -0.37472338       0.37472338 </v>
   <v>      -0.22718428      -0.12527662      -0.37472338 </v>
   <v>       0.43948239      -0.37472338       0.37472338 </v>
   <v>       0.43948239      -0.12527662      -0.37472338 </v>
   <v>      -0.39386782      -0.38190529       0.11809471 </v>
   <v>      -0.39386782      -0.11809471      -0.11809471 </v>
   <v>      -0.39386782       0.38190529       0.38190529 </v>
   <v>      -0.39386782       0.11809471      -0.38190529 </v>
   <v>      -0.22602204      -0.50000000      -0.50000000 </v>
   <v>      -0.22602204       0.00000000      -0.50000000 </v>
   <v>       0.44064462      -0.50000000      -0.50000000 </v>
   <v>       0.44064462       0.00000000      -0.50000000 </v>
   <v>      -0.39379516      -0.16092573       0.16092573 </v>
   <v>      -0.39379516      -0.33907427      -0.16092573 </v>
   <v>       0.10513295      -0.25000000      -0.50000000 </v>
   <v>      -0.39379516      -0.33907427       0.33907427 </v>
   <v>      -0.39379516      -0.16092573      -0.33907427 </v>
   <v>      -0.39386782      -0.11809471       0.38190529 </v>
   <v>      -0.39386782      -0.38190529      -0.38190529 </v>
   <v>       0.43846628      -0.25000000      -0.50000000 </v>
   <v>      -0.22820039      -0.25000000      -0.50000000 </v>
  </varray>
 </structure>
 <varray name="primitive_index" >
  <v type="int" >        1 </v>
  <v type="int" >       37 </v>
  <v type="int" >       31 </v>
  <v type="int" >       51 </v>
  <v type="int" >       69 </v>
  <v type="int" >       49 </v>
  <v type="int" >       67 </v>
  <v type="int" >       75 </v>
  <v type="int" >       93 </v>
  <v type="int" >       73 </v>
  <v type="int" >       97 </v>
  <v type="int" >      100 </v>
  <v type="int" >       91 </v>
  <v type="int" >        2 </v>
  <v type="int" >        3 </v>
  <v type="int" >       16 </v>
  <v type="int" >       19 </v>
  <v type="int" >       13 </v>
  <v type="int" >       22 </v>
  <v type="int" >       39 </v>
  <v type="int" >       33 </v>
  <v type="int" >       38 </v>
  <v type="int" >       32 </v>
  <v type="int" >       87 </v>
  <v type="int" >       85 </v>
  <v type="int" >       81 </v>
  <v type="int" >       79 </v>
  <v type="int" >       25 </v>
  <v type="int" >       40 </v>
  <v type="int" >       43 </v>
  <v type="int" >       34 </v>
  <v type="int" >       99 </v>
  <v type="int" >      102 </v>
  <v type="int" >       54 </v>
  <v type="int" >       72 </v>
  <v type="int" >       52 </v>
  <v type="int" >       70 </v>
  <v type="int" >       98 </v>
  <v type="int" >      101 </v>
  <v type="int" >       63 </v>
  <v type="int" >       61 </v>
  <v type="int" >       57 </v>
  <v type="int" >       55 </v>
  <v type="int" >       78 </v>
  <v type="int" >       96 </v>
  <v type="int" >       76 </v>
  <v type="int" >       94 </v>
  <v type="int" >       17 </v>
  <v type="int" >       18 </v>
  <v type="int" >       20 </v>
  <v type="int" >       21 </v>
  <v type="int" >       14 </v>
  <v type="int" >       15 </v>
  <v type="int" >       23 </v>
  <v type="int" >       24 </v>
  <v type="int" >        7 </v>
  <v type="int" >        4 </v>
  <v type="int" >       27 </v>
  <v type="int" >       42 </v>
  <v type="int" >       45 </v>
  <v type="int" >       26 </v>
  <v type="int" >       36 </v>
  <v type="int" >       41 </v>
  <v type="int" >       44 </v>
  <v type="int" >       35 </v>
  <v type="int" >       28 </v>
  <v type="int" >       46 </v>
  <v type="int" >       50 </v>
  <v type="int" >       68 </v>
  <v type="int" >       74 </v>
  <v type="int" >       92 </v>
  <v type="int" >       90 </v>
  <v type="int" >      106 </v>
  <v type="int" >       88 </v>
  <v type="int" >       84 </v>
  <v type="int" >       82 </v>
  <v type="int" >      103 </v>
  <v type="int" >       66 </v>
  <v type="int" >       64 </v>
  <v type="int" >       60 </v>
  <v type="int" >       58 </v>
  <v type="int" >        8 </v>
  <v type="int" >        9 </v>
  <v type="int" >        5 </v>
  <v type="int" >        6 </v>
  <v type="int" >       86 </v>
  <v type="int" >       80 </v>
  <v type="int" >       30 </v>
  <v type="int" >       48 </v>
  <v type="int" >       29 </v>
  <v type="int" >       47 </v>
  <v type="int" >       53 </v>
  <v type="int" >       71 </v>
  <v type="int" >       62 </v>
  <v type="int" >       56 </v>
  <v type="int" >      108 </v>
  <v type="int" >      105 </v>
  <v type="int" >      107 </v>
  <v type="int" >      104 </v>
  <v type="int" >       77 </v>
  <v type="int" >       95 </v>
  <v type="int" >       10 </v>
  <v type="int" >       89 </v>
  <v type="int" >       83 </v>
  <v type="int" >       65 </v>
  <v type="int" >       59 </v>
  <v type="int" >       11 </v>
  <v type="int" >       12 </v>
 </varray>
 <kpoints>
  <generation param="Gamma">
   <v type="int" name="divisions">       3        3        3 </v>
   <v name="usershift">      0.00000000       0.00000000       0.00000000 </v>
   <v name="genvec1">      0.33333333       0.00000000       0.00000000 </v>
   <v name="genvec2">      0.00000000       0.33333333      -0.00000000 </v>
   <v name="genvec3">      0.00000000      -0.00000000       0.33333333 </v>
   <v name="shift">      0.00000000       0.00000000       0.00000000 </v>
  </generation>
  <varray name="kpointlist" >
   <v>       0.00000000       0.00000000       0.00000000 </v>
   <v>       0.33333333       0.00000000       0.00000000 </v>
   <v>       0.00000000       0.33333333       0.00000000 </v>
   <v>       0.33333333       0.33333333       0.00000000 </v>
   <v>      -0.33333333       0.33333333       0.00000000 </v>
   <v>       0.00000000       0.00000000       0.33333333 </v>
   <v>       0.33333333       0.00000000       0.33333333 </v>
   <v>      -0.33333333       0.00000000       0.33333333 </v>
   <v>       0.00000000       0.33333333       0.33333333 </v>
   <v>       0.33333333       0.33333333       0.33333333 </v>
   <v>      -0.33333333       0.33333333       0.33333333 </v>
   <v>       0.00000000      -0.33333333       0.33333333 </v>
   <v>       0.33333333      -0.33333333       0.33333333 </v>
   <v>      -0.33333333      -0.33333333       0.33333333 </v>
  </varray>
  <varray name="weights" >
   <v>       0.03703704 </v>
   <v>       0.07407407 </v>
   <v>       0.07407407 </v>
   <v>       0.07407407 </v>
   <v>       0.07407407 </v>
   <v>       0.07407407 </v>
   <v>       0.07407407 </v>
   <v>       0.07407407 </v>
   <v>       0.07407407 </v>
   <v>       0.07407407 </v>
   <v>       0.07407407 </v>
   <v>       0.07407407 </v>
   <v>       0.07407407 </v>
   <v>       0.07407407 </v>
  </varray>
 </kpoints>
 <parameters>
  <separator name="general" >
   <i type="string" name="SYSTEM">unknown system</i>
   <i type="logical" name="LCOMPAT"> F  </i>
  </separator>
  <separator name="electronic" >
   <i type="string" name="PREC">accura</i>
   <i name="ENMAX">    650.00000000</i>
   <i name="ENAUG">    628.94500000</i>
   <i name="EDIFF">      0.00000001</i>
   <i type="int" name="IALGO">    38</i>
   <i type="int" name="IWAVPR">    10</i>
   <i type="int" name="NBANDS">   630</i>
   <i name="NELECT">    864.00000000</i>
   <i type="int" name="TURBO">     0</i>
   <i type="int" name="IRESTART">     0</i>
   <i type="int" name="NREBOOT">     0</i>
   <i type="int" name="NMIN">     0</i>
   <i name="EREF">      0.00000000</i>
   <separator name="electronic smearing" >
    <i type="int" name="ISMEAR">     0</i>
    <i name="SIGMA">      0.05000000</i>
    <i name="KSPACING">      0.50000000</i>
    <i type="logical" name="KGAMMA"> T  </i>
   </separator>
   <separator name="electronic projectors" >
    <i type="logical" name="LREAL"> F  </i>
    <v name="ROPT">      0.00000000      0.00000000      0.00000000      0.00000000</v>
    <i type="int" name="LMAXPAW">  -100</i>
    <i type="int" name="LMAXMIX">     4</i>
    <i type="logical" name="NLSPLINE"> F  </i>
   </separator>
   <separator name="electronic startup" >
    <i type="int" name="ISTART">     0</i>
    <i type="int" name="ICHARG">     2</i>
    <i type="int" name="INIWAV">     1</i>
   </separator>
   <separator name="electronic spin" >
    <i type="int" name="ISPIN">     2</i>
    <i type="logical" name="LNONCOLLINEAR"> F  </i>
    <v name="MAGMOM">      0.60000000      0.60000000      0.60000000      0.60000000      0.60000000      0.60000000      0.60000000      0.60000000      0.60000000      0.60000000      0.60000000      0.60000000      0.60000000      0.60000000      0.60000000      0.60000000      0.60000000      0.60000000      0.60000000      0.60000000
      0.60000000      0.60000000      0.60000000      0.60000000      0.60000000      0.60000000      0.60000000      0.60000000      0.60000000      0.60000000      0.60000000      0.60000000      0.60000000      0.60000000      0.60000000      0.60000000      0.60000000      0.60000000      0.60000000      0.60000000
      0.60000000      0.60000000      0.60000000      0.60000000      0.60000000      0.60000000      0.60000000      0.60000000      0.60000000      0.60000000      0.60000000      0.60000000      0.60000000      0.60000000      0.60000000      0.60000000      0.60000000      0.60000000      0.60000000      0.60000000
      0.60000000      0.60000000      0.60000000      0.60000000      0.60000000      0.60000000      0.60000000      0.60000000      0.60000000      0.60000000      0.60000000      0.60000000      5.00000000      5.00000000      5.00000000      5.00000000      5.00000000      5.00000000      5.00000000      5.00000000
      5.00000000      5.00000000      5.00000000      5.00000000      5.00000000      5.00000000      5.00000000      5.00000000      5.00000000      5.00000000      5.00000000      5.00000000      5.00000000      5.00000000      5.00000000      5.00000000      5.00000000      5.00000000      5.00000000      5.00000000
      5.00000000      5.00000000      5.00000000      5.00000000      5.00000000      5.00000000      5.00000000      5.00000000</v>
    <i name="NUPDOWN">     -1.00000000</i>
    <i type="logical" name="LSORBIT"> F  </i>
    <v name="SAXIS">      0.00000000      0.00000000      1.00000000</v>
    <i type="logical" name="LSPIRAL"> F  </i>
    <v name="QSPIRAL">      0.00000000      0.00000000      0.00000000</v>
    <i type="logical" name="LZEROZ"> F  </i>
   </separator>
   <separator name="electronic exchange-correlation" >
    <i type="logical" name="LASPH"> T  </i>
    <i type="logical" name="LMETAGGA"> F  </i>
   </separator>
   <separator name="electronic convergence" >
    <i type="int" name="NELM">   200</i>
    <i type="int" name="NELMDL">    -5</i>
    <i type="int" name="NELMIN">     8</i>
    <i name="ENINI">    650.00000000</i>
    <separator name="electronic convergence detail" >
     <i type="logical" name="LDIAG"> T  </i>
     <i type="logical" name="LSUBROT"> F  </i>
     <i name="WEIMIN">      0.00000000</i>
     <i name="EBREAK">      0.00000000</i>
     <i name="DEPER">      0.30000000</i>
     <i type="int" name="NRMM">     4</i>
     <i name="TIME">      0.40000000</i>
    </separator>
   </separator>
   <separator name="electronic mixer" >
    <i name="AMIX">      0.40000000</i>
    <i name="BMIX">      1.00000000</i>
    <i name="AMIN">      0.10000000</i>
    <i name="AMIX_MAG">      1.60000000</i>
    <i name="BMIX_MAG">      1.00000000</i>
    <separator name="electronic mixer details" >
     <i type="int" name="IMIX">     4</i>
     <i type="logical" name="MIXFIRST"> F  </i>
     <i type="int" name="MAXMIX">   -45</i>
     <i name="WC">    100.00000000</i>
     <i type="int" name="INIMIX">     1</i>
     <i type="int" name="MIXPRE">     1</i>
     <i type="int" name="MREMOVE">     5</i>
    </separator>
   </separator>
   <separator name="electronic dipolcorrection" >
    <i type="logical" name="LDIPOL"> F  </i>
    <i type="logical" name="LMONO"> F  </i>
    <i type="int" name="IDIPOL">     0</i>
    <i name="EPSILON">      1.00000000</i>
    <v name="DIPOL">   -100.00000000   -100.00000000   -100.00000000</v>
    <i name="EFIELD">      0.00000000</i>
   </separator>
  </separator>
  <separator name="grids" >
   <i type="int" name="NGX">    96</i>
   <i type="int" name="NGY">    96</i>
   <i type="int" name="NGZ">    96</i>
   <i type="int" name="NGXF">   192</i>
   <i type="int" name="NGYF">   192</i>
   <i type="int" name="NGZF">   192</i>
   <i type="logical" name="ADDGRID"> T  </i>
  </separator>
  <separator name="ionic" >
   <i type="int" name="NSW">     0</i>
   <i type="int" name="IBRION">    -1</i>
   <i type="int" name="MDALGO">     0</i>
   <i type="int" name="ISIF">     3</i>
   <i name="PSTRESS">      0.00000000</i>
   <i name="EDIFFG">      0.00000010</i>
   <i type="int" name="NFREE">     0</i>
   <i name="POTIM">      0.50000000</i>
   <i name="SMASS">     -3.00000000</i>
   <i name="SCALEE">      1.00000000</i>
  </separator>
  <separator name="ionic md" >
   <i name="TEBEG">      0.00010000</i>
   <i name="TEEND">      0.00010000</i>
   <i type="int" name="NBLOCK">     1</i>
   <i type="int" name="KBLOCK">     1</i>
   <i type="int" name="NPACO">   256</i>
   <i name="APACO">     16.00000000</i>
  </separator>
  <separator name="symmetry" >
   <i type="int" name="ISYM">     0</i>
   <i name="SYMPREC">      0.00001000</i>
  </separator>
  <separator name="dos" >
   <i type="int" name="LORBIT">     0</i>
   <v name="RWIGS">     -1.00000000     -1.00000000     -1.00000000     -1.00000000</v>
   <i type="int" name="NEDOS">   301</i>
   <i name="EMIN">     10.00000000</i>
   <i name="EMAX">    -10.00000000</i>
   <i name="EFERMI">      0.00000000</i>
  </separator>
  <separator name="writing" >
   <i type="int" name="NWRITE">     1</i>
   <i type="logical" name="LWAVE"> F  </i>
   <i type="logical" name="LDOWNSAMPLE"> F  </i>
   <i type="logical" name="LCHARG"> T  </i>
   <i type="logical" name="LPARD"> F  </i>
   <i type="logical" name="LVTOT"> F  </i>
   <i type="logical" name="LVHAR"> F  </i>
   <i type="logical" name="LELF"> F  </i>
   <i type="logical" name="LOPTICS"> F  </i>
   <v name="STM">      0.00000000      0.00000000      0.00000000      0.00000000      0.00000000      0.00000000      0.00000000</v>
  </separator>
  <separator name="performance" >
   <i type="int" name="NPAR">     1</i>
   <i type="int" name="NSIM">     4</i>
   <i type="int" name="NBLK">    -1</i>
   <i type="logical" name="LPLANE"> T  </i>
   <i type="logical" name="LSCALAPACK"> T  </i>
   <i type="logical" name="LSCAAWARE"> F  </i>
   <i type="logical" name="LSCALU"> F  </i>
   <i type="logical" name="LASYNC"> F  </i>
   <i type="logical" name="LORBITALREAL"> F  </i>
  </separator>
  <separator name="miscellaneous" >
   <i type="int" name="IDIOT">     3</i>
   <i type="int" name="ISPECIAL">     0</i>
   <i type="logical" name="LMUSIC"> F  </i>
   <v name="POMASS">      7.01000000     16.00000000     32.06600000     55.84700000</v>
   <v name="DARWINR">      0.00000000      0.00000000      0.00000000      0.00000000</v>
   <v name="DARWINV">      1.00000000      1.00000000      1.00000000      1.00000000</v>
   <i type="logical" name="LCORR"> T  </i>
  </separator>
  <i type="logical" name="GGA_COMPAT"> T  </i>
  <i type="logical" name="LBERRY"> F  </i>
  <i type="int" name="ICORELEVEL">     0</i>
  <i type="logical" name="LDAU"> T  </i>
  <v type="int" name="LDAUTYPE">     2</v>
  <v type="int" name="LDAUL">    -1</v>
  <v name="LDAUU">      0.00000000</v>
  <v name="LDAUJ">      0.00000000</v>
  <i type="int" name="LDAUPRINT">     0</i>
  <i type="int" name="I_CONSTRAINED_M">     0</i>
  <separator name="electronic exchange-correlation" >
   <i type="string" name="GGA">PE</i>
   <i type="int" name="VOSKOWN">     0</i>
   <i type="logical" name="LHFCALC"> F  </i>
   <i type="string" name="PRECFOCK"></i>
   <i type="logical" name="LSYMGRAD"> F  </i>
   <i type="logical" name="LHFONE"> F  </i>
   <i type="logical" name="LRHFCALC"> F  </i>
   <i type="logical" name="LTHOMAS"> F  </i>
   <i type="logical" name="LMODELHF"> F  </i>
   <i name="ENCUT4O">     -1.00000000</i>
   <i type="int" name="EXXOEP">     0</i>
   <i type="int" name="FOURORBIT">     0</i>
   <i name="AEXX">      0.00000000</i>
   <i name="HFALPHA">      0.00000000</i>
   <i name="MCALPHA">      0.00000000</i>
   <i name="ALDAX">      1.00000000</i>
   <i name="AGGAX">      1.00000000</i>
   <i name="ALDAC">      1.00000000</i>
   <i name="AGGAC">      1.00000000</i>
   <i type="int" name="NKREDX">     1</i>
   <i type="int" name="NKREDY">     1</i>
   <i type="int" name="NKREDZ">     1</i>
   <i type="logical" name="SHIFTRED"> F  </i>
   <i type="logical" name="ODDONLY"> F  </i>
   <i type="logical" name="EVENONLY"> F  </i>
   <i type="int" name="LMAXFOCK">     0</i>
   <i type="int" name="NMAXFOCKAE">     0</i>
   <i type="logical" name="LFOCKAEDFT"> F  </i>
   <i name="HFSCREEN">      0.00000000</i>
   <i name="HFSCREENC">      0.00000000</i>
   <i type="int" name="NBANDSGWLOW">     0</i>
  </separator>
  <separator name="vdW DFT" >
   <i type="logical" name="LUSE_VDW"> F  </i>
   <i name="Zab_VDW">     -0.84910000</i>
   <i name="PARAM1">      0.12340000</i>
   <i name="PARAM2">      1.00000000</i>
   <i name="PARAM3">      0.00000000</i>
  </separator>
  <separator name="model GW" >
   <i type="int" name="MODEL_GW">     0</i>
   <i name="MODEL_EPS0">      8.20404096</i>
   <i name="MODEL_ALPHA">      1.00000000</i>
  </separator>
  <separator name="linear response parameters" >
   <i type="logical" name="LEPSILON"> F  </i>
   <i type="logical" name="LRPA"> F  </i>
   <i type="logical" name="LNABLA"> F  </i>
   <i type="logical" name="LVEL"> F  </i>
   <i type="int" name="KINTER">     0</i>
   <i name="CSHIFT">      0.10000000</i>
   <i name="OMEGAMAX">     -1.00000000</i>
   <i name="DEG_THRESHOLD">      0.00200000</i>
   <i name="RTIME">     -0.10000000</i>
   <i name="WPLASMAI">      0.00000000</i>
   <v name="DFIELD">      0.00000000      0.00000000      0.00000000</v>
   <v name="WPLASMA">      0.00000000      0.00000000      0.00000000      0.00000000      0.00000000      0.00000000      0.00000000      0.00000000      0.00000000</v>
  </separator>
  <separator name="orbital magnetization" >
   <i type="logical" name="NUCIND"> F  </i>
   <v name="MAGPOS">      0.00000000      0.00000000      0.00000000</v>
   <i type="logical" name="LNICSALL"> T  </i>
   <i type="logical" name="ORBITALMAG"> F  </i>
   <i type="logical" name="LMAGBLOCH"> F  </i>
   <i type="logical" name="LCHIMAG"> F  </i>
   <i type="logical" name="LGAUGE"> T  </i>
   <i type="int" name="MAGATOM">     0</i>
   <v name="MAGDIPOL">      0.00000000      0.00000000      0.00000000</v>
   <v name="AVECCONST">      0.00000000      0.00000000      0.00000000</v>
  </separator>
  <separator name="response functions" >
   <i type="logical" name="LADDER"> F  </i>
   <i type="logical" name="LRPAFORCE"> F  </i>
   <i type="logical" name="LFXC"> F  </i>
   <i type="logical" name="LHARTREE"> T  </i>
   <i type="int" name="IBSE">     0</i>
   <v type="int" name="KPOINT">    -1     0     0     0</v>
   <i type="logical" name="LTCTE"> F  </i>
   <i type="logical" name="LTETE"> F  </i>
   <i type="logical" name="LTRIPLET"> F  </i>
   <i type="logical" name="LFXCEPS"> F  </i>
   <i type="logical" name="LFXHEG"> F  </i>
   <i type="int" name="NATURALO">     2</i>
   <i type="logical" name="L2ORDER"> F  </i>
   <i type="logical" name="LMP2LT"> F  </i>
   <i type="logical" name="LUSEW"> F  </i>
   <i name="ENCUTGW">     -2.00000000</i>
   <i name="ENCUTGWSOFT">     -2.00000000</i>
   <i name="ENCUTLF">     -1.00000000</i>
   <i type="int" name="LMAXMP2">    -1</i>
   <i name="SCISSOR">      0.00000000</i>
   <i type="int" name="NOMEGA">     0</i>
   <i type="int" name="NOMEGAR">     0</i>
   <i type="int" name="NBANDSGW">    -1</i>
   <i type="int" name="NBANDSO">    -1</i>
   <i type="int" name="NBANDSV">    -1</i>
   <i type="int" name="NELM">   200</i>
   <i type="int" name="NELMHF">     1</i>
   <i type="int" name="DIM">     3</i>
   <i type="int" name="ANTIRES">     0</i>
   <i name="OMEGAMAX">    -30.00000000</i>
   <i name="OMEGAMIN">    -30.00000000</i>
   <i name="OMEGATL">   -200.00000000</i>
   <i type="int" name="OMEGAGRID">   140</i>
   <i name="CSHIFT">     -0.10000000</i>
   <i type="logical" name="SELFENERGY"> F  </i>
   <i type="logical" name="LSPECTRAL"> F  </i>
   <i type="logical" name="LSPECTRALGW"> F  </i>
   <i type="logical" name="LSINGLES"> F  </i>
   <i type="logical" name="LFERMIGW"> F  </i>
   <i type="logical" name="ODDONLYGW"> F  </i>
   <i type="logical" name="EVENONLYGW"> F  </i>
   <i type="int" name="NKREDLFX">     1</i>
   <i type="int" name="NKREDLFY">     1</i>
   <i type="int" name="NKREDLFZ">     1</i>
   <i type="int" name="MAXMEM">  2800</i>
   <i type="int" name="TELESCOPE">     0</i>
   <i type="int" name="TAUPAR">     1</i>
   <i type="int" name="OMEGAPAR">    -1</i>
   <i name="LAMBDA">      1.00000000</i>
  </separator>
  <separator name="External order field" >
   <i name="OFIELD_KAPPA">      0.00000000</i>
   <v name="OFIELD_K">      0.00000000      0.00000000      0.00000000</v>
   <i name="OFIELD_Q6_NEAR">      0.00000000</i>
   <i name="OFIELD_Q6_FAR">      0.00000000</i>
   <i name="OFIELD_A">      0.00000000</i>
  </separator>
 </parameters>
 <atominfo>
  <atoms>     108 </atoms>
  <types>       4 </types>
  <array name="atoms" >
   <dimension dim="1">ion</dimension>
   <field type="string">element</field>
   <field type="int">atomtype</field>
   <set>
    <rc><c>Li</c><c>   1</c></rc>
    <rc><c>Li</c><c>   1</c></rc>
    <rc><c>Li</c><c>   1</c></rc>
    <rc><c>Li</c><c>   1</c></rc>
    <rc><c>Li</c><c>   1</c></rc>
    <rc><c>Li</c><c>   1</c></rc>
    <rc><c>Li</c><c>   1</c></rc>
    <rc><c>Li</c><c>   1</c></rc>
    <rc><c>Li</c><c>   1</c></rc>
    <rc><c>Li</c><c>   1</c></rc>
    <rc><c>Li</c><c>   1</c></rc>
    <rc><c>Li</c><c>   1</c></rc>
    <rc><c>Li</c><c>   1</c></rc>
    <rc><c>Li</c><c>   1</c></rc>
    <rc><c>Li</c><c>   1</c></rc>
    <rc><c>Li</c><c>   1</c></rc>
    <rc><c>Li</c><c>   1</c></rc>
    <rc><c>Li</c><c>   1</c></rc>
    <rc><c>Li</c><c>   1</c></rc>
    <rc><c>Li</c><c>   1</c></rc>
    <rc><c>Li</c><c>   1</c></rc>
    <rc><c>Li</c><c>   1</c></rc>
    <rc><c>Li</c><c>   1</c></rc>
    <rc><c>Li</c><c>   1</c></rc>
    <rc><c>O </c><c>   2</c></rc>
    <rc><c>O </c><c>   2</c></rc>
    <rc><c>O </c><c>   2</c></rc>
    <rc><c>O </c><c>   2</c></rc>
    <rc><c>O </c><c>   2</c></rc>
    <rc><c>O </c><c>   2</c></rc>
    <rc><c>O </c><c>   2</c></rc>
    <rc><c>O </c><c>   2</c></rc>
    <rc><c>O </c><c>   2</c></rc>
    <rc><c>O </c><c>   2</c></rc>
    <rc><c>O </c><c>   2</c></rc>
    <rc><c>O </c><c>   2</c></rc>
    <rc><c>O </c><c>   2</c></rc>
    <rc><c>O </c><c>   2</c></rc>
    <rc><c>O </c><c>   2</c></rc>
    <rc><c>O </c><c>   2</c></rc>
    <rc><c>O </c><c>   2</c></rc>
    <rc><c>O </c><c>   2</c></rc>
    <rc><c>O </c><c>   2</c></rc>
    <rc><c>O </c><c>   2</c></rc>
    <rc><c>O </c><c>   2</c></rc>
    <rc><c>O </c><c>   2</c></rc>
    <rc><c>O </c><c>   2</c></rc>
    <rc><c>O </c><c>   2</c></rc>
    <rc><c>S </c><c>   3</c></rc>
    <rc><c>S </c><c>   3</c></rc>
    <rc><c>S </c><c>   3</c></rc>
    <rc><c>S </c><c>   3</c></rc>
    <rc><c>S </c><c>   3</c></rc>
    <rc><c>S </c><c>   3</c></rc>
    <rc><c>S </c><c>   3</c></rc>
    <rc><c>S </c><c>   3</c></rc>
    <rc><c>S </c><c>   3</c></rc>
    <rc><c>S </c><c>   3</c></rc>
    <rc><c>S </c><c>   3</c></rc>
    <rc><c>S </c><c>   3</c></rc>
    <rc><c>S </c><c>   3</c></rc>
    <rc><c>S </c><c>   3</c></rc>
    <rc><c>S </c><c>   3</c></rc>
    <rc><c>S </c><c>   3</c></rc>
    <rc><c>S </c><c>   3</c></rc>
    <rc><c>S </c><c>   3</c></rc>
    <rc><c>S </c><c>   3</c></rc>
    <rc><c>S </c><c>   3</c></rc>
    <rc><c>S </c><c>   3</c></rc>
    <rc><c>S </c><c>   3</c></rc>
    <rc><c>S </c><c>   3</c></rc>
    <rc><c>S </c><c>   3</c></rc>
    <rc><c>Fe</c><c>   4</c></rc>
    <rc><c>Fe</c><c>   4</c></rc>
    <rc><c>Fe</c><c>   4</c></rc>
    <rc><c>Fe</c><c>   4</c></rc>
    <rc><c>Fe</c><c>   4</c></rc>
    <rc><c>Fe</c><c>   4</c></rc>
    <rc><c>Fe</c><c>   4</c></rc>
    <rc><c>Fe</c><c>   4</c></rc>
    <rc><c>Fe</c><c>   4</c></rc>
    <rc><c>Fe</c><c>   4</c></rc>
    <rc><c>Fe</c><c>   4</c></rc>
    <rc><c>Fe</c><c>   4</c></rc>
    <rc><c>Fe</c><c>   4</c></rc>
    <rc><c>Fe</c><c>   4</c></rc>
    <rc><c>Fe</c><c>   4</c></rc>
    <rc><c>Fe</c><c>   4</c></rc>
    <rc><c>Fe</c><c>   4</c></rc>
    <rc><c>Fe</c><c>   4</c></rc>
    <rc><c>Fe</c><c>   4</c></rc>
    <rc><c>Fe</c><c>   4</c></rc>
    <rc><c>Fe</c><c>   4</c></rc>
    <rc><c>Fe</c><c>   4</c></rc>
    <rc><c>Fe</c><c>   4</c></rc>
    <rc><c>Fe</c><c>   4</c></rc>
    <rc><c>Fe</c><c>   4</c></rc>
    <rc><c>Fe</c><c>   4</c></rc>
    <rc><c>Fe</c><c>   4</c></rc>
    <rc><c>Fe</c><c>   4</c></rc>
    <rc><c>Fe</c><c>   4</c></rc>
    <rc><c>Fe</c><c>   4</c></rc>
    <rc><c>Fe</c><c>   4</c></rc>
    <rc><c>Fe</c><c>   4</c></rc>
    <rc><c>Fe</c><c>   4</c></rc>
    <rc><c>Fe</c><c>   4</c></rc>
    <rc><c>Fe</c><c>   4</c></rc>
    <rc><c>Fe</c><c>   4</c></rc>
   </set>
  </array>
  <array name="atomtypes" >
   <dimension dim="1">type</dimension>
   <field type="int">atomspertype</field>
   <field type="string">element</field>
   <field>mass</field>
   <field>valence</field>
   <field type="string">pseudopotential</field>
   <set>
    <rc><c>  24</c><c>Li</c><c>      7.01000000</c><c>      3.00000000</c><c>  PAW_PBE Li_sv 10Sep2004               </c></rc>
    <rc><c>  24</c><c>O </c><c>     16.00000000</c><c>      6.00000000</c><c>  PAW_PBE O 08Apr2002                   </c></rc>
    <rc><c>  24</c><c>S </c><c>     32.06600000</c><c>      6.00000000</c><c>  PAW_PBE S 06Sep2000                   </c></rc>
    <rc><c>  36</c><c>Fe</c><c>     55.84700000</c><c>     14.00000000</c><c>  PAW_PBE Fe_pv 02Aug2007               </c></rc>
   </set>
  </array>
 </atominfo>
 <structure name="initialpos" >
  <crystal>
   <varray name="basis" >
    <v>      11.51036847       0.00000000       0.00000000 </v>
    <v>       0.00000000      11.32670916       0.12548940 </v>
    <v>       0.00000000      -0.29683152      11.32351444 </v>
   </varray>
   <i name="volume">   1476.72737236 </i>
   <varray name="rec_basis" >
    <v>       0.08687819       0.00000000       0.00000000 </v>
    <v>       0.00000000       0.08826126       0.00231366 </v>
    <v>       0.00000000      -0.00097813       0.08828616 </v>
   </varray>
  </crystal>
  <varray name="positions" >
   <v>       0.10513295       0.25000000       0.00088281 </v>
   <v>       0.43846628       0.25000000       0.00000000 </v>
   <v>       0.77179961       0.25000000       0.00000000 </v>
   <v>       0.10513295       0.75000000       0.00000000 </v>
   <v>       0.43846628       0.75000000       0.00000000 </v>
   <v>       0.77179961       0.75000000       0.00000000 </v>
   <v>       0.10513295       0.25000000       0.50000000 </v>
   <v>       0.43846628       0.25000000       0.50000000 </v>
   <v>       0.77179961       0.25000000       0.50000000 </v>
   <v>       0.10513295       0.75000000       0.50000000 </v>
   <v>       0.43846628       0.75000000       0.50000000 </v>
   <v>       0.77179961       0.75000000       0.50000000 </v>
   <v>       0.10513295       0.00000000       0.25000000 </v>
   <v>       0.43846628       0.00000000       0.25000000 </v>
   <v>       0.77179961       0.00000000       0.25000000 </v>
   <v>       0.10513295       0.50000000       0.25000000 </v>
   <v>       0.43846628       0.50000000       0.25000000 </v>
   <v>       0.77179961       0.50000000       0.25000000 </v>
   <v>       0.10513295       0.00000000       0.75000000 </v>
   <v>       0.43846628       0.00000000       0.75000000 </v>
   <v>       0.77179961       0.00000000       0.75000000 </v>
   <v>       0.10513295       0.50000000       0.75000000 </v>
   <v>       0.43846628       0.50000000       0.75000000 </v>
   <v>       0.77179961       0.50000000       0.75000000 </v>
   <v>       0.10614906       0.12527662       0.37472338 </v>
   <v>       0.43948239       0.12527662       0.37472338 </v>
   <v>       0.77281572       0.12527662       0.37472338 </v>
   <v>       0.10614906       0.62527662       0.37472338 </v>
   <v>       0.43948239       0.62527662       0.37472338 </v>
   <v>       0.77281572       0.62527662       0.37472338 </v>
   <v>       0.10614906       0.12527662       0.87472338 </v>
   <v>       0.43948239       0.12527662       0.87472338 </v>
   <v>       0.77281572       0.12527662       0.87472338 </v>
   <v>       0.10614906       0.62527662       0.87472338 </v>
   <v>       0.43948239       0.62527662       0.87472338 </v>
   <v>       0.77281572       0.62527662       0.87472338 </v>
   <v>       0.10614906       0.37472338       0.12527662 </v>
   <v>       0.43948239       0.37472338       0.12527662 </v>
   <v>       0.77281572       0.37472338       0.12527662 </v>
   <v>       0.10614906       0.87472338       0.12527662 </v>
   <v>       0.43948239       0.87472338       0.12527662 </v>
   <v>       0.77281572       0.87472338       0.12527662 </v>
   <v>       0.10614906       0.37472338       0.62527662 </v>
   <v>       0.43948239       0.37472338       0.62527662 </v>
   <v>       0.77281572       0.37472338       0.62527662 </v>
   <v>       0.10614906       0.87472338       0.62527662 </v>
   <v>       0.43948239       0.87472338       0.62527662 </v>
   <v>       0.77281572       0.87472338       0.62527662 </v>
   <v>       0.27279884       0.11809471       0.11809471 </v>
   <v>       0.60613218       0.11809471       0.11809471 </v>
   <v>       0.93946551       0.11809471       0.11809471 </v>
   <v>       0.27279884       0.61809471       0.11809471 </v>
   <v>       0.60613218       0.61809471       0.11809471 </v>
   <v>       0.93946551       0.61809471       0.11809471 </v>
   <v>       0.27279884       0.11809471       0.61809471 </v>
   <v>       0.60613218       0.11809471       0.61809471 </v>
   <v>       0.93946551       0.11809471       0.61809471 </v>
   <v>       0.27279884       0.61809471       0.61809471 </v>
   <v>       0.60613218       0.61809471       0.61809471 </v>
   <v>       0.93946551       0.61809471       0.61809471 </v>
   <v>       0.27279884       0.38190529       0.38190529 </v>
   <v>       0.60613218       0.38190529       0.38190529 </v>
   <v>       0.93946551       0.38190529       0.38190529 </v>
   <v>       0.27279884       0.88190529       0.38190529 </v>
   <v>       0.60613218       0.88190529       0.38190529 </v>
   <v>       0.93946551       0.88190529       0.38190529 </v>
   <v>       0.27279884       0.38190529       0.88190529 </v>
   <v>       0.60613218       0.38190529       0.88190529 </v>
   <v>       0.93946551       0.38190529       0.88190529 </v>
   <v>       0.27279884       0.88190529       0.88190529 </v>
   <v>       0.60613218       0.88190529       0.88190529 </v>
   <v>       0.93946551       0.88190529       0.88190529 </v>
   <v>       0.27287151       0.33907427       0.16092573 </v>
   <v>       0.60620484       0.33907427       0.16092573 </v>
   <v>       0.93953818       0.33907427       0.16092573 </v>
   <v>       0.27287151       0.83907427       0.16092573 </v>
   <v>       0.60620484       0.83907427       0.16092573 </v>
   <v>       0.93953818       0.83907427       0.16092573 </v>
   <v>       0.27287151       0.33907427       0.66092573 </v>
   <v>       0.60620484       0.33907427       0.66092573 </v>
   <v>       0.93953818       0.33907427       0.66092573 </v>
   <v>       0.27287151       0.83907427       0.66092573 </v>
   <v>       0.60620484       0.83907427       0.66092573 </v>
   <v>       0.93953818       0.83907427       0.66092573 </v>
   <v>       0.27287151       0.16092573       0.33907427 </v>
   <v>       0.60620484       0.16092573       0.33907427 </v>
   <v>       0.93953818       0.16092573       0.33907427 </v>
   <v>       0.27287151       0.66092573       0.33907427 </v>
   <v>       0.60620484       0.66092573       0.33907427 </v>
   <v>       0.93953818       0.66092573       0.33907427 </v>
   <v>       0.27287151       0.16092573       0.83907427 </v>
   <v>       0.60620484       0.16092573       0.83907427 </v>
   <v>       0.93953818       0.16092573       0.83907427 </v>
   <v>       0.27287151       0.66092573       0.83907427 </v>
   <v>       0.60620484       0.66092573       0.83907427 </v>
   <v>       0.93953818       0.66092573       0.83907427 </v>
   <v>       0.10731129       0.00000000       0.00000000 </v>
   <v>       0.44064462       0.00000000       0.00000000 </v>
   <v>       0.77397796       0.00000000       0.00000000 </v>
   <v>       0.10731129       0.50000000       0.00000000 </v>
   <v>       0.44064462       0.50000000       0.00000000 </v>
   <v>       0.77397796       0.50000000       0.00000000 </v>
   <v>       0.10731129       0.00000000       0.50000000 </v>
   <v>       0.44064462       0.00000000       0.50000000 </v>
   <v>       0.77397796       0.00000000       0.50000000 </v>
   <v>       0.10731129       0.50000000       0.50000000 </v>
   <v>       0.44064462       0.50000000       0.50000000 </v>
   <v>       0.77397796       0.50000000       0.50000000 </v>
  </varray>
 </structure>
 <calculation>
  <scstep>
   <time name="dav">  421.35  422.40</time>
   <time name="total">  424.95  426.01</time>
   <energy>
    <i name="alphaZ">   2671.99667194 </i>
    <i name="ewald"> -65588.31960482 </i>
    <i name="hartreedc"> -36916.03545066 </i>
    <i name="XCdc">   3880.55393460 </i>
    <i name="pawpsdc">  87409.98379221 </i>
    <i name="pawaedc"> -90654.48884115 </i>
    <i name="eentropy">     -0.02772454 </i>
    <i name="bandstr">   1718.53879523 </i>
    <i name="atom"> 110354.31518496 </i>
    <i name="e_fr_energy">  12876.51675778 </i>
    <i name="e_wo_entrp">  12876.54448232 </i>
    <i name="e_0_energy">  12876.53062005 </i>
   </energy>
  </scstep>
  <scstep>
   <time name="dav">  415.66  416.66</time>
   <time name="total">  415.67  416.68</time>
   <energy>
    <i name="e_fr_energy">   1532.84631865 </i>
    <i name="e_wo_entrp">   1532.91858002 </i>
    <i name="e_0_energy">   1532.88244934 </i>
   </energy>
  </scstep>
  <scstep>
   <time name="dav">  434.31  435.35</time>
   <time name="total">  434.33  435.37</time>
   <energy>
    <i name="e_fr_energy">   -433.36375882 </i>
    <i name="e_wo_entrp">   -433.29491790 </i>
    <i name="e_0_energy">   -433.32933836 </i>
   </energy>
  </scstep>
  <scstep>
   <time name="dav">  491.46  492.66</time>
   <time name="total">  491.48  492.67</time>
   <energy>
    <i name="e_fr_energy">   -646.88533372 </i>
    <i name="e_wo_entrp">   -646.81780861 </i>
    <i name="e_0_energy">   -646.85157116 </i>
   </energy>
  </scstep>
  <scstep>
   <time name="dav">  642.12  643.75</time>
   <time name="total">  652.09  653.75</time>
   <energy>
    <i name="e_fr_energy">   -664.75461311 </i>
    <i name="e_wo_entrp">   -664.66813637 </i>
    <i name="e_0_energy">   -664.71137474 </i>
   </energy>
  </scstep>
  <scstep>
   <time name="dav">  484.04  485.27</time>
   <time name="total">  497.43  498.70</time>
   <energy>
    <i name="e_fr_energy">   -558.90840189 </i>
    <i name="e_wo_entrp">   -558.82266986 </i>
    <i name="e_0_energy">   -558.86553587 </i>
   </energy>
  </scstep>
  <scstep>
   <time name="dav">  463.72  464.89</time>
   <time name="total">  477.20  478.41</time>
   <energy>
    <i name="e_fr_energy">   -581.86897097 </i>
    <i name="e_wo_entrp">   -581.83116117 </i>
    <i name="e_0_energy">   -581.85006607 </i>
   </energy>
  </scstep>
  <scstep>
   <time name="dav">  480.11  481.35</time>
   <time name="total">  493.57  494.85</time>
   <energy>
    <i name="e_fr_energy">   -590.24914417 </i>
    <i name="e_wo_entrp">   -590.24914417 </i>
    <i name="e_0_energy">   -590.24914417 </i>
   </energy>
  </scstep>
  <scstep>
   <time name="dav">  477.65  478.82</time>
   <time name="total">  490.69  491.89</time>
   <energy>
    <i name="e_fr_energy">   -597.85106538 </i>
    <i name="e_wo_entrp">   -597.85106538 </i>
    <i name="e_0_energy">   -597.85106538 </i>
   </energy>
  </scstep>
  <scstep>
   <time name="dav">  497.30  498.52</time>
   <time name="total">  510.76  512.01</time>
   <energy>
    <i name="e_fr_energy">   -601.05774121 </i>
    <i name="e_wo_entrp">   -601.05774121 </i>
    <i name="e_0_energy">   -601.05774121 </i>
   </energy>
  </scstep>
  <scstep>
   <time name="dav">  501.91  503.14</time>
   <time name="total">  515.67  516.93</time>
   <energy>
    <i name="e_fr_energy">   -601.86330769 </i>
    <i name="e_wo_entrp">   -601.86330769 </i>
    <i name="e_0_energy">   -601.86330769 </i>
   </energy>
  </scstep>
  <scstep>
   <time name="dav">  499.35  500.60</time>
   <time name="total">  512.54  513.81</time>
   <energy>
    <i name="e_fr_energy">   -601.92313612 </i>
    <i name="e_wo_entrp">   -601.92313612 </i>
    <i name="e_0_energy">   -601.92313612 </i>
   </energy>
  </scstep>
  <scstep>
   <time name="dav">  493.52  494.73</time>
   <time name="total">  506.74  507.98</time>
   <energy>
    <i name="e_fr_energy">   -601.95320191 </i>
    <i name="e_wo_entrp">   -601.95320191 </i>
    <i name="e_0_energy">   -601.95320191 </i>
   </energy>
  </scstep>
  <scstep>
   <time name="dav">  491.86  493.08</time>
   <time name="total">  505.15  506.40</time>
   <energy>
    <i name="e_fr_energy">   -601.95764485 </i>
    <i name="e_wo_entrp">   -601.95764485 </i>
    <i name="e_0_energy">   -601.95764485 </i>
   </energy>
  </scstep>
  <scstep>
   <time name="dav">  541.72  543.06</time>
   <time name="total">  555.10  556.46</time>
   <energy>
    <i name="e_fr_energy">   -601.95824292 </i>
    <i name="e_wo_entrp">   -601.95824292 </i>
    <i name="e_0_energy">   -601.95824292 </i>
   </energy>
  </scstep>
  <scstep>
   <time name="dav">  460.26  461.37</time>
   <time name="total">  473.76  474.90</time>
   <energy>
    <i name="e_fr_energy">   -601.95895673 </i>
    <i name="e_wo_entrp">   -601.95895673 </i>
    <i name="e_0_energy">   -601.95895673 </i>
   </energy>
  </scstep>
  <scstep>
   <time name="dav">  476.10  477.31</time>
   <time name="total">  489.75  491.00</time>
   <energy>
    <i name="e_fr_energy">   -601.95910120 </i>
    <i name="e_wo_entrp">   -601.95910120 </i>
    <i name="e_0_energy">   -601.95910120 </i>
   </energy>
  </scstep>
  <scstep>
   <time name="dav">  504.16  505.42</time>
   <time name="total">  517.39  518.68</time>
   <energy>
    <i name="e_fr_energy">   -601.95912741 </i>
    <i name="e_wo_entrp">   -601.95912741 </i>
    <i name="e_0_energy">   -601.95912741 </i>
   </energy>
  </scstep>
  <scstep>
   <time name="dav">  486.13  487.32</time>
   <time name="total">  499.41  500.64</time>
   <energy>
    <i name="e_fr_energy">   -601.95914670 </i>
    <i name="e_wo_entrp">   -601.95914670 </i>
    <i name="e_0_energy">   -601.95914670 </i>
   </energy>
  </scstep>
  <scstep>
   <time name="dav">  472.45  473.63</time>
   <time name="total">  485.99  487.20</time>
   <energy>
    <i name="e_fr_energy">   -601.95915757 </i>
    <i name="e_wo_entrp">   -601.95915757 </i>
    <i name="e_0_energy">   -601.95915757 </i>
   </energy>
  </scstep>
  <scstep>
   <time name="dav">  485.54  486.76</time>
   <time name="total">  498.97  500.22</time>
   <energy>
    <i name="e_fr_energy">   -601.95916258 </i>
    <i name="e_wo_entrp">   -601.95916258 </i>
    <i name="e_0_energy">   -601.95916258 </i>
   </energy>
  </scstep>
  <scstep>
   <time name="dav">  491.83  493.04</time>
   <time name="total">  505.51  506.76</time>
   <energy>
    <i name="e_fr_energy">   -601.95916472 </i>
    <i name="e_wo_entrp">   -601.95916472 </i>
    <i name="e_0_energy">   -601.95916472 </i>
   </energy>
  </scstep>
  <scstep>
   <time name="dav">  513.19  514.49</time>
   <time name="total">  526.45  527.78</time>
   <energy>
    <i name="e_fr_energy">   -601.95916659 </i>
    <i name="e_wo_entrp">   -601.95916659 </i>
    <i name="e_0_energy">   -601.95916659 </i>
   </energy>
  </scstep>
  <scstep>
   <time name="dav">  471.58  472.76</time>
   <time name="total">  484.90  486.11</time>
   <energy>
    <i name="e_fr_energy">   -601.95916791 </i>
    <i name="e_wo_entrp">   -601.95916791 </i>
    <i name="e_0_energy">   -601.95916791 </i>
   </energy>
  </scstep>
  <scstep>
   <time name="dav">  457.12  458.23</time>
   <time name="total">  470.44  471.58</time>
   <energy>
    <i name="e_fr_energy">   -601.95916923 </i>
    <i name="e_wo_entrp">   -601.95916923 </i>
    <i name="e_0_energy">   -601.95916923 </i>
   </energy>
  </scstep>
  <scstep>
   <time name="dav">  492.32  493.55</time>
   <time name="total">  505.54  506.81</time>
   <energy>
    <i name="e_fr_energy">   -601.95917120 </i>
    <i name="e_wo_entrp">   -601.95917120 </i>
    <i name="e_0_energy">   -601.95917120 </i>
   </energy>
  </scstep>
  <scstep>
   <time name="dav">  504.35  505.60</time>
   <time name="total">  517.72  519.00</time>
   <energy>
    <i name="e_fr_energy">   -601.95917331 </i>
    <i name="e_wo_entrp">   -601.95917331 </i>
    <i name="e_0_energy">   -601.95917331 </i>
   </energy>
  </scstep>
  <scstep>
   <time name="dav">  480.85  482.04</time>
   <time name="total">  494.10  495.31</time>
   <energy>
    <i name="e_fr_energy">   -601.95917444 </i>
    <i name="e_wo_entrp">   -601.95917444 </i>
    <i name="e_0_energy">   -601.95917444 </i>
   </energy>
  </scstep>
  <scstep>
   <time name="dav">  460.71  461.84</time>
   <time name="total">  474.14  475.31</time>
   <energy>
    <i name="e_fr_energy">   -601.95917495 </i>
    <i name="e_wo_entrp">   -601.95917495 </i>
    <i name="e_0_energy">   -601.95917495 </i>
   </energy>
  </scstep>
  <scstep>
   <time name="dav">  436.58  437.65</time>
   <time name="total">  449.61  450.71</time>
   <energy>
    <i name="e_fr_energy">   -601.95917520 </i>
    <i name="e_wo_entrp">   -601.95917520 </i>
    <i name="e_0_energy">   -601.95917520 </i>
   </energy>
  </scstep>
  <scstep>
   <time name="dav">  427.45  428.53</time>
   <time name="total">  440.78  441.90</time>
   <energy>
    <i name="e_fr_energy">   -601.95917532 </i>
    <i name="e_wo_entrp">   -601.95917532 </i>
    <i name="e_0_energy">   -601.95917532 </i>
   </energy>
  </scstep>
  <scstep>
   <time name="dav">  353.59  354.48</time>
   <time name="total">  366.81  367.72</time>
   <energy>
    <i name="e_fr_energy">   -601.95917536 </i>
    <i name="e_wo_entrp">   -601.95917536 </i>
    <i name="e_0_energy">   -601.95917536 </i>
   </energy>
  </scstep>
  <scstep>
   <time name="dav">  294.26  295.01</time>
   <time name="total">  307.62  308.40</time>
   <energy>
    <i name="e_fr_energy">   -601.95917538 </i>
    <i name="e_wo_entrp">   -601.95917538 </i>
    <i name="e_0_energy">   -601.95917538 </i>
   </energy>
  </scstep>
  <scstep>
   <time name="dav">  277.32  278.02</time>
   <time name="total">  288.51  289.24</time>
   <energy>
    <i name="e_fr_energy">   -601.95917539 </i>
    <i name="e_wo_entrp">   -601.95917539 </i>
    <i name="e_0_energy">   -601.95917539 </i>
   </energy>
  </scstep>
  <scstep>
   <time name="dav">  275.39  276.07</time>
   <time name="total">  278.55  279.24</time>
   <energy>
    <i name="alphaZ">   2671.99667194 </i>
    <i name="ewald"> -65588.31960482 </i>
    <i name="hartreedc"> -35898.47125231 </i>
    <i name="XCdc">   3842.04978028 </i>
    <i name="pawpsdc"> 106010.30930854 </i>
    <i name="pawaedc">-109344.78877538 </i>
    <i name="eentropy">     -0.00000000 </i>
    <i name="bandstr"> -12649.05048861 </i>
    <i name="atom"> 110354.31518496 </i>
    <i name="e_fr_energy">   -601.95917540 </i>
    <i name="e_wo_entrp">   -601.95917540 </i>
    <i name="e_0_energy">   -601.95917540 </i>
   </energy>
  </scstep>
  <structure>
   <crystal>
    <varray name="basis" >
     <v>      11.51036847       0.00000000       0.00000000 </v>
     <v>       0.00000000      11.32670916       0.12548940 </v>
     <v>       0.00000000      -0.29683152      11.32351444 </v>
    </varray>
    <i name="volume">   1476.72737236 </i>
    <varray name="rec_basis" >
     <v>       0.08687819       0.00000000       0.00000000 </v>
     <v>       0.00000000       0.08826126       0.00231366 </v>
     <v>       0.00000000      -0.00097813       0.08828616 </v>
    </varray>
   </crystal>
   <varray name="positions" >
    <v>       0.10513295       0.25000000       0.00088281 </v>
    <v>       0.43846628       0.25000000       0.00000000 </v>
    <v>       0.77179961       0.25000000       0.00000000 </v>
    <v>       0.10513295       0.75000000       0.00000000 </v>
    <v>       0.43846628       0.75000000       0.00000000 </v>
    <v>       0.77179961       0.75000000       0.00000000 </v>
    <v>       0.10513295       0.25000000       0.50000000 </v>
    <v>       0.43846628       0.25000000       0.50000000 </v>
    <v>       0.77179961       0.25000000       0.50000000 </v>
    <v>       0.10513295       0.75000000       0.50000000 </v>
    <v>       0.43846628       0.75000000       0.50000000 </v>
    <v>       0.77179961       0.75000000       0.50000000 </v>
    <v>       0.10513295       0.00000000       0.25000000 </v>
    <v>       0.43846628       0.00000000       0.25000000 </v>
    <v>       0.77179961       0.00000000       0.25000000 </v>
    <v>       0.10513295       0.50000000       0.25000000 </v>
    <v>       0.43846628       0.50000000       0.25000000 </v>
    <v>       0.77179961       0.50000000       0.25000000 </v>
    <v>       0.10513295       0.00000000       0.75000000 </v>
    <v>       0.43846628       0.00000000       0.75000000 </v>
    <v>       0.77179961       0.00000000       0.75000000 </v>
    <v>       0.10513295       0.50000000       0.75000000 </v>
    <v>       0.43846628       0.50000000       0.75000000 </v>
    <v>       0.77179961       0.50000000       0.75000000 </v>
    <v>       0.10614906       0.12527662       0.37472338 </v>
    <v>       0.43948239       0.12527662       0.37472338 </v>
    <v>       0.77281572       0.12527662       0.37472338 </v>
    <v>       0.10614906       0.62527662       0.37472338 </v>
    <v>       0.43948239       0.62527662       0.37472338 </v>
    <v>       0.77281572       0.62527662       0.37472338 </v>
    <v>       0.10614906       0.12527662       0.87472338 </v>
    <v>       0.43948239       0.12527662       0.87472338 </v>
    <v>       0.77281572       0.12527662       0.87472338 </v>
    <v>       0.10614906       0.62527662       0.87472338 </v>
    <v>       0.43948239       0.62527662       0.87472338 </v>
    <v>       0.77281572       0.62527662       0.87472338 </v>
    <v>       0.10614906       0.37472338       0.12527662 </v>
    <v>       0.43948239       0.37472338       0.12527662 </v>
    <v>       0.77281572       0.37472338       0.12527662 </v>
    <v>       0.10614906       0.87472338       0.12527662 </v>
    <v>       0.43948239       0.87472338       0.12527662 </v>
    <v>       0.77281572       0.87472338       0.12527662 </v>
    <v>       0.10614906       0.37472338       0.62527662 </v>
    <v>       0.43948239       0.37472338       0.62527662 </v>
    <v>       0.77281572       0.37472338       0.62527662 </v>
    <v>       0.10614906       0.87472338       0.62527662 </v>
    <v>       0.43948239       0.87472338       0.62527662 </v>
    <v>       0.77281572       0.87472338       0.62527662 </v>
    <v>       0.27279884       0.11809471       0.11809471 </v>
    <v>       0.60613218       0.11809471       0.11809471 </v>
    <v>       0.93946551       0.11809471       0.11809471 </v>
    <v>       0.27279884       0.61809471       0.11809471 </v>
    <v>       0.60613218       0.61809471       0.11809471 </v>
    <v>       0.93946551       0.61809471       0.11809471 </v>
    <v>       0.27279884       0.11809471       0.61809471 </v>
    <v>       0.60613218       0.11809471       0.61809471 </v>
    <v>       0.93946551       0.11809471       0.61809471 </v>
    <v>       0.27279884       0.61809471       0.61809471 </v>
    <v>       0.60613218       0.61809471       0.61809471 </v>
    <v>       0.93946551       0.61809471       0.61809471 </v>
    <v>       0.27279884       0.38190529       0.38190529 </v>
    <v>       0.60613218       0.38190529       0.38190529 </v>
    <v>       0.93946551       0.38190529       0.38190529 </v>
    <v>       0.27279884       0.88190529       0.38190529 </v>
    <v>       0.60613218       0.88190529       0.38190529 </v>
    <v>       0.93946551       0.88190529       0.38190529 </v>
    <v>       0.27279884       0.38190529       0.88190529 </v>
    <v>       0.60613218       0.38190529       0.88190529 </v>
    <v>       0.93946551       0.38190529       0.88190529 </v>
    <v>       0.27279884       0.88190529       0.88190529 </v>
    <v>       0.60613218       0.88190529       0.88190529 </v>
    <v>       0.93946551       0.88190529       0.88190529 </v>
    <v>       0.27287151       0.33907427       0.16092573 </v>
    <v>       0.60620484       0.33907427       0.16092573 </v>
    <v>       0.93953818       0.33907427       0.16092573 </v>
    <v>       0.27287151       0.83907427       0.16092573 </v>
    <v>       0.60620484       0.83907427       0.16092573 </v>
    <v>       0.93953818       0.83907427       0.16092573 </v>
    <v>       0.27287151       0.33907427       0.66092573 </v>
    <v>       0.60620484       0.33907427       0.66092573 </v>
    <v>       0.93953818       0.33907427       0.66092573 </v>
    <v>       0.27287151       0.83907427       0.66092573 </v>
    <v>       0.60620484       0.83907427       0.66092573 </v>
    <v>       0.93953818       0.83907427       0.66092573 </v>
    <v>       0.27287151       0.16092573       0.33907427 </v>
    <v>       0.60620484       0.16092573       0.33907427 </v>
    <v>       0.93953818       0.16092573       0.33907427 </v>
    <v>       0.27287151       0.66092573       0.33907427 </v>
    <v>       0.60620484       0.66092573       0.33907427 </v>
    <v>       0.93953818       0.66092573       0.33907427 </v>
    <v>       0.27287151       0.16092573       0.83907427 </v>
    <v>       0.60620484       0.16092573       0.83907427 </v>
    <v>       0.93953818       0.16092573       0.83907427 </v>
    <v>       0.27287151       0.66092573       0.83907427 </v>
    <v>       0.60620484       0.66092573       0.83907427 </v>
    <v>       0.93953818       0.66092573       0.83907427 </v>
    <v>       0.10731129       0.00000000       0.00000000 </v>
    <v>       0.44064462       0.00000000       0.00000000 </v>
    <v>       0.77397796       0.00000000       0.00000000 </v>
    <v>       0.10731129       0.50000000       0.00000000 </v>
    <v>       0.44064462       0.50000000       0.00000000 </v>
    <v>       0.77397796       0.50000000       0.00000000 </v>
    <v>       0.10731129       0.00000000       0.50000000 </v>
    <v>       0.44064462       0.00000000       0.50000000 </v>
    <v>       0.77397796       0.00000000       0.50000000 </v>
    <v>       0.10731129       0.50000000       0.50000000 </v>
    <v>       0.44064462       0.50000000       0.50000000 </v>
    <v>       0.77397796       0.50000000       0.50000000 </v>
   </varray>
  </structure>
  <varray name="forces" >
   <v>       0.01821949      -0.02506234      -0.03167083 </v>
   <v>       0.01822424       0.00042504      -0.00085219 </v>
   <v>       0.01822314       0.00042482      -0.00085358 </v>
   <v>       0.01822153       0.00004257      -0.00028622 </v>
   <v>       0.01822230      -0.00008664      -0.00030238 </v>
   <v>       0.01822508      -0.00009074      -0.00030131 </v>
   <v>       0.01822314      -0.00002644       0.00049436 </v>
   <v>       0.01822663      -0.00010874       0.00025984 </v>
   <v>       0.01822476      -0.00010615       0.00026244 </v>
   <v>       0.01822668      -0.00004370       0.00015346 </v>
   <v>       0.01822330      -0.00004669       0.00011068 </v>
   <v>       0.01822282      -0.00004723       0.00011091 </v>
   <v>       0.01823385      -0.00055204       0.00050806 </v>
   <v>       0.01857619      -0.00026816       0.00045829 </v>
   <v>       0.01786860      -0.00026376       0.00045913 </v>
   <v>       0.01823388       0.00083235       0.00064131 </v>
   <v>       0.01828852       0.00005818       0.00000390 </v>
   <v>       0.01817166       0.00005682       0.00000369 </v>
   <v>       0.01821938       0.00082623       0.00064149 </v>
   <v>       0.01816684       0.00006048       0.00000390 </v>
   <v>       0.01828737       0.00005887       0.00000233 </v>
   <v>       0.01822541      -0.00054924       0.00050732 </v>
   <v>       0.01787670      -0.00026635       0.00045850 </v>
   <v>       0.01858773      -0.00026740       0.00045695 </v>
   <v>       0.00134499      -0.00193140       0.00172579 </v>
   <v>       0.00119356      -0.00215955       0.00203004 </v>
   <v>       0.00151192      -0.00215354       0.00203108 </v>
   <v>       0.00135666      -0.00242738       0.00240883 </v>
   <v>       0.00125094      -0.00234200       0.00251983 </v>
   <v>       0.00146190      -0.00234337       0.00251902 </v>
   <v>       0.00137853       0.00111694       0.01254081 </v>
   <v>       0.00223379      -0.00299253       0.00326701 </v>
   <v>       0.00046571      -0.00300999       0.00327035 </v>
   <v>       0.00136227      -0.00181286       0.00305300 </v>
   <v>       0.00185550      -0.00163375       0.00276079 </v>
   <v>       0.00084282      -0.00162498       0.00275713 </v>
   <v>       0.00134311       0.00612942       0.00768828 </v>
   <v>       0.00048554       0.00156361      -0.00200336 </v>
   <v>       0.00224662       0.00154411      -0.00200344 </v>
   <v>       0.00135253       0.00274147      -0.00221613 </v>
   <v>       0.00085359       0.00292407      -0.00250990 </v>
   <v>       0.00187300       0.00294139      -0.00250731 </v>
   <v>       0.00135544       0.00262237      -0.00353956 </v>
   <v>       0.00151146       0.00240243      -0.00323936 </v>
   <v>       0.00119800       0.00240117      -0.00324366 </v>
   <v>       0.00136030       0.00212903      -0.00286529 </v>
   <v>       0.00146801       0.00221678      -0.00274654 </v>
   <v>       0.00124934       0.00221509      -0.00274650 </v>
   <v>       0.01526414       0.00550183       0.00647052 </v>
   <v>       0.01632647       0.00372481       0.00515157 </v>
   <v>       0.01730358       0.00547853       0.00656780 </v>
   <v>       0.01596585       0.00344804       0.00540137 </v>
   <v>       0.01632407       0.00397915       0.00527925 </v>
   <v>       0.01668208       0.00344503       0.00539767 </v>
   <v>       0.01667866       0.00361495       0.00404879 </v>
   <v>       0.01632220       0.00381793       0.00483064 </v>
   <v>       0.01595707       0.00360188       0.00403617 </v>
   <v>       0.01633176       0.00401354       0.00458689 </v>
   <v>       0.01632382       0.00391659       0.00480705 </v>
   <v>       0.01631591       0.00401960       0.00458879 </v>
   <v>       0.01596500      -0.00412527      -0.00598275 </v>
   <v>       0.01632641      -0.00391774      -0.00519383 </v>
   <v>       0.01669323      -0.00412805      -0.00598692 </v>
   <v>       0.01631740      -0.00371807      -0.00543219 </v>
   <v>       0.01632773      -0.00381766      -0.00521690 </v>
   <v>       0.01633563      -0.00372095      -0.00544435 </v>
   <v>       0.01739974      -0.00222032      -0.00358373 </v>
   <v>       0.01631812      -0.00400839      -0.00487617 </v>
   <v>       0.01532256      -0.00225309      -0.00349828 </v>
   <v>       0.01668612      -0.00429158      -0.00463014 </v>
   <v>       0.01632455      -0.00375367      -0.00474884 </v>
   <v>       0.01596536      -0.00428351      -0.00461971 </v>
   <v>      -0.01355218      -0.00234958       0.00923319 </v>
   <v>      -0.02153269      -0.00562289       0.00584657 </v>
   <v>      -0.02969691      -0.00218703       0.00941524 </v>
   <v>      -0.02166290      -0.00633052       0.00594027 </v>
   <v>      -0.02152814      -0.00593804       0.00596063 </v>
   <v>      -0.02138920      -0.00634650       0.00593889 </v>
   <v>      -0.02175404      -0.00603946       0.00702138 </v>
   <v>      -0.02152786      -0.00576057       0.00606398 </v>
   <v>      -0.02129157      -0.00604533       0.00703285 </v>
   <v>      -0.02159481      -0.00571224       0.00597810 </v>
   <v>      -0.02152712      -0.00577903       0.00586623 </v>
   <v>      -0.02145450      -0.00571137       0.00597623 </v>
   <v>      -0.02127756       0.00548265      -0.00469774 </v>
   <v>      -0.02151893       0.00576690      -0.00565454 </v>
   <v>      -0.02175931       0.00547734      -0.00468756 </v>
   <v>      -0.02145364       0.00581589      -0.00574128 </v>
   <v>      -0.02151977       0.00574878      -0.00585278 </v>
   <v>      -0.02158428       0.00581164      -0.00574386 </v>
   <v>      -0.02944343       0.00913601      -0.00250227 </v>
   <v>      -0.02151535       0.00590108      -0.00587500 </v>
   <v>      -0.01341086       0.00929609      -0.00232259 </v>
   <v>      -0.02138487       0.00519356      -0.00578093 </v>
   <v>      -0.02151608       0.00558465      -0.00575953 </v>
   <v>      -0.02166451       0.00518121      -0.00578109 </v>
   <v>      -0.02878647       0.00135768      -0.00467811 </v>
   <v>      -0.02820101      -0.00033366      -0.00141062 </v>
   <v>      -0.02933561      -0.00034035      -0.00143680 </v>
   <v>      -0.02874758       0.00130148      -0.00467692 </v>
   <v>      -0.02933025      -0.00033094      -0.00140696 </v>
   <v>      -0.02819647      -0.00033994      -0.00143616 </v>
   <v>      -0.02876529      -0.00004015       0.00069780 </v>
   <v>      -0.02891169       0.00008744       0.00039821 </v>
   <v>      -0.02861827       0.00008823       0.00040163 </v>
   <v>      -0.02876466      -0.00004240       0.00070161 </v>
   <v>      -0.02861890       0.00008847       0.00039723 </v>
   <v>      -0.02891555       0.00009105       0.00040106 </v>
  </varray>
  <varray name="stress" >
   <v>      -2.55736974       0.00005812      -0.00074444 </v>
   <v>       0.00005821      -1.73008661       0.54600961 </v>
   <v>      -0.00074304       0.61541893      -1.65531020 </v>
  </varray>
  <energy>
   <i name="e_fr_energy">   -601.95917540 </i>
   <i name="e_wo_entrp">   -601.95917540 </i>
   <i name="e_0_energy">     -0.00000000 </i>
  </energy>
  <time name="totalsc">17212.0217254.68</time>
  <eigenvalues>
   <array>
    <dimension dim="1">band</dimension>
    <dimension dim="2">kpoint</dimension>
    <dimension dim="3">spin</dimension>
    <field>eigene</field>
    <field>occ</field>
    <set>
     <set comment="spin 1">
      <set comment="kpoint 1">
       <r>  -51.3618    1.0000 </r>
       <r>  -51.3611    1.0000 </r>
       <r>  -51.3603    1.0000 </r>
       <r>  -51.3602    1.0000 </r>
       <r>  -51.3597    1.0000 </r>
       <r>  -51.3596    1.0000 </r>
       <r>  -51.3594    1.0000 </r>
       <r>  -51.3594    1.0000 </r>
       <r>  -51.3592    1.0000 </r>
       <r>  -51.3588    1.0000 </r>
       <r>  -51.3585    1.0000 </r>
       <r>  -51.3585    1.0000 </r>
       <r>  -51.3583    1.0000 </r>
       <r>  -51.3582    1.0000 </r>
       <r>  -51.3580    1.0000 </r>
       <r>  -51.3578    1.0000 </r>
       <r>  -51.3577    1.0000 </r>
       <r>  -51.3576    1.0000 </r>
       <r>  -51.3571    1.0000 </r>
       <r>  -51.3571    1.0000 </r>
       <r>  -51.3566    1.0000 </r>
       <r>  -51.3561    1.0000 </r>
       <r>  -51.3561    1.0000 </r>
       <r>  -51.3548    1.0000 </r>
       <r>  -51.0710    1.0000 </r>
       <r>  -51.0710    1.0000 </r>
       <r>  -51.0709    1.0000 </r>
       <r>  -51.0706    1.0000 </r>
       <r>  -51.0705    1.0000 </r>
       <r>  -51.0704    1.0000 </r>
       <r>  -51.0704    1.0000 </r>
       <r>  -51.0703    1.0000 </r>
       <r>  -51.0703    1.0000 </r>
       <r>  -51.0700    1.0000 </r>
       <r>  -51.0699    1.0000 </r>
       <r>  -51.0698    1.0000 </r>
       <r>  -50.1475    1.0000 </r>
       <r>  -50.1475    1.0000 </r>
       <r>  -50.1464    1.0000 </r>
       <r>  -50.1463    1.0000 </r>
       <r>  -50.1463    1.0000 </r>
       <r>  -50.1461    1.0000 </r>
       <r>  -50.1459    1.0000 </r>
       <r>  -50.1457    1.0000 </r>
       <r>  -50.1457    1.0000 </r>
       <r>  -50.1456    1.0000 </r>
       <r>  -50.1449    1.0000 </r>
       <r>  -50.1448    1.0000 </r>
       <r>  -50.1447    1.0000 </r>
       <r>  -50.1447    1.0000 </r>
       <r>  -50.1439    1.0000 </r>
       <r>  -50.1439    1.0000 </r>
       <r>  -50.1438    1.0000 </r>
       <r>  -50.1437    1.0000 </r>
       <r>  -50.1434    1.0000 </r>
       <r>  -50.1433    1.0000 </r>
       <r>  -50.1432    1.0000 </r>
       <r>  -50.1432    1.0000 </r>
       <r>  -50.1421    1.0000 </r>
       <r>  -50.1420    1.0000 </r>
       <r>  -49.8390    1.0000 </r>
       <r>  -49.8390    1.0000 </r>
       <r>  -49.8379    1.0000 </r>
       <r>  -49.8378    1.0000 </r>
       <r>  -49.8378    1.0000 </r>
       <r>  -49.8377    1.0000 </r>
       <r>  -49.8374    1.0000 </r>
       <r>  -49.8373    1.0000 </r>
       <r>  -49.8373    1.0000 </r>
       <r>  -49.8372    1.0000 </r>
       <r>  -49.8362    1.0000 </r>
       <r>  -49.8361    1.0000 </r>
       <r>  -49.8139    1.0000 </r>
       <r>  -49.8138    1.0000 </r>
       <r>  -49.8128    1.0000 </r>
       <r>  -49.8127    1.0000 </r>
       <r>  -49.8127    1.0000 </r>
       <r>  -49.8126    1.0000 </r>
       <r>  -49.8123    1.0000 </r>
       <r>  -49.8122    1.0000 </r>
       <r>  -49.8121    1.0000 </r>
       <r>  -49.8121    1.0000 </r>
       <r>  -49.8110    1.0000 </r>
       <r>  -49.8110    1.0000 </r>
       <r>  -49.7042    1.0000 </r>
       <r>  -49.7042    1.0000 </r>
       <r>  -49.7039    1.0000 </r>
       <r>  -49.7038    1.0000 </r>
       <r>  -49.7038    1.0000 </r>
       <r>  -49.7038    1.0000 </r>
       <r>  -49.7037    1.0000 </r>
       <r>  -49.7036    1.0000 </r>
       <r>  -49.7036    1.0000 </r>
       <r>  -49.7035    1.0000 </r>
       <r>  -49.7032    1.0000 </r>
       <r>  -49.7032    1.0000 </r>
       <r>  -49.5832    1.0000 </r>
       <r>  -49.5829    1.0000 </r>
       <r>  -49.5827    1.0000 </r>
       <r>  -49.5827    1.0000 </r>
       <r>  -49.5826    1.0000 </r>
       <r>  -49.5825    1.0000 </r>
       <r>  -49.5825    1.0000 </r>
       <r>  -49.5820    1.0000 </r>
       <r>  -49.5820    1.0000 </r>
       <r>  -49.5819    1.0000 </r>
       <r>  -49.5817    1.0000 </r>
       <r>  -49.5813    1.0000 </r>
       <r>  -40.1290    1.0000 </r>
       <r>  -40.1285    1.0000 </r>
       <r>  -40.1282    1.0000 </r>
       <r>  -40.1282    1.0000 </r>
       <r>  -40.1280    1.0000 </r>
       <r>  -40.1279    1.0000 </r>
       <r>  -40.1278    1.0000 </r>
       <r>  -40.1278    1.0000 </r>
       <r>  -40.1277    1.0000 </r>
       <r>  -40.1276    1.0000 </r>
       <r>  -40.1275    1.0000 </r>
       <r>  -40.1275    1.0000 </r>
       <r>  -40.1275    1.0000 </r>
       <r>  -40.1275    1.0000 </r>
       <r>  -40.1274    1.0000 </r>
       <r>  -40.1274    1.0000 </r>
       <r>  -40.1274    1.0000 </r>
       <r>  -40.1273    1.0000 </r>
       <r>  -40.1270    1.0000 </r>
       <r>  -40.1268    1.0000 </r>
       <r>  -40.1267    1.0000 </r>
       <r>  -40.1264    1.0000 </r>
       <r>  -40.1263    1.0000 </r>
       <r>  -40.1257    1.0000 </r>
       <r>  -13.5840    1.0000 </r>
       <r>  -13.5514    1.0000 </r>
       <r>  -13.5495    1.0000 </r>
       <r>  -13.5483    1.0000 </r>
       <r>  -13.4234    1.0000 </r>
       <r>  -13.4206    1.0000 </r>
       <r>  -13.4195    1.0000 </r>
       <r>  -13.4188    1.0000 </r>
       <r>  -13.4183    1.0000 </r>
       <r>  -13.3855    1.0000 </r>
       <r>  -13.3842    1.0000 </r>
       <r>  -13.3842    1.0000 </r>
       <r>  -13.3831    1.0000 </r>
       <r>  -13.3761    1.0000 </r>
       <r>  -13.3744    1.0000 </r>
       <r>  -13.3742    1.0000 </r>
       <r>  -13.2587    1.0000 </r>
       <r>  -13.2586    1.0000 </r>
       <r>  -13.2475    1.0000 </r>
       <r>  -13.2464    1.0000 </r>
       <r>  -13.2463    1.0000 </r>
       <r>  -13.2450    1.0000 </r>
       <r>  -13.2073    1.0000 </r>
       <r>  -13.2072    1.0000 </r>
       <r>   -7.5294    1.0000 </r>
       <r>   -7.3725    1.0000 </r>
       <r>   -7.3712    1.0000 </r>
       <r>   -7.3712    1.0000 </r>
       <r>   -7.3593    1.0000 </r>
       <r>   -7.3584    1.0000 </r>
       <r>   -7.2291    1.0000 </r>
       <r>   -7.2281    1.0000 </r>
       <r>   -7.1889    1.0000 </r>
       <r>   -7.1190    1.0000 </r>
       <r>   -7.1186    1.0000 </r>
       <r>   -7.1180    1.0000 </r>
       <r>   -7.1177    1.0000 </r>
       <r>   -7.0883    1.0000 </r>
       <r>   -7.0880    1.0000 </r>
       <r>   -7.0873    1.0000 </r>
       <r>   -7.0870    1.0000 </r>
       <r>   -7.0709    1.0000 </r>
       <r>   -7.0709    1.0000 </r>
       <r>   -7.0490    1.0000 </r>
       <r>   -7.0399    1.0000 </r>
       <r>   -7.0399    1.0000 </r>
       <r>   -6.8939    1.0000 </r>
       <r>   -6.8939    1.0000 </r>
       <r>   -2.0679    1.0000 </r>
       <r>   -2.0679    1.0000 </r>
       <r>   -2.0288    1.0000 </r>
       <r>   -2.0282    1.0000 </r>
       <r>   -2.0278    1.0000 </r>
       <r>   -2.0273    1.0000 </r>
       <r>   -2.0169    1.0000 </r>
       <r>   -2.0169    1.0000 </r>
       <r>   -2.0106    1.0000 </r>
       <r>   -2.0105    1.0000 </r>
       <r>   -1.9481    1.0000 </r>
       <r>   -1.9481    1.0000 </r>
       <r>   -1.9348    1.0000 </r>
       <r>   -1.9345    1.0000 </r>
       <r>   -1.9339    1.0000 </r>
       <r>   -1.9335    1.0000 </r>
       <r>   -1.7722    1.0000 </r>
       <r>   -1.7663    1.0000 </r>
       <r>   -1.6805    1.0000 </r>
       <r>   -1.6798    1.0000 </r>
       <r>   -1.4542    1.0000 </r>
       <r>   -1.4534    1.0000 </r>
       <r>   -1.4105    1.0000 </r>
       <r>   -1.3702    1.0000 </r>
       <r>   -1.2350    1.0000 </r>
       <r>   -1.2344    1.0000 </r>
       <r>   -1.2342    1.0000 </r>
       <r>   -1.2337    1.0000 </r>
       <r>   -1.2153    1.0000 </r>
       <r>   -1.2056    1.0000 </r>
       <r>   -1.1365    1.0000 </r>
       <r>   -1.1365    1.0000 </r>
       <r>   -1.1340    1.0000 </r>
       <r>   -1.1340    1.0000 </r>
       <r>   -1.1191    1.0000 </r>
       <r>   -1.1182    1.0000 </r>
       <r>   -1.0807    1.0000 </r>
       <r>   -1.0663    1.0000 </r>
       <r>   -1.0663    1.0000 </r>
       <r>   -1.0570    1.0000 </r>
       <r>   -1.0538    1.0000 </r>
       <r>   -1.0538    1.0000 </r>
       <r>   -0.9811    1.0000 </r>
       <r>   -0.9806    1.0000 </r>
       <r>   -0.9654    1.0000 </r>
       <r>   -0.9646    1.0000 </r>
       <r>   -0.9358    1.0000 </r>
       <r>   -0.9355    1.0000 </r>
       <r>   -0.9355    1.0000 </r>
       <r>   -0.9239    1.0000 </r>
       <r>   -0.9239    1.0000 </r>
       <r>   -0.9129    1.0000 </r>
       <r>   -0.9126    1.0000 </r>
       <r>   -0.9124    1.0000 </r>
       <r>   -0.9120    1.0000 </r>
       <r>   -0.8718    1.0000 </r>
       <r>   -0.8712    1.0000 </r>
       <r>   -0.8708    1.0000 </r>
       <r>   -0.8702    1.0000 </r>
       <r>   -0.8662    1.0000 </r>
       <r>   -0.8662    1.0000 </r>
       <r>   -0.8415    1.0000 </r>
       <r>   -0.8415    1.0000 </r>
       <r>   -0.7489    1.0000 </r>
       <r>   -0.7401    1.0000 </r>
       <r>   -0.6424    1.0000 </r>
       <r>   -0.6423    1.0000 </r>
       <r>   -0.6419    1.0000 </r>
       <r>   -0.6417    1.0000 </r>
       <r>   -0.6095    1.0000 </r>
       <r>   -0.6089    1.0000 </r>
       <r>   -0.5936    1.0000 </r>
       <r>   -0.5935    1.0000 </r>
       <r>   -0.5931    1.0000 </r>
       <r>   -0.5931    1.0000 </r>
       <r>   -0.5734    1.0000 </r>
       <r>   -0.5734    1.0000 </r>
       <r>   -0.5262    1.0000 </r>
       <r>   -0.4648    1.0000 </r>
       <r>   -0.4643    1.0000 </r>
       <r>   -0.4639    1.0000 </r>
       <r>   -0.4634    1.0000 </r>
       <r>   -0.4352    1.0000 </r>
       <r>   -0.4255    1.0000 </r>
       <r>   -0.3142    1.0000 </r>
       <r>   -0.3142    1.0000 </r>
       <r>   -0.2865    1.0000 </r>
       <r>   -0.2856    1.0000 </r>
       <r>   -0.2398    1.0000 </r>
       <r>   -0.2398    1.0000 </r>
       <r>   -0.2369    1.0000 </r>
       <r>   -0.2354    1.0000 </r>
       <r>   -0.2354    1.0000 </r>
       <r>   -0.2094    1.0000 </r>
       <r>   -0.2045    1.0000 </r>
       <r>   -0.2037    1.0000 </r>
       <r>   -0.1421    1.0000 </r>
       <r>   -0.1352    1.0000 </r>
       <r>   -0.1352    1.0000 </r>
       <r>   -0.1348    1.0000 </r>
       <r>   -0.1348    1.0000 </r>
       <r>   -0.1282    1.0000 </r>
       <r>   -0.1281    1.0000 </r>
       <r>   -0.0436    1.0000 </r>
       <r>   -0.0436    1.0000 </r>
       <r>    0.0021    1.0000 </r>
       <r>    0.0026    1.0000 </r>
       <r>    0.0250    1.0000 </r>
       <r>    0.0250    1.0000 </r>
       <r>    0.1141    1.0000 </r>
       <r>    0.1142    1.0000 </r>
       <r>    0.1252    1.0000 </r>
       <r>    0.1252    1.0000 </r>
       <r>    0.1257    1.0000 </r>
       <r>    0.1257    1.0000 </r>
       <r>    0.1528    1.0000 </r>
       <r>    0.1528    1.0000 </r>
       <r>    0.1595    1.0000 </r>
       <r>    0.2009    1.0000 </r>
       <r>    0.2009    1.0000 </r>
       <r>    0.2013    1.0000 </r>
       <r>    0.2013    1.0000 </r>
       <r>    0.2017    1.0000 </r>
       <r>    0.2021    1.0000 </r>
       <r>    0.2382    1.0000 </r>
       <r>    0.2535    1.0000 </r>
       <r>    0.2548    1.0000 </r>
       <r>    0.2637    1.0000 </r>
       <r>    0.2637    1.0000 </r>
       <r>    0.3142    1.0000 </r>
       <r>    0.3142    1.0000 </r>
       <r>    0.3158    1.0000 </r>
       <r>    0.3458    1.0000 </r>
[...]
       <r>   -43.3012     0.0000   108.0000 </r>
       <r>   -43.0596     0.0000   108.0000 </r>
       <r>   -42.8180     0.0000   108.0000 </r>
       <r>   -42.5764     0.0000   108.0000 </r>
       <r>   -42.3348     0.0000   108.0000 </r>
       <r>   -42.0932     0.0000   108.0000 </r>
       <r>   -41.8516     0.0000   108.0000 </r>
       <r>   -41.6100     0.0000   108.0000 </r>
       <r>   -41.3684     0.0000   108.0000 </r>
       <r>   -41.1268     0.0000   108.0000 </r>
       <r>   -40.8852     0.0000   108.0000 </r>
       <r>   -40.6436     0.0000   108.0000 </r>
       <r>   -40.4020     0.0000   108.0000 </r>
       <r>   -40.1604    19.7511   112.7719 </r>
       <r>   -39.9188    79.5853   132.0000 </r>
       <r>   -39.6772     0.0000   132.0000 </r>
       <r>   -39.4356     0.0000   132.0000 </r>
       <r>   -39.1940     0.0000   132.0000 </r>
       <r>   -38.9524     0.0000   132.0000 </r>
       <r>   -38.7108     0.0000   132.0000 </r>
       <r>   -38.4692     0.0000   132.0000 </r>
       <r>   -38.2276     0.0000   132.0000 </r>
       <r>   -37.9860     0.0000   132.0000 </r>
       <r>   -37.7443     0.0000   132.0000 </r>
       <r>   -37.5027     0.0000   132.0000 </r>
       <r>   -37.2611     0.0000   132.0000 </r>
       <r>   -37.0195     0.0000   132.0000 </r>
       <r>   -36.7779     0.0000   132.0000 </r>
       <r>   -36.5363     0.0000   132.0000 </r>
       <r>   -36.2947     0.0000   132.0000 </r>
       <r>   -36.0531     0.0000   132.0000 </r>
       <r>   -35.8115     0.0000   132.0000 </r>
       <r>   -35.5699     0.0000   132.0000 </r>
       <r>   -35.3283     0.0000   132.0000 </r>
       <r>   -35.0867     0.0000   132.0000 </r>
       <r>   -34.8451     0.0000   132.0000 </r>
       <r>   -34.6035     0.0000   132.0000 </r>
       <r>   -34.3619     0.0000   132.0000 </r>
       <r>   -34.1203     0.0000   132.0000 </r>
       <r>   -33.8787     0.0000   132.0000 </r>
       <r>   -33.6371     0.0000   132.0000 </r>
       <r>   -33.3955     0.0000   132.0000 </r>
       <r>   -33.1539     0.0000   132.0000 </r>
       <r>   -32.9123     0.0000   132.0000 </r>
       <r>   -32.6707     0.0000   132.0000 </r>
       <r>   -32.4291     0.0000   132.0000 </r>
       <r>   -32.1875     0.0000   132.0000 </r>
       <r>   -31.9459     0.0000   132.0000 </r>
       <r>   -31.7043     0.0000   132.0000 </r>
       <r>   -31.4627     0.0000   132.0000 </r>
       <r>   -31.2211     0.0000   132.0000 </r>
       <r>   -30.9795     0.0000   132.0000 </r>
       <r>   -30.7379     0.0000   132.0000 </r>
       <r>   -30.4963     0.0000   132.0000 </r>
       <r>   -30.2546     0.0000   132.0000 </r>
       <r>   -30.0130     0.0000   132.0000 </r>
       <r>   -29.7714     0.0000   132.0000 </r>
       <r>   -29.5298     0.0000   132.0000 </r>
       <r>   -29.2882     0.0000   132.0000 </r>
       <r>   -29.0466     0.0000   132.0000 </r>
       <r>   -28.8050     0.0000   132.0000 </r>
       <r>   -28.5634     0.0000   132.0000 </r>
       <r>   -28.3218     0.0000   132.0000 </r>
       <r>   -28.0802     0.0000   132.0000 </r>
       <r>   -27.8386     0.0000   132.0000 </r>
       <r>   -27.5970     0.0000   132.0000 </r>
       <r>   -27.3554     0.0000   132.0000 </r>
       <r>   -27.1138     0.0000   132.0000 </r>
       <r>   -26.8722     0.0000   132.0000 </r>
       <r>   -26.6306     0.0000   132.0000 </r>
       <r>   -26.3890     0.0000   132.0000 </r>
       <r>   -26.1474     0.0000   132.0000 </r>
       <r>   -25.9058     0.0000   132.0000 </r>
       <r>   -25.6642     0.0000   132.0000 </r>
       <r>   -25.4226     0.0000   132.0000 </r>
       <r>   -25.1810     0.0000   132.0000 </r>
       <r>   -24.9394     0.0000   132.0000 </r>
       <r>   -24.6978     0.0000   132.0000 </r>
       <r>   -24.4562     0.0000   132.0000 </r>
       <r>   -24.2146     0.0000   132.0000 </r>
       <r>   -23.9730     0.0000   132.0000 </r>
       <r>   -23.7314     0.0000   132.0000 </r>
       <r>   -23.4898     0.0000   132.0000 </r>
       <r>   -23.2482     0.0000   132.0000 </r>
       <r>   -23.0066     0.0000   132.0000 </r>
       <r>   -22.7649     0.0000   132.0000 </r>
       <r>   -22.5233     0.0000   132.0000 </r>
       <r>   -22.2817     0.0000   132.0000 </r>
       <r>   -22.0401     0.0000   132.0000 </r>
       <r>   -21.7985     0.0000   132.0000 </r>
       <r>   -21.5569     0.0000   132.0000 </r>
       <r>   -21.3153     0.0000   132.0000 </r>
       <r>   -21.0737     0.0000   132.0000 </r>
       <r>   -20.8321     0.0000   132.0000 </r>
       <r>   -20.5905     0.0000   132.0000 </r>
       <r>   -20.3489     0.0000   132.0000 </r>
       <r>   -20.1073     0.0000   132.0000 </r>
       <r>   -19.8657     0.0000   132.0000 </r>
       <r>   -19.6241     0.0000   132.0000 </r>
       <r>   -19.3825     0.0000   132.0000 </r>
       <r>   -19.1409     0.0000   132.0000 </r>
       <r>   -18.8993     0.0000   132.0000 </r>
       <r>   -18.6577     0.0000   132.0000 </r>
       <r>   -18.4161     0.0000   132.0000 </r>
       <r>   -18.1745     0.0000   132.0000 </r>
       <r>   -17.9329     0.0000   132.0000 </r>
       <r>   -17.6913     0.0000   132.0000 </r>
       <r>   -17.4497     0.0000   132.0000 </r>
       <r>   -17.2081     0.0000   132.0000 </r>
       <r>   -16.9665     0.0000   132.0000 </r>
       <r>   -16.7249     0.0000   132.0000 </r>
       <r>   -16.4833     0.0000   132.0000 </r>
       <r>   -16.2417     0.0000   132.0000 </r>
       <r>   -16.0001     0.0000   132.0000 </r>
       <r>   -15.7585     0.0000   132.0000 </r>
       <r>   -15.5169     0.0000   132.0000 </r>
       <r>   -15.2752     0.0000   132.0000 </r>
       <r>   -15.0336     0.0000   132.0000 </r>
       <r>   -14.7920     0.0000   132.0000 </r>
       <r>   -14.5504     0.0000   132.0000 </r>
       <r>   -14.3088     0.0000   132.0000 </r>
       <r>   -14.0672     0.0000   132.0000 </r>
       <r>   -13.8256     0.0000   132.0000 </r>
       <r>   -13.5840     0.0000   132.0000 </r>
       <r>   -13.3424     0.0000   132.0000 </r>
       <r>   -13.1008    19.0684   136.6070 </r>
       <r>   -12.8592    76.2420   155.0273 </r>
       <r>   -12.6176     4.0260   156.0000 </r>
       <r>   -12.3760     0.0000   156.0000 </r>
       <r>   -12.1344     0.0000   156.0000 </r>
       <r>   -11.8928     0.0000   156.0000 </r>
       <r>   -11.6512     0.0000   156.0000 </r>
       <r>   -11.4096     0.0000   156.0000 </r>
       <r>   -11.1680     0.0000   156.0000 </r>
       <r>   -10.9264     0.0000   156.0000 </r>
       <r>   -10.6848     0.0000   156.0000 </r>
       <r>   -10.4432     0.0000   156.0000 </r>
       <r>   -10.2016     0.0000   156.0000 </r>
       <r>    -9.9600     0.0000   156.0000 </r>
       <r>    -9.7184     0.0000   156.0000 </r>
       <r>    -9.4768     0.0000   156.0000 </r>
       <r>    -9.2352     0.0000   156.0000 </r>
       <r>    -8.9936     0.0000   156.0000 </r>
       <r>    -8.7520     0.0000   156.0000 </r>
       <r>    -8.5104     0.0000   156.0000 </r>
       <r>    -8.2688     0.0000   156.0000 </r>
       <r>    -8.0271     0.0000   156.0000 </r>
       <r>    -7.7855     0.0000   156.0000 </r>
       <r>    -7.5439     0.0000   156.0000 </r>
       <r>    -7.3023     0.0678   156.0164 </r>
       <r>    -7.0607    24.5364   161.9445 </r>
       <r>    -6.8191    46.5719   173.1964 </r>
       <r>    -6.5775    26.6707   179.6401 </r>
       <r>    -6.3359     1.4896   180.0000 </r>
       <r>    -6.0943     0.0000   180.0000 </r>
       <r>    -5.8527     0.0000   180.0000 </r>
       <r>    -5.6111     0.0000   180.0000 </r>
       <r>    -5.3695     0.0000   180.0000 </r>
       <r>    -5.1279     0.0000   180.0000 </r>
       <r>    -4.8863     0.0000   180.0000 </r>
       <r>    -4.6447     0.0000   180.0000 </r>
       <r>    -4.4031     0.0000   180.0000 </r>
       <r>    -4.1615     0.0000   180.0000 </r>
       <r>    -3.9199     0.0000   180.0000 </r>
       <r>    -3.6783     0.0000   180.0000 </r>
       <r>    -3.4367     0.0000   180.0000 </r>
       <r>    -3.1951     0.0000   180.0000 </r>
       <r>    -2.9535     0.0000   180.0000 </r>
       <r>    -2.7119     0.0000   180.0000 </r>
       <r>    -2.4703     0.0000   180.0000 </r>
       <r>    -2.2287     0.0000   180.0000 </r>
       <r>    -1.9871     0.0000   180.0000 </r>
       <r>    -1.7455     0.0000   180.0000 </r>
       <r>    -1.5039     0.0000   180.0000 </r>
       <r>    -1.2623     0.0000   180.0000 </r>
       <r>    -1.0207     0.0002   180.0000 </r>
       <r>    -0.7791     1.9094   180.4614 </r>
       <r>    -0.5374    10.0138   182.8807 </r>
       <r>    -0.2958    20.3958   187.8084 </r>
       <r>    -0.0542    34.1489   196.0589 </r>
       <r>     0.1874    25.1603   202.1377 </r>
       <r>     0.4290    37.0606   211.0917 </r>
       <r>     0.6706    36.1683   219.8300 </r>
       <r>     0.9122    57.1421   233.6358 </r>
       <r>     1.1538    55.9414   247.1514 </r>
       <r>     1.3954    19.7983   251.9347 </r>
       <r>     1.6370    25.2269   258.0296 </r>
       <r>     1.8786    47.3465   269.4687 </r>
       <r>     2.1202    35.7004   278.0940 </r>
       <r>     2.3618    30.1977   285.3899 </r>
       <r>     2.6034    33.3718   293.4526 </r>
       <r>     2.8450    44.6537   304.2411 </r>
       <r>     3.0866    38.1503   313.4584 </r>
       <r>     3.3282    59.6373   327.8669 </r>
       <r>     3.5698    27.8602   334.5980 </r>
       <r>     3.8114     9.3233   336.8506 </r>
       <r>     4.0530    10.8680   339.4763 </r>
       <r>     4.2946    40.7615   349.3244 </r>
       <r>     4.5362    22.7126   354.8119 </r>
       <r>     4.7778    19.8958   359.6188 </r>
       <r>     5.0194     1.5780   360.0000 </r>
       <r>     5.2610     0.0000   360.0000 </r>
       <r>     5.5026     0.0000   360.0000 </r>
       <r>     5.7442     0.0000   360.0000 </r>
       <r>     5.9858     0.0000   360.0000 </r>
       <r>     6.2274     0.3159   360.0763 </r>
       <r>     6.4690     3.6836   360.9663 </r>
       <r>     6.7106     9.7635   363.3252 </r>
       <r>     6.9523    32.7482   371.2373 </r>
       <r>     7.1939    77.7498   390.0219 </r>
       <r>     7.4355    65.0799   405.7454 </r>
       <r>     7.6771    51.5185   418.1924 </r>
       <r>     7.9187    85.5719   438.8669 </r>
       <r>     8.1603    78.2776   457.7790 </r>
       <r>     8.4019    52.8491   470.5475 </r>
       <r>     8.6435    72.9453   488.1713 </r>
       <r>     8.8851    45.0291   499.0505 </r>
       <r>     9.1267    22.1298   504.3971 </r>
       <r>     9.3683     4.8313   505.5644 </r>
       <r>     9.6099     6.6469   507.1703 </r>
       <r>     9.8515    11.5631   509.9640 </r>
       <r>    10.0931    14.4277   513.4498 </r>
       <r>    10.3347    18.1399   517.8325 </r>
       <r>    10.5763    31.9756   525.5579 </r>
       <r>    10.8179    28.2144   532.3746 </r>
       <r>    11.0595    21.9073   537.6674 </r>
       <r>    11.3011    24.8610   543.6739 </r>
       <r>    11.5427    22.0764   549.0077 </r>
       <r>    11.7843    21.5155   554.2059 </r>
       <r>    12.0259    18.5793   558.6947 </r>
       <r>    12.2675    30.6657   566.1037 </r>
       <r>    12.5091    42.7121   576.4230 </r>
       <r>    12.7507    35.2827   584.9475 </r>
       <r>    12.9923    28.5337   591.8413 </r>
       <r>    13.2339    27.4083   598.4632 </r>
       <r>    13.4755    36.6157   607.3097 </r>
       <r>    13.7171    29.4469   614.4242 </r>
       <r>    13.9587    23.0871   620.0021 </r>
       <r>    14.2003    23.6117   625.7067 </r>
       <r>    14.4420    16.3800   629.6642 </r>
       <r>    14.6836     1.3898   630.0000 </r>
       <r>    14.9252     0.0000   630.0000 </r>
       <r>    15.1668     0.0000   630.0000 </r>
       <r>    15.4084     0.0000   630.0000 </r>
       <r>    15.6500     0.0000   630.0000 </r>
       <r>    15.8916     0.0000   630.0000 </r>
       <r>    16.1332     0.0000   630.0000 </r>
       <r>    16.3748     0.0000   630.0000 </r>
       <r>    16.6164     0.0000   630.0000 </r>
       <r>    16.8580     0.0000   630.0000 </r>
       <r>    17.0996     0.0000   630.0000 </r>
       <r>    17.3412     0.0000   630.0000 </r>
       <r>    17.5828     0.0000   630.0000 </r>
       <r>    17.8244     0.0000   630.0000 </r>
      </set>
     </set>
    </array>
   </total>
  </dos>
 </calculation>
 <structure name="finalpos" >
  <crystal>
   <varray name="basis" >
    <v>      11.51036847       0.00000000       0.00000000 </v>
    <v>       0.00000000      11.32670916       0.12548940 </v>
    <v>       0.00000000      -0.29683152      11.32351444 </v>
   </varray>
   <i name="volume">   1476.72737236 </i>
   <varray name="rec_basis" >
    <v>       0.08687819       0.00000000       0.00000000 </v>
    <v>       0.00000000       0.08826126       0.00231366 </v>
    <v>       0.00000000      -0.00097813       0.08828616 </v>
   </varray>
  </crystal>
  <varray name="positions" >
   <v>       0.10513295       0.25000000       0.00088281 </v>
   <v>       0.43846628       0.25000000       0.00000000 </v>
   <v>       0.77179961       0.25000000       0.00000000 </v>
   <v>       0.10513295       0.75000000       0.00000000 </v>
   <v>       0.43846628       0.75000000       0.00000000 </v>
   <v>       0.77179961       0.75000000       0.00000000 </v>
   <v>       0.10513295       0.25000000       0.50000000 </v>
   <v>       0.43846628       0.25000000       0.50000000 </v>
   <v>       0.77179961       0.25000000       0.50000000 </v>
   <v>       0.10513295       0.75000000       0.50000000 </v>
   <v>       0.43846628       0.75000000       0.50000000 </v>
   <v>       0.77179961       0.75000000       0.50000000 </v>
   <v>       0.10513295       0.00000000       0.25000000 </v>
   <v>       0.43846628       0.00000000       0.25000000 </v>
   <v>       0.77179961       0.00000000       0.25000000 </v>
   <v>       0.10513295       0.50000000       0.25000000 </v>
   <v>       0.43846628       0.50000000       0.25000000 </v>
   <v>       0.77179961       0.50000000       0.25000000 </v>
   <v>       0.10513295       0.00000000       0.75000000 </v>
   <v>       0.43846628       0.00000000       0.75000000 </v>
   <v>       0.77179961       0.00000000       0.75000000 </v>
   <v>       0.10513295       0.50000000       0.75000000 </v>
   <v>       0.43846628       0.50000000       0.75000000 </v>
   <v>       0.77179961       0.50000000       0.75000000 </v>
   <v>       0.10614906       0.12527662       0.37472338 </v>
   <v>       0.43948239       0.12527662       0.37472338 </v>
   <v>       0.77281572       0.12527662       0.37472338 </v>
   <v>       0.10614906       0.62527662       0.37472338 </v>
   <v>       0.43948239       0.62527662       0.37472338 </v>
   <v>       0.77281572       0.62527662       0.37472338 </v>
   <v>       0.10614906       0.12527662       0.87472338 </v>
   <v>       0.43948239       0.12527662       0.87472338 </v>
   <v>       0.77281572       0.12527662       0.87472338 </v>
   <v>       0.10614906       0.62527662       0.87472338 </v>
   <v>       0.43948239       0.62527662       0.87472338 </v>
   <v>       0.77281572       0.62527662       0.87472338 </v>
   <v>       0.10614906       0.37472338       0.12527662 </v>
   <v>       0.43948239       0.37472338       0.12527662 </v>
   <v>       0.77281572       0.37472338       0.12527662 </v>
   <v>       0.10614906       0.87472338       0.12527662 </v>
   <v>       0.43948239       0.87472338       0.12527662 </v>
   <v>       0.77281572       0.87472338       0.12527662 </v>
   <v>       0.10614906       0.37472338       0.62527662 </v>
   <v>       0.43948239       0.37472338       0.62527662 </v>
   <v>       0.77281572       0.37472338       0.62527662 </v>
   <v>       0.10614906       0.87472338       0.62527662 </v>
   <v>       0.43948239       0.87472338       0.62527662 </v>
   <v>       0.77281572       0.87472338       0.62527662 </v>
   <v>       0.27279884       0.11809471       0.11809471 </v>
   <v>       0.60613218       0.11809471       0.11809471 </v>
   <v>       0.93946551       0.11809471       0.11809471 </v>
   <v>       0.27279884       0.61809471       0.11809471 </v>
   <v>       0.60613218       0.61809471       0.11809471 </v>
   <v>       0.93946551       0.61809471       0.11809471 </v>
   <v>       0.27279884       0.11809471       0.61809471 </v>
   <v>       0.60613218       0.11809471       0.61809471 </v>
   <v>       0.93946551       0.11809471       0.61809471 </v>
   <v>       0.27279884       0.61809471       0.61809471 </v>
   <v>       0.60613218       0.61809471       0.61809471 </v>
   <v>       0.93946551       0.61809471       0.61809471 </v>
   <v>       0.27279884       0.38190529       0.38190529 </v>
   <v>       0.60613218       0.38190529       0.38190529 </v>
   <v>       0.93946551       0.38190529       0.38190529 </v>
   <v>       0.27279884       0.88190529       0.38190529 </v>
   <v>       0.60613218       0.88190529       0.38190529 </v>
   <v>       0.93946551       0.88190529       0.38190529 </v>
   <v>       0.27279884       0.38190529       0.88190529 </v>
   <v>       0.60613218       0.38190529       0.88190529 </v>
   <v>       0.93946551       0.38190529       0.88190529 </v>
   <v>       0.27279884       0.88190529       0.88190529 </v>
   <v>       0.60613218       0.88190529       0.88190529 </v>
   <v>       0.93946551       0.88190529       0.88190529 </v>
   <v>       0.27287151       0.33907427       0.16092573 </v>
   <v>       0.60620484       0.33907427       0.16092573 </v>
   <v>       0.93953818       0.33907427       0.16092573 </v>
   <v>       0.27287151       0.83907427       0.16092573 </v>
   <v>       0.60620484       0.83907427       0.16092573 </v>
   <v>       0.93953818       0.83907427       0.16092573 </v>
   <v>       0.27287151       0.33907427       0.66092573 </v>
   <v>       0.60620484       0.33907427       0.66092573 </v>
   <v>       0.93953818       0.33907427       0.66092573 </v>
   <v>       0.27287151       0.83907427       0.66092573 </v>
   <v>       0.60620484       0.83907427       0.66092573 </v>
   <v>       0.93953818       0.83907427       0.66092573 </v>
   <v>       0.27287151       0.16092573       0.33907427 </v>
   <v>       0.60620484       0.16092573       0.33907427 </v>
   <v>       0.93953818       0.16092573       0.33907427 </v>
   <v>       0.27287151       0.66092573       0.33907427 </v>
   <v>       0.60620484       0.66092573       0.33907427 </v>
   <v>       0.93953818       0.66092573       0.33907427 </v>
   <v>       0.27287151       0.16092573       0.83907427 </v>
   <v>       0.60620484       0.16092573       0.83907427 </v>
   <v>       0.93953818       0.16092573       0.83907427 </v>
   <v>       0.27287151       0.66092573       0.83907427 </v>
   <v>       0.60620484       0.66092573       0.83907427 </v>
   <v>       0.93953818       0.66092573       0.83907427 </v>
   <v>       0.10731129       0.00000000       0.00000000 </v>
   <v>       0.44064462       0.00000000       0.00000000 </v>
   <v>       0.77397796       0.00000000       0.00000000 </v>
   <v>       0.10731129       0.50000000       0.00000000 </v>
   <v>       0.44064462       0.50000000       0.00000000 </v>
   <v>       0.77397796       0.50000000       0.00000000 </v>
   <v>       0.10731129       0.00000000       0.50000000 </v>
   <v>       0.44064462       0.00000000       0.50000000 </v>
   <v>       0.77397796       0.00000000       0.50000000 </v>
   <v>       0.10731129       0.50000000       0.50000000 </v>
   <v>       0.44064462       0.50000000       0.50000000 </v>
   <v>       0.77397796       0.50000000       0.50000000 </v>
  </varray>
 </structure>
</modeling>
