 160 160   0   0
  0.1215613E+02  0.1537564E-08  0.1124787E-08  0.1124760E-08  0.5000000E-15
  1.000000000000000E-004
  CAR 
 unknown system                          
     17.04851086    -54.78945740  301      4.89592123      1.00000000
    -54.789  0.0000E+00  0.0000E+00  0.0000E+00  0.0000E+00
    -54.550  0.0000E+00  0.0000E+00  0.0000E+00  0.0000E+00
    -54.311  0.0000E+00  0.0000E+00  0.0000E+00  0.0000E+00
    -54.071  0.0000E+00  0.0000E+00  0.0000E+00  0.0000E+00
    -53.832  0.0000E+00  0.0000E+00  0.0000E+00  0.0000E+00
    -53.592  0.0000E+00  0.0000E+00  0.0000E+00  0.0000E+00
    -53.353  0.0000E+00  0.0000E+00  0.0000E+00  0.0000E+00
    -53.113  0.0000E+00  0.0000E+00  0.0000E+00  0.0000E+00
    -52.874  0.0000E+00  0.0000E+00  0.0000E+00  0.0000E+00
    -52.634  0.0000E+00  0.0000E+00  0.0000E+00  0.0000E+00
    -52.395  0.0000E+00  0.0000E+00  0.0000E+00  0.0000E+00
    -52.155  0.0000E+00  0.0000E+00  0.0000E+00  0.0000E+00
    -51.916  0.0000E+00  0.0000E+00  0.0000E+00  0.0000E+00
    -51.676  0.4100E-03  0.0000E+00  0.9819E-04  0.0000E+00
    -51.437  0.8211E+02  0.0000E+00  0.1966E+02  0.0000E+00
    -51.198  0.5153E+02  0.0000E+00  0.3200E+02  0.0000E+00
    -50.958  0.0000E+00  0.0000E+00  0.3200E+02  0.0000E+00
    -50.719  0.0000E+00  0.0000E+00  0.3200E+02  0.0000E+00
    -50.479  0.6027E-13  0.0000E+00  0.3200E+02  0.0000E+00
    -50.240  0.7904E+01  0.0000E+00  0.3389E+02  0.0000E+00
    -50.000  0.1684E+03  0.0000E+00  0.7422E+02  0.0000E+00
    -49.761  0.9094E+02  0.0000E+00  0.9600E+02  0.0000E+00
    -49.521  0.0000E+00  0.0000E+00  0.9600E+02  0.0000E+00
    -49.282  0.0000E+00  0.0000E+00  0.9600E+02  0.0000E+00
    -49.042  0.0000E+00  0.0000E+00  0.9600E+02  0.0000E+00
    -48.803  0.0000E+00  0.0000E+00  0.9600E+02  0.0000E+00
    -48.564  0.0000E+00  0.0000E+00  0.9600E+02  0.0000E+00
    -48.324  0.0000E+00  0.0000E+00  0.9600E+02  0.0000E+00
    -48.085  0.0000E+00  0.0000E+00  0.9600E+02  0.0000E+00
    -47.845  0.0000E+00  0.0000E+00  0.9600E+02  0.0000E+00
    -47.606  0.0000E+00  0.0000E+00  0.9600E+02  0.0000E+00
    -47.366  0.0000E+00  0.0000E+00  0.9600E+02  0.0000E+00
    -47.127  0.0000E+00  0.0000E+00  0.9600E+02  0.0000E+00
    -46.887  0.0000E+00  0.2006E+00  0.9600E+02  0.4804E-01
    -46.648  0.0000E+00  0.1062E+03  0.9600E+02  0.2547E+02
    -46.408  0.0000E+00  0.1050E+03  0.9600E+02  0.5062E+02
    -46.169  0.0000E+00  0.1892E+03  0.9600E+02  0.9593E+02
    -45.929  0.0000E+00  0.3042E+00  0.9600E+02  0.9600E+02
    -45.690  0.0000E+00  0.0000E+00  0.9600E+02  0.9600E+02
    -45.451  0.0000E+00  0.0000E+00  0.9600E+02  0.9600E+02
    -45.211  0.0000E+00  0.0000E+00  0.9600E+02  0.9600E+02
    -44.972  0.0000E+00  0.0000E+00  0.9600E+02  0.9600E+02
    -44.732  0.0000E+00  0.0000E+00  0.9600E+02  0.9600E+02
    -44.493  0.0000E+00  0.0000E+00  0.9600E+02  0.9600E+02
    -44.253  0.0000E+00  0.0000E+00  0.9600E+02  0.9600E+02
    -44.014  0.0000E+00  0.0000E+00  0.9600E+02  0.9600E+02
    -43.774  0.0000E+00  0.0000E+00  0.9600E+02  0.9600E+02
    -43.535  0.0000E+00  0.0000E+00  0.9600E+02  0.9600E+02
    -43.295  0.0000E+00  0.0000E+00  0.9600E+02  0.9600E+02
    -43.056  0.0000E+00  0.0000E+00  0.9600E+02  0.9600E+02
    -42.816  0.0000E+00  0.0000E+00  0.9600E+02  0.9600E+02
    -42.577  0.0000E+00  0.0000E+00  0.9600E+02  0.9600E+02
    -42.338  0.0000E+00  0.0000E+00  0.9600E+02  0.9600E+02
    -42.098  0.0000E+00  0.0000E+00  0.9600E+02  0.9600E+02
    -41.859  0.0000E+00  0.0000E+00  0.9600E+02  0.9600E+02
    -41.619  0.0000E+00  0.0000E+00  0.9600E+02  0.9600E+02
    -41.380  0.0000E+00  0.0000E+00  0.9600E+02  0.9600E+02
    -41.140  0.0000E+00  0.0000E+00  0.9600E+02  0.9600E+02
    -40.901  0.0000E+00  0.0000E+00  0.9600E+02  0.9600E+02
    -40.661  0.2602E-14  0.2576E-16  0.9600E+02  0.9600E+02
    -40.422  0.3746E+01  0.3296E+01  0.9690E+02  0.9679E+02
    -40.182  0.1801E+03  0.1826E+03  0.1400E+03  0.1405E+03
    -39.943  0.8347E+02  0.8141E+02  0.1600E+03  0.1600E+03
    -39.703  0.0000E+00  0.0000E+00  0.1600E+03  0.1600E+03
    -39.464  0.0000E+00  0.0000E+00  0.1600E+03  0.1600E+03
    -39.225  0.0000E+00  0.0000E+00  0.1600E+03  0.1600E+03
    -38.985  0.0000E+00  0.0000E+00  0.1600E+03  0.1600E+03
    -38.746  0.0000E+00  0.0000E+00  0.1600E+03  0.1600E+03
    -38.506  0.0000E+00  0.0000E+00  0.1600E+03  0.1600E+03
    -38.267  0.0000E+00  0.0000E+00  0.1600E+03  0.1600E+03
    -38.027  0.0000E+00  0.0000E+00  0.1600E+03  0.1600E+03
    -37.788  0.0000E+00  0.0000E+00  0.1600E+03  0.1600E+03
    -37.548  0.0000E+00  0.0000E+00  0.1600E+03  0.1600E+03
    -37.309  0.0000E+00  0.0000E+00  0.1600E+03  0.1600E+03
    -37.069  0.0000E+00  0.0000E+00  0.1600E+03  0.1600E+03
    -36.830  0.0000E+00  0.0000E+00  0.1600E+03  0.1600E+03
    -36.591  0.0000E+00  0.0000E+00  0.1600E+03  0.1600E+03
    -36.351  0.0000E+00  0.0000E+00  0.1600E+03  0.1600E+03
    -36.112  0.0000E+00  0.0000E+00  0.1600E+03  0.1600E+03
    -35.872  0.0000E+00  0.0000E+00  0.1600E+03  0.1600E+03
    -35.633  0.0000E+00  0.0000E+00  0.1600E+03  0.1600E+03
    -35.393  0.0000E+00  0.0000E+00  0.1600E+03  0.1600E+03
    -35.154  0.0000E+00  0.0000E+00  0.1600E+03  0.1600E+03
    -34.914  0.0000E+00  0.0000E+00  0.1600E+03  0.1600E+03
    -34.675  0.0000E+00  0.0000E+00  0.1600E+03  0.1600E+03
    -34.435  0.0000E+00  0.0000E+00  0.1600E+03  0.1600E+03
    -34.196  0.0000E+00  0.0000E+00  0.1600E+03  0.1600E+03
    -33.956  0.0000E+00  0.0000E+00  0.1600E+03  0.1600E+03
    -33.717  0.0000E+00  0.0000E+00  0.1600E+03  0.1600E+03
    -33.478  0.0000E+00  0.0000E+00  0.1600E+03  0.1600E+03
    -33.238  0.0000E+00  0.0000E+00  0.1600E+03  0.1600E+03
    -32.999  0.0000E+00  0.0000E+00  0.1600E+03  0.1600E+03
    -32.759  0.0000E+00  0.0000E+00  0.1600E+03  0.1600E+03
    -32.520  0.0000E+00  0.0000E+00  0.1600E+03  0.1600E+03
    -32.280  0.0000E+00  0.0000E+00  0.1600E+03  0.1600E+03
    -32.041  0.0000E+00  0.0000E+00  0.1600E+03  0.1600E+03
    -31.801  0.0000E+00  0.0000E+00  0.1600E+03  0.1600E+03
    -31.562  0.0000E+00  0.0000E+00  0.1600E+03  0.1600E+03
    -31.322  0.0000E+00  0.0000E+00  0.1600E+03  0.1600E+03
    -31.083  0.0000E+00  0.0000E+00  0.1600E+03  0.1600E+03
    -30.843  0.0000E+00  0.0000E+00  0.1600E+03  0.1600E+03
    -30.604  0.0000E+00  0.0000E+00  0.1600E+03  0.1600E+03
    -30.365  0.0000E+00  0.0000E+00  0.1600E+03  0.1600E+03
    -30.125  0.0000E+00  0.0000E+00  0.1600E+03  0.1600E+03
    -29.886  0.0000E+00  0.0000E+00  0.1600E+03  0.1600E+03
    -29.646  0.0000E+00  0.0000E+00  0.1600E+03  0.1600E+03
    -29.407  0.0000E+00  0.0000E+00  0.1600E+03  0.1600E+03
    -29.167  0.0000E+00  0.0000E+00  0.1600E+03  0.1600E+03
    -28.928  0.0000E+00  0.0000E+00  0.1600E+03  0.1600E+03
    -28.688  0.0000E+00  0.0000E+00  0.1600E+03  0.1600E+03
    -28.449  0.0000E+00  0.0000E+00  0.1600E+03  0.1600E+03
    -28.209  0.0000E+00  0.0000E+00  0.1600E+03  0.1600E+03
    -27.970  0.0000E+00  0.0000E+00  0.1600E+03  0.1600E+03
    -27.730  0.0000E+00  0.0000E+00  0.1600E+03  0.1600E+03
    -27.491  0.0000E+00  0.0000E+00  0.1600E+03  0.1600E+03
    -27.252  0.0000E+00  0.0000E+00  0.1600E+03  0.1600E+03
    -27.012  0.0000E+00  0.0000E+00  0.1600E+03  0.1600E+03
    -26.773  0.0000E+00  0.0000E+00  0.1600E+03  0.1600E+03
    -26.533  0.0000E+00  0.0000E+00  0.1600E+03  0.1600E+03
    -26.294  0.0000E+00  0.0000E+00  0.1600E+03  0.1600E+03
    -26.054  0.0000E+00  0.0000E+00  0.1600E+03  0.1600E+03
    -25.815  0.0000E+00  0.0000E+00  0.1600E+03  0.1600E+03
    -25.575  0.0000E+00  0.0000E+00  0.1600E+03  0.1600E+03
    -25.336  0.0000E+00  0.0000E+00  0.1600E+03  0.1600E+03
    -25.096  0.0000E+00  0.0000E+00  0.1600E+03  0.1600E+03
    -24.857  0.0000E+00  0.0000E+00  0.1600E+03  0.1600E+03
    -24.618  0.0000E+00  0.0000E+00  0.1600E+03  0.1600E+03
    -24.378  0.0000E+00  0.0000E+00  0.1600E+03  0.1600E+03
    -24.139  0.0000E+00  0.0000E+00  0.1600E+03  0.1600E+03
    -23.899  0.0000E+00  0.0000E+00  0.1600E+03  0.1600E+03
    -23.660  0.0000E+00  0.0000E+00  0.1600E+03  0.1600E+03
    -23.420  0.0000E+00  0.0000E+00  0.1600E+03  0.1600E+03
    -23.181  0.0000E+00  0.0000E+00  0.1600E+03  0.1600E+03
    -22.941  0.0000E+00  0.0000E+00  0.1600E+03  0.1600E+03
    -22.702  0.0000E+00  0.0000E+00  0.1600E+03  0.1600E+03
    -22.462  0.0000E+00  0.0000E+00  0.1600E+03  0.1600E+03
    -22.223  0.0000E+00  0.0000E+00  0.1600E+03  0.1600E+03
    -21.983  0.0000E+00  0.0000E+00  0.1600E+03  0.1600E+03
    -21.744  0.0000E+00  0.0000E+00  0.1600E+03  0.1600E+03
    -21.505  0.0000E+00  0.0000E+00  0.1600E+03  0.1600E+03
    -21.265  0.0000E+00  0.0000E+00  0.1600E+03  0.1600E+03
    -21.026  0.0000E+00  0.0000E+00  0.1600E+03  0.1600E+03
    -20.786  0.0000E+00  0.0000E+00  0.1600E+03  0.1600E+03
    -20.547  0.0000E+00  0.0000E+00  0.1600E+03  0.1600E+03
    -20.307  0.0000E+00  0.0000E+00  0.1600E+03  0.1600E+03
    -20.068  0.0000E+00  0.0000E+00  0.1600E+03  0.1600E+03
    -19.828  0.0000E+00  0.0000E+00  0.1600E+03  0.1600E+03
    -19.589  0.0000E+00  0.0000E+00  0.1600E+03  0.1600E+03
    -19.349  0.0000E+00  0.0000E+00  0.1600E+03  0.1600E+03
    -19.110  0.0000E+00  0.0000E+00  0.1600E+03  0.1600E+03
    -18.870  0.0000E+00  0.0000E+00  0.1600E+03  0.1600E+03
    -18.631  0.0000E+00  0.0000E+00  0.1600E+03  0.1600E+03
    -18.392  0.0000E+00  0.0000E+00  0.1600E+03  0.1600E+03
    -18.152  0.0000E+00  0.0000E+00  0.1600E+03  0.1600E+03
    -17.913  0.0000E+00  0.0000E+00  0.1600E+03  0.1600E+03
    -17.673  0.0000E+00  0.0000E+00  0.1600E+03  0.1600E+03
    -17.434  0.0000E+00  0.0000E+00  0.1600E+03  0.1600E+03
    -17.194  0.0000E+00  0.0000E+00  0.1600E+03  0.1600E+03
    -16.955  0.0000E+00  0.0000E+00  0.1600E+03  0.1600E+03
    -16.715  0.0000E+00  0.0000E+00  0.1600E+03  0.1600E+03
    -16.476  0.0000E+00  0.0000E+00  0.1600E+03  0.1600E+03
    -16.236  0.0000E+00  0.0000E+00  0.1600E+03  0.1600E+03
    -15.997  0.0000E+00  0.0000E+00  0.1600E+03  0.1600E+03
    -15.757  0.0000E+00  0.0000E+00  0.1600E+03  0.1600E+03
    -15.518  0.0000E+00  0.0000E+00  0.1600E+03  0.1600E+03
    -15.279  0.0000E+00  0.0000E+00  0.1600E+03  0.1600E+03
    -15.039  0.0000E+00  0.0000E+00  0.1600E+03  0.1600E+03
    -14.800  0.0000E+00  0.0000E+00  0.1600E+03  0.1600E+03
    -14.560  0.0000E+00  0.0000E+00  0.1600E+03  0.1600E+03
    -14.321  0.0000E+00  0.0000E+00  0.1600E+03  0.1600E+03
    -14.081  0.0000E+00  0.0000E+00  0.1600E+03  0.1600E+03
    -13.842  0.0000E+00  0.0000E+00  0.1600E+03  0.1600E+03
    -13.602  0.1845E-01  0.0000E+00  0.1600E+03  0.1600E+03
    -13.363  0.5293E+02  0.2024E-05  0.1727E+03  0.1600E+03
    -13.123  0.7217E+02  0.2884E+02  0.1900E+03  0.1669E+03
    -12.884  0.8521E+01  0.9998E+02  0.1920E+03  0.1908E+03
    -12.645  0.0000E+00  0.4818E+01  0.1920E+03  0.1920E+03
    -12.405  0.0000E+00  0.0000E+00  0.1920E+03  0.1920E+03
    -12.166  0.0000E+00  0.0000E+00  0.1920E+03  0.1920E+03
    -11.926  0.0000E+00  0.0000E+00  0.1920E+03  0.1920E+03
    -11.687  0.0000E+00  0.0000E+00  0.1920E+03  0.1920E+03
    -11.447  0.0000E+00  0.0000E+00  0.1920E+03  0.1920E+03
    -11.208  0.0000E+00  0.0000E+00  0.1920E+03  0.1920E+03
    -10.968  0.0000E+00  0.0000E+00  0.1920E+03  0.1920E+03
    -10.729  0.0000E+00  0.0000E+00  0.1920E+03  0.1920E+03
    -10.489  0.0000E+00  0.0000E+00  0.1920E+03  0.1920E+03
    -10.250  0.0000E+00  0.0000E+00  0.1920E+03  0.1920E+03
    -10.010  0.0000E+00  0.0000E+00  0.1920E+03  0.1920E+03
     -9.771  0.0000E+00  0.0000E+00  0.1920E+03  0.1920E+03
     -9.532  0.0000E+00  0.0000E+00  0.1920E+03  0.1920E+03
     -9.292  0.0000E+00  0.0000E+00  0.1920E+03  0.1920E+03
     -9.053  0.0000E+00  0.0000E+00  0.1920E+03  0.1920E+03
     -8.813  0.0000E+00  0.0000E+00  0.1920E+03  0.1920E+03
     -8.574  0.0000E+00  0.0000E+00  0.1920E+03  0.1920E+03
     -8.334  0.0000E+00  0.0000E+00  0.1920E+03  0.1920E+03
     -8.095  0.0000E+00  0.0000E+00  0.1920E+03  0.1920E+03
     -7.855  0.4122E-10  0.0000E+00  0.1920E+03  0.1920E+03
     -7.616  0.1533E+01  0.3980E-07  0.1924E+03  0.1920E+03
     -7.376  0.4672E+02  0.7611E+01  0.2036E+03  0.1938E+03
     -7.137  0.6533E+02  0.6073E+02  0.2192E+03  0.2084E+03
     -6.897  0.2004E+02  0.5440E+02  0.2240E+03  0.2214E+03
     -6.658  0.1016E-01  0.1089E+02  0.2240E+03  0.2240E+03
     -6.419  0.0000E+00  0.3785E-02  0.2240E+03  0.2240E+03
     -6.179  0.0000E+00  0.0000E+00  0.2240E+03  0.2240E+03
     -5.940  0.0000E+00  0.0000E+00  0.2240E+03  0.2240E+03
     -5.700  0.0000E+00  0.0000E+00  0.2240E+03  0.2240E+03
     -5.461  0.0000E+00  0.0000E+00  0.2240E+03  0.2240E+03
     -5.221  0.0000E+00  0.0000E+00  0.2240E+03  0.2240E+03
     -4.982  0.0000E+00  0.0000E+00  0.2240E+03  0.2240E+03
     -4.742  0.0000E+00  0.0000E+00  0.2240E+03  0.2240E+03
     -4.503  0.0000E+00  0.0000E+00  0.2240E+03  0.2240E+03
     -4.263  0.0000E+00  0.0000E+00  0.2240E+03  0.2240E+03
     -4.024  0.0000E+00  0.0000E+00  0.2240E+03  0.2240E+03
     -3.784  0.0000E+00  0.0000E+00  0.2240E+03  0.2240E+03
     -3.545  0.0000E+00  0.0000E+00  0.2240E+03  0.2240E+03
     -3.306  0.0000E+00  0.0000E+00  0.2240E+03  0.2240E+03
     -3.066  0.0000E+00  0.0000E+00  0.2240E+03  0.2240E+03
     -2.827  0.4121E-15  0.0000E+00  0.2240E+03  0.2240E+03
     -2.587  0.3923E+00  0.0000E+00  0.2241E+03  0.2240E+03
     -2.348  0.3088E+02  0.0000E+00  0.2315E+03  0.2240E+03
     -2.108  0.1157E+02  0.0000E+00  0.2343E+03  0.2240E+03
     -1.869  0.1284E+02  0.0000E+00  0.2373E+03  0.2240E+03
     -1.629  0.1135E+02  0.0000E+00  0.2401E+03  0.2240E+03
     -1.390  0.1564E+02  0.0000E+00  0.2438E+03  0.2240E+03
     -1.150  0.6277E+02  0.2141E-05  0.2588E+03  0.2240E+03
     -0.911  0.7652E+02  0.3371E+01  0.2772E+03  0.2248E+03
     -0.672  0.6751E+02  0.3287E+02  0.2933E+03  0.2327E+03
     -0.432  0.7781E+02  0.1889E+02  0.3119E+03  0.2372E+03
     -0.193  0.1061E+03  0.1910E+02  0.3373E+03  0.2418E+03
      0.047  0.7865E+02  0.1222E+02  0.3562E+03  0.2447E+03
      0.286  0.5345E+02  0.3170E+02  0.3690E+03  0.2523E+03
      0.526  0.4756E+02  0.8133E+02  0.3804E+03  0.2718E+03
      0.765  0.4624E+02  0.6836E+02  0.3914E+03  0.2881E+03
      1.005  0.4666E+02  0.6981E+02  0.4026E+03  0.3049E+03
      1.244  0.7667E+02  0.6349E+02  0.4210E+03  0.3201E+03
      1.484  0.8763E+02  0.2170E+02  0.4420E+03  0.3252E+03
      1.723  0.5831E+02  0.5070E+02  0.4559E+03  0.3374E+03
      1.963  0.4004E+02  0.5158E+02  0.4655E+03  0.3497E+03
      2.202  0.4715E+02  0.3060E+02  0.4768E+03  0.3571E+03
      2.441  0.4168E+02  0.3902E+02  0.4868E+03  0.3664E+03
      2.681  0.5333E+02  0.6462E+02  0.4996E+03  0.3819E+03
      2.920  0.5384E+02  0.7220E+02  0.5124E+03  0.3992E+03
      3.160  0.5657E+02  0.6003E+02  0.5260E+03  0.4135E+03
      3.399  0.5306E+02  0.1612E+02  0.5387E+03  0.4174E+03
      3.639  0.5333E+02  0.3610E+02  0.5515E+03  0.4261E+03
      3.878  0.3992E+02  0.5941E+02  0.5610E+03  0.4403E+03
      4.118  0.3549E+02  0.3219E+02  0.5695E+03  0.4480E+03
      4.357  0.1927E+02  0.4487E-01  0.5741E+03  0.4480E+03
      4.597  0.7437E+01  0.0000E+00  0.5759E+03  0.4480E+03
      4.836  0.3242E+00  0.0000E+00  0.5760E+03  0.4480E+03
      5.076  0.0000E+00  0.0000E+00  0.5760E+03  0.4480E+03
      5.315  0.0000E+00  0.0000E+00  0.5760E+03  0.4480E+03
      5.554  0.0000E+00  0.0000E+00  0.5760E+03  0.4480E+03
      5.794  0.0000E+00  0.0000E+00  0.5760E+03  0.4480E+03
      6.033  0.0000E+00  0.0000E+00  0.5760E+03  0.4480E+03
      6.273  0.0000E+00  0.1545E-15  0.5760E+03  0.4480E+03
      6.512  0.0000E+00  0.6581E-01  0.5760E+03  0.4480E+03
      6.752  0.0000E+00  0.2422E+02  0.5760E+03  0.4538E+03
      6.991  0.6572E-06  0.7765E+02  0.5760E+03  0.4724E+03
      7.231  0.2291E+00  0.6325E+02  0.5761E+03  0.4876E+03
      7.470  0.1854E+00  0.6380E+02  0.5761E+03  0.5028E+03
      7.710  0.1387E+01  0.6309E+02  0.5764E+03  0.5179E+03
      7.949  0.3012E+01  0.9495E+02  0.5772E+03  0.5407E+03
      8.188  0.6539E+01  0.7282E+02  0.5787E+03  0.5581E+03
      8.428  0.9482E+01  0.4922E+02  0.5810E+03  0.5699E+03
      8.667  0.1872E+02  0.2506E+02  0.5855E+03  0.5759E+03
      8.907  0.2338E+02  0.7267E+01  0.5911E+03  0.5776E+03
      9.146  0.3138E+02  0.8595E+01  0.5986E+03  0.5797E+03
      9.386  0.2851E+02  0.1780E+02  0.6054E+03  0.5840E+03
      9.625  0.2980E+02  0.2681E+02  0.6125E+03  0.5904E+03
      9.865  0.2622E+02  0.3192E+02  0.6188E+03  0.5980E+03
     10.104  0.1756E+02  0.3783E+02  0.6230E+03  0.6071E+03
     10.344  0.2594E+02  0.3350E+02  0.6292E+03  0.6151E+03
     10.583  0.3627E+02  0.2857E+02  0.6379E+03  0.6219E+03
     10.823  0.4025E+02  0.3308E+02  0.6476E+03  0.6299E+03
     11.062  0.3299E+02  0.2822E+02  0.6555E+03  0.6366E+03
     11.301  0.4924E+02  0.2602E+02  0.6673E+03  0.6429E+03
     11.541  0.4115E+02  0.2918E+02  0.6771E+03  0.6498E+03
     11.780  0.4150E+02  0.5092E+02  0.6870E+03  0.6620E+03
     12.020  0.3404E+02  0.5025E+02  0.6952E+03  0.6741E+03
     12.259  0.3279E+02  0.5606E+02  0.7030E+03  0.6875E+03
     12.499  0.3251E+02  0.3156E+02  0.7108E+03  0.6951E+03
     12.738  0.3682E+02  0.3266E+02  0.7196E+03  0.7029E+03
     12.978  0.3458E+02  0.3216E+02  0.7279E+03  0.7106E+03
     13.217  0.1564E+02  0.3810E+02  0.7317E+03  0.7197E+03
     13.457  0.1001E+01  0.3398E+02  0.7319E+03  0.7278E+03
     13.696  0.3575E+00  0.1663E+02  0.7320E+03  0.7318E+03
     13.936  0.0000E+00  0.7552E+00  0.7320E+03  0.7320E+03
     14.175  0.0000E+00  0.3216E-05  0.7320E+03  0.7320E+03
     14.414  0.0000E+00  0.0000E+00  0.7320E+03  0.7320E+03
     14.654  0.0000E+00  0.0000E+00  0.7320E+03  0.7320E+03
     14.893  0.0000E+00  0.0000E+00  0.7320E+03  0.7320E+03
     15.133  0.0000E+00  0.0000E+00  0.7320E+03  0.7320E+03
     15.372  0.0000E+00  0.0000E+00  0.7320E+03  0.7320E+03
     15.612  0.0000E+00  0.0000E+00  0.7320E+03  0.7320E+03
     15.851  0.0000E+00  0.0000E+00  0.7320E+03  0.7320E+03
     16.091  0.0000E+00  0.0000E+00  0.7320E+03  0.7320E+03
     16.330  0.0000E+00  0.0000E+00  0.7320E+03  0.7320E+03
     16.570  0.0000E+00  0.0000E+00  0.7320E+03  0.7320E+03
     16.809  0.0000E+00  0.0000E+00  0.7320E+03  0.7320E+03
     17.049  0.0000E+00  0.0000E+00  0.7320E+03  0.7320E+03
