 108 108   0   0
  0.1367340E+02  0.1151037E-08  0.1132740E-08  0.1132740E-08  0.5000000E-15
  1.000000000000000E-004
  CAR 
 unknown system                          
     17.82526699    -54.66324278  301      5.29079551      1.00000000
    -54.663  0.0000E+00  0.0000E+00  0.0000E+00  0.0000E+00
    -54.422  0.0000E+00  0.0000E+00  0.0000E+00  0.0000E+00
    -54.180  0.0000E+00  0.0000E+00  0.0000E+00  0.0000E+00
    -53.938  0.0000E+00  0.0000E+00  0.0000E+00  0.0000E+00
    -53.697  0.0000E+00  0.0000E+00  0.0000E+00  0.0000E+00
    -53.455  0.0000E+00  0.0000E+00  0.0000E+00  0.0000E+00
    -53.213  0.0000E+00  0.0000E+00  0.0000E+00  0.0000E+00
    -52.972  0.0000E+00  0.0000E+00  0.0000E+00  0.0000E+00
    -52.730  0.0000E+00  0.0000E+00  0.0000E+00  0.0000E+00
    -52.489  0.0000E+00  0.0000E+00  0.0000E+00  0.0000E+00
    -52.247  0.0000E+00  0.0000E+00  0.0000E+00  0.0000E+00
    -52.005  0.0000E+00  0.0000E+00  0.0000E+00  0.0000E+00
    -51.764  0.0000E+00  0.0000E+00  0.0000E+00  0.0000E+00
    -51.522  0.2038E-03  0.0000E+00  0.4924E-04  0.0000E+00
    -51.280  0.9797E+02  0.0000E+00  0.2367E+02  0.0000E+00
    -51.039  0.4164E+02  0.0000E+00  0.3373E+02  0.0000E+00
    -50.797  0.9379E+01  0.0000E+00  0.3600E+02  0.0000E+00
    -50.556  0.0000E+00  0.0000E+00  0.3600E+02  0.0000E+00
    -50.314  0.9105E-04  0.0000E+00  0.3600E+02  0.0000E+00
    -50.072  0.9732E+02  0.0000E+00  0.5952E+02  0.0000E+00
    -49.831  0.4612E+02  0.0000E+00  0.7066E+02  0.0000E+00
    -49.589  0.1257E+03  0.0000E+00  0.1010E+03  0.0000E+00
    -49.347  0.2880E+02  0.0000E+00  0.1080E+03  0.0000E+00
    -49.106  0.0000E+00  0.0000E+00  0.1080E+03  0.0000E+00
    -48.864  0.0000E+00  0.0000E+00  0.1080E+03  0.0000E+00
    -48.623  0.0000E+00  0.0000E+00  0.1080E+03  0.0000E+00
    -48.381  0.0000E+00  0.0000E+00  0.1080E+03  0.0000E+00
    -48.139  0.0000E+00  0.0000E+00  0.1080E+03  0.0000E+00
    -47.898  0.0000E+00  0.0000E+00  0.1080E+03  0.0000E+00
    -47.656  0.0000E+00  0.0000E+00  0.1080E+03  0.0000E+00
    -47.414  0.0000E+00  0.0000E+00  0.1080E+03  0.0000E+00
    -47.173  0.0000E+00  0.0000E+00  0.1080E+03  0.0000E+00
    -46.931  0.0000E+00  0.0000E+00  0.1080E+03  0.0000E+00
    -46.690  0.0000E+00  0.9921E+00  0.1080E+03  0.2397E+00
    -46.448  0.0000E+00  0.9835E+02  0.1080E+03  0.2400E+02
    -46.206  0.0000E+00  0.1716E+03  0.1080E+03  0.6547E+02
    -45.965  0.0000E+00  0.8529E+02  0.1080E+03  0.8607E+02
    -45.723  0.0000E+00  0.9074E+02  0.1080E+03  0.1080E+03
    -45.481  0.0000E+00  0.7390E-03  0.1080E+03  0.1080E+03
    -45.240  0.0000E+00  0.0000E+00  0.1080E+03  0.1080E+03
    -44.998  0.0000E+00  0.0000E+00  0.1080E+03  0.1080E+03
    -44.756  0.0000E+00  0.0000E+00  0.1080E+03  0.1080E+03
    -44.515  0.0000E+00  0.0000E+00  0.1080E+03  0.1080E+03
    -44.273  0.0000E+00  0.0000E+00  0.1080E+03  0.1080E+03
    -44.032  0.0000E+00  0.0000E+00  0.1080E+03  0.1080E+03
    -43.790  0.0000E+00  0.0000E+00  0.1080E+03  0.1080E+03
    -43.548  0.0000E+00  0.0000E+00  0.1080E+03  0.1080E+03
    -43.307  0.0000E+00  0.0000E+00  0.1080E+03  0.1080E+03
    -43.065  0.0000E+00  0.0000E+00  0.1080E+03  0.1080E+03
    -42.823  0.0000E+00  0.0000E+00  0.1080E+03  0.1080E+03
    -42.582  0.0000E+00  0.0000E+00  0.1080E+03  0.1080E+03
    -42.340  0.0000E+00  0.0000E+00  0.1080E+03  0.1080E+03
    -42.099  0.0000E+00  0.0000E+00  0.1080E+03  0.1080E+03
    -41.857  0.0000E+00  0.0000E+00  0.1080E+03  0.1080E+03
    -41.615  0.0000E+00  0.0000E+00  0.1080E+03  0.1080E+03
    -41.374  0.0000E+00  0.0000E+00  0.1080E+03  0.1080E+03
    -41.132  0.0000E+00  0.0000E+00  0.1080E+03  0.1080E+03
    -40.890  0.0000E+00  0.0000E+00  0.1080E+03  0.1080E+03
    -40.649  0.0000E+00  0.0000E+00  0.1080E+03  0.1080E+03
    -40.407  0.1365E-12  0.2684E-12  0.1080E+03  0.1080E+03
    -40.166  0.1401E+02  0.1598E+02  0.1114E+03  0.1119E+03
    -39.924  0.8532E+02  0.8335E+02  0.1320E+03  0.1320E+03
    -39.682  0.0000E+00  0.0000E+00  0.1320E+03  0.1320E+03
    -39.441  0.0000E+00  0.0000E+00  0.1320E+03  0.1320E+03
    -39.199  0.0000E+00  0.0000E+00  0.1320E+03  0.1320E+03
    -38.957  0.0000E+00  0.0000E+00  0.1320E+03  0.1320E+03
    -38.716  0.0000E+00  0.0000E+00  0.1320E+03  0.1320E+03
    -38.474  0.0000E+00  0.0000E+00  0.1320E+03  0.1320E+03
    -38.233  0.0000E+00  0.0000E+00  0.1320E+03  0.1320E+03
    -37.991  0.0000E+00  0.0000E+00  0.1320E+03  0.1320E+03
    -37.749  0.0000E+00  0.0000E+00  0.1320E+03  0.1320E+03
    -37.508  0.0000E+00  0.0000E+00  0.1320E+03  0.1320E+03
    -37.266  0.0000E+00  0.0000E+00  0.1320E+03  0.1320E+03
    -37.024  0.0000E+00  0.0000E+00  0.1320E+03  0.1320E+03
    -36.783  0.0000E+00  0.0000E+00  0.1320E+03  0.1320E+03
    -36.541  0.0000E+00  0.0000E+00  0.1320E+03  0.1320E+03
    -36.299  0.0000E+00  0.0000E+00  0.1320E+03  0.1320E+03
    -36.058  0.0000E+00  0.0000E+00  0.1320E+03  0.1320E+03
    -35.816  0.0000E+00  0.0000E+00  0.1320E+03  0.1320E+03
    -35.575  0.0000E+00  0.0000E+00  0.1320E+03  0.1320E+03
    -35.333  0.0000E+00  0.0000E+00  0.1320E+03  0.1320E+03
    -35.091  0.0000E+00  0.0000E+00  0.1320E+03  0.1320E+03
    -34.850  0.0000E+00  0.0000E+00  0.1320E+03  0.1320E+03
    -34.608  0.0000E+00  0.0000E+00  0.1320E+03  0.1320E+03
    -34.366  0.0000E+00  0.0000E+00  0.1320E+03  0.1320E+03
    -34.125  0.0000E+00  0.0000E+00  0.1320E+03  0.1320E+03
    -33.883  0.0000E+00  0.0000E+00  0.1320E+03  0.1320E+03
    -33.642  0.0000E+00  0.0000E+00  0.1320E+03  0.1320E+03
    -33.400  0.0000E+00  0.0000E+00  0.1320E+03  0.1320E+03
    -33.158  0.0000E+00  0.0000E+00  0.1320E+03  0.1320E+03
    -32.917  0.0000E+00  0.0000E+00  0.1320E+03  0.1320E+03
    -32.675  0.0000E+00  0.0000E+00  0.1320E+03  0.1320E+03
    -32.433  0.0000E+00  0.0000E+00  0.1320E+03  0.1320E+03
    -32.192  0.0000E+00  0.0000E+00  0.1320E+03  0.1320E+03
    -31.950  0.0000E+00  0.0000E+00  0.1320E+03  0.1320E+03
    -31.709  0.0000E+00  0.0000E+00  0.1320E+03  0.1320E+03
    -31.467  0.0000E+00  0.0000E+00  0.1320E+03  0.1320E+03
    -31.225  0.0000E+00  0.0000E+00  0.1320E+03  0.1320E+03
    -30.984  0.0000E+00  0.0000E+00  0.1320E+03  0.1320E+03
    -30.742  0.0000E+00  0.0000E+00  0.1320E+03  0.1320E+03
    -30.500  0.0000E+00  0.0000E+00  0.1320E+03  0.1320E+03
    -30.259  0.0000E+00  0.0000E+00  0.1320E+03  0.1320E+03
    -30.017  0.0000E+00  0.0000E+00  0.1320E+03  0.1320E+03
    -29.776  0.0000E+00  0.0000E+00  0.1320E+03  0.1320E+03
    -29.534  0.0000E+00  0.0000E+00  0.1320E+03  0.1320E+03
    -29.292  0.0000E+00  0.0000E+00  0.1320E+03  0.1320E+03
    -29.051  0.0000E+00  0.0000E+00  0.1320E+03  0.1320E+03
    -28.809  0.0000E+00  0.0000E+00  0.1320E+03  0.1320E+03
    -28.567  0.0000E+00  0.0000E+00  0.1320E+03  0.1320E+03
    -28.326  0.0000E+00  0.0000E+00  0.1320E+03  0.1320E+03
    -28.084  0.0000E+00  0.0000E+00  0.1320E+03  0.1320E+03
    -27.842  0.0000E+00  0.0000E+00  0.1320E+03  0.1320E+03
    -27.601  0.0000E+00  0.0000E+00  0.1320E+03  0.1320E+03
    -27.359  0.0000E+00  0.0000E+00  0.1320E+03  0.1320E+03
    -27.118  0.0000E+00  0.0000E+00  0.1320E+03  0.1320E+03
    -26.876  0.0000E+00  0.0000E+00  0.1320E+03  0.1320E+03
    -26.634  0.0000E+00  0.0000E+00  0.1320E+03  0.1320E+03
    -26.393  0.0000E+00  0.0000E+00  0.1320E+03  0.1320E+03
    -26.151  0.0000E+00  0.0000E+00  0.1320E+03  0.1320E+03
    -25.909  0.0000E+00  0.0000E+00  0.1320E+03  0.1320E+03
    -25.668  0.0000E+00  0.0000E+00  0.1320E+03  0.1320E+03
    -25.426  0.0000E+00  0.0000E+00  0.1320E+03  0.1320E+03
    -25.185  0.0000E+00  0.0000E+00  0.1320E+03  0.1320E+03
    -24.943  0.0000E+00  0.0000E+00  0.1320E+03  0.1320E+03
    -24.701  0.0000E+00  0.0000E+00  0.1320E+03  0.1320E+03
    -24.460  0.0000E+00  0.0000E+00  0.1320E+03  0.1320E+03
    -24.218  0.0000E+00  0.0000E+00  0.1320E+03  0.1320E+03
    -23.976  0.0000E+00  0.0000E+00  0.1320E+03  0.1320E+03
    -23.735  0.0000E+00  0.0000E+00  0.1320E+03  0.1320E+03
    -23.493  0.0000E+00  0.0000E+00  0.1320E+03  0.1320E+03
    -23.252  0.0000E+00  0.0000E+00  0.1320E+03  0.1320E+03
    -23.010  0.0000E+00  0.0000E+00  0.1320E+03  0.1320E+03
    -22.768  0.0000E+00  0.0000E+00  0.1320E+03  0.1320E+03
    -22.527  0.0000E+00  0.0000E+00  0.1320E+03  0.1320E+03
    -22.285  0.0000E+00  0.0000E+00  0.1320E+03  0.1320E+03
    -22.043  0.0000E+00  0.0000E+00  0.1320E+03  0.1320E+03
    -21.802  0.0000E+00  0.0000E+00  0.1320E+03  0.1320E+03
    -21.560  0.0000E+00  0.0000E+00  0.1320E+03  0.1320E+03
    -21.319  0.0000E+00  0.0000E+00  0.1320E+03  0.1320E+03
    -21.077  0.0000E+00  0.0000E+00  0.1320E+03  0.1320E+03
    -20.835  0.0000E+00  0.0000E+00  0.1320E+03  0.1320E+03
    -20.594  0.0000E+00  0.0000E+00  0.1320E+03  0.1320E+03
    -20.352  0.0000E+00  0.0000E+00  0.1320E+03  0.1320E+03
    -20.110  0.0000E+00  0.0000E+00  0.1320E+03  0.1320E+03
    -19.869  0.0000E+00  0.0000E+00  0.1320E+03  0.1320E+03
    -19.627  0.0000E+00  0.0000E+00  0.1320E+03  0.1320E+03
    -19.386  0.0000E+00  0.0000E+00  0.1320E+03  0.1320E+03
    -19.144  0.0000E+00  0.0000E+00  0.1320E+03  0.1320E+03
    -18.902  0.0000E+00  0.0000E+00  0.1320E+03  0.1320E+03
    -18.661  0.0000E+00  0.0000E+00  0.1320E+03  0.1320E+03
    -18.419  0.0000E+00  0.0000E+00  0.1320E+03  0.1320E+03
    -18.177  0.0000E+00  0.0000E+00  0.1320E+03  0.1320E+03
    -17.936  0.0000E+00  0.0000E+00  0.1320E+03  0.1320E+03
    -17.694  0.0000E+00  0.0000E+00  0.1320E+03  0.1320E+03
    -17.452  0.0000E+00  0.0000E+00  0.1320E+03  0.1320E+03
    -17.211  0.0000E+00  0.0000E+00  0.1320E+03  0.1320E+03
    -16.969  0.0000E+00  0.0000E+00  0.1320E+03  0.1320E+03
    -16.728  0.0000E+00  0.0000E+00  0.1320E+03  0.1320E+03
    -16.486  0.0000E+00  0.0000E+00  0.1320E+03  0.1320E+03
    -16.244  0.0000E+00  0.0000E+00  0.1320E+03  0.1320E+03
    -16.003  0.0000E+00  0.0000E+00  0.1320E+03  0.1320E+03
    -15.761  0.0000E+00  0.0000E+00  0.1320E+03  0.1320E+03
    -15.519  0.0000E+00  0.0000E+00  0.1320E+03  0.1320E+03
    -15.278  0.0000E+00  0.0000E+00  0.1320E+03  0.1320E+03
    -15.036  0.0000E+00  0.0000E+00  0.1320E+03  0.1320E+03
    -14.795  0.0000E+00  0.0000E+00  0.1320E+03  0.1320E+03
    -14.553  0.0000E+00  0.0000E+00  0.1320E+03  0.1320E+03
    -14.311  0.0000E+00  0.0000E+00  0.1320E+03  0.1320E+03
    -14.070  0.0000E+00  0.0000E+00  0.1320E+03  0.1320E+03
    -13.828  0.9590E-12  0.0000E+00  0.1320E+03  0.1320E+03
    -13.586  0.2129E+01  0.0000E+00  0.1325E+03  0.1320E+03
    -13.345  0.5739E+02  0.1249E-05  0.1464E+03  0.1320E+03
    -13.103  0.3965E+02  0.1845E+02  0.1560E+03  0.1365E+03
    -12.862  0.1607E+00  0.7652E+02  0.1560E+03  0.1549E+03
    -12.620  0.0000E+00  0.4351E+01  0.1560E+03  0.1560E+03
    -12.378  0.0000E+00  0.0000E+00  0.1560E+03  0.1560E+03
    -12.137  0.0000E+00  0.0000E+00  0.1560E+03  0.1560E+03
    -11.895  0.0000E+00  0.0000E+00  0.1560E+03  0.1560E+03
    -11.653  0.0000E+00  0.0000E+00  0.1560E+03  0.1560E+03
    -11.412  0.0000E+00  0.0000E+00  0.1560E+03  0.1560E+03
    -11.170  0.0000E+00  0.0000E+00  0.1560E+03  0.1560E+03
    -10.929  0.0000E+00  0.0000E+00  0.1560E+03  0.1560E+03
    -10.687  0.0000E+00  0.0000E+00  0.1560E+03  0.1560E+03
    -10.445  0.0000E+00  0.0000E+00  0.1560E+03  0.1560E+03
    -10.204  0.0000E+00  0.0000E+00  0.1560E+03  0.1560E+03
     -9.962  0.0000E+00  0.0000E+00  0.1560E+03  0.1560E+03
     -9.720  0.0000E+00  0.0000E+00  0.1560E+03  0.1560E+03
     -9.479  0.0000E+00  0.0000E+00  0.1560E+03  0.1560E+03
     -9.237  0.0000E+00  0.0000E+00  0.1560E+03  0.1560E+03
     -8.995  0.0000E+00  0.0000E+00  0.1560E+03  0.1560E+03
     -8.754  0.0000E+00  0.0000E+00  0.1560E+03  0.1560E+03
     -8.512  0.0000E+00  0.0000E+00  0.1560E+03  0.1560E+03
     -8.271  0.0000E+00  0.0000E+00  0.1560E+03  0.1560E+03
     -8.029  0.0000E+00  0.0000E+00  0.1560E+03  0.1560E+03
     -7.787  0.2295E-13  0.0000E+00  0.1560E+03  0.1560E+03
     -7.546  0.2054E+00  0.2553E-16  0.1560E+03  0.1560E+03
     -7.304  0.2216E+02  0.6044E-01  0.1614E+03  0.1560E+03
     -7.062  0.4704E+02  0.2427E+02  0.1728E+03  0.1619E+03
     -6.821  0.2965E+02  0.4649E+02  0.1799E+03  0.1731E+03
     -6.579  0.2670E+00  0.2695E+02  0.1800E+03  0.1796E+03
     -6.338  0.0000E+00  0.1555E+01  0.1800E+03  0.1800E+03
     -6.096  0.0000E+00  0.0000E+00  0.1800E+03  0.1800E+03
     -5.854  0.0000E+00  0.0000E+00  0.1800E+03  0.1800E+03
     -5.613  0.0000E+00  0.0000E+00  0.1800E+03  0.1800E+03
     -5.371  0.0000E+00  0.0000E+00  0.1800E+03  0.1800E+03
     -5.129  0.0000E+00  0.0000E+00  0.1800E+03  0.1800E+03
     -4.888  0.0000E+00  0.0000E+00  0.1800E+03  0.1800E+03
     -4.646  0.0000E+00  0.0000E+00  0.1800E+03  0.1800E+03
     -4.405  0.0000E+00  0.0000E+00  0.1800E+03  0.1800E+03
     -4.163  0.0000E+00  0.0000E+00  0.1800E+03  0.1800E+03
     -3.921  0.0000E+00  0.0000E+00  0.1800E+03  0.1800E+03
     -3.680  0.0000E+00  0.0000E+00  0.1800E+03  0.1800E+03
     -3.438  0.0000E+00  0.0000E+00  0.1800E+03  0.1800E+03
     -3.196  0.0000E+00  0.0000E+00  0.1800E+03  0.1800E+03
     -2.955  0.0000E+00  0.0000E+00  0.1800E+03  0.1800E+03
     -2.713  0.0000E+00  0.0000E+00  0.1800E+03  0.1800E+03
     -2.472  0.0000E+00  0.0000E+00  0.1800E+03  0.1800E+03
     -2.230  0.1331E-01  0.0000E+00  0.1800E+03  0.1800E+03
     -1.988  0.2699E+02  0.0000E+00  0.1865E+03  0.1800E+03
     -1.747  0.5025E+02  0.0000E+00  0.1987E+03  0.1800E+03
     -1.505  0.1590E+02  0.0000E+00  0.2025E+03  0.1800E+03
     -1.263  0.1893E+02  0.0000E+00  0.2071E+03  0.1800E+03
     -1.022  0.5889E+02  0.1435E-03  0.2213E+03  0.1800E+03
     -0.780  0.7348E+02  0.1889E+01  0.2391E+03  0.1805E+03
     -0.538  0.6470E+02  0.9971E+01  0.2547E+03  0.1829E+03
     -0.297  0.6338E+02  0.2035E+02  0.2700E+03  0.1878E+03
     -0.055  0.6201E+02  0.3413E+02  0.2850E+03  0.1960E+03
      0.186  0.5481E+02  0.2516E+02  0.2982E+03  0.2021E+03
      0.428  0.1066E+03  0.3703E+02  0.3240E+03  0.2111E+03
      0.670  0.5272E+02  0.3616E+02  0.3367E+03  0.2198E+03
      0.911  0.4685E+02  0.5709E+02  0.3481E+03  0.2336E+03
      1.153  0.5307E+02  0.5604E+02  0.3609E+03  0.2471E+03
      1.395  0.6420E+02  0.1982E+02  0.3764E+03  0.2519E+03
      1.636  0.5401E+02  0.2515E+02  0.3894E+03  0.2580E+03
      1.878  0.5842E+02  0.4735E+02  0.4036E+03  0.2694E+03
      2.119  0.4845E+02  0.3575E+02  0.4153E+03  0.2781E+03
      2.361  0.2759E+02  0.3015E+02  0.4219E+03  0.2854E+03
      2.603  0.3522E+02  0.3334E+02  0.4304E+03  0.2934E+03
      2.844  0.3379E+02  0.4468E+02  0.4386E+03  0.3042E+03
      3.086  0.3659E+02  0.3817E+02  0.4475E+03  0.3134E+03
      3.328  0.3372E+02  0.5958E+02  0.4556E+03  0.3278E+03
      3.569  0.2569E+02  0.2800E+02  0.4618E+03  0.3346E+03
      3.811  0.4117E+02  0.9287E+01  0.4718E+03  0.3368E+03
      4.052  0.4597E+02  0.1080E+02  0.4829E+03  0.3395E+03
      4.294  0.3575E+02  0.4085E+02  0.4915E+03  0.3493E+03
      4.536  0.3620E+02  0.2269E+02  0.5002E+03  0.3548E+03
      4.777  0.1552E+02  0.1992E+02  0.5040E+03  0.3596E+03
      5.019  0.1313E-01  0.1584E+01  0.5040E+03  0.3600E+03
      5.261  0.0000E+00  0.1842E-04  0.5040E+03  0.3600E+03
      5.502  0.0000E+00  0.0000E+00  0.5040E+03  0.3600E+03
      5.744  0.0000E+00  0.0000E+00  0.5040E+03  0.3600E+03
      5.985  0.0000E+00  0.2072E-07  0.5040E+03  0.3600E+03
      6.227  0.0000E+00  0.3147E+00  0.5040E+03  0.3601E+03
      6.469  0.0000E+00  0.3676E+01  0.5040E+03  0.3610E+03
      6.710  0.4651E-02  0.9752E+01  0.5040E+03  0.3633E+03
      6.952  0.1486E+00  0.3272E+02  0.5040E+03  0.3712E+03
      7.194  0.3165E+00  0.7774E+02  0.5041E+03  0.3900E+03
      7.435  0.7590E+00  0.6507E+02  0.5043E+03  0.4057E+03
      7.677  0.2529E+01  0.5154E+02  0.5049E+03  0.4182E+03
      7.919  0.2208E+01  0.8553E+02  0.5054E+03  0.4389E+03
      8.160  0.2122E+01  0.7831E+02  0.5060E+03  0.4578E+03
      8.402  0.5338E+01  0.5287E+02  0.5072E+03  0.4705E+03
      8.643  0.7898E+01  0.7291E+02  0.5092E+03  0.4882E+03
      8.885  0.1655E+02  0.4501E+02  0.5132E+03  0.4990E+03
      9.127  0.1347E+02  0.2216E+02  0.5164E+03  0.5044E+03
      9.368  0.1856E+02  0.4837E+01  0.5209E+03  0.5056E+03
      9.610  0.1984E+02  0.6652E+01  0.5257E+03  0.5072E+03
      9.852  0.1783E+02  0.1156E+02  0.5300E+03  0.5100E+03
     10.093  0.1803E+02  0.1444E+02  0.5343E+03  0.5135E+03
     10.335  0.1975E+02  0.1813E+02  0.5391E+03  0.5178E+03
     10.576  0.2425E+02  0.3199E+02  0.5450E+03  0.5256E+03
     10.818  0.2132E+02  0.2822E+02  0.5501E+03  0.5324E+03
     11.060  0.2850E+02  0.2190E+02  0.5570E+03  0.5377E+03
     11.301  0.2876E+02  0.2488E+02  0.5640E+03  0.5437E+03
     11.543  0.2222E+02  0.2206E+02  0.5693E+03  0.5490E+03
     11.785  0.2726E+02  0.2151E+02  0.5759E+03  0.5542E+03
     12.026  0.3935E+02  0.1858E+02  0.5854E+03  0.5587E+03
     12.268  0.3436E+02  0.3069E+02  0.5937E+03  0.5661E+03
     12.509  0.2813E+02  0.4268E+02  0.6005E+03  0.5764E+03
     12.751  0.2538E+02  0.3528E+02  0.6067E+03  0.5850E+03
     12.993  0.2857E+02  0.2853E+02  0.6136E+03  0.5918E+03
     13.234  0.2535E+02  0.2747E+02  0.6197E+03  0.5985E+03
     13.476  0.2167E+02  0.3655E+02  0.6249E+03  0.6073E+03
     13.718  0.1790E+02  0.2946E+02  0.6293E+03  0.6144E+03
     13.959  0.2905E+01  0.2309E+02  0.6300E+03  0.6200E+03
     14.201  0.1771E+00  0.2358E+02  0.6300E+03  0.6257E+03
     14.442  0.0000E+00  0.1637E+02  0.6300E+03  0.6297E+03
     14.684  0.0000E+00  0.1381E+01  0.6300E+03  0.6300E+03
     14.926  0.0000E+00  0.2095E-05  0.6300E+03  0.6300E+03
     15.167  0.0000E+00  0.0000E+00  0.6300E+03  0.6300E+03
     15.409  0.0000E+00  0.0000E+00  0.6300E+03  0.6300E+03
     15.651  0.0000E+00  0.0000E+00  0.6300E+03  0.6300E+03
     15.892  0.0000E+00  0.0000E+00  0.6300E+03  0.6300E+03
     16.134  0.0000E+00  0.0000E+00  0.6300E+03  0.6300E+03
     16.375  0.0000E+00  0.0000E+00  0.6300E+03  0.6300E+03
     16.617  0.0000E+00  0.0000E+00  0.6300E+03  0.6300E+03
     16.859  0.0000E+00  0.0000E+00  0.6300E+03  0.6300E+03
     17.100  0.0000E+00  0.0000E+00  0.6300E+03  0.6300E+03
     17.342  0.0000E+00  0.0000E+00  0.6300E+03  0.6300E+03
     17.584  0.0000E+00  0.0000E+00  0.6300E+03  0.6300E+03
     17.825  0.0000E+00  0.0000E+00  0.6300E+03  0.6300E+03
