  99  99   0   0
  0.1430410E+02  0.1177748E-08  0.1177748E-08  0.1058004E-08  0.5000000E-15
  1.000000000000000E-004
  CAR 
 unknown system                          
     17.94165726    -54.33903200  301      5.23230273      1.00000000
    -54.339  0.0000E+00  0.0000E+00  0.0000E+00  0.0000E+00
    -54.098  0.0000E+00  0.0000E+00  0.0000E+00  0.0000E+00
    -53.857  0.0000E+00  0.0000E+00  0.0000E+00  0.0000E+00
    -53.616  0.0000E+00  0.0000E+00  0.0000E+00  0.0000E+00
    -53.375  0.0000E+00  0.0000E+00  0.0000E+00  0.0000E+00
    -53.134  0.0000E+00  0.0000E+00  0.0000E+00  0.0000E+00
    -52.893  0.0000E+00  0.0000E+00  0.0000E+00  0.0000E+00
    -52.652  0.0000E+00  0.0000E+00  0.0000E+00  0.0000E+00
    -52.412  0.0000E+00  0.0000E+00  0.0000E+00  0.0000E+00
    -52.171  0.0000E+00  0.0000E+00  0.0000E+00  0.0000E+00
    -51.930  0.0000E+00  0.0000E+00  0.0000E+00  0.0000E+00
    -51.689  0.0000E+00  0.0000E+00  0.0000E+00  0.0000E+00
    -51.448  0.0000E+00  0.0000E+00  0.0000E+00  0.0000E+00
    -51.207  0.3623E-03  0.0000E+00  0.8729E-04  0.0000E+00
    -50.966  0.1470E+03  0.0000E+00  0.3541E+02  0.0000E+00
    -50.725  0.2460E+01  0.0000E+00  0.3600E+02  0.0000E+00
    -50.484  0.0000E+00  0.0000E+00  0.3600E+02  0.0000E+00
    -50.243  0.0000E+00  0.0000E+00  0.3600E+02  0.0000E+00
    -50.002  0.0000E+00  0.0000E+00  0.3600E+02  0.0000E+00
    -49.761  0.1553E+01  0.0000E+00  0.3637E+02  0.0000E+00
    -49.520  0.2688E+03  0.0000E+00  0.1011E+03  0.0000E+00
    -49.279  0.2849E+02  0.0000E+00  0.1080E+03  0.0000E+00
    -49.038  0.0000E+00  0.0000E+00  0.1080E+03  0.0000E+00
    -48.798  0.0000E+00  0.0000E+00  0.1080E+03  0.0000E+00
    -48.557  0.0000E+00  0.0000E+00  0.1080E+03  0.0000E+00
    -48.316  0.0000E+00  0.0000E+00  0.1080E+03  0.0000E+00
    -48.075  0.0000E+00  0.0000E+00  0.1080E+03  0.0000E+00
    -47.834  0.0000E+00  0.0000E+00  0.1080E+03  0.0000E+00
    -47.593  0.0000E+00  0.0000E+00  0.1080E+03  0.0000E+00
    -47.352  0.0000E+00  0.0000E+00  0.1080E+03  0.0000E+00
    -47.111  0.0000E+00  0.0000E+00  0.1080E+03  0.0000E+00
    -46.870  0.0000E+00  0.0000E+00  0.1080E+03  0.0000E+00
    -46.629  0.0000E+00  0.0000E+00  0.1080E+03  0.0000E+00
    -46.388  0.0000E+00  0.3124E+00  0.1080E+03  0.7526E-01
    -46.147  0.0000E+00  0.1491E+03  0.1080E+03  0.3599E+02
    -45.906  0.0000E+00  0.6707E+02  0.1080E+03  0.5215E+02
    -45.665  0.0000E+00  0.2318E+03  0.1080E+03  0.1080E+03
    -45.424  0.0000E+00  0.0000E+00  0.1080E+03  0.1080E+03
    -45.183  0.0000E+00  0.0000E+00  0.1080E+03  0.1080E+03
    -44.943  0.0000E+00  0.0000E+00  0.1080E+03  0.1080E+03
    -44.702  0.0000E+00  0.0000E+00  0.1080E+03  0.1080E+03
    -44.461  0.0000E+00  0.0000E+00  0.1080E+03  0.1080E+03
    -44.220  0.0000E+00  0.0000E+00  0.1080E+03  0.1080E+03
    -43.979  0.0000E+00  0.0000E+00  0.1080E+03  0.1080E+03
    -43.738  0.0000E+00  0.0000E+00  0.1080E+03  0.1080E+03
    -43.497  0.0000E+00  0.0000E+00  0.1080E+03  0.1080E+03
    -43.256  0.0000E+00  0.0000E+00  0.1080E+03  0.1080E+03
    -43.015  0.0000E+00  0.0000E+00  0.1080E+03  0.1080E+03
    -42.774  0.0000E+00  0.0000E+00  0.1080E+03  0.1080E+03
    -42.533  0.0000E+00  0.0000E+00  0.1080E+03  0.1080E+03
    -42.292  0.0000E+00  0.0000E+00  0.1080E+03  0.1080E+03
    -42.051  0.0000E+00  0.0000E+00  0.1080E+03  0.1080E+03
    -41.810  0.0000E+00  0.0000E+00  0.1080E+03  0.1080E+03
    -41.569  0.0000E+00  0.0000E+00  0.1080E+03  0.1080E+03
    -41.329  0.0000E+00  0.0000E+00  0.1080E+03  0.1080E+03
    -41.088  0.0000E+00  0.0000E+00  0.1080E+03  0.1080E+03
    -40.847  0.0000E+00  0.0000E+00  0.1080E+03  0.1080E+03
    -40.606  0.0000E+00  0.0000E+00  0.1080E+03  0.1080E+03
    -40.365  0.0000E+00  0.0000E+00  0.1080E+03  0.1080E+03
    -40.124  0.6143E-11  0.3941E-11  0.1080E+03  0.1080E+03
    -39.883  0.2138E+02  0.1991E+02  0.1132E+03  0.1128E+03
    -39.642  0.5333E+02  0.5480E+02  0.1260E+03  0.1260E+03
    -39.401  0.0000E+00  0.0000E+00  0.1260E+03  0.1260E+03
    -39.160  0.0000E+00  0.0000E+00  0.1260E+03  0.1260E+03
    -38.919  0.0000E+00  0.0000E+00  0.1260E+03  0.1260E+03
    -38.678  0.0000E+00  0.0000E+00  0.1260E+03  0.1260E+03
    -38.437  0.0000E+00  0.0000E+00  0.1260E+03  0.1260E+03
    -38.196  0.0000E+00  0.0000E+00  0.1260E+03  0.1260E+03
    -37.955  0.0000E+00  0.0000E+00  0.1260E+03  0.1260E+03
    -37.714  0.0000E+00  0.0000E+00  0.1260E+03  0.1260E+03
    -37.474  0.0000E+00  0.0000E+00  0.1260E+03  0.1260E+03
    -37.233  0.0000E+00  0.0000E+00  0.1260E+03  0.1260E+03
    -36.992  0.0000E+00  0.0000E+00  0.1260E+03  0.1260E+03
    -36.751  0.0000E+00  0.0000E+00  0.1260E+03  0.1260E+03
    -36.510  0.0000E+00  0.0000E+00  0.1260E+03  0.1260E+03
    -36.269  0.0000E+00  0.0000E+00  0.1260E+03  0.1260E+03
    -36.028  0.0000E+00  0.0000E+00  0.1260E+03  0.1260E+03
    -35.787  0.0000E+00  0.0000E+00  0.1260E+03  0.1260E+03
    -35.546  0.0000E+00  0.0000E+00  0.1260E+03  0.1260E+03
    -35.305  0.0000E+00  0.0000E+00  0.1260E+03  0.1260E+03
    -35.064  0.0000E+00  0.0000E+00  0.1260E+03  0.1260E+03
    -34.823  0.0000E+00  0.0000E+00  0.1260E+03  0.1260E+03
    -34.582  0.0000E+00  0.0000E+00  0.1260E+03  0.1260E+03
    -34.341  0.0000E+00  0.0000E+00  0.1260E+03  0.1260E+03
    -34.100  0.0000E+00  0.0000E+00  0.1260E+03  0.1260E+03
    -33.860  0.0000E+00  0.0000E+00  0.1260E+03  0.1260E+03
    -33.619  0.0000E+00  0.0000E+00  0.1260E+03  0.1260E+03
    -33.378  0.0000E+00  0.0000E+00  0.1260E+03  0.1260E+03
    -33.137  0.0000E+00  0.0000E+00  0.1260E+03  0.1260E+03
    -32.896  0.0000E+00  0.0000E+00  0.1260E+03  0.1260E+03
    -32.655  0.0000E+00  0.0000E+00  0.1260E+03  0.1260E+03
    -32.414  0.0000E+00  0.0000E+00  0.1260E+03  0.1260E+03
    -32.173  0.0000E+00  0.0000E+00  0.1260E+03  0.1260E+03
    -31.932  0.0000E+00  0.0000E+00  0.1260E+03  0.1260E+03
    -31.691  0.0000E+00  0.0000E+00  0.1260E+03  0.1260E+03
    -31.450  0.0000E+00  0.0000E+00  0.1260E+03  0.1260E+03
    -31.209  0.0000E+00  0.0000E+00  0.1260E+03  0.1260E+03
    -30.968  0.0000E+00  0.0000E+00  0.1260E+03  0.1260E+03
    -30.727  0.0000E+00  0.0000E+00  0.1260E+03  0.1260E+03
    -30.486  0.0000E+00  0.0000E+00  0.1260E+03  0.1260E+03
    -30.245  0.0000E+00  0.0000E+00  0.1260E+03  0.1260E+03
    -30.005  0.0000E+00  0.0000E+00  0.1260E+03  0.1260E+03
    -29.764  0.0000E+00  0.0000E+00  0.1260E+03  0.1260E+03
    -29.523  0.0000E+00  0.0000E+00  0.1260E+03  0.1260E+03
    -29.282  0.0000E+00  0.0000E+00  0.1260E+03  0.1260E+03
    -29.041  0.0000E+00  0.0000E+00  0.1260E+03  0.1260E+03
    -28.800  0.0000E+00  0.0000E+00  0.1260E+03  0.1260E+03
    -28.559  0.0000E+00  0.0000E+00  0.1260E+03  0.1260E+03
    -28.318  0.0000E+00  0.0000E+00  0.1260E+03  0.1260E+03
    -28.077  0.0000E+00  0.0000E+00  0.1260E+03  0.1260E+03
    -27.836  0.0000E+00  0.0000E+00  0.1260E+03  0.1260E+03
    -27.595  0.0000E+00  0.0000E+00  0.1260E+03  0.1260E+03
    -27.354  0.0000E+00  0.0000E+00  0.1260E+03  0.1260E+03
    -27.113  0.0000E+00  0.0000E+00  0.1260E+03  0.1260E+03
    -26.872  0.0000E+00  0.0000E+00  0.1260E+03  0.1260E+03
    -26.631  0.0000E+00  0.0000E+00  0.1260E+03  0.1260E+03
    -26.390  0.0000E+00  0.0000E+00  0.1260E+03  0.1260E+03
    -26.150  0.0000E+00  0.0000E+00  0.1260E+03  0.1260E+03
    -25.909  0.0000E+00  0.0000E+00  0.1260E+03  0.1260E+03
    -25.668  0.0000E+00  0.0000E+00  0.1260E+03  0.1260E+03
    -25.427  0.0000E+00  0.0000E+00  0.1260E+03  0.1260E+03
    -25.186  0.0000E+00  0.0000E+00  0.1260E+03  0.1260E+03
    -24.945  0.0000E+00  0.0000E+00  0.1260E+03  0.1260E+03
    -24.704  0.0000E+00  0.0000E+00  0.1260E+03  0.1260E+03
    -24.463  0.0000E+00  0.0000E+00  0.1260E+03  0.1260E+03
    -24.222  0.0000E+00  0.0000E+00  0.1260E+03  0.1260E+03
    -23.981  0.0000E+00  0.0000E+00  0.1260E+03  0.1260E+03
    -23.740  0.0000E+00  0.0000E+00  0.1260E+03  0.1260E+03
    -23.499  0.0000E+00  0.0000E+00  0.1260E+03  0.1260E+03
    -23.258  0.0000E+00  0.0000E+00  0.1260E+03  0.1260E+03
    -23.017  0.0000E+00  0.0000E+00  0.1260E+03  0.1260E+03
    -22.776  0.0000E+00  0.0000E+00  0.1260E+03  0.1260E+03
    -22.536  0.0000E+00  0.0000E+00  0.1260E+03  0.1260E+03
    -22.295  0.0000E+00  0.0000E+00  0.1260E+03  0.1260E+03
    -22.054  0.0000E+00  0.0000E+00  0.1260E+03  0.1260E+03
    -21.813  0.0000E+00  0.0000E+00  0.1260E+03  0.1260E+03
    -21.572  0.0000E+00  0.0000E+00  0.1260E+03  0.1260E+03
    -21.331  0.0000E+00  0.0000E+00  0.1260E+03  0.1260E+03
    -21.090  0.0000E+00  0.0000E+00  0.1260E+03  0.1260E+03
    -20.849  0.0000E+00  0.0000E+00  0.1260E+03  0.1260E+03
    -20.608  0.0000E+00  0.0000E+00  0.1260E+03  0.1260E+03
    -20.367  0.0000E+00  0.0000E+00  0.1260E+03  0.1260E+03
    -20.126  0.0000E+00  0.0000E+00  0.1260E+03  0.1260E+03
    -19.885  0.0000E+00  0.0000E+00  0.1260E+03  0.1260E+03
    -19.644  0.0000E+00  0.0000E+00  0.1260E+03  0.1260E+03
    -19.403  0.0000E+00  0.0000E+00  0.1260E+03  0.1260E+03
    -19.162  0.0000E+00  0.0000E+00  0.1260E+03  0.1260E+03
    -18.921  0.0000E+00  0.0000E+00  0.1260E+03  0.1260E+03
    -18.681  0.0000E+00  0.0000E+00  0.1260E+03  0.1260E+03
    -18.440  0.0000E+00  0.0000E+00  0.1260E+03  0.1260E+03
    -18.199  0.0000E+00  0.0000E+00  0.1260E+03  0.1260E+03
    -17.958  0.0000E+00  0.0000E+00  0.1260E+03  0.1260E+03
    -17.717  0.0000E+00  0.0000E+00  0.1260E+03  0.1260E+03
    -17.476  0.0000E+00  0.0000E+00  0.1260E+03  0.1260E+03
    -17.235  0.0000E+00  0.0000E+00  0.1260E+03  0.1260E+03
    -16.994  0.0000E+00  0.0000E+00  0.1260E+03  0.1260E+03
    -16.753  0.0000E+00  0.0000E+00  0.1260E+03  0.1260E+03
    -16.512  0.0000E+00  0.0000E+00  0.1260E+03  0.1260E+03
    -16.271  0.0000E+00  0.0000E+00  0.1260E+03  0.1260E+03
    -16.030  0.0000E+00  0.0000E+00  0.1260E+03  0.1260E+03
    -15.789  0.0000E+00  0.0000E+00  0.1260E+03  0.1260E+03
    -15.548  0.0000E+00  0.0000E+00  0.1260E+03  0.1260E+03
    -15.307  0.0000E+00  0.0000E+00  0.1260E+03  0.1260E+03
    -15.067  0.0000E+00  0.0000E+00  0.1260E+03  0.1260E+03
    -14.826  0.0000E+00  0.0000E+00  0.1260E+03  0.1260E+03
    -14.585  0.0000E+00  0.0000E+00  0.1260E+03  0.1260E+03
    -14.344  0.0000E+00  0.0000E+00  0.1260E+03  0.1260E+03
    -14.103  0.0000E+00  0.0000E+00  0.1260E+03  0.1260E+03
    -13.862  0.0000E+00  0.0000E+00  0.1260E+03  0.1260E+03
    -13.621  0.0000E+00  0.0000E+00  0.1260E+03  0.1260E+03
    -13.380  0.1429E-03  0.0000E+00  0.1260E+03  0.1260E+03
    -13.139  0.2982E+02  0.0000E+00  0.1332E+03  0.1260E+03
    -12.898  0.4462E+02  0.1934E+00  0.1439E+03  0.1260E+03
    -12.657  0.2661E+00  0.5776E+02  0.1440E+03  0.1400E+03
    -12.416  0.0000E+00  0.1675E+02  0.1440E+03  0.1440E+03
    -12.175  0.0000E+00  0.0000E+00  0.1440E+03  0.1440E+03
    -11.934  0.0000E+00  0.0000E+00  0.1440E+03  0.1440E+03
    -11.693  0.0000E+00  0.0000E+00  0.1440E+03  0.1440E+03
    -11.452  0.0000E+00  0.0000E+00  0.1440E+03  0.1440E+03
    -11.212  0.0000E+00  0.0000E+00  0.1440E+03  0.1440E+03
    -10.971  0.0000E+00  0.0000E+00  0.1440E+03  0.1440E+03
    -10.730  0.0000E+00  0.0000E+00  0.1440E+03  0.1440E+03
    -10.489  0.0000E+00  0.0000E+00  0.1440E+03  0.1440E+03
    -10.248  0.0000E+00  0.0000E+00  0.1440E+03  0.1440E+03
    -10.007  0.0000E+00  0.0000E+00  0.1440E+03  0.1440E+03
     -9.766  0.0000E+00  0.0000E+00  0.1440E+03  0.1440E+03
     -9.525  0.0000E+00  0.0000E+00  0.1440E+03  0.1440E+03
     -9.284  0.0000E+00  0.0000E+00  0.1440E+03  0.1440E+03
     -9.043  0.0000E+00  0.0000E+00  0.1440E+03  0.1440E+03
     -8.802  0.0000E+00  0.0000E+00  0.1440E+03  0.1440E+03
     -8.561  0.0000E+00  0.0000E+00  0.1440E+03  0.1440E+03
     -8.320  0.0000E+00  0.0000E+00  0.1440E+03  0.1440E+03
     -8.079  0.0000E+00  0.0000E+00  0.1440E+03  0.1440E+03
     -7.838  0.1974E-10  0.0000E+00  0.1440E+03  0.1440E+03
     -7.598  0.5127E+00  0.2401E-11  0.1441E+03  0.1440E+03
     -7.357  0.1674E+02  0.4232E+00  0.1482E+03  0.1441E+03
     -7.116  0.3249E+02  0.1857E+02  0.1560E+03  0.1486E+03
     -6.875  0.3317E+02  0.3121E+02  0.1640E+03  0.1561E+03
     -6.634  0.2914E+02  0.2460E+02  0.1710E+03  0.1620E+03
     -6.393  0.1421E-03  0.3712E+02  0.1710E+03  0.1710E+03
     -6.152  0.0000E+00  0.1361E+00  0.1710E+03  0.1710E+03
     -5.911  0.0000E+00  0.0000E+00  0.1710E+03  0.1710E+03
     -5.670  0.0000E+00  0.0000E+00  0.1710E+03  0.1710E+03
     -5.429  0.0000E+00  0.0000E+00  0.1710E+03  0.1710E+03
     -5.188  0.0000E+00  0.0000E+00  0.1710E+03  0.1710E+03
     -4.947  0.0000E+00  0.0000E+00  0.1710E+03  0.1710E+03
     -4.706  0.0000E+00  0.0000E+00  0.1710E+03  0.1710E+03
     -4.465  0.0000E+00  0.0000E+00  0.1710E+03  0.1710E+03
     -4.224  0.0000E+00  0.0000E+00  0.1710E+03  0.1710E+03
     -3.983  0.0000E+00  0.0000E+00  0.1710E+03  0.1710E+03
     -3.743  0.0000E+00  0.0000E+00  0.1710E+03  0.1710E+03
     -3.502  0.0000E+00  0.0000E+00  0.1710E+03  0.1710E+03
     -3.261  0.0000E+00  0.0000E+00  0.1710E+03  0.1710E+03
     -3.020  0.0000E+00  0.0000E+00  0.1710E+03  0.1710E+03
     -2.779  0.0000E+00  0.0000E+00  0.1710E+03  0.1710E+03
     -2.538  0.0000E+00  0.0000E+00  0.1710E+03  0.1710E+03
     -2.297  0.0000E+00  0.0000E+00  0.1710E+03  0.1710E+03
     -2.056  0.5008E-02  0.0000E+00  0.1710E+03  0.1710E+03
     -1.815  0.2317E+02  0.0000E+00  0.1766E+03  0.1710E+03
     -1.574  0.1888E+02  0.0000E+00  0.1811E+03  0.1710E+03
     -1.333  0.1465E+02  0.0000E+00  0.1847E+03  0.1710E+03
     -1.092  0.2317E+02  0.0000E+00  0.1902E+03  0.1710E+03
     -0.851  0.5593E+02  0.0000E+00  0.2037E+03  0.1710E+03
     -0.610  0.6256E+02  0.1210E-03  0.2188E+03  0.1710E+03
     -0.369  0.3930E+02  0.8473E+01  0.2283E+03  0.1730E+03
     -0.129  0.8168E+02  0.2181E+02  0.2479E+03  0.1783E+03
      0.112  0.8858E+02  0.1294E+02  0.2693E+03  0.1814E+03
      0.353  0.8388E+02  0.2344E+02  0.2895E+03  0.1871E+03
      0.594  0.7263E+02  0.3040E+02  0.3070E+03  0.1944E+03
      0.835  0.6266E+02  0.4811E+02  0.3221E+03  0.2060E+03
      1.076  0.3990E+02  0.4073E+02  0.3317E+03  0.2158E+03
      1.317  0.3470E+02  0.3384E+02  0.3401E+03  0.2239E+03
      1.558  0.5103E+02  0.2389E+02  0.3524E+03  0.2297E+03
      1.799  0.5145E+02  0.3301E+02  0.3648E+03  0.2377E+03
      2.040  0.7511E+02  0.4080E+02  0.3828E+03  0.2475E+03
      2.281  0.6669E+02  0.2893E+02  0.3989E+03  0.2545E+03
      2.522  0.3115E+02  0.2920E+02  0.4064E+03  0.2615E+03
      2.763  0.5053E+02  0.3798E+02  0.4186E+03  0.2706E+03
      3.004  0.2606E+02  0.4579E+02  0.4249E+03  0.2817E+03
      3.245  0.9220E+01  0.4891E+02  0.4271E+03  0.2935E+03
      3.486  0.3849E+02  0.4239E+02  0.4364E+03  0.3037E+03
      3.726  0.2590E+02  0.7613E+01  0.4426E+03  0.3055E+03
      3.967  0.3628E+02  0.2085E+02  0.4514E+03  0.3105E+03
      4.208  0.3954E+02  0.7205E+02  0.4609E+03  0.3279E+03
      4.449  0.3805E+02  0.4683E+02  0.4700E+03  0.3392E+03
      4.690  0.3639E+02  0.1172E+02  0.4788E+03  0.3420E+03
      4.931  0.2579E+02  0.1330E-04  0.4850E+03  0.3420E+03
      5.172  0.4026E+01  0.0000E+00  0.4860E+03  0.3420E+03
      5.413  0.0000E+00  0.0000E+00  0.4860E+03  0.3420E+03
      5.654  0.0000E+00  0.0000E+00  0.4860E+03  0.3420E+03
      5.895  0.0000E+00  0.0000E+00  0.4860E+03  0.3420E+03
      6.136  0.0000E+00  0.1731E-09  0.4860E+03  0.3420E+03
      6.377  0.0000E+00  0.1148E+01  0.4860E+03  0.3423E+03
      6.618  0.0000E+00  0.5094E+01  0.4860E+03  0.3435E+03
      6.859  0.0000E+00  0.9392E+01  0.4860E+03  0.3458E+03
      7.100  0.5103E-14  0.1997E+02  0.4860E+03  0.3506E+03
      7.340  0.3816E-01  0.5956E+02  0.4860E+03  0.3649E+03
      7.581  0.1156E+00  0.6050E+02  0.4860E+03  0.3795E+03
      7.822  0.5652E+00  0.6319E+02  0.4862E+03  0.3947E+03
      8.063  0.5383E+00  0.7451E+02  0.4863E+03  0.4127E+03
      8.304  0.2385E+01  0.7898E+02  0.4869E+03  0.4317E+03
      8.545  0.4510E+01  0.7030E+02  0.4880E+03  0.4487E+03
      8.786  0.9409E+01  0.6671E+02  0.4902E+03  0.4647E+03
      9.027  0.1505E+02  0.4753E+02  0.4939E+03  0.4762E+03
      9.268  0.1583E+02  0.3341E+02  0.4977E+03  0.4842E+03
      9.509  0.1965E+02  0.9154E+01  0.5024E+03  0.4864E+03
      9.750  0.1561E+02  0.5515E+01  0.5062E+03  0.4878E+03
      9.991  0.2398E+02  0.1136E+02  0.5119E+03  0.4905E+03
     10.232  0.1700E+02  0.1604E+02  0.5160E+03  0.4944E+03
     10.473  0.2170E+02  0.2435E+02  0.5213E+03  0.5002E+03
     10.714  0.1484E+02  0.2166E+02  0.5248E+03  0.5054E+03
     10.955  0.1498E+02  0.2182E+02  0.5285E+03  0.5107E+03
     11.195  0.2179E+02  0.3201E+02  0.5337E+03  0.5184E+03
     11.436  0.3213E+02  0.2020E+02  0.5414E+03  0.5233E+03
     11.677  0.2899E+02  0.1862E+02  0.5484E+03  0.5278E+03
     11.918  0.3271E+02  0.1186E+02  0.5563E+03  0.5306E+03
     12.159  0.3657E+02  0.2384E+02  0.5651E+03  0.5364E+03
     12.400  0.2214E+02  0.4456E+02  0.5705E+03  0.5471E+03
     12.641  0.1999E+02  0.3565E+02  0.5753E+03  0.5557E+03
     12.882  0.2565E+02  0.3335E+02  0.5815E+03  0.5637E+03
     13.123  0.2528E+02  0.2048E+02  0.5875E+03  0.5687E+03
     13.364  0.2835E+02  0.2355E+02  0.5944E+03  0.5743E+03
     13.605  0.2539E+02  0.3313E+02  0.6005E+03  0.5823E+03
     13.846  0.1873E+02  0.2654E+02  0.6050E+03  0.5887E+03
     14.087  0.4136E+01  0.2672E+02  0.6060E+03  0.5951E+03
     14.328  0.6887E-03  0.2244E+02  0.6060E+03  0.6006E+03
     14.569  0.0000E+00  0.2012E+02  0.6060E+03  0.6054E+03
     14.809  0.0000E+00  0.2486E+01  0.6060E+03  0.6060E+03
     15.050  0.0000E+00  0.2224E-05  0.6060E+03  0.6060E+03
     15.291  0.0000E+00  0.0000E+00  0.6060E+03  0.6060E+03
     15.532  0.0000E+00  0.0000E+00  0.6060E+03  0.6060E+03
     15.773  0.0000E+00  0.0000E+00  0.6060E+03  0.6060E+03
     16.014  0.0000E+00  0.0000E+00  0.6060E+03  0.6060E+03
     16.255  0.0000E+00  0.0000E+00  0.6060E+03  0.6060E+03
     16.496  0.0000E+00  0.0000E+00  0.6060E+03  0.6060E+03
     16.737  0.0000E+00  0.0000E+00  0.6060E+03  0.6060E+03
     16.978  0.0000E+00  0.0000E+00  0.6060E+03  0.6060E+03
     17.219  0.0000E+00  0.0000E+00  0.6060E+03  0.6060E+03
     17.460  0.0000E+00  0.0000E+00  0.6060E+03  0.6060E+03
     17.701  0.0000E+00  0.0000E+00  0.6060E+03  0.6060E+03
     17.942  0.0000E+00  0.0000E+00  0.6060E+03  0.6060E+03
