<?xml version="1.0" encoding="ISO-8859-1"?>
<modeling>
 <generator>
  <i name="program" type="string">vasp </i>
  <i name="version" type="string">5.4.4.18Apr17-6-g9f103f2a35  </i>
  <i name="subversion" type="string">(build Oct 25 2017 14:42:18) complex            parallel </i>
  <i name="platform" type="string">LinuxIFC </i>
  <i name="date" type="string">2021 05 28 </i>
  <i name="time" type="string">05:25:07 </i>
 </generator>
 <incar>
  <i type="string" name="PREC">accurate</i>
  <i type="string" name="ALGO"> normal</i>
  <i type="logical" name="ADDGRID"> T  </i>
  <i type="int" name="ISPIN">     2</i>
  <i type="int" name="ICHARG">     1</i>
  <i type="int" name="NELM">   200</i>
  <i type="int" name="NELMIN">     8</i>
  <i name="EDIFF">      0.00000100</i>
  <i type="int" name="ISYM">     0</i>
  <i name="ENCUT">    650.00000000</i>
  <v name="MAGMOM">      0.60000000      0.60000000      0.60000000      0.60000000      0.60000000      0.60000000      0.60000000      0.60000000      0.60000000      0.60000000      0.60000000      0.60000000      0.60000000      0.60000000      0.60000000      0.60000000      0.60000000      0.60000000      0.60000000      0.60000000
      0.60000000      0.60000000      0.60000000      0.60000000      0.60000000      0.60000000      0.60000000      0.60000000      0.60000000      0.60000000      0.60000000      0.60000000      0.60000000      0.60000000      0.60000000      0.60000000      0.60000000      0.60000000      0.60000000      0.60000000
      0.60000000      0.60000000      0.60000000      0.60000000      0.60000000      0.60000000      0.60000000      0.60000000      0.60000000      0.60000000      0.60000000      0.60000000      0.60000000      0.60000000      0.60000000      0.60000000      0.60000000      0.60000000      0.60000000      0.60000000
      0.60000000      0.60000000      0.60000000      5.00000000      5.00000000      5.00000000      5.00000000      5.00000000      5.00000000      5.00000000      5.00000000      5.00000000      5.00000000      5.00000000      5.00000000      5.00000000      5.00000000      5.00000000      5.00000000      5.00000000
      5.00000000      5.00000000      5.00000000      5.00000000      5.00000000      5.00000000      5.00000000      5.00000000      5.00000000      5.00000000      5.00000000      5.00000000      5.00000000      5.00000000      5.00000000      5.00000000      5.00000000      5.00000000      5.00000000</v>
  <i type="logical" name="LREAL"> F  </i>
  <i type="int" name="ISMEAR">     0</i>
  <i name="SIGMA">      0.05000000</i>
  <i type="int" name="NWRITE">     1</i>
  <i type="int" name="LMAXMIX">     4</i>
  <i type="logical" name="LWAVE"> F  </i>
  <i type="logical" name="LASPH"> T  </i>
  <v type="int" name="KPOINT_BSE">    -1     0     0     0</v>
  <i type="int" name="NELM">   200</i>
  <i type="string" name="GGA"> pe</i>
  <i type="logical" name="LDAU"> T  </i>
  <v type="int" name="LDAUTYPE">     2</v>
  <v type="int" name="LDAUL">    -1    -1    -1     2</v>
  <v name="LDAUU">      0.00000000      0.00000000      0.00000000      4.00000000</v>
  <v name="LDAUJ">      0.00000000      0.00000000      0.00000000      0.00000000</v>
  <i type="logical" name="LASPH"> T  </i>
 </incar>
 <structure name="primitive_cell" >
  <crystal>
   <varray name="basis" >
    <v>      11.77726974       0.00848871       0.06923316 </v>
    <v>      -0.03028248      11.77723386       0.06923316 </v>
    <v>      -2.02000231      -2.02666320      10.18574622 </v>
   </varray>
   <i name="volume">   1416.10551572 </i>
   <varray name="rec_basis" >
    <v>       0.08481023       0.00011906       0.01684296 </v>
    <v>      -0.00016014       0.08481016       0.01684296 </v>
    <v>      -0.00057537      -0.00057727       0.09794744 </v>
   </varray>
  </crystal>
  <varray name="positions" >
   <v>       0.20224939       0.24206952      -0.16816581 </v>
   <v>       0.19734517       0.40355659      -0.19686089 </v>
   <v>       0.19734517       0.07022326      -0.19686089 </v>
   <v>       0.39684232       0.26982435       0.00000000 </v>
   <v>       0.06350899       0.26982435       0.00000000 </v>
   <v>       0.37094724       0.41064640      -0.15457223 </v>
   <v>       0.03761391       0.41064640      -0.15457223 </v>
   <v>       0.03761391       0.07731307      -0.15457223 </v>
   <v>       0.37094724       0.07731307      -0.15457223 </v>
   <v>       0.00338843       0.20657296      -0.37079665 </v>
   <v>       0.33587268       0.20657296      -0.37079665 </v>
   <v>       0.16118393       0.04306059      -0.39352170 </v>
   <v>       0.16118393       0.37639393      -0.39352170 </v>
   <v>       0.25602027       0.29571943       0.15457223 </v>
   <v>       0.20224939      -0.42459715      -0.16816581 </v>
   <v>       0.20224939      -0.09126381      -0.16816581 </v>
   <v>      -0.13108394       0.24206952      -0.16816581 </v>
   <v>      -0.46441728       0.24206952      -0.16816581 </v>
   <v>       0.26311007       0.46932149       0.19686089 </v>
   <v>       0.26311007       0.13598816       0.19686089 </v>
   <v>      -0.46932149       0.40355659      -0.19686089 </v>
   <v>      -0.13598816       0.07022326      -0.19686089 </v>
   <v>      -0.13598816       0.40355659      -0.19686089 </v>
   <v>      -0.46932149       0.07022326      -0.19686089 </v>
   <v>       0.42459715       0.46441728       0.16816581 </v>
   <v>       0.42459715       0.13108394       0.16816581 </v>
   <v>       0.09126381       0.46441728       0.16816581 </v>
   <v>       0.09126381       0.13108394       0.16816581 </v>
   <v>       0.39684232      -0.39684232       0.00000000 </v>
   <v>       0.06350899      -0.39684232       0.00000000 </v>
   <v>       0.06350899      -0.06350899       0.00000000 </v>
   <v>       0.39684232      -0.06350899       0.00000000 </v>
   <v>       0.00253935      -0.46009370      -0.37079665 </v>
   <v>       0.33587268      -0.46009370      -0.37079665 </v>
   <v>       0.29027274       0.17214940       0.39352170 </v>
   <v>       0.00253935      -0.12676037      -0.37079665 </v>
   <v>       0.33587268      -0.12676037      -0.37079665 </v>
   <v>       0.49451727       0.04306059      -0.39352170 </v>
   <v>      -0.04306059       0.17214940       0.39352170 </v>
   <v>       0.49451727       0.37639393      -0.39352170 </v>
   <v>      -0.17214940       0.04306059      -0.39352170 </v>
   <v>      -0.17214940       0.37639393      -0.39352170 </v>
   <v>       0.12676037       0.33079399       0.37079665 </v>
   <v>       0.12676037      -0.00253935       0.37079665 </v>
   <v>       0.25602027      -0.37094724       0.15457223 </v>
   <v>      -0.41064640       0.29571943       0.15457223 </v>
   <v>      -0.07731307       0.29571943       0.15457223 </v>
   <v>       0.25602027      -0.03761391       0.15457223 </v>
   <v>      -0.46441728      -0.42459715      -0.16816581 </v>
   <v>      -0.13108394      -0.09126381      -0.16816581 </v>
   <v>      -0.13108394      -0.42459715      -0.16816581 </v>
   <v>      -0.46441728      -0.09126381      -0.16816581 </v>
   <v>      -0.40355659       0.46932149       0.19686089 </v>
   <v>      -0.07022326       0.13598816       0.19686089 </v>
   <v>      -0.07022326       0.46932149       0.19686089 </v>
   <v>      -0.40355659       0.13598816       0.19686089 </v>
   <v>       0.46009370       0.33079399       0.37079665 </v>
   <v>       0.19734517      -0.26311007      -0.19686089 </v>
   <v>       0.29027274      -0.49451727       0.39352170 </v>
   <v>      -0.26982435       0.26982435       0.00000000 </v>
   <v>       0.37094724      -0.25602027      -0.15457223 </v>
   <v>      -0.29571943       0.41064640      -0.15457223 </v>
   <v>       0.03761391      -0.25602027      -0.15457223 </v>
   <v>      -0.29571943       0.07731307      -0.15457223 </v>
   <v>       0.29027274      -0.16118393       0.39352170 </v>
   <v>      -0.33079399       0.20657296      -0.37079665 </v>
   <v>      -0.04306059      -0.16118393       0.39352170 </v>
   <v>       0.16118393      -0.29027274      -0.39352170 </v>
   <v>      -0.04306059      -0.49451727       0.39352170 </v>
   <v>      -0.20657296       0.33079399       0.37079665 </v>
   <v>      -0.20657296      -0.00253935       0.37079665 </v>
   <v>      -0.41064640      -0.37094724       0.15457223 </v>
   <v>       0.46009370      -0.00253935       0.37079665 </v>
   <v>      -0.07731307      -0.03761391       0.15457223 </v>
   <v>      -0.07731307      -0.37094724       0.15457223 </v>
   <v>      -0.41064640      -0.03761391       0.15457223 </v>
   <v>       0.26311007      -0.19734517       0.19686089 </v>
   <v>       0.12676037      -0.33587268       0.37079665 </v>
   <v>       0.46009370      -0.33587268       0.37079665 </v>
   <v>      -0.46932149      -0.26311007      -0.19686089 </v>
   <v>      -0.13598816      -0.26311007      -0.19686089 </v>
   <v>       0.42459715      -0.20224939       0.16816581 </v>
   <v>      -0.24206952       0.46441728       0.16816581 </v>
   <v>       0.09126381      -0.20224939       0.16816581 </v>
   <v>      -0.24206952       0.13108394       0.16816581 </v>
   <v>      -0.37639393       0.17214940       0.39352170 </v>
   <v>      -0.37639393      -0.49451727       0.39352170 </v>
   <v>      -0.26982435      -0.39684232       0.00000000 </v>
   <v>      -0.26982435      -0.06350899       0.00000000 </v>
   <v>      -0.33079399      -0.46009370      -0.37079665 </v>
   <v>      -0.33079399      -0.12676037      -0.37079665 </v>
   <v>       0.49451727      -0.29027274      -0.39352170 </v>
   <v>      -0.17214940      -0.29027274      -0.39352170 </v>
   <v>      -0.07022326      -0.19734517       0.19686089 </v>
   <v>      -0.40355659      -0.19734517       0.19686089 </v>
   <v>      -0.37639393      -0.16118393       0.39352170 </v>
   <v>      -0.29571943      -0.25602027      -0.15457223 </v>
   <v>      -0.20657296      -0.33587268       0.37079665 </v>
   <v>      -0.24206952      -0.20224939       0.16816581 </v>
  </varray>
 </structure>
 <varray name="primitive_index" >
  <v type="int" >        1 </v>
  <v type="int" >       31 </v>
  <v type="int" >       28 </v>
  <v type="int" >       56 </v>
  <v type="int" >       55 </v>
  <v type="int" >       86 </v>
  <v type="int" >       85 </v>
  <v type="int" >       82 </v>
  <v type="int" >       83 </v>
  <v type="int" >       37 </v>
  <v type="int" >       38 </v>
  <v type="int" >       73 </v>
  <v type="int" >       76 </v>
  <v type="int" >       91 </v>
  <v type="int" >        4 </v>
  <v type="int" >        7 </v>
  <v type="int" >        3 </v>
  <v type="int" >        2 </v>
  <v type="int" >       22 </v>
  <v type="int" >       19 </v>
  <v type="int" >       32 </v>
  <v type="int" >       30 </v>
  <v type="int" >       33 </v>
  <v type="int" >       29 </v>
  <v type="int" >       14 </v>
  <v type="int" >       11 </v>
  <v type="int" >       13 </v>
  <v type="int" >       10 </v>
  <v type="int" >       59 </v>
  <v type="int" >       58 </v>
  <v type="int" >       61 </v>
  <v type="int" >       62 </v>
  <v type="int" >       40 </v>
  <v type="int" >       41 </v>
  <v type="int" >       64 </v>
  <v type="int" >       43 </v>
  <v type="int" >       44 </v>
  <v type="int" >       74 </v>
  <v type="int" >       66 </v>
  <v type="int" >       77 </v>
  <v type="int" >       75 </v>
  <v type="int" >       78 </v>
  <v type="int" >       46 </v>
  <v type="int" >       52 </v>
  <v type="int" >       94 </v>
  <v type="int" >       92 </v>
  <v type="int" >       93 </v>
  <v type="int" >       97 </v>
  <v type="int" >        5 </v>
  <v type="int" >        9 </v>
  <v type="int" >        6 </v>
  <v type="int" >        8 </v>
  <v type="int" >       23 </v>
  <v type="int" >       21 </v>
  <v type="int" >       24 </v>
  <v type="int" >       20 </v>
  <v type="int" >       47 </v>
  <v type="int" >       34 </v>
  <v type="int" >       67 </v>
  <v type="int" >       57 </v>
  <v type="int" >       89 </v>
  <v type="int" >       87 </v>
  <v type="int" >       88 </v>
  <v type="int" >       84 </v>
  <v type="int" >       70 </v>
  <v type="int" >       39 </v>
  <v type="int" >       72 </v>
  <v type="int" >       79 </v>
  <v type="int" >       69 </v>
  <v type="int" >       48 </v>
  <v type="int" >       54 </v>
  <v type="int" >       95 </v>
  <v type="int" >       53 </v>
  <v type="int" >       99 </v>
  <v type="int" >       96 </v>
  <v type="int" >       98 </v>
  <v type="int" >       25 </v>
  <v type="int" >       49 </v>
  <v type="int" >       50 </v>
  <v type="int" >       35 </v>
  <v type="int" >       36 </v>
  <v type="int" >       17 </v>
  <v type="int" >       15 </v>
  <v type="int" >       16 </v>
  <v type="int" >       12 </v>
  <v type="int" >       65 </v>
  <v type="int" >       68 </v>
  <v type="int" >       60 </v>
  <v type="int" >       63 </v>
  <v type="int" >       42 </v>
  <v type="int" >       45 </v>
  <v type="int" >       80 </v>
  <v type="int" >       81 </v>
  <v type="int" >       27 </v>
  <v type="int" >       26 </v>
  <v type="int" >       71 </v>
  <v type="int" >       90 </v>
  <v type="int" >       51 </v>
  <v type="int" >       18 </v>
 </varray>
 <kpoints>
  <generation param="Gamma">
   <v type="int" name="divisions">       3        3        3 </v>
   <v name="usershift">      0.00000000       0.00000000       0.00000000 </v>
   <v name="genvec1">      0.33333333       0.00000000       0.00000000 </v>
   <v name="genvec2">      0.00000000       0.33333333       0.00000000 </v>
   <v name="genvec3">      0.00000000       0.00000000       0.33333333 </v>
   <v name="shift">      0.00000000       0.00000000       0.00000000 </v>
  </generation>
  <varray name="kpointlist" >
   <v>       0.00000000       0.00000000       0.00000000 </v>
   <v>       0.33333333      -0.00000000      -0.00000000 </v>
   <v>       0.00000000       0.33333333       0.00000000 </v>
   <v>       0.33333333       0.33333333       0.00000000 </v>
   <v>      -0.33333333       0.33333333       0.00000000 </v>
   <v>      -0.00000000      -0.00000000       0.33333333 </v>
   <v>       0.33333333      -0.00000000       0.33333333 </v>
   <v>      -0.33333333      -0.00000000       0.33333333 </v>
   <v>      -0.00000000       0.33333333       0.33333333 </v>
   <v>       0.33333333       0.33333333       0.33333333 </v>
   <v>      -0.33333333       0.33333333       0.33333333 </v>
   <v>      -0.00000000      -0.33333333       0.33333333 </v>
   <v>       0.33333333      -0.33333333       0.33333333 </v>
   <v>      -0.33333333      -0.33333333       0.33333333 </v>
  </varray>
  <varray name="weights" >
   <v>       0.03703704 </v>
   <v>       0.07407407 </v>
   <v>       0.07407407 </v>
   <v>       0.07407407 </v>
   <v>       0.07407407 </v>
   <v>       0.07407407 </v>
   <v>       0.07407407 </v>
   <v>       0.07407407 </v>
   <v>       0.07407407 </v>
   <v>       0.07407407 </v>
   <v>       0.07407407 </v>
   <v>       0.07407407 </v>
   <v>       0.07407407 </v>
   <v>       0.07407407 </v>
  </varray>
 </kpoints>
 <parameters>
  <separator name="general" >
   <i type="string" name="SYSTEM">unknown system</i>
   <i type="logical" name="LCOMPAT"> F  </i>
  </separator>
  <separator name="electronic" >
   <i type="string" name="PREC">accura</i>
   <i name="ENMAX">    650.00000000</i>
   <i name="ENAUG">    628.94500000</i>
   <i name="EDIFF">      0.00000100</i>
   <i type="int" name="IALGO">    38</i>
   <i type="int" name="IWAVPR">    10</i>
   <i type="int" name="NBANDS">   606</i>
   <i name="NELECT">    828.00000000</i>
   <i type="int" name="TURBO">     0</i>
   <i type="int" name="IRESTART">     0</i>
   <i type="int" name="NREBOOT">     0</i>
   <i type="int" name="NMIN">     0</i>
   <i name="EREF">      0.00000000</i>
   <separator name="electronic smearing" >
    <i type="int" name="ISMEAR">     0</i>
    <i name="SIGMA">      0.05000000</i>
    <i name="KSPACING">      0.50000000</i>
    <i type="logical" name="KGAMMA"> T  </i>
   </separator>
   <separator name="electronic projectors" >
    <i type="logical" name="LREAL"> F  </i>
    <v name="ROPT">      0.00000000      0.00000000      0.00000000      0.00000000</v>
    <i type="int" name="LMAXPAW">  -100</i>
    <i type="int" name="LMAXMIX">     4</i>
    <i type="logical" name="NLSPLINE"> F  </i>
   </separator>
   <separator name="electronic startup" >
    <i type="int" name="ISTART">     0</i>
    <i type="int" name="ICHARG">     1</i>
    <i type="int" name="INIWAV">     1</i>
   </separator>
   <separator name="electronic spin" >
    <i type="int" name="ISPIN">     2</i>
    <i type="logical" name="LNONCOLLINEAR"> F  </i>
    <v name="MAGMOM">      0.60000000      0.60000000      0.60000000      0.60000000      0.60000000      0.60000000      0.60000000      0.60000000      0.60000000      0.60000000      0.60000000      0.60000000      0.60000000      0.60000000      0.60000000      0.60000000      0.60000000      0.60000000      0.60000000      0.60000000
      0.60000000      0.60000000      0.60000000      0.60000000      0.60000000      0.60000000      0.60000000      0.60000000      0.60000000      0.60000000      0.60000000      0.60000000      0.60000000      0.60000000      0.60000000      0.60000000      0.60000000      0.60000000      0.60000000      0.60000000
      0.60000000      0.60000000      0.60000000      0.60000000      0.60000000      0.60000000      0.60000000      0.60000000      0.60000000      0.60000000      0.60000000      0.60000000      0.60000000      0.60000000      0.60000000      0.60000000      0.60000000      0.60000000      0.60000000      0.60000000
      0.60000000      0.60000000      0.60000000      5.00000000      5.00000000      5.00000000      5.00000000      5.00000000      5.00000000      5.00000000      5.00000000      5.00000000      5.00000000      5.00000000      5.00000000      5.00000000      5.00000000      5.00000000      5.00000000      5.00000000
      5.00000000      5.00000000      5.00000000      5.00000000      5.00000000      5.00000000      5.00000000      5.00000000      5.00000000      5.00000000      5.00000000      5.00000000      5.00000000      5.00000000      5.00000000      5.00000000      5.00000000      5.00000000      5.00000000</v>
    <i name="NUPDOWN">     -1.00000000</i>
    <i type="logical" name="LSORBIT"> F  </i>
    <v name="SAXIS">      0.00000000      0.00000000      1.00000000</v>
    <i type="logical" name="LSPIRAL"> F  </i>
    <v name="QSPIRAL">      0.00000000      0.00000000      0.00000000</v>
    <i type="logical" name="LZEROZ"> F  </i>
   </separator>
   <separator name="electronic exchange-correlation" >
    <i type="logical" name="LASPH"> T  </i>
    <i type="logical" name="LMETAGGA"> F  </i>
   </separator>
   <separator name="electronic convergence" >
    <i type="int" name="NELM">   200</i>
    <i type="int" name="NELMDL">     0</i>
    <i type="int" name="NELMIN">     8</i>
    <i name="ENINI">    650.00000000</i>
    <separator name="electronic convergence detail" >
     <i type="logical" name="LDIAG"> T  </i>
     <i type="logical" name="LSUBROT"> F  </i>
     <i name="WEIMIN">      0.00000000</i>
     <i name="EBREAK">      0.00000000</i>
     <i name="DEPER">      0.30000000</i>
     <i type="int" name="NRMM">     4</i>
     <i name="TIME">      0.40000000</i>
    </separator>
   </separator>
   <separator name="electronic mixer" >
    <i name="AMIX">      0.40000000</i>
    <i name="BMIX">      1.00000000</i>
    <i name="AMIN">      0.10000000</i>
    <i name="AMIX_MAG">      1.60000000</i>
    <i name="BMIX_MAG">      1.00000000</i>
    <separator name="electronic mixer details" >
     <i type="int" name="IMIX">     4</i>
     <i type="logical" name="MIXFIRST"> F  </i>
     <i type="int" name="MAXMIX">   -45</i>
     <i name="WC">    100.00000000</i>
     <i type="int" name="INIMIX">     1</i>
     <i type="int" name="MIXPRE">     1</i>
     <i type="int" name="MREMOVE">     5</i>
    </separator>
   </separator>
   <separator name="electronic dipolcorrection" >
    <i type="logical" name="LDIPOL"> F  </i>
    <i type="logical" name="LMONO"> F  </i>
    <i type="int" name="IDIPOL">     0</i>
    <i name="EPSILON">      1.00000000</i>
    <v name="DIPOL">   -100.00000000   -100.00000000   -100.00000000</v>
    <i name="EFIELD">      0.00000000</i>
   </separator>
  </separator>
  <separator name="grids" >
   <i type="int" name="NGX">    98</i>
   <i type="int" name="NGY">    98</i>
   <i type="int" name="NGZ">    90</i>
   <i type="int" name="NGXF">   196</i>
   <i type="int" name="NGYF">   196</i>
   <i type="int" name="NGZF">   180</i>
   <i type="logical" name="ADDGRID"> T  </i>
  </separator>
  <separator name="ionic" >
   <i type="int" name="NSW">     0</i>
   <i type="int" name="IBRION">    -1</i>
   <i type="int" name="MDALGO">     0</i>
   <i type="int" name="ISIF">     2</i>
   <i name="PSTRESS">      0.00000000</i>
   <i name="EDIFFG">      0.00001000</i>
   <i type="int" name="NFREE">     0</i>
   <i name="POTIM">      0.50000000</i>
   <i name="SMASS">     -3.00000000</i>
   <i name="SCALEE">      1.00000000</i>
  </separator>
  <separator name="ionic md" >
   <i name="TEBEG">      0.00010000</i>
   <i name="TEEND">      0.00010000</i>
   <i type="int" name="NBLOCK">     1</i>
   <i type="int" name="KBLOCK">     1</i>
   <i type="int" name="NPACO">   256</i>
   <i name="APACO">     16.00000000</i>
  </separator>
  <separator name="symmetry" >
   <i type="int" name="ISYM">     0</i>
   <i name="SYMPREC">      0.00001000</i>
  </separator>
  <separator name="dos" >
   <i type="int" name="LORBIT">     0</i>
   <v name="RWIGS">     -1.00000000     -1.00000000     -1.00000000     -1.00000000</v>
   <i type="int" name="NEDOS">   301</i>
   <i name="EMIN">     10.00000000</i>
   <i name="EMAX">    -10.00000000</i>
   <i name="EFERMI">      0.00000000</i>
  </separator>
  <separator name="writing" >
   <i type="int" name="NWRITE">     1</i>
   <i type="logical" name="LWAVE"> F  </i>
   <i type="logical" name="LDOWNSAMPLE"> F  </i>
   <i type="logical" name="LCHARG"> T  </i>
   <i type="logical" name="LPARD"> F  </i>
   <i type="logical" name="LVTOT"> F  </i>
   <i type="logical" name="LVHAR"> F  </i>
   <i type="logical" name="LELF"> F  </i>
   <i type="logical" name="LOPTICS"> F  </i>
   <v name="STM">      0.00000000      0.00000000      0.00000000      0.00000000      0.00000000      0.00000000      0.00000000</v>
  </separator>
  <separator name="performance" >
   <i type="int" name="NPAR">     2</i>
   <i type="int" name="NSIM">     4</i>
   <i type="int" name="NBLK">    -1</i>
   <i type="logical" name="LPLANE"> T  </i>
   <i type="logical" name="LSCALAPACK"> T  </i>
   <i type="logical" name="LSCAAWARE"> F  </i>
   <i type="logical" name="LSCALU"> F  </i>
   <i type="logical" name="LASYNC"> F  </i>
   <i type="logical" name="LORBITALREAL"> F  </i>
  </separator>
  <separator name="miscellaneous" >
   <i type="int" name="IDIOT">     3</i>
   <i type="int" name="ISPECIAL">     0</i>
   <i type="logical" name="LMUSIC"> F  </i>
   <v name="POMASS">      7.01000000     16.00000000     32.06600000     55.84700000</v>
   <v name="DARWINR">      0.00000000      0.00000000      0.00000000      0.00000000</v>
   <v name="DARWINV">      1.00000000      1.00000000      1.00000000      1.00000000</v>
   <i type="logical" name="LCORR"> T  </i>
  </separator>
  <i type="logical" name="GGA_COMPAT"> T  </i>
  <i type="logical" name="LBERRY"> F  </i>
  <i type="int" name="ICORELEVEL">     0</i>
  <i type="logical" name="LDAU"> T  </i>
  <v type="int" name="LDAUTYPE">     2</v>
  <v type="int" name="LDAUL">    -1</v>
  <v name="LDAUU">      0.00000000</v>
  <v name="LDAUJ">      0.00000000</v>
  <i type="int" name="LDAUPRINT">     0</i>
  <i type="int" name="I_CONSTRAINED_M">     0</i>
  <separator name="electronic exchange-correlation" >
   <i type="string" name="GGA">PE</i>
   <i type="int" name="VOSKOWN">     0</i>
   <i type="logical" name="LHFCALC"> F  </i>
   <i type="string" name="PRECFOCK"></i>
   <i type="logical" name="LSYMGRAD"> F  </i>
   <i type="logical" name="LHFONE"> F  </i>
   <i type="logical" name="LRHFCALC"> F  </i>
   <i type="logical" name="LTHOMAS"> F  </i>
   <i type="logical" name="LMODELHF"> F  </i>
   <i name="ENCUT4O">     -1.00000000</i>
   <i type="int" name="EXXOEP">     0</i>
   <i type="int" name="FOURORBIT">     0</i>
   <i name="AEXX">      0.00000000</i>
   <i name="HFALPHA">      0.00000000</i>
   <i name="MCALPHA">      0.00000000</i>
   <i name="ALDAX">      1.00000000</i>
   <i name="AGGAX">      1.00000000</i>
   <i name="ALDAC">      1.00000000</i>
   <i name="AGGAC">      1.00000000</i>
   <i type="int" name="NKREDX">     1</i>
   <i type="int" name="NKREDY">     1</i>
   <i type="int" name="NKREDZ">     1</i>
   <i type="logical" name="SHIFTRED"> F  </i>
   <i type="logical" name="ODDONLY"> F  </i>
   <i type="logical" name="EVENONLY"> F  </i>
   <i type="int" name="LMAXFOCK">     0</i>
   <i type="int" name="NMAXFOCKAE">     0</i>
   <i type="logical" name="LFOCKAEDFT"> F  </i>
   <i name="HFSCREEN">      0.00000000</i>
   <i name="HFSCREENC">      0.00000000</i>
   <i type="int" name="NBANDSGWLOW">     0</i>
  </separator>
  <separator name="vdW DFT" >
   <i type="logical" name="LUSE_VDW"> F  </i>
   <i name="Zab_VDW">     -0.84910000</i>
   <i name="PARAM1">      0.12340000</i>
   <i name="PARAM2">      1.00000000</i>
   <i name="PARAM3">      0.00000000</i>
  </separator>
  <separator name="model GW" >
   <i type="int" name="MODEL_GW">     0</i>
   <i name="MODEL_EPS0">      8.58245767</i>
   <i name="MODEL_ALPHA">      1.00000000</i>
  </separator>
  <separator name="linear response parameters" >
   <i type="logical" name="LEPSILON"> F  </i>
   <i type="logical" name="LRPA"> F  </i>
   <i type="logical" name="LNABLA"> F  </i>
   <i type="logical" name="LVEL"> F  </i>
   <i type="int" name="KINTER">     0</i>
   <i name="CSHIFT">      0.10000000</i>
   <i name="OMEGAMAX">     -1.00000000</i>
   <i name="DEG_THRESHOLD">      0.00200000</i>
   <i name="RTIME">     -0.10000000</i>
   <i name="WPLASMAI">      0.00000000</i>
   <v name="DFIELD">      0.00000000      0.00000000      0.00000000</v>
   <v name="WPLASMA">      0.00000000      0.00000000      0.00000000      0.00000000      0.00000000      0.00000000      0.00000000      0.00000000      0.00000000</v>
  </separator>
  <separator name="orbital magnetization" >
   <i type="logical" name="NUCIND"> F  </i>
   <v name="MAGPOS">      0.00000000      0.00000000      0.00000000</v>
   <i type="logical" name="LNICSALL"> T  </i>
   <i type="logical" name="ORBITALMAG"> F  </i>
   <i type="logical" name="LMAGBLOCH"> F  </i>
   <i type="logical" name="LCHIMAG"> F  </i>
   <i type="logical" name="LGAUGE"> T  </i>
   <i type="int" name="MAGATOM">     0</i>
   <v name="MAGDIPOL">      0.00000000      0.00000000      0.00000000</v>
   <v name="AVECCONST">      0.00000000      0.00000000      0.00000000</v>
  </separator>
  <separator name="response functions" >
   <i type="logical" name="LADDER"> F  </i>
   <i type="logical" name="LRPAFORCE"> F  </i>
   <i type="logical" name="LFXC"> F  </i>
   <i type="logical" name="LHARTREE"> T  </i>
   <i type="int" name="IBSE">     0</i>
   <v type="int" name="KPOINT">    -1     0     0     0</v>
   <i type="logical" name="LTCTE"> F  </i>
   <i type="logical" name="LTETE"> F  </i>
   <i type="logical" name="LTRIPLET"> F  </i>
   <i type="logical" name="LFXCEPS"> F  </i>
   <i type="logical" name="LFXHEG"> F  </i>
   <i type="int" name="NATURALO">     2</i>
   <i type="logical" name="L2ORDER"> F  </i>
   <i type="logical" name="LMP2LT"> F  </i>
   <i type="logical" name="LUSEW"> F  </i>
   <i name="ENCUTGW">     -2.00000000</i>
   <i name="ENCUTGWSOFT">     -2.00000000</i>
   <i name="ENCUTLF">     -1.00000000</i>
   <i type="int" name="LMAXMP2">    -1</i>
   <i name="SCISSOR">      0.00000000</i>
   <i type="int" name="NOMEGA">     0</i>
   <i type="int" name="NOMEGAR">     0</i>
   <i type="int" name="NBANDSGW">    -1</i>
   <i type="int" name="NBANDSO">    -1</i>
   <i type="int" name="NBANDSV">    -1</i>
   <i type="int" name="NELM">   200</i>
   <i type="int" name="NELMHF">     1</i>
   <i type="int" name="DIM">     3</i>
   <i type="int" name="ANTIRES">     0</i>
   <i name="OMEGAMAX">    -30.00000000</i>
   <i name="OMEGAMIN">    -30.00000000</i>
   <i name="OMEGATL">   -200.00000000</i>
   <i type="int" name="OMEGAGRID">   140</i>
   <i name="CSHIFT">     -0.10000000</i>
   <i type="logical" name="SELFENERGY"> F  </i>
   <i type="logical" name="LSPECTRAL"> F  </i>
   <i type="logical" name="LSPECTRALGW"> F  </i>
   <i type="logical" name="LSINGLES"> F  </i>
   <i type="logical" name="LFERMIGW"> F  </i>
   <i type="logical" name="ODDONLYGW"> F  </i>
   <i type="logical" name="EVENONLYGW"> F  </i>
   <i type="int" name="NKREDLFX">     1</i>
   <i type="int" name="NKREDLFY">     1</i>
   <i type="int" name="NKREDLFZ">     1</i>
   <i type="int" name="MAXMEM">  2800</i>
   <i type="int" name="TELESCOPE">     0</i>
   <i type="int" name="TAUPAR">     1</i>
   <i type="int" name="OMEGAPAR">    -1</i>
   <i name="LAMBDA">      1.00000000</i>
  </separator>
  <separator name="External order field" >
   <i name="OFIELD_KAPPA">      0.00000000</i>
   <v name="OFIELD_K">      0.00000000      0.00000000      0.00000000</v>
   <i name="OFIELD_Q6_NEAR">      0.00000000</i>
   <i name="OFIELD_Q6_FAR">      0.00000000</i>
   <i name="OFIELD_A">      0.00000000</i>
  </separator>
 </parameters>
 <atominfo>
  <atoms>      99 </atoms>
  <types>       4 </types>
  <array name="atoms" >
   <dimension dim="1">ion</dimension>
   <field type="string">element</field>
   <field type="int">atomtype</field>
   <set>
    <rc><c>Li</c><c>   1</c></rc>
    <rc><c>Li</c><c>   1</c></rc>
    <rc><c>Li</c><c>   1</c></rc>
    <rc><c>Li</c><c>   1</c></rc>
    <rc><c>Li</c><c>   1</c></rc>
    <rc><c>Li</c><c>   1</c></rc>
    <rc><c>Li</c><c>   1</c></rc>
    <rc><c>Li</c><c>   1</c></rc>
    <rc><c>Li</c><c>   1</c></rc>
    <rc><c>Li</c><c>   1</c></rc>
    <rc><c>Li</c><c>   1</c></rc>
    <rc><c>Li</c><c>   1</c></rc>
    <rc><c>Li</c><c>   1</c></rc>
    <rc><c>Li</c><c>   1</c></rc>
    <rc><c>Li</c><c>   1</c></rc>
    <rc><c>Li</c><c>   1</c></rc>
    <rc><c>Li</c><c>   1</c></rc>
    <rc><c>Li</c><c>   1</c></rc>
    <rc><c>O </c><c>   2</c></rc>
    <rc><c>O </c><c>   2</c></rc>
    <rc><c>O </c><c>   2</c></rc>
    <rc><c>O </c><c>   2</c></rc>
    <rc><c>O </c><c>   2</c></rc>
    <rc><c>O </c><c>   2</c></rc>
    <rc><c>O </c><c>   2</c></rc>
    <rc><c>O </c><c>   2</c></rc>
    <rc><c>O </c><c>   2</c></rc>
    <rc><c>O </c><c>   2</c></rc>
    <rc><c>O </c><c>   2</c></rc>
    <rc><c>O </c><c>   2</c></rc>
    <rc><c>O </c><c>   2</c></rc>
    <rc><c>O </c><c>   2</c></rc>
    <rc><c>O </c><c>   2</c></rc>
    <rc><c>O </c><c>   2</c></rc>
    <rc><c>O </c><c>   2</c></rc>
    <rc><c>O </c><c>   2</c></rc>
    <rc><c>S </c><c>   3</c></rc>
    <rc><c>S </c><c>   3</c></rc>
    <rc><c>S </c><c>   3</c></rc>
    <rc><c>S </c><c>   3</c></rc>
    <rc><c>S </c><c>   3</c></rc>
    <rc><c>S </c><c>   3</c></rc>
    <rc><c>S </c><c>   3</c></rc>
    <rc><c>S </c><c>   3</c></rc>
    <rc><c>S </c><c>   3</c></rc>
    <rc><c>S </c><c>   3</c></rc>
    <rc><c>S </c><c>   3</c></rc>
    <rc><c>S </c><c>   3</c></rc>
    <rc><c>S </c><c>   3</c></rc>
    <rc><c>S </c><c>   3</c></rc>
    <rc><c>S </c><c>   3</c></rc>
    <rc><c>S </c><c>   3</c></rc>
    <rc><c>S </c><c>   3</c></rc>
    <rc><c>S </c><c>   3</c></rc>
    <rc><c>S </c><c>   3</c></rc>
    <rc><c>S </c><c>   3</c></rc>
    <rc><c>S </c><c>   3</c></rc>
    <rc><c>S </c><c>   3</c></rc>
    <rc><c>S </c><c>   3</c></rc>
    <rc><c>S </c><c>   3</c></rc>
    <rc><c>S </c><c>   3</c></rc>
    <rc><c>S </c><c>   3</c></rc>
    <rc><c>S </c><c>   3</c></rc>
    <rc><c>Fe</c><c>   4</c></rc>
    <rc><c>Fe</c><c>   4</c></rc>
    <rc><c>Fe</c><c>   4</c></rc>
    <rc><c>Fe</c><c>   4</c></rc>
    <rc><c>Fe</c><c>   4</c></rc>
    <rc><c>Fe</c><c>   4</c></rc>
    <rc><c>Fe</c><c>   4</c></rc>
    <rc><c>Fe</c><c>   4</c></rc>
    <rc><c>Fe</c><c>   4</c></rc>
    <rc><c>Fe</c><c>   4</c></rc>
    <rc><c>Fe</c><c>   4</c></rc>
    <rc><c>Fe</c><c>   4</c></rc>
    <rc><c>Fe</c><c>   4</c></rc>
    <rc><c>Fe</c><c>   4</c></rc>
    <rc><c>Fe</c><c>   4</c></rc>
    <rc><c>Fe</c><c>   4</c></rc>
    <rc><c>Fe</c><c>   4</c></rc>
    <rc><c>Fe</c><c>   4</c></rc>
    <rc><c>Fe</c><c>   4</c></rc>
    <rc><c>Fe</c><c>   4</c></rc>
    <rc><c>Fe</c><c>   4</c></rc>
    <rc><c>Fe</c><c>   4</c></rc>
    <rc><c>Fe</c><c>   4</c></rc>
    <rc><c>Fe</c><c>   4</c></rc>
    <rc><c>Fe</c><c>   4</c></rc>
    <rc><c>Fe</c><c>   4</c></rc>
    <rc><c>Fe</c><c>   4</c></rc>
    <rc><c>Fe</c><c>   4</c></rc>
    <rc><c>Fe</c><c>   4</c></rc>
    <rc><c>Fe</c><c>   4</c></rc>
    <rc><c>Fe</c><c>   4</c></rc>
    <rc><c>Fe</c><c>   4</c></rc>
    <rc><c>Fe</c><c>   4</c></rc>
    <rc><c>Fe</c><c>   4</c></rc>
    <rc><c>Fe</c><c>   4</c></rc>
    <rc><c>Fe</c><c>   4</c></rc>
   </set>
  </array>
  <array name="atomtypes" >
   <dimension dim="1">type</dimension>
   <field type="int">atomspertype</field>
   <field type="string">element</field>
   <field>mass</field>
   <field>valence</field>
   <field type="string">pseudopotential</field>
   <set>
    <rc><c>  18</c><c>Li</c><c>      7.01000000</c><c>      3.00000000</c><c>  PAW_PBE Li_sv 10Sep2004               </c></rc>
    <rc><c>  18</c><c>O </c><c>     16.00000000</c><c>      6.00000000</c><c>  PAW_PBE O 08Apr2002                   </c></rc>
    <rc><c>  27</c><c>S </c><c>     32.06600000</c><c>      6.00000000</c><c>  PAW_PBE S 06Sep2000                   </c></rc>
    <rc><c>  36</c><c>Fe</c><c>     55.84700000</c><c>     14.00000000</c><c>  PAW_PBE Fe_pv 02Aug2007               </c></rc>
   </set>
  </array>
 </atominfo>
 <structure name="initialpos" >
  <crystal>
   <varray name="basis" >
    <v>      11.77726974       0.00848871       0.06923316 </v>
    <v>      -0.03028248      11.77723386       0.06923316 </v>
    <v>      -2.02000231      -2.02666320      10.18574622 </v>
   </varray>
   <i name="volume">   1416.10551572 </i>
   <varray name="rec_basis" >
    <v>       0.08481023       0.00011906       0.01684296 </v>
    <v>      -0.00016014       0.08481016       0.01684296 </v>
    <v>      -0.00057537      -0.00057727       0.09794744 </v>
   </varray>
  </crystal>
  <varray name="positions" >
   <v>       0.20224939       0.24206952       0.83183419 </v>
   <v>       0.53558272       0.24206952       0.83183419 </v>
   <v>       0.86891606       0.24206952       0.83183419 </v>
   <v>       0.20224939       0.57540285       0.83183419 </v>
   <v>       0.53558272       0.57540285       0.83183419 </v>
   <v>       0.86891606       0.57540285       0.83183419 </v>
   <v>       0.20224939       0.90873619       0.83183419 </v>
   <v>       0.53558272       0.90873619       0.83183419 </v>
   <v>       0.86891606       0.90873619       0.83183419 </v>
   <v>       0.09126381       0.13108394       0.16816581 </v>
   <v>       0.42459715       0.13108394       0.16816581 </v>
   <v>       0.75793048       0.13108394       0.16816581 </v>
   <v>       0.09126381       0.46441728       0.16816581 </v>
   <v>       0.42459715       0.46441728       0.16816581 </v>
   <v>       0.75793048       0.46441728       0.16816581 </v>
   <v>       0.09126381       0.79775061       0.16816581 </v>
   <v>       0.42459715       0.79775061       0.16816581 </v>
   <v>       0.75793048       0.79775061       0.16816581 </v>
   <v>       0.26311007       0.13598816       0.19686089 </v>
   <v>       0.59644341       0.13598816       0.19686089 </v>
   <v>       0.92977674       0.13598816       0.19686089 </v>
   <v>       0.26311007       0.46932149       0.19686089 </v>
   <v>       0.59644341       0.46932149       0.19686089 </v>
   <v>       0.92977674       0.46932149       0.19686089 </v>
   <v>       0.26311007       0.80265483       0.19686089 </v>
   <v>       0.59644341       0.80265483       0.19686089 </v>
   <v>       0.92977674       0.80265483       0.19686089 </v>
   <v>       0.19734517       0.07022326       0.80313911 </v>
   <v>       0.53067851       0.07022326       0.80313911 </v>
   <v>       0.86401184       0.07022326       0.80313911 </v>
   <v>       0.19734517       0.40355659       0.80313911 </v>
   <v>       0.53067851       0.40355659       0.80313911 </v>
   <v>       0.86401184       0.40355659       0.80313911 </v>
   <v>       0.19734517       0.73688993       0.80313911 </v>
   <v>       0.53067851       0.73688993       0.80313911 </v>
   <v>       0.86401184       0.73688993       0.80313911 </v>
   <v>       0.00338842       0.20657296       0.62920335 </v>
   <v>       0.33587268       0.20657296       0.62920335 </v>
   <v>       0.66920601       0.20657296       0.62920335 </v>
   <v>       0.00253935       0.53990630       0.62920335 </v>
   <v>       0.33587268       0.53990630       0.62920335 </v>
   <v>       0.66920601       0.53990630       0.62920335 </v>
   <v>       0.00253935       0.87323963       0.62920335 </v>
   <v>       0.33587268       0.87323963       0.62920335 </v>
   <v>       0.66920601       0.87323963       0.62920335 </v>
   <v>       0.12676037       0.33079399       0.37079665 </v>
   <v>       0.46009370       0.33079399       0.37079665 </v>
   <v>       0.79342704       0.33079399       0.37079665 </v>
   <v>       0.12676037       0.66412732       0.37079665 </v>
   <v>       0.46009370       0.66412732       0.37079665 </v>
   <v>       0.79342704       0.66412732       0.37079665 </v>
   <v>       0.12676037       0.99746065       0.37079665 </v>
   <v>       0.46009370       0.99746065       0.37079665 </v>
   <v>       0.79342704       0.99746065       0.37079665 </v>
   <v>       0.06350899       0.26982435       0.00000000 </v>
   <v>       0.39684232       0.26982435       0.00000000 </v>
   <v>       0.73017565       0.26982435       0.00000000 </v>
   <v>       0.06350899       0.60315768       0.00000000 </v>
   <v>       0.39684232       0.60315768       0.00000000 </v>
   <v>       0.73017565       0.60315768       0.00000000 </v>
   <v>       0.06350899       0.93649101       0.00000000 </v>
   <v>       0.39684232       0.93649101       0.00000000 </v>
   <v>       0.73017565       0.93649101       0.00000000 </v>
   <v>       0.29027274       0.17214940       0.39352170 </v>
   <v>       0.62360607       0.17214940       0.39352170 </v>
   <v>       0.95693941       0.17214940       0.39352170 </v>
   <v>       0.29027274       0.50548273       0.39352170 </v>
   <v>       0.62360607       0.50548273       0.39352170 </v>
   <v>       0.95693941       0.50548273       0.39352170 </v>
   <v>       0.29027274       0.83881607       0.39352170 </v>
   <v>       0.62360607       0.83881607       0.39352170 </v>
   <v>       0.95693941       0.83881607       0.39352170 </v>
   <v>       0.16118393       0.04306059       0.60647830 </v>
   <v>       0.49451727       0.04306059       0.60647830 </v>
   <v>       0.82785060       0.04306059       0.60647830 </v>
   <v>       0.16118393       0.37639393       0.60647830 </v>
   <v>       0.49451727       0.37639393       0.60647830 </v>
   <v>       0.82785060       0.37639393       0.60647830 </v>
   <v>       0.16118393       0.70972726       0.60647830 </v>
   <v>       0.49451727       0.70972726       0.60647830 </v>
   <v>       0.82785060       0.70972726       0.60647830 </v>
   <v>       0.03761391       0.07731307       0.84542777 </v>
   <v>       0.37094724       0.07731307       0.84542777 </v>
   <v>       0.70428057       0.07731307       0.84542777 </v>
   <v>       0.03761391       0.41064640       0.84542777 </v>
   <v>       0.37094724       0.41064640       0.84542777 </v>
   <v>       0.70428057       0.41064640       0.84542777 </v>
   <v>       0.03761391       0.74397973       0.84542777 </v>
   <v>       0.37094724       0.74397973       0.84542777 </v>
   <v>       0.70428057       0.74397973       0.84542777 </v>
   <v>       0.25602027       0.29571943       0.15457223 </v>
   <v>       0.58935360       0.29571943       0.15457223 </v>
   <v>       0.92268693       0.29571943       0.15457223 </v>
   <v>       0.25602027       0.62905276       0.15457223 </v>
   <v>       0.58935360       0.62905276       0.15457223 </v>
   <v>       0.92268693       0.62905276       0.15457223 </v>
   <v>       0.25602027       0.96238609       0.15457223 </v>
   <v>       0.58935360       0.96238609       0.15457223 </v>
   <v>       0.92268693       0.96238609       0.15457223 </v>
  </varray>
 </structure>
 <calculation>
  <scstep>
   <time name="dav">  442.40  447.16</time>
   <time name="total">  446.08  450.93</time>
   <energy>
    <i name="alphaZ">   2606.24521607 </i>
    <i name="ewald"> -65007.65829157 </i>
    <i name="hartreedc"> -34081.95084494 </i>
    <i name="XCdc">   3632.83711243 </i>
    <i name="pawpsdc"> 104149.30743192 </i>
    <i name="pawaedc">-107360.85880398 </i>
    <i name="eentropy">     -0.01723333 </i>
    <i name="bandstr">    394.16872668 </i>
    <i name="atom"> 107373.91467324 </i>
    <i name="e_fr_energy">  11705.98798652 </i>
    <i name="e_wo_entrp">  11706.00521986 </i>
    <i name="e_0_energy">  11705.99660319 </i>
   </energy>
  </scstep>
  <scstep>
   <time name="dav">  434.25  438.63</time>
   <time name="total">  434.26  438.64</time>
   <energy>
    <i name="e_fr_energy">   1328.70430200 </i>
    <i name="e_wo_entrp">   1328.77181051 </i>
    <i name="e_0_energy">   1328.73805625 </i>
   </energy>
  </scstep>
  <scstep>
   <time name="dav">  456.67  461.10</time>
   <time name="total">  456.67  461.10</time>
   <energy>
    <i name="e_fr_energy">   -345.49006750 </i>
    <i name="e_wo_entrp">   -345.49006750 </i>
    <i name="e_0_energy">   -345.49006750 </i>
   </energy>
  </scstep>
  <scstep>
   <time name="dav">  490.57  495.93</time>
   <time name="total">  490.57  495.94</time>
   <energy>
    <i name="e_fr_energy">   -535.88148535 </i>
    <i name="e_wo_entrp">   -535.88148535 </i>
    <i name="e_0_energy">   -535.88148535 </i>
   </energy>
  </scstep>
  <scstep>
   <time name="dav">  643.57  649.62</time>
   <time name="total">  655.93  662.02</time>
   <energy>
    <i name="e_fr_energy">   -549.79417921 </i>
    <i name="e_wo_entrp">   -549.79417921 </i>
    <i name="e_0_energy">   -549.79417921 </i>
   </energy>
  </scstep>
  <scstep>
   <time name="dav">  572.66  578.33</time>
   <time name="total">  588.64  594.51</time>
   <energy>
    <i name="e_fr_energy">   -550.32304206 </i>
    <i name="e_wo_entrp">   -550.32304206 </i>
    <i name="e_0_energy">   -550.32304206 </i>
   </energy>
  </scstep>
  <scstep>
   <time name="dav">  609.42  615.61</time>
   <time name="total">  625.17  631.51</time>
   <energy>
    <i name="e_fr_energy">   -550.34127443 </i>
    <i name="e_wo_entrp">   -550.34127443 </i>
    <i name="e_0_energy">   -550.34127443 </i>
   </energy>
  </scstep>
  <scstep>
   <time name="dav">  576.36  583.08</time>
   <time name="total">  592.36  599.25</time>
   <energy>
    <i name="e_fr_energy">   -550.34077392 </i>
    <i name="e_wo_entrp">   -550.34077392 </i>
    <i name="e_0_energy">   -550.34077392 </i>
   </energy>
  </scstep>
  <scstep>
   <time name="dav">  622.58  629.01</time>
   <time name="total">  638.56  645.28</time>
   <energy>
    <i name="e_fr_energy">   -550.34040213 </i>
    <i name="e_wo_entrp">   -550.34040213 </i>
    <i name="e_0_energy">   -550.34040213 </i>
   </energy>
  </scstep>
  <scstep>
   <time name="dav">  598.09  603.33</time>
   <time name="total">  613.97  619.31</time>
   <energy>
    <i name="e_fr_energy">   -550.33989130 </i>
    <i name="e_wo_entrp">   -550.33989130 </i>
    <i name="e_0_energy">   -550.33989130 </i>
   </energy>
  </scstep>
  <scstep>
   <time name="dav">  586.98  593.12</time>
   <time name="total">  602.96  609.21</time>
   <energy>
    <i name="e_fr_energy">   -550.33916219 </i>
    <i name="e_wo_entrp">   -550.33916219 </i>
    <i name="e_0_energy">   -550.33916219 </i>
   </energy>
  </scstep>
  <scstep>
   <time name="dav">  527.23  532.18</time>
   <time name="total">  543.39  548.38</time>
   <energy>
    <i name="e_fr_energy">   -550.33912048 </i>
    <i name="e_wo_entrp">   -550.33912048 </i>
    <i name="e_0_energy">   -550.33912048 </i>
   </energy>
  </scstep>
  <scstep>
   <time name="dav">  533.18  538.59</time>
   <time name="total">  548.90  554.34</time>
   <energy>
    <i name="e_fr_energy">   -550.33912643 </i>
    <i name="e_wo_entrp">   -550.33912643 </i>
    <i name="e_0_energy">   -550.33912643 </i>
   </energy>
  </scstep>
  <scstep>
   <time name="dav">  346.07  349.58</time>
   <time name="total">  362.23  365.75</time>
   <energy>
    <i name="e_fr_energy">   -550.33912874 </i>
    <i name="e_wo_entrp">   -550.33912874 </i>
    <i name="e_0_energy">   -550.33912874 </i>
   </energy>
  </scstep>
  <scstep>
   <time name="dav">  516.72  522.89</time>
   <time name="total">  532.83  539.06</time>
   <energy>
    <i name="e_fr_energy">   -550.33909072 </i>
    <i name="e_wo_entrp">   -550.33909072 </i>
    <i name="e_0_energy">   -550.33909072 </i>
   </energy>
  </scstep>
  <scstep>
   <time name="dav">  441.67  446.34</time>
   <time name="total">  457.38  462.22</time>
   <energy>
    <i name="e_fr_energy">   -550.33909169 </i>
    <i name="e_wo_entrp">   -550.33909169 </i>
    <i name="e_0_energy">   -550.33909169 </i>
   </energy>
  </scstep>
  <scstep>
   <time name="dav">  344.69  348.21</time>
   <time name="total">  348.25  351.91</time>
   <energy>
    <i name="alphaZ">   2606.24521607 </i>
    <i name="ewald"> -65007.65829157 </i>
    <i name="hartreedc"> -34081.93833619 </i>
    <i name="XCdc">   3632.83614033 </i>
    <i name="pawpsdc"> 104148.93503911 </i>
    <i name="pawaedc">-107360.47992497 </i>
    <i name="eentropy">     -0.00000000 </i>
    <i name="bandstr"> -11862.19360794 </i>
    <i name="atom"> 107373.91467324 </i>
    <i name="e_fr_energy">   -550.33909192 </i>
    <i name="e_wo_entrp">   -550.33909192 </i>
    <i name="e_0_energy">   -550.33909192 </i>
   </energy>
  </scstep>
  <structure>
   <crystal>
    <varray name="basis" >
     <v>      11.77726974       0.00848871       0.06923316 </v>
     <v>      -0.03028248      11.77723386       0.06923316 </v>
     <v>      -2.02000231      -2.02666320      10.18574622 </v>
    </varray>
    <i name="volume">   1416.10551572 </i>
    <varray name="rec_basis" >
     <v>       0.08481023       0.00011906       0.01684296 </v>
     <v>      -0.00016014       0.08481016       0.01684296 </v>
     <v>      -0.00057537      -0.00057727       0.09794744 </v>
    </varray>
   </crystal>
   <varray name="positions" >
    <v>       0.20224939       0.24206952       0.83183419 </v>
    <v>       0.53558272       0.24206952       0.83183419 </v>
    <v>       0.86891606       0.24206952       0.83183419 </v>
    <v>       0.20224939       0.57540285       0.83183419 </v>
    <v>       0.53558272       0.57540285       0.83183419 </v>
    <v>       0.86891606       0.57540285       0.83183419 </v>
    <v>       0.20224939       0.90873619       0.83183419 </v>
    <v>       0.53558272       0.90873619       0.83183419 </v>
    <v>       0.86891606       0.90873619       0.83183419 </v>
    <v>       0.09126381       0.13108394       0.16816581 </v>
    <v>       0.42459715       0.13108394       0.16816581 </v>
    <v>       0.75793048       0.13108394       0.16816581 </v>
    <v>       0.09126381       0.46441728       0.16816581 </v>
    <v>       0.42459715       0.46441728       0.16816581 </v>
    <v>       0.75793048       0.46441728       0.16816581 </v>
    <v>       0.09126381       0.79775061       0.16816581 </v>
    <v>       0.42459715       0.79775061       0.16816581 </v>
    <v>       0.75793048       0.79775061       0.16816581 </v>
    <v>       0.26311007       0.13598816       0.19686089 </v>
    <v>       0.59644341       0.13598816       0.19686089 </v>
    <v>       0.92977674       0.13598816       0.19686089 </v>
    <v>       0.26311007       0.46932149       0.19686089 </v>
    <v>       0.59644341       0.46932149       0.19686089 </v>
    <v>       0.92977674       0.46932149       0.19686089 </v>
    <v>       0.26311007       0.80265483       0.19686089 </v>
    <v>       0.59644341       0.80265483       0.19686089 </v>
    <v>       0.92977674       0.80265483       0.19686089 </v>
    <v>       0.19734517       0.07022326       0.80313911 </v>
    <v>       0.53067851       0.07022326       0.80313911 </v>
    <v>       0.86401184       0.07022326       0.80313911 </v>
    <v>       0.19734517       0.40355659       0.80313911 </v>
    <v>       0.53067851       0.40355659       0.80313911 </v>
    <v>       0.86401184       0.40355659       0.80313911 </v>
    <v>       0.19734517       0.73688993       0.80313911 </v>
    <v>       0.53067851       0.73688993       0.80313911 </v>
    <v>       0.86401184       0.73688993       0.80313911 </v>
    <v>       0.00338842       0.20657296       0.62920335 </v>
    <v>       0.33587268       0.20657296       0.62920335 </v>
    <v>       0.66920601       0.20657296       0.62920335 </v>
    <v>       0.00253935       0.53990630       0.62920335 </v>
    <v>       0.33587268       0.53990630       0.62920335 </v>
    <v>       0.66920601       0.53990630       0.62920335 </v>
    <v>       0.00253935       0.87323963       0.62920335 </v>
    <v>       0.33587268       0.87323963       0.62920335 </v>
    <v>       0.66920601       0.87323963       0.62920335 </v>
    <v>       0.12676037       0.33079399       0.37079665 </v>
    <v>       0.46009370       0.33079399       0.37079665 </v>
    <v>       0.79342704       0.33079399       0.37079665 </v>
    <v>       0.12676037       0.66412732       0.37079665 </v>
    <v>       0.46009370       0.66412732       0.37079665 </v>
    <v>       0.79342704       0.66412732       0.37079665 </v>
    <v>       0.12676037       0.99746065       0.37079665 </v>
    <v>       0.46009370       0.99746065       0.37079665 </v>
    <v>       0.79342704       0.99746065       0.37079665 </v>
    <v>       0.06350899       0.26982435       0.00000000 </v>
    <v>       0.39684232       0.26982435       0.00000000 </v>
    <v>       0.73017565       0.26982435       0.00000000 </v>
    <v>       0.06350899       0.60315768       0.00000000 </v>
    <v>       0.39684232       0.60315768       0.00000000 </v>
    <v>       0.73017565       0.60315768       0.00000000 </v>
    <v>       0.06350899       0.93649101       0.00000000 </v>
    <v>       0.39684232       0.93649101       0.00000000 </v>
    <v>       0.73017565       0.93649101       0.00000000 </v>
    <v>       0.29027274       0.17214940       0.39352170 </v>
    <v>       0.62360607       0.17214940       0.39352170 </v>
    <v>       0.95693941       0.17214940       0.39352170 </v>
    <v>       0.29027274       0.50548273       0.39352170 </v>
    <v>       0.62360607       0.50548273       0.39352170 </v>
    <v>       0.95693941       0.50548273       0.39352170 </v>
    <v>       0.29027274       0.83881607       0.39352170 </v>
    <v>       0.62360607       0.83881607       0.39352170 </v>
    <v>       0.95693941       0.83881607       0.39352170 </v>
    <v>       0.16118393       0.04306059       0.60647830 </v>
    <v>       0.49451727       0.04306059       0.60647830 </v>
    <v>       0.82785060       0.04306059       0.60647830 </v>
    <v>       0.16118393       0.37639393       0.60647830 </v>
    <v>       0.49451727       0.37639393       0.60647830 </v>
    <v>       0.82785060       0.37639393       0.60647830 </v>
    <v>       0.16118393       0.70972726       0.60647830 </v>
    <v>       0.49451727       0.70972726       0.60647830 </v>
    <v>       0.82785060       0.70972726       0.60647830 </v>
    <v>       0.03761391       0.07731307       0.84542777 </v>
    <v>       0.37094724       0.07731307       0.84542777 </v>
    <v>       0.70428057       0.07731307       0.84542777 </v>
    <v>       0.03761391       0.41064640       0.84542777 </v>
    <v>       0.37094724       0.41064640       0.84542777 </v>
    <v>       0.70428057       0.41064640       0.84542777 </v>
    <v>       0.03761391       0.74397973       0.84542777 </v>
    <v>       0.37094724       0.74397973       0.84542777 </v>
    <v>       0.70428057       0.74397973       0.84542777 </v>
    <v>       0.25602027       0.29571943       0.15457223 </v>
    <v>       0.58935360       0.29571943       0.15457223 </v>
    <v>       0.92268693       0.29571943       0.15457223 </v>
    <v>       0.25602027       0.62905276       0.15457223 </v>
    <v>       0.58935360       0.62905276       0.15457223 </v>
    <v>       0.92268693       0.62905276       0.15457223 </v>
    <v>       0.25602027       0.96238609       0.15457223 </v>
    <v>       0.58935360       0.96238609       0.15457223 </v>
    <v>       0.92268693       0.96238609       0.15457223 </v>
   </varray>
  </structure>
  <varray name="forces" >
   <v>       0.00019105       0.00049804      -0.00138622 </v>
   <v>      -0.00084536       0.00053526       0.00009251 </v>
   <v>       0.00011730       0.00054939       0.00181740 </v>
   <v>       0.00025775      -0.00126929      -0.00010964 </v>
   <v>      -0.00030771      -0.00058885      -0.00005548 </v>
   <v>       0.00017488       0.00006408       0.00003690 </v>
   <v>       0.00022503       0.00109453       0.00008060 </v>
   <v>      -0.00035650       0.00037752       0.00006912 </v>
   <v>       0.00026494      -0.00029279       0.00017049 </v>
   <v>      -0.00015400       0.00007134       0.00041448 </v>
   <v>       0.00028894       0.00013722      -0.00006318 </v>
   <v>      -0.00043969       0.00003713      -0.00037941 </v>
   <v>      -0.00015544      -0.00040548       0.00032492 </v>
   <v>       0.00035498      -0.00010219      -0.00007560 </v>
   <v>      -0.00040131       0.00038004      -0.00027236 </v>
   <v>      -0.00020741       0.00031097       0.00032956 </v>
   <v>       0.00038330      -0.00006232      -0.00005224 </v>
   <v>      -0.00035579      -0.00045810      -0.00034190 </v>
   <v>       0.00021661       0.00000822      -0.00029204 </v>
   <v>       0.00057312      -0.00001421       0.00039014 </v>
   <v>      -0.00156392      -0.00000908      -0.00008884 </v>
   <v>       0.00027747       0.00055147      -0.00022540 </v>
   <v>       0.00065920      -0.00058184       0.00031570 </v>
   <v>      -0.00112436      -0.00005997      -0.00016243 </v>
   <v>       0.00031105      -0.00060010      -0.00027201 </v>
   <v>       0.00069442       0.00058819       0.00035446 </v>
   <v>      -0.00114946       0.00002857      -0.00009369 </v>
   <v>       0.00353458      -0.00491169       0.00595370 </v>
   <v>       0.00194393       0.00037780       0.00012839 </v>
   <v>       0.00318868       0.00552269      -0.00577236 </v>
   <v>       0.00345802       0.00520270       0.00579625 </v>
   <v>       0.00189649       0.00016002       0.00009638 </v>
   <v>       0.00323804      -0.00463243      -0.00545958 </v>
   <v>      -0.00033748       0.00022090      -0.00015469 </v>
   <v>       0.00102211       0.00025103       0.00007373 </v>
   <v>      -0.00057731       0.00023856       0.00014388 </v>
   <v>      -0.03502691       0.00100739      -0.00218477 </v>
   <v>       0.00592774       0.00014601      -0.00026468 </v>
   <v>       0.00585075       0.00005897       0.00040854 </v>
   <v>      -0.00185749       0.00010344      -0.00006354 </v>
   <v>       0.00082002       0.00096526      -0.00004592 </v>
   <v>       0.00080875      -0.00072197       0.00006835 </v>
   <v>      -0.00185850       0.00006615      -0.00009661 </v>
   <v>       0.00080863      -0.00072909      -0.00004469 </v>
   <v>       0.00081975       0.00094297       0.00009409 </v>
   <v>       0.00152494       0.00229258      -0.00373897 </v>
   <v>       0.00105271       0.00004153       0.00014605 </v>
   <v>       0.00151389      -0.00233218       0.00382008 </v>
   <v>      -0.00035097       0.00003453       0.00014176 </v>
   <v>       0.00071828       0.00006091       0.00011926 </v>
   <v>      -0.00028835       0.00005165      -0.00012776 </v>
   <v>       0.00157196      -0.00229885      -0.00384615 </v>
   <v>       0.00105553       0.00005278       0.00011689 </v>
   <v>       0.00155572       0.00255184       0.00403697 </v>
   <v>      -0.00124031       0.00000372      -0.00031722 </v>
   <v>       0.00061338      -0.00000520       0.00065257 </v>
   <v>       0.00026762      -0.00002076      -0.00026935 </v>
   <v>      -0.00041834      -0.00001405      -0.00006596 </v>
   <v>       0.00045821       0.00025244       0.00040362 </v>
   <v>       0.00022173      -0.00027399      -0.00031448 </v>
   <v>      -0.00049066      -0.00001355      -0.00035309 </v>
   <v>       0.00051913      -0.00029414       0.00040724 </v>
   <v>       0.00016908       0.00027302      -0.00002854 </v>
   <v>      -0.00086824      -0.00017499       0.00087093 </v>
   <v>      -0.00093265      -0.00007660      -0.00116676 </v>
   <v>       0.00251560      -0.00016704       0.00121391 </v>
   <v>      -0.00063387      -0.00064322      -0.00005316 </v>
   <v>      -0.00068119       0.00034770      -0.00022165 </v>
   <v>       0.00111227      -0.00003458      -0.00000786 </v>
   <v>      -0.00068261       0.00060037      -0.00006068 </v>
   <v>      -0.00077114      -0.00045437      -0.00017753 </v>
   <v>       0.00123754      -0.00001881       0.00001528 </v>
   <v>       0.00243941      -0.00007283      -0.00009619 </v>
   <v>      -0.00180379      -0.00010598       0.00009418 </v>
   <v>       0.00071371      -0.00200371       0.00020915 </v>
   <v>      -0.00053537      -0.00317814       0.00021329 </v>
   <v>      -0.00172269      -0.00032162       0.00003565 </v>
   <v>      -0.00140809       0.00335165      -0.00009039 </v>
   <v>       0.00046525      -0.00021180       0.00002741 </v>
   <v>      -0.00132397      -0.00028614       0.00005551 </v>
   <v>       0.00072603      -0.00029150       0.00019323 </v>
   <v>       0.00458421      -0.00004773       0.00017413 </v>
   <v>      -0.00196977       0.00018073      -0.00064458 </v>
   <v>      -0.00182295      -0.00030107       0.00043686 </v>
   <v>       0.00463747      -0.00004898       0.00022222 </v>
   <v>      -0.00190976      -0.00027555      -0.00061190 </v>
   <v>      -0.00175299       0.00025411       0.00048011 </v>
   <v>       0.00029588      -0.00002364       0.00005496 </v>
   <v>      -0.00000300      -0.00008191      -0.00017918 </v>
   <v>       0.00015358      -0.00014206       0.00003865 </v>
   <v>      -0.00031303      -0.00025755       0.00028327 </v>
   <v>      -0.00112039      -0.00015105      -0.00071252 </v>
   <v>       0.00131718      -0.00012678       0.00000065 </v>
   <v>       0.00016639      -0.00014416      -0.00008956 </v>
   <v>      -0.00034814      -0.00012994      -0.00018169 </v>
   <v>       0.00037721      -0.00006977       0.00002071 </v>
   <v>      -0.00045317       0.00000259       0.00037045 </v>
   <v>      -0.00098169      -0.00011988      -0.00069079 </v>
   <v>       0.00125435      -0.00019453      -0.00001132 </v>
  </varray>
  <varray name="stress" >
   <v>      -0.14196447      -0.01271671       0.00427975 </v>
   <v>      -0.01225014      -0.12441647      -0.00632448 </v>
   <v>       0.01390139       0.00359920      -0.14020492 </v>
  </varray>
  <energy>
   <i name="e_fr_energy">   -550.33909192 </i>
   <i name="e_wo_entrp">   -550.33909192 </i>
   <i name="e_0_energy">     -0.00000000 </i>
  </energy>
  <time name="totalsc"> 9691.30 9789.01</time>
  <eigenvalues>
   <array>
    <dimension dim="1">band</dimension>
    <dimension dim="2">kpoint</dimension>
    <dimension dim="3">spin</dimension>
    <field>eigene</field>
    <field>occ</field>
    <set>
     <set comment="spin 1">
      <set comment="kpoint 1">
       <r>  -51.0535    1.0000 </r>
       <r>  -51.0529    1.0000 </r>
       <r>  -51.0506    1.0000 </r>
       <r>  -51.0502    1.0000 </r>
       <r>  -51.0502    1.0000 </r>
       <r>  -51.0498    1.0000 </r>
       <r>  -51.0498    1.0000 </r>
       <r>  -51.0496    1.0000 </r>
       <r>  -51.0492    1.0000 </r>
       <r>  -51.0492    1.0000 </r>
       <r>  -51.0489    1.0000 </r>
       <r>  -51.0488    1.0000 </r>
       <r>  -51.0480    1.0000 </r>
       <r>  -51.0477    1.0000 </r>
       <r>  -51.0470    1.0000 </r>
       <r>  -51.0465    1.0000 </r>
       <r>  -51.0448    1.0000 </r>
       <r>  -51.0442    1.0000 </r>
       <r>  -51.0378    1.0000 </r>
       <r>  -51.0377    1.0000 </r>
       <r>  -51.0375    1.0000 </r>
       <r>  -51.0372    1.0000 </r>
       <r>  -51.0371    1.0000 </r>
       <r>  -51.0366    1.0000 </r>
       <r>  -51.0365    1.0000 </r>
       <r>  -51.0363    1.0000 </r>
       <r>  -51.0362    1.0000 </r>
       <r>  -51.0362    1.0000 </r>
       <r>  -51.0362    1.0000 </r>
       <r>  -51.0361    1.0000 </r>
       <r>  -51.0360    1.0000 </r>
       <r>  -51.0357    1.0000 </r>
       <r>  -51.0355    1.0000 </r>
       <r>  -51.0353    1.0000 </r>
       <r>  -51.0347    1.0000 </r>
       <r>  -51.0345    1.0000 </r>
       <r>  -49.6906    1.0000 </r>
       <r>  -49.6903    1.0000 </r>
       <r>  -49.6899    1.0000 </r>
       <r>  -49.6898    1.0000 </r>
       <r>  -49.6896    1.0000 </r>
       <r>  -49.6894    1.0000 </r>
       <r>  -49.6894    1.0000 </r>
       <r>  -49.6894    1.0000 </r>
       <r>  -49.6894    1.0000 </r>
       <r>  -49.6893    1.0000 </r>
       <r>  -49.6893    1.0000 </r>
       <r>  -49.6889    1.0000 </r>
       <r>  -49.6887    1.0000 </r>
       <r>  -49.6886    1.0000 </r>
       <r>  -49.6885    1.0000 </r>
       <r>  -49.6884    1.0000 </r>
       <r>  -49.6883    1.0000 </r>
       <r>  -49.6877    1.0000 </r>
       <r>  -49.5953    1.0000 </r>
       <r>  -49.5943    1.0000 </r>
       <r>  -49.5910    1.0000 </r>
       <r>  -49.5909    1.0000 </r>
       <r>  -49.5908    1.0000 </r>
       <r>  -49.5905    1.0000 </r>
       <r>  -49.5900    1.0000 </r>
       <r>  -49.5895    1.0000 </r>
       <r>  -49.5892    1.0000 </r>
       <r>  -49.5891    1.0000 </r>
       <r>  -49.5889    1.0000 </r>
       <r>  -49.5888    1.0000 </r>
       <r>  -49.5885    1.0000 </r>
       <r>  -49.5880    1.0000 </r>
       <r>  -49.5878    1.0000 </r>
       <r>  -49.5876    1.0000 </r>
       <r>  -49.5864    1.0000 </r>
       <r>  -49.5857    1.0000 </r>
       <r>  -49.5641    1.0000 </r>
       <r>  -49.5634    1.0000 </r>
       <r>  -49.5619    1.0000 </r>
       <r>  -49.5617    1.0000 </r>
       <r>  -49.5614    1.0000 </r>
       <r>  -49.5613    1.0000 </r>
       <r>  -49.5608    1.0000 </r>
       <r>  -49.5604    1.0000 </r>
       <r>  -49.5598    1.0000 </r>
       <r>  -49.5594    1.0000 </r>
       <r>  -49.5593    1.0000 </r>
       <r>  -49.5592    1.0000 </r>
       <r>  -49.5587    1.0000 </r>
       <r>  -49.5586    1.0000 </r>
       <r>  -49.5583    1.0000 </r>
       <r>  -49.5574    1.0000 </r>
       <r>  -49.5542    1.0000 </r>
       <r>  -49.5536    1.0000 </r>
       <r>  -49.5490    1.0000 </r>
       <r>  -49.5488    1.0000 </r>
       <r>  -49.5488    1.0000 </r>
       <r>  -49.5486    1.0000 </r>
       <r>  -49.5484    1.0000 </r>
       <r>  -49.5480    1.0000 </r>
       <r>  -49.5475    1.0000 </r>
       <r>  -49.5473    1.0000 </r>
       <r>  -49.5472    1.0000 </r>
       <r>  -49.5472    1.0000 </r>
       <r>  -49.5471    1.0000 </r>
       <r>  -49.5470    1.0000 </r>
       <r>  -49.5469    1.0000 </r>
       <r>  -49.5466    1.0000 </r>
       <r>  -49.5465    1.0000 </r>
       <r>  -49.5464    1.0000 </r>
       <r>  -49.5456    1.0000 </r>
       <r>  -49.5454    1.0000 </r>
       <r>  -39.8659    1.0000 </r>
       <r>  -39.8643    1.0000 </r>
       <r>  -39.8640    1.0000 </r>
       <r>  -39.8638    1.0000 </r>
       <r>  -39.8636    1.0000 </r>
       <r>  -39.8635    1.0000 </r>
       <r>  -39.8634    1.0000 </r>
       <r>  -39.8630    1.0000 </r>
       <r>  -39.8628    1.0000 </r>
       <r>  -39.8627    1.0000 </r>
       <r>  -39.8626    1.0000 </r>
       <r>  -39.8626    1.0000 </r>
       <r>  -39.8624    1.0000 </r>
       <r>  -39.8623    1.0000 </r>
       <r>  -39.8622    1.0000 </r>
       <r>  -39.8622    1.0000 </r>
       <r>  -39.8617    1.0000 </r>
       <r>  -39.8596    1.0000 </r>
       <r>  -13.2352    1.0000 </r>
       <r>  -13.2349    1.0000 </r>
       <r>  -13.2349    1.0000 </r>
       <r>  -13.2346    1.0000 </r>
       <r>  -13.2259    1.0000 </r>
       <r>  -13.1987    1.0000 </r>
       <r>  -13.0560    1.0000 </r>
       <r>  -13.0554    1.0000 </r>
       <r>  -13.0542    1.0000 </r>
       <r>  -13.0537    1.0000 </r>
       <r>  -13.0427    1.0000 </r>
       <r>  -13.0422    1.0000 </r>
       <r>  -13.0411    1.0000 </r>
       <r>  -13.0405    1.0000 </r>
       <r>  -13.0196    1.0000 </r>
       <r>  -13.0186    1.0000 </r>
       <r>  -13.0186    1.0000 </r>
       <r>  -13.0175    1.0000 </r>
       <r>   -7.6148    1.0000 </r>
       <r>   -7.4115    1.0000 </r>
       <r>   -7.3756    1.0000 </r>
       <r>   -7.3751    1.0000 </r>
       <r>   -7.3750    1.0000 </r>
       <r>   -7.3746    1.0000 </r>
       <r>   -7.1815    1.0000 </r>
       <r>   -7.1812    1.0000 </r>
       <r>   -7.1717    1.0000 </r>
       <r>   -7.1717    1.0000 </r>
       <r>   -7.1515    1.0000 </r>
       <r>   -7.1513    1.0000 </r>
       <r>   -7.1513    1.0000 </r>
       <r>   -7.1508    1.0000 </r>
       <r>   -6.9846    1.0000 </r>
       <r>   -6.9656    1.0000 </r>
       <r>   -6.9645    1.0000 </r>
       <r>   -6.9309    1.0000 </r>
       <r>   -6.9298    1.0000 </r>
       <r>   -6.8719    1.0000 </r>
       <r>   -6.8715    1.0000 </r>
       <r>   -6.8714    1.0000 </r>
       <r>   -6.8708    1.0000 </r>
       <r>   -6.8076    1.0000 </r>
       <r>   -6.8069    1.0000 </r>
       <r>   -6.7808    1.0000 </r>
       <r>   -6.7802    1.0000 </r>
       <r>   -1.8371    1.0000 </r>
       <r>   -1.8367    1.0000 </r>
       <r>   -1.8367    1.0000 </r>
       <r>   -1.8361    1.0000 </r>
       <r>   -1.8163    1.0000 </r>
       <r>   -1.8161    1.0000 </r>
       <r>   -1.8036    1.0000 </r>
       <r>   -1.8034    1.0000 </r>
       <r>   -1.7664    1.0000 </r>
       <r>   -1.7662    1.0000 </r>
       <r>   -1.7536    1.0000 </r>
       <r>   -1.7534    1.0000 </r>
       <r>   -1.2808    1.0000 </r>
       <r>   -1.1977    1.0000 </r>
       <r>   -1.1973    1.0000 </r>
       <r>   -1.1972    1.0000 </r>
       <r>   -1.1968    1.0000 </r>
       <r>   -1.0050    1.0000 </r>
       <r>   -1.0049    1.0000 </r>
       <r>   -0.9741    1.0000 </r>
       <r>   -0.9740    1.0000 </r>
       <r>   -0.9589    1.0000 </r>
       <r>   -0.9586    1.0000 </r>
       <r>   -0.9468    1.0000 </r>
       <r>   -0.9384    1.0000 </r>
       <r>   -0.9312    1.0000 </r>
       <r>   -0.9283    1.0000 </r>
       <r>   -0.9282    1.0000 </r>
       <r>   -0.8848    1.0000 </r>
       <r>   -0.8843    1.0000 </r>
       <r>   -0.8843    1.0000 </r>
       <r>   -0.8842    1.0000 </r>
       <r>   -0.8714    1.0000 </r>
       <r>   -0.8713    1.0000 </r>
       <r>   -0.8677    1.0000 </r>
       <r>   -0.8672    1.0000 </r>
       <r>   -0.8672    1.0000 </r>
       <r>   -0.8667    1.0000 </r>
       <r>   -0.8593    1.0000 </r>
       <r>   -0.8592    1.0000 </r>
       <r>   -0.7010    1.0000 </r>
       <r>   -0.7001    1.0000 </r>
       <r>   -0.7001    1.0000 </r>
       <r>   -0.6994    1.0000 </r>
       <r>   -0.6713    1.0000 </r>
       <r>   -0.6712    1.0000 </r>
       <r>   -0.6229    1.0000 </r>
       <r>   -0.6228    1.0000 </r>
       <r>   -0.6227    1.0000 </r>
       <r>   -0.6224    1.0000 </r>
       <r>   -0.6222    1.0000 </r>
       <r>   -0.6218    1.0000 </r>
       <r>   -0.3523    1.0000 </r>
       <r>   -0.3521    1.0000 </r>
       <r>   -0.3520    1.0000 </r>
       <r>   -0.3518    1.0000 </r>
       <r>   -0.3217    1.0000 </r>
       <r>   -0.3215    1.0000 </r>
       <r>   -0.2916    1.0000 </r>
       <r>   -0.2912    1.0000 </r>
       <r>   -0.2646    1.0000 </r>
       <r>   -0.2644    1.0000 </r>
       <r>   -0.2639    1.0000 </r>
       <r>   -0.2632    1.0000 </r>
       <r>   -0.2607    1.0000 </r>
       <r>   -0.2606    1.0000 </r>
       <r>   -0.2579    1.0000 </r>
       <r>   -0.2487    1.0000 </r>
       <r>   -0.2486    1.0000 </r>
       <r>   -0.2426    1.0000 </r>
       <r>   -0.2203    1.0000 </r>
       <r>   -0.1406    1.0000 </r>
       <r>   -0.1402    1.0000 </r>
       <r>   -0.1402    1.0000 </r>
       <r>   -0.1399    1.0000 </r>
       <r>   -0.1394    1.0000 </r>
       <r>   -0.1390    1.0000 </r>
       <r>   -0.1232    1.0000 </r>
       <r>   -0.1228    1.0000 </r>
       <r>   -0.1228    1.0000 </r>
       <r>   -0.1225    1.0000 </r>
       <r>   -0.1203    1.0000 </r>
       <r>   -0.1196    1.0000 </r>
       <r>   -0.0776    1.0000 </r>
       <r>   -0.0774    1.0000 </r>
       <r>   -0.0595    1.0000 </r>
       <r>   -0.0119    1.0000 </r>
       <r>   -0.0115    1.0000 </r>
       <r>    0.0158    1.0000 </r>
       <r>    0.0159    1.0000 </r>
       <r>    0.0260    1.0000 </r>
       <r>    0.0263    1.0000 </r>
       <r>    0.0426    1.0000 </r>
       <r>    0.0432    1.0000 </r>
       <r>    0.0433    1.0000 </r>
       <r>    0.0437    1.0000 </r>
       <r>    0.0606    1.0000 </r>
       <r>    0.0607    1.0000 </r>
       <r>    0.1493    1.0000 </r>
       <r>    0.1501    1.0000 </r>
       <r>    0.1503    1.0000 </r>
       <r>    0.1506    1.0000 </r>
       <r>    0.1583    1.0000 </r>
       <r>    0.1639    1.0000 </r>
       <r>    0.1656    1.0000 </r>
       <r>    0.1826    1.0000 </r>
       <r>    0.1826    1.0000 </r>
       <r>    0.1923    1.0000 </r>
       <r>    0.1965    1.0000 </r>
       <r>    0.1968    1.0000 </r>
       <r>    0.2078    1.0000 </r>
       <r>    0.2082    1.0000 </r>
       <r>    0.2580    1.0000 </r>
       <r>    0.2582    1.0000 </r>
       <r>    0.2583    1.0000 </r>
       <r>    0.2590    1.0000 </r>
       <r>    0.2784    1.0000 </r>
       <r>    0.2787    1.0000 </r>
       <r>    0.3391    1.0000 </r>
       <r>    0.3395    1.0000 </r>
       <r>    0.3595    1.0000 </r>
       <r>    0.3600    1.0000 </r>
       <r>    0.3601    1.0000 </r>
       <r>    0.3603    1.0000 </r>
       <r>    0.3801    1.0000 </r>
       <r>    0.3832    1.0000 </r>
       <r>    0.4897    1.0000 </r>
       <r>    0.4898    1.0000 </r>
       <r>    0.4900    1.0000 </r>
       <r>    0.4901    1.0000 </r>
       <r>    0.5163    1.0000 </r>
       <r>    0.5170    1.0000 </r>
       <r>    0.5173    1.0000 </r>
       <r>    0.5177    1.0000 </r>
       <r>    0.5588    1.0000 </r>
       <r>    0.5590    1.0000 </r>
       <r>    0.6088    1.0000 </r>
       <r>    0.6089    1.0000 </r>
       <r>    0.6147    1.0000 </r>
       <r>    0.6303    1.0000 </r>
       <r>    0.6312    1.0000 </r>
       <r>    0.6312    1.0000 </r>
       <r>    0.6315    1.0000 </r>
       <r>    0.7522    1.0000 </r>
       <r>    0.7525    1.0000 </r>
       <r>    0.7613    1.0000 </r>
       <r>    0.7614    1.0000 </r>
       <r>    0.7621    1.0000 </r>
       <r>    0.7626    1.0000 </r>
       <r>    0.7904    1.0000 </r>
       <r>    0.7910    1.0000 </r>
       <r>    0.7932    1.0000 </r>
       <r>    0.8458    1.0000 </r>
       <r>    0.8464    1.0000 </r>
       <r>    0.8548    1.0000 </r>
       <r>    0.8553    1.0000 </r>
       <r>    0.9687    1.0000 </r>
       <r>    0.9691    1.0000 </r>
       <r>    0.9692    1.0000 </r>
       <r>    0.9692    1.0000 </r>
       <r>    0.9794    1.0000 </r>
       <r>    1.2398    1.0000 </r>
       <r>    1.2400    1.0000 </r>
       <r>    1.2401    1.0000 </r>
       <r>    1.2401    1.0000 </r>
       <r>    1.2638    1.0000 </r>
       <r>    1.2926    1.0000 </r>
       <r>    1.2928    1.0000 </r>
       <r>    1.3305    1.0000 </r>
       <r>    1.3309    1.0000 </r>
       <r>    1.3587    1.0000 </r>
       <r>    1.3588    1.0000 </r>
       <r>    1.3590    1.0000 </r>
       <r>    1.3592    1.0000 </r>
       <r>    1.4362    1.0000 </r>
       <r>    1.4370    1.0000 </r>
       <r>    1.4640    1.0000 </r>
       <r>    1.4755    1.0000 </r>
       <r>    1.4872    1.0000 </r>
       <r>    1.4877    1.0000 </r>
       <r>    1.5475    1.0000 </r>
       <r>    1.6788    1.0000 </r>
       <r>    1.6802    1.0000 </r>
       <r>    1.6803    1.0000 </r>
       <r>    1.7236    1.0000 </r>
       <r>    1.7237    1.0000 </r>
       <r>    1.7239    1.0000 </r>
       <r>    1.7241    1.0000 </r>
       <r>    1.7656    1.0000 </r>
       <r>    1.7657    1.0000 </r>
       <r>    1.8142    1.0000 </r>
       <r>    1.8143    1.0000 </r>
       <r>    1.8147    1.0000 </r>
       <r>    1.8150    1.0000 </r>
       <r>    1.8263    1.0000 </r>
       <r>    1.8271    1.0000 </r>
       <r>    1.8276    1.0000 </r>
       <r>    1.8284    1.0000 </r>
       <r>    1.8394    1.0000 </r>
       <r>    1.8760    1.0000 </r>
       <r>    1.8868    1.0000 </r>
       <r>    1.9030    1.0000 </r>
       <r>    1.9031    1.0000 </r>
       <r>    1.9175    1.0000 </r>
       <r>    1.9177    1.0000 </r>
       <r>    1.9632    1.0000 </r>
       <r>    1.9635    1.0000 </r>
       <r>    1.9899    1.0000 </r>
       <r>    1.9901    1.0000 </r>
       <r>    1.9990    1.0000 </r>
       <r>    1.9991    1.0000 </r>
       <r>    1.9993    1.0000 </r>
       <r>    1.9997    1.0000 </r>
       <r>    2.0714    1.0000 </r>
       <r>    2.0714    1.0000 </r>
       <r>    2.0813    1.0000 </r>
       <r>    2.0816    1.0000 </r>
       <r>    2.0816    1.0000 </r>
       <r>    2.0818    1.0000 </r>
       <r>    2.0945    1.0000 </r>
       <r>    2.0947    1.0000 </r>
       <r>    2.1157    1.0000 </r>
       <r>    2.1162    1.0000 </r>
       <r>    2.1163    1.0000 </r>
       <r>    2.1175    1.0000 </r>
       <r>    2.1955    1.0000 </r>
       <r>    2.1957    1.0000 </r>
       <r>    2.2885    1.0000 </r>
       <r>    2.2887    1.0000 </r>
       <r>    2.4162    1.0000 </r>
       <r>    2.4166    1.0000 </r>
       <r>    2.4402    1.0000 </r>
       <r>    2.4408    1.0000 </r>
       <r>    2.4409    1.0000 </r>
       <r>    2.4416    1.0000 </r>
       <r>    2.4997    1.0000 </r>
       <r>    2.5158    1.0000 </r>
       <r>    2.5165    1.0000 </r>
       <r>    2.5166    1.0000 </r>
       <r>    2.5170    1.0000 </r>
       <r>    2.5596    1.0000 </r>
       <r>    2.5598    1.0000 </r>
       <r>    2.5653    1.0000 </r>
       <r>    2.7183    1.0000 </r>
       <r>    2.7188    1.0000 </r>
       <r>    2.7188    1.0000 </r>
       <r>    2.7193    1.0000 </r>
       <r>    2.7326    1.0000 </r>
       <r>    2.7334    1.0000 </r>
       <r>    2.7999    1.0000 </r>
       <r>    2.8008    1.0000 </r>
       <r>    3.0026    1.0000 </r>
       <r>    3.0031    1.0000 </r>
       <r>    3.0064    1.0000 </r>
       <r>    3.0068    1.0000 </r>
       <r>    3.1701    1.0000 </r>
       <r>    3.2186    1.0000 </r>
       <r>    3.2197    1.0000 </r>
       <r>    3.2215    1.0000 </r>
       <r>    3.2226    1.0000 </r>
       <r>    3.3595    1.0000 </r>
       <r>    3.3599    1.0000 </r>
       <r>    3.3600    1.0000 </r>
       <r>    3.3606    1.0000 </r>
       <r>    3.3931    1.0000 </r>
       <r>    3.4020    1.0000 </r>
       <r>    3.5016    1.0000 </r>
       <r>    3.5022    1.0000 </r>
       <r>    3.5873    1.0000 </r>
       <r>    3.5875    1.0000 </r>
       <r>    3.8159    1.0000 </r>
       <r>    3.8160    1.0000 </r>
       <r>    3.8295    1.0000 </r>
       <r>    3.8304    1.0000 </r>
       <r>    4.0026    1.0000 </r>
       <r>    4.0027    1.0000 </r>
       <r>    4.0031    1.0000 </r>
       <r>    4.0035    1.0000 </r>
       <r>    4.0312    1.0000 </r>
       <r>    4.0316    1.0000 </r>
       <r>    4.0318    1.0000 </r>
       <r>    4.0322    1.0000 </r>
       <r>    4.1063    1.0000 </r>
       <r>    4.1169    1.0000 </r>
       <r>    4.1222    1.0000 </r>
       <r>    4.1598    1.0000 </r>
       <r>    4.1608    1.0000 </r>
       <r>    4.2587    1.0000 </r>
       <r>    4.2593    1.0000 </r>
       <r>    4.2765    1.0000 </r>
       <r>    4.2772    1.0000 </r>
       <r>    4.3299    1.0000 </r>
       <r>    4.3310    1.0000 </r>
       <r>    4.3581    1.0000 </r>
       <r>    4.3586    1.0000 </r>
       <r>    4.3588    1.0000 </r>
       <r>    4.3593    1.0000 </r>
       <r>    4.4114    1.0000 </r>
       <r>    4.4119    1.0000 </r>
       <r>    4.4337    1.0000 </r>
       <r>    4.4343    1.0000 </r>
       <r>    4.5231    1.0000 </r>
       <r>    4.5232    1.0000 </r>
       <r>    4.5236    1.0000 </r>
       <r>    4.5242    1.0000 </r>
       <r>    4.5509    1.0000 </r>
       <r>    4.5512    1.0000 </r>
       <r>    4.8111    1.0000 </r>
       <r>    4.8118    1.0000 </r>
       <r>    4.8119    1.0000 </r>
       <r>    4.8130    1.0000 </r>
       <r>    4.8745    1.0000 </r>
       <r>    4.8747    1.0000 </r>
       <r>    4.8752    1.0000 </r>
       <r>    4.8757    1.0000 </r>
       <r>    7.3645    0.0000 </r>
       <r>    8.4303    0.0000 </r>
       <r>    8.6649    0.0000 </r>
       <r>    8.6658    0.0000 </r>
       <r>    8.8415    0.0000 </r>
       <r>    8.8416    0.0000 </r>
       <r>    8.8417    0.0000 </r>
       <r>    8.8425    0.0000 </r>
       <r>    8.9860    0.0000 </r>
       <r>    8.9869    0.0000 </r>
       <r>    9.3092    0.0000 </r>
       <r>    9.3109    0.0000 </r>
       <r>    9.3112    0.0000 </r>
       <r>    9.3132    0.0000 </r>
       <r>    9.3213    0.0000 </r>
       <r>    9.3225    0.0000 </r>
       <r>    9.4439    0.0000 </r>
       <r>    9.4459    0.0000 </r>
       <r>    9.5145    0.0000 </r>
       <r>    9.5157    0.0000 </r>
       <r>    9.5159    0.0000 </r>
       <r>    9.5171    0.0000 </r>
       <r>    9.8732    0.0000 </r>
       <r>    9.8787    0.0000 </r>
       <r>    9.9188    0.0000 </r>
       <r>    9.9191    0.0000 </r>
       <r>    9.9191    0.0000 </r>
       <r>    9.9197    0.0000 </r>
       <r>    9.9659    0.0000 </r>
       <r>    9.9671    0.0000 </r>
       <r>   10.0692    0.0000 </r>
       <r>   10.0696    0.0000 </r>
       <r>   10.4885    0.0000 </r>
       <r>   10.5025    0.0000 </r>
       <r>   10.5026    0.0000 </r>
       <r>   10.5190    0.0000 </r>
       <r>   10.5199    0.0000 </r>
       <r>   10.7999    0.0000 </r>
       <r>   10.8013    0.0000 </r>
       <r>   10.8015    0.0000 </r>
       <r>   10.8026    0.0000 </r>
       <r>   10.8751    0.0000 </r>
       <r>   10.8761    0.0000 </r>
       <r>   11.0166    0.0000 </r>
       <r>   11.0188    0.0000 </r>
       <r>   11.0512    0.0000 </r>
       <r>   11.2666    0.0000 </r>
       <r>   11.2674    0.0000 </r>
       <r>   11.3724    0.0000 </r>
       <r>   11.3733    0.0000 </r>
       <r>   11.3736    0.0000 </r>
       <r>   11.3742    0.0000 </r>
       <r>   11.3876    0.0000 </r>
       <r>   11.3882    0.0000 </r>
       <r>   11.3932    0.0000 </r>
[...]
       <r>   -45.9063    67.0732    52.1509 </r>
       <r>   -45.6653   231.8007   108.0000 </r>
       <r>   -45.4244     0.0000   108.0000 </r>
       <r>   -45.1835     0.0000   108.0000 </r>
       <r>   -44.9425     0.0000   108.0000 </r>
       <r>   -44.7016     0.0000   108.0000 </r>
       <r>   -44.4607     0.0000   108.0000 </r>
       <r>   -44.2197     0.0000   108.0000 </r>
       <r>   -43.9788     0.0000   108.0000 </r>
       <r>   -43.7379     0.0000   108.0000 </r>
       <r>   -43.4969     0.0000   108.0000 </r>
       <r>   -43.2560     0.0000   108.0000 </r>
       <r>   -43.0151     0.0000   108.0000 </r>
       <r>   -42.7741     0.0000   108.0000 </r>
       <r>   -42.5332     0.0000   108.0000 </r>
       <r>   -42.2923     0.0000   108.0000 </r>
       <r>   -42.0513     0.0000   108.0000 </r>
       <r>   -41.8104     0.0000   108.0000 </r>
       <r>   -41.5694     0.0000   108.0000 </r>
       <r>   -41.3285     0.0000   108.0000 </r>
       <r>   -41.0876     0.0000   108.0000 </r>
       <r>   -40.8466     0.0000   108.0000 </r>
       <r>   -40.6057     0.0000   108.0000 </r>
       <r>   -40.3648     0.0000   108.0000 </r>
       <r>   -40.1238     0.0000   108.0000 </r>
       <r>   -39.8829    19.9120   112.7975 </r>
       <r>   -39.6420    54.7967   126.0000 </r>
       <r>   -39.4010     0.0000   126.0000 </r>
       <r>   -39.1601     0.0000   126.0000 </r>
       <r>   -38.9192     0.0000   126.0000 </r>
       <r>   -38.6782     0.0000   126.0000 </r>
       <r>   -38.4373     0.0000   126.0000 </r>
       <r>   -38.1963     0.0000   126.0000 </r>
       <r>   -37.9554     0.0000   126.0000 </r>
       <r>   -37.7145     0.0000   126.0000 </r>
       <r>   -37.4735     0.0000   126.0000 </r>
       <r>   -37.2326     0.0000   126.0000 </r>
       <r>   -36.9917     0.0000   126.0000 </r>
       <r>   -36.7507     0.0000   126.0000 </r>
       <r>   -36.5098     0.0000   126.0000 </r>
       <r>   -36.2689     0.0000   126.0000 </r>
       <r>   -36.0279     0.0000   126.0000 </r>
       <r>   -35.7870     0.0000   126.0000 </r>
       <r>   -35.5461     0.0000   126.0000 </r>
       <r>   -35.3051     0.0000   126.0000 </r>
       <r>   -35.0642     0.0000   126.0000 </r>
       <r>   -34.8232     0.0000   126.0000 </r>
       <r>   -34.5823     0.0000   126.0000 </r>
       <r>   -34.3414     0.0000   126.0000 </r>
       <r>   -34.1004     0.0000   126.0000 </r>
       <r>   -33.8595     0.0000   126.0000 </r>
       <r>   -33.6186     0.0000   126.0000 </r>
       <r>   -33.3776     0.0000   126.0000 </r>
       <r>   -33.1367     0.0000   126.0000 </r>
       <r>   -32.8958     0.0000   126.0000 </r>
       <r>   -32.6548     0.0000   126.0000 </r>
       <r>   -32.4139     0.0000   126.0000 </r>
       <r>   -32.1730     0.0000   126.0000 </r>
       <r>   -31.9320     0.0000   126.0000 </r>
       <r>   -31.6911     0.0000   126.0000 </r>
       <r>   -31.4501     0.0000   126.0000 </r>
       <r>   -31.2092     0.0000   126.0000 </r>
       <r>   -30.9683     0.0000   126.0000 </r>
       <r>   -30.7273     0.0000   126.0000 </r>
       <r>   -30.4864     0.0000   126.0000 </r>
       <r>   -30.2455     0.0000   126.0000 </r>
       <r>   -30.0045     0.0000   126.0000 </r>
       <r>   -29.7636     0.0000   126.0000 </r>
       <r>   -29.5227     0.0000   126.0000 </r>
       <r>   -29.2817     0.0000   126.0000 </r>
       <r>   -29.0408     0.0000   126.0000 </r>
       <r>   -28.7999     0.0000   126.0000 </r>
       <r>   -28.5589     0.0000   126.0000 </r>
       <r>   -28.3180     0.0000   126.0000 </r>
       <r>   -28.0770     0.0000   126.0000 </r>
       <r>   -27.8361     0.0000   126.0000 </r>
       <r>   -27.5952     0.0000   126.0000 </r>
       <r>   -27.3542     0.0000   126.0000 </r>
       <r>   -27.1133     0.0000   126.0000 </r>
       <r>   -26.8724     0.0000   126.0000 </r>
       <r>   -26.6314     0.0000   126.0000 </r>
       <r>   -26.3905     0.0000   126.0000 </r>
       <r>   -26.1496     0.0000   126.0000 </r>
       <r>   -25.9086     0.0000   126.0000 </r>
       <r>   -25.6677     0.0000   126.0000 </r>
       <r>   -25.4268     0.0000   126.0000 </r>
       <r>   -25.1858     0.0000   126.0000 </r>
       <r>   -24.9449     0.0000   126.0000 </r>
       <r>   -24.7039     0.0000   126.0000 </r>
       <r>   -24.4630     0.0000   126.0000 </r>
       <r>   -24.2221     0.0000   126.0000 </r>
       <r>   -23.9811     0.0000   126.0000 </r>
       <r>   -23.7402     0.0000   126.0000 </r>
       <r>   -23.4993     0.0000   126.0000 </r>
       <r>   -23.2583     0.0000   126.0000 </r>
       <r>   -23.0174     0.0000   126.0000 </r>
       <r>   -22.7765     0.0000   126.0000 </r>
       <r>   -22.5355     0.0000   126.0000 </r>
       <r>   -22.2946     0.0000   126.0000 </r>
       <r>   -22.0537     0.0000   126.0000 </r>
       <r>   -21.8127     0.0000   126.0000 </r>
       <r>   -21.5718     0.0000   126.0000 </r>
       <r>   -21.3309     0.0000   126.0000 </r>
       <r>   -21.0899     0.0000   126.0000 </r>
       <r>   -20.8490     0.0000   126.0000 </r>
       <r>   -20.6080     0.0000   126.0000 </r>
       <r>   -20.3671     0.0000   126.0000 </r>
       <r>   -20.1262     0.0000   126.0000 </r>
       <r>   -19.8852     0.0000   126.0000 </r>
       <r>   -19.6443     0.0000   126.0000 </r>
       <r>   -19.4034     0.0000   126.0000 </r>
       <r>   -19.1624     0.0000   126.0000 </r>
       <r>   -18.9215     0.0000   126.0000 </r>
       <r>   -18.6806     0.0000   126.0000 </r>
       <r>   -18.4396     0.0000   126.0000 </r>
       <r>   -18.1987     0.0000   126.0000 </r>
       <r>   -17.9578     0.0000   126.0000 </r>
       <r>   -17.7168     0.0000   126.0000 </r>
       <r>   -17.4759     0.0000   126.0000 </r>
       <r>   -17.2349     0.0000   126.0000 </r>
       <r>   -16.9940     0.0000   126.0000 </r>
       <r>   -16.7531     0.0000   126.0000 </r>
       <r>   -16.5121     0.0000   126.0000 </r>
       <r>   -16.2712     0.0000   126.0000 </r>
       <r>   -16.0303     0.0000   126.0000 </r>
       <r>   -15.7893     0.0000   126.0000 </r>
       <r>   -15.5484     0.0000   126.0000 </r>
       <r>   -15.3075     0.0000   126.0000 </r>
       <r>   -15.0665     0.0000   126.0000 </r>
       <r>   -14.8256     0.0000   126.0000 </r>
       <r>   -14.5847     0.0000   126.0000 </r>
       <r>   -14.3437     0.0000   126.0000 </r>
       <r>   -14.1028     0.0000   126.0000 </r>
       <r>   -13.8618     0.0000   126.0000 </r>
       <r>   -13.6209     0.0000   126.0000 </r>
       <r>   -13.3800     0.0000   126.0000 </r>
       <r>   -13.1390     0.0000   126.0000 </r>
       <r>   -12.8981     0.1934   126.0466 </r>
       <r>   -12.6572    57.7606   139.9632 </r>
       <r>   -12.4162    16.7548   144.0000 </r>
       <r>   -12.1753     0.0000   144.0000 </r>
       <r>   -11.9344     0.0000   144.0000 </r>
       <r>   -11.6934     0.0000   144.0000 </r>
       <r>   -11.4525     0.0000   144.0000 </r>
       <r>   -11.2116     0.0000   144.0000 </r>
       <r>   -10.9706     0.0000   144.0000 </r>
       <r>   -10.7297     0.0000   144.0000 </r>
       <r>   -10.4887     0.0000   144.0000 </r>
       <r>   -10.2478     0.0000   144.0000 </r>
       <r>   -10.0069     0.0000   144.0000 </r>
       <r>    -9.7659     0.0000   144.0000 </r>
       <r>    -9.5250     0.0000   144.0000 </r>
       <r>    -9.2841     0.0000   144.0000 </r>
       <r>    -9.0431     0.0000   144.0000 </r>
       <r>    -8.8022     0.0000   144.0000 </r>
       <r>    -8.5613     0.0000   144.0000 </r>
       <r>    -8.3203     0.0000   144.0000 </r>
       <r>    -8.0794     0.0000   144.0000 </r>
       <r>    -7.8385     0.0000   144.0000 </r>
       <r>    -7.5975     0.0000   144.0000 </r>
       <r>    -7.3566     0.4232   144.1020 </r>
       <r>    -7.1156    18.5717   148.5766 </r>
       <r>    -6.8747    31.2123   156.0967 </r>
       <r>    -6.6338    24.6042   162.0247 </r>
       <r>    -6.3928    37.1156   170.9672 </r>
       <r>    -6.1519     0.1361   171.0000 </r>
       <r>    -5.9110     0.0000   171.0000 </r>
       <r>    -5.6700     0.0000   171.0000 </r>
       <r>    -5.4291     0.0000   171.0000 </r>
       <r>    -5.1882     0.0000   171.0000 </r>
       <r>    -4.9472     0.0000   171.0000 </r>
       <r>    -4.7063     0.0000   171.0000 </r>
       <r>    -4.4654     0.0000   171.0000 </r>
       <r>    -4.2244     0.0000   171.0000 </r>
       <r>    -3.9835     0.0000   171.0000 </r>
       <r>    -3.7425     0.0000   171.0000 </r>
       <r>    -3.5016     0.0000   171.0000 </r>
       <r>    -3.2607     0.0000   171.0000 </r>
       <r>    -3.0197     0.0000   171.0000 </r>
       <r>    -2.7788     0.0000   171.0000 </r>
       <r>    -2.5379     0.0000   171.0000 </r>
       <r>    -2.2969     0.0000   171.0000 </r>
       <r>    -2.0560     0.0000   171.0000 </r>
       <r>    -1.8151     0.0000   171.0000 </r>
       <r>    -1.5741     0.0000   171.0000 </r>
       <r>    -1.3332     0.0000   171.0000 </r>
       <r>    -1.0923     0.0000   171.0000 </r>
       <r>    -0.8513     0.0000   171.0000 </r>
       <r>    -0.6104     0.0001   171.0000 </r>
       <r>    -0.3695     8.4726   173.0414 </r>
       <r>    -0.1285    21.8139   178.2971 </r>
       <r>     0.1124    12.9434   181.4156 </r>
       <r>     0.3534    23.4416   187.0636 </r>
       <r>     0.5943    30.3987   194.3877 </r>
       <r>     0.8352    48.1106   205.9793 </r>
       <r>     1.0762    40.7336   215.7934 </r>
       <r>     1.3171    33.8384   223.9463 </r>
       <r>     1.5580    23.8932   229.7030 </r>
       <r>     1.7990    33.0078   237.6558 </r>
       <r>     2.0399    40.7984   247.4856 </r>
       <r>     2.2808    28.9350   254.4570 </r>
       <r>     2.5218    29.1990   261.4921 </r>
       <r>     2.7627    37.9835   270.6437 </r>
       <r>     3.0036    45.7940   281.6771 </r>
       <r>     3.2446    48.9104   293.4614 </r>
       <r>     3.4855    42.3852   303.6735 </r>
       <r>     3.7265     7.6127   305.5077 </r>
       <r>     3.9674    20.8540   310.5322 </r>
       <r>     4.2083    72.0550   327.8928 </r>
       <r>     4.4493    46.8283   339.1754 </r>
       <r>     4.6902    11.7235   342.0000 </r>
       <r>     4.9311     0.0000   342.0000 </r>
       <r>     5.1721     0.0000   342.0000 </r>
       <r>     5.4130     0.0000   342.0000 </r>
       <r>     5.6539     0.0000   342.0000 </r>
       <r>     5.8949     0.0000   342.0000 </r>
       <r>     6.1358     0.0000   342.0000 </r>
       <r>     6.3767     1.1485   342.2767 </r>
       <r>     6.6177     5.0937   343.5040 </r>
       <r>     6.8586     9.3916   345.7667 </r>
       <r>     7.0996    19.9661   350.5773 </r>
       <r>     7.3405    59.5577   364.9268 </r>
       <r>     7.5814    60.5001   379.5035 </r>
       <r>     7.8224    63.1931   394.7289 </r>
       <r>     8.0633    74.5128   412.6817 </r>
       <r>     8.3042    78.9845   431.7119 </r>
       <r>     8.5452    70.3017   448.6501 </r>
       <r>     8.7861    66.7064   464.7221 </r>
       <r>     9.0270    47.5316   476.1741 </r>
       <r>     9.2680    33.4091   484.2235 </r>
       <r>     9.5089     9.1543   486.4292 </r>
       <r>     9.7498     5.5152   487.7580 </r>
       <r>     9.9908    11.3559   490.4940 </r>
       <r>    10.2317    16.0388   494.3583 </r>
       <r>    10.4727    24.3489   500.2248 </r>
       <r>    10.7136    21.6612   505.4438 </r>
       <r>    10.9545    21.8157   510.7000 </r>
       <r>    11.1955    32.0052   518.4112 </r>
       <r>    11.4364    20.1951   523.2769 </r>
       <r>    11.6773    18.6244   527.7642 </r>
       <r>    11.9183    11.8577   530.6211 </r>
       <r>    12.1592    23.8413   536.3653 </r>
       <r>    12.4001    44.5608   547.1016 </r>
       <r>    12.6411    35.6484   555.6906 </r>
       <r>    12.8820    33.3500   563.7258 </r>
       <r>    13.1229    20.4809   568.6604 </r>
       <r>    13.3639    23.5530   574.3351 </r>
       <r>    13.6048    33.1281   582.3169 </r>
       <r>    13.8458    26.5380   588.7108 </r>
       <r>    14.0867    26.7205   595.1487 </r>
       <r>    14.3276    22.4363   600.5545 </r>
       <r>    14.5686    20.1153   605.4010 </r>
       <r>    14.8095     2.4863   606.0000 </r>
       <r>    15.0504     0.0000   606.0000 </r>
       <r>    15.2914     0.0000   606.0000 </r>
       <r>    15.5323     0.0000   606.0000 </r>
       <r>    15.7732     0.0000   606.0000 </r>
       <r>    16.0142     0.0000   606.0000 </r>
       <r>    16.2551     0.0000   606.0000 </r>
       <r>    16.4960     0.0000   606.0000 </r>
       <r>    16.7370     0.0000   606.0000 </r>
       <r>    16.9779     0.0000   606.0000 </r>
       <r>    17.2189     0.0000   606.0000 </r>
       <r>    17.4598     0.0000   606.0000 </r>
       <r>    17.7007     0.0000   606.0000 </r>
       <r>    17.9417     0.0000   606.0000 </r>
      </set>
     </set>
    </array>
   </total>
  </dos>
 </calculation>
 <structure name="finalpos" >
  <crystal>
   <varray name="basis" >
    <v>      11.77726974       0.00848871       0.06923316 </v>
    <v>      -0.03028248      11.77723386       0.06923316 </v>
    <v>      -2.02000231      -2.02666320      10.18574622 </v>
   </varray>
   <i name="volume">   1416.10551572 </i>
   <varray name="rec_basis" >
    <v>       0.08481023       0.00011906       0.01684296 </v>
    <v>      -0.00016014       0.08481016       0.01684296 </v>
    <v>      -0.00057537      -0.00057727       0.09794744 </v>
   </varray>
  </crystal>
  <varray name="positions" >
   <v>       0.20224939       0.24206952       0.83183419 </v>
   <v>       0.53558272       0.24206952       0.83183419 </v>
   <v>       0.86891606       0.24206952       0.83183419 </v>
   <v>       0.20224939       0.57540285       0.83183419 </v>
   <v>       0.53558272       0.57540285       0.83183419 </v>
   <v>       0.86891606       0.57540285       0.83183419 </v>
   <v>       0.20224939       0.90873619       0.83183419 </v>
   <v>       0.53558272       0.90873619       0.83183419 </v>
   <v>       0.86891606       0.90873619       0.83183419 </v>
   <v>       0.09126381       0.13108394       0.16816581 </v>
   <v>       0.42459715       0.13108394       0.16816581 </v>
   <v>       0.75793048       0.13108394       0.16816581 </v>
   <v>       0.09126381       0.46441728       0.16816581 </v>
   <v>       0.42459715       0.46441728       0.16816581 </v>
   <v>       0.75793048       0.46441728       0.16816581 </v>
   <v>       0.09126381       0.79775061       0.16816581 </v>
   <v>       0.42459715       0.79775061       0.16816581 </v>
   <v>       0.75793048       0.79775061       0.16816581 </v>
   <v>       0.26311007       0.13598816       0.19686089 </v>
   <v>       0.59644341       0.13598816       0.19686089 </v>
   <v>       0.92977674       0.13598816       0.19686089 </v>
   <v>       0.26311007       0.46932149       0.19686089 </v>
   <v>       0.59644341       0.46932149       0.19686089 </v>
   <v>       0.92977674       0.46932149       0.19686089 </v>
   <v>       0.26311007       0.80265483       0.19686089 </v>
   <v>       0.59644341       0.80265483       0.19686089 </v>
   <v>       0.92977674       0.80265483       0.19686089 </v>
   <v>       0.19734517       0.07022326       0.80313911 </v>
   <v>       0.53067851       0.07022326       0.80313911 </v>
   <v>       0.86401184       0.07022326       0.80313911 </v>
   <v>       0.19734517       0.40355659       0.80313911 </v>
   <v>       0.53067851       0.40355659       0.80313911 </v>
   <v>       0.86401184       0.40355659       0.80313911 </v>
   <v>       0.19734517       0.73688993       0.80313911 </v>
   <v>       0.53067851       0.73688993       0.80313911 </v>
   <v>       0.86401184       0.73688993       0.80313911 </v>
   <v>       0.00338842       0.20657296       0.62920335 </v>
   <v>       0.33587268       0.20657296       0.62920335 </v>
   <v>       0.66920601       0.20657296       0.62920335 </v>
   <v>       0.00253935       0.53990630       0.62920335 </v>
   <v>       0.33587268       0.53990630       0.62920335 </v>
   <v>       0.66920601       0.53990630       0.62920335 </v>
   <v>       0.00253935       0.87323963       0.62920335 </v>
   <v>       0.33587268       0.87323963       0.62920335 </v>
   <v>       0.66920601       0.87323963       0.62920335 </v>
   <v>       0.12676037       0.33079399       0.37079665 </v>
   <v>       0.46009370       0.33079399       0.37079665 </v>
   <v>       0.79342704       0.33079399       0.37079665 </v>
   <v>       0.12676037       0.66412732       0.37079665 </v>
   <v>       0.46009370       0.66412732       0.37079665 </v>
   <v>       0.79342704       0.66412732       0.37079665 </v>
   <v>       0.12676037       0.99746065       0.37079665 </v>
   <v>       0.46009370       0.99746065       0.37079665 </v>
   <v>       0.79342704       0.99746065       0.37079665 </v>
   <v>       0.06350899       0.26982435       0.00000000 </v>
   <v>       0.39684232       0.26982435       0.00000000 </v>
   <v>       0.73017565       0.26982435       0.00000000 </v>
   <v>       0.06350899       0.60315768       0.00000000 </v>
   <v>       0.39684232       0.60315768       0.00000000 </v>
   <v>       0.73017565       0.60315768       0.00000000 </v>
   <v>       0.06350899       0.93649101       0.00000000 </v>
   <v>       0.39684232       0.93649101       0.00000000 </v>
   <v>       0.73017565       0.93649101       0.00000000 </v>
   <v>       0.29027274       0.17214940       0.39352170 </v>
   <v>       0.62360607       0.17214940       0.39352170 </v>
   <v>       0.95693941       0.17214940       0.39352170 </v>
   <v>       0.29027274       0.50548273       0.39352170 </v>
   <v>       0.62360607       0.50548273       0.39352170 </v>
   <v>       0.95693941       0.50548273       0.39352170 </v>
   <v>       0.29027274       0.83881607       0.39352170 </v>
   <v>       0.62360607       0.83881607       0.39352170 </v>
   <v>       0.95693941       0.83881607       0.39352170 </v>
   <v>       0.16118393       0.04306059       0.60647830 </v>
   <v>       0.49451727       0.04306059       0.60647830 </v>
   <v>       0.82785060       0.04306059       0.60647830 </v>
   <v>       0.16118393       0.37639393       0.60647830 </v>
   <v>       0.49451727       0.37639393       0.60647830 </v>
   <v>       0.82785060       0.37639393       0.60647830 </v>
   <v>       0.16118393       0.70972726       0.60647830 </v>
   <v>       0.49451727       0.70972726       0.60647830 </v>
   <v>       0.82785060       0.70972726       0.60647830 </v>
   <v>       0.03761391       0.07731307       0.84542777 </v>
   <v>       0.37094724       0.07731307       0.84542777 </v>
   <v>       0.70428057       0.07731307       0.84542777 </v>
   <v>       0.03761391       0.41064640       0.84542777 </v>
   <v>       0.37094724       0.41064640       0.84542777 </v>
   <v>       0.70428057       0.41064640       0.84542777 </v>
   <v>       0.03761391       0.74397973       0.84542777 </v>
   <v>       0.37094724       0.74397973       0.84542777 </v>
   <v>       0.70428057       0.74397973       0.84542777 </v>
   <v>       0.25602027       0.29571943       0.15457223 </v>
   <v>       0.58935360       0.29571943       0.15457223 </v>
   <v>       0.92268693       0.29571943       0.15457223 </v>
   <v>       0.25602027       0.62905276       0.15457223 </v>
   <v>       0.58935360       0.62905276       0.15457223 </v>
   <v>       0.92268693       0.62905276       0.15457223 </v>
   <v>       0.25602027       0.96238609       0.15457223 </v>
   <v>       0.58935360       0.96238609       0.15457223 </v>
   <v>       0.92268693       0.96238609       0.15457223 </v>
  </varray>
 </structure>
</modeling>
