 vasp.5.4.4.18Apr17-6-g9f103f2a35 (build Oct 25 2017 14:42:18) complex          
  
 executed on             LinuxIFC date 2021.06.02  13:38:52
 running on   24 total cores
 distrk:  each k-point on   12 cores,    2 groups
 distr:  one band on NCORES_PER_BAND=   6 cores,    2 groups


--------------------------------------------------------------------------------------------------------


 INCAR:
 POTCAR:    PAW_PBE Li_sv 10Sep2004               
 POTCAR:    PAW_PBE O 08Apr2002                   
 POTCAR:    PAW_PBE S 06Sep2000                   
 POTCAR:    PAW_PBE Fe_pv 02Aug2007               

 ----------------------------------------------------------------------------- 
|                                                                             |
|           W    W    AA    RRRRR   N    N  II  N    N   GGGG   !!!           |
|           W    W   A  A   R    R  NN   N  II  NN   N  G    G  !!!           |
|           W    W  A    A  R    R  N N  N  II  N N  N  G       !!!           |
|           W WW W  AAAAAA  RRRRR   N  N N  II  N  N N  G  GGG   !            |
|           WW  WW  A    A  R   R   N   NN  II  N   NN  G    G                |
|           W    W  A    A  R    R  N    N  II  N    N   GGGG   !!!           |
|                                                                             |
|      You have enabled k-point parallelism (KPAR>1).                         |
|      This developmental code was originally  written by Paul Kent at ORNL,  |
|      and carefully double checked in Vienna.                                |
|      GW as well as linear response parallelism added by Martijn Marsman     |
|      and Georg Kresse.                                                      |
|      Carefully verify results versus KPAR=1.                                |
|      Report problems to Paul Kent and Vienna.                               |
|                                                                             |
 ----------------------------------------------------------------------------- 

 POTCAR:    PAW_PBE Li_sv 10Sep2004               
  local pseudopotential read in
  atomic valenz-charges read in
  non local Contribution for L=           0  read in
    real space projection operators read in
  non local Contribution for L=           0  read in
    real space projection operators read in
  non local Contribution for L=           1  read in
    real space projection operators read in
    PAW grid and wavefunctions read in
 
   number of l-projection  operators is LMAX  =           3
   number of lm-projection operators is LMMAX =           5
 
 POTCAR:    PAW_PBE O 08Apr2002                   
  local pseudopotential read in
  partial core-charges read in
  partial kinetic energy density read in
  kinetic energy density of atom read in
  atomic valenz-charges read in
  non local Contribution for L=           0  read in
    real space projection operators read in
  non local Contribution for L=           0  read in
    real space projection operators read in
  non local Contribution for L=           1  read in
    real space projection operators read in
  non local Contribution for L=           1  read in
    real space projection operators read in
    PAW grid and wavefunctions read in
 
   number of l-projection  operators is LMAX  =           4
   number of lm-projection operators is LMMAX =           8
 
 POTCAR:    PAW_PBE S 06Sep2000                   
  local pseudopotential read in
  partial core-charges read in
  partial kinetic energy density read in
  atomic valenz-charges read in
  non local Contribution for L=           0  read in
    real space projection operators read in
  non local Contribution for L=           0  read in
    real space projection operators read in
  non local Contribution for L=           1  read in
    real space projection operators read in
  non local Contribution for L=           1  read in
    real space projection operators read in
    PAW grid and wavefunctions read in
 
   number of l-projection  operators is LMAX  =           4
   number of lm-projection operators is LMMAX =           8
 
 POTCAR:    PAW_PBE Fe_pv 02Aug2007               
  local pseudopotential read in
  partial core-charges read in
  partial kinetic energy density read in
  atomic valenz-charges read in
  non local Contribution for L=           1  read in
    real space projection operators read in
  non local Contribution for L=           1  read in
    real space projection operators read in
  non local Contribution for L=           2  read in
    real space projection operators read in
  non local Contribution for L=           2  read in
    real space projection operators read in
  non local Contribution for L=           0  read in
    real space projection operators read in
  non local Contribution for L=           0  read in
    real space projection operators read in
    PAW grid and wavefunctions read in
 
   number of l-projection  operators is LMAX  =           6
   number of lm-projection operators is LMMAX =          18
 

 ----------------------------------------------------------------------------- 
|                                                                             |
|  ADVICE TO THIS USER RUNNING 'VASP/VAMP'   (HEAR YOUR MASTER'S VOICE ...):  |
|                                                                             |
|      You have a (more or less) 'large supercell' and for larger cells       |
|      it might be more efficient to use real space projection opertators     |
|      So try LREAL= Auto  in the INCAR   file.                               |
|      Mind:          For very  accurate calculation you might also keep the  |
|      reciprocal projection scheme          (i.e. LREAL=.FALSE.)             |
|                                                                             |
 ----------------------------------------------------------------------------- 

  PAW_PBE Li_sv 10Sep2004               :
 energy of atom  1       EATOM= -202.7858
 kinetic energy error for atom=    0.0072 (will be added to EATOM!!)
  PAW_PBE O 08Apr2002                   :
 energy of atom  2       EATOM= -432.3788
 kinetic energy error for atom=    0.0129 (will be added to EATOM!!)
  PAW_PBE S 06Sep2000                   :
 energy of atom  3       EATOM= -276.8230
 kinetic energy error for atom=    0.0008 (will be added to EATOM!!)
  PAW_PBE Fe_pv 02Aug2007               :
 energy of atom  4       EATOM=-2457.4239
 kinetic energy error for atom=    0.0041 (will be added to EATOM!!)
 
 
 POSCAR: # Compound: Li16O16S24Fe32. Old comment:
  positions in direct lattice
  No initial velocities read in
 exchange correlation table for  LEXCH =        8
   RHO(1)=    0.500       N(1)  =     2000
   RHO(2)=  100.500       N(2)  =     4000
 


--------------------------------------------------------------------------------------------------------


 ion  position               nearest neighbor table
   1  0.289  0.469  0.156-  27 2.00  29 2.00  55 2.53  49 2.53
   2  0.789  0.469  0.156-  28 2.00  30 2.00  56 2.53  50 2.53
   3  0.289  0.969  0.156-  25 2.00  31 2.00  53 2.53  51 2.53
   4  0.789  0.969  0.156-  26 2.00  32 2.00  54 2.53  52 2.53
   5  0.047  0.219  0.186-  25 1.98  30 1.99
   6  0.546  0.219  0.186-  29 1.98  26 1.98
   7  0.046  0.719  0.186-  32 1.98  27 1.98
   8  0.546  0.719  0.186-  31 1.98  28 1.98
   9  0.454  0.469  0.814-  20 1.98  21 1.98
  10  0.954  0.469  0.814-  19 1.98  22 1.98
  11  0.454  0.969  0.814-  18 1.98  23 1.98
  12  0.954  0.969  0.814-  17 1.98  24 1.98
  13  0.211  0.219  0.844-  21 2.00  17 2.00  49 2.53  53 2.53
  14  0.711  0.219  0.844-  22 2.00  18 2.00  50 2.53  54 2.53
  15  0.211  0.719  0.844-  23 2.00  19 2.00  51 2.53  55 2.53
  16  0.711  0.719  0.844-  24 2.00  20 2.00  52 2.53  56 2.53
  17  0.077  0.095  0.803-  12 1.98  13 2.00  57 2.01  83 2.01  86 2.01
  18  0.577  0.095  0.803-  11 1.98  14 2.00  58 2.01  84 2.01  85 2.01
  19  0.077  0.595  0.803-  10 1.98  15 2.00  59 2.01  81 2.01  88 2.01
  20  0.577  0.595  0.803-   9 1.98  16 2.00  60 2.01  82 2.01  87 2.01
  21  0.325  0.343  0.803-   9 1.98  13 2.00  61 2.01  81 2.01  85 2.01
  22  0.825  0.343  0.803-  10 1.98  14 2.00  62 2.01  82 2.01  86 2.01
  23  0.325  0.843  0.803-  11 1.98  15 2.00  63 2.01  83 2.01  87 2.01
  24  0.825  0.843  0.803-  12 1.98  16 2.00  64 2.01  84 2.01  88 2.01
  25  0.175  0.093  0.197-   5 1.98   3 2.00  65 2.01  77 2.01  75 2.01
  26  0.675  0.093  0.197-   6 1.98   4 2.00  66 2.01  78 2.01  76 2.01
  27  0.175  0.593  0.197-   7 1.98   1 2.00  67 2.01  79 2.01  73 2.01
  28  0.675  0.593  0.197-   8 1.98   2 2.00  68 2.01  80 2.01  74 2.01
  29  0.423  0.345  0.197-   6 1.98   1 2.00  69 2.01  77 2.01  74 2.01
  30  0.923  0.345  0.197-   5 1.99   2 2.00  70 2.01  78 2.01  73 2.01
  31  0.423  0.845  0.197-   8 1.98   3 2.00  71 2.01  79 2.01  76 2.01
  32  0.923  0.845  0.197-   7 1.98   4 2.00  72 2.01  80 2.01  75 2.01
  33  0.219  0.345  0.371-  61 2.41  67 2.65  69 2.65
  34  0.719  0.345  0.371-  62 2.41  68 2.65  70 2.65
  35  0.219  0.845  0.371-  63 2.41  65 2.65  71 2.65
  36  0.719  0.845  0.371-  64 2.41  66 2.65  72 2.65
  37  0.467  0.093  0.371-  58 2.41  71 2.65  65 2.65
  38  0.967  0.093  0.371-  57 2.41  72 2.65  66 2.65
  39  0.467  0.593  0.371-  60 2.41  69 2.65  67 2.65
  40  0.967  0.593  0.371-  59 2.41  70 2.65  68 2.65
  41  0.033  0.343  0.629-  70 2.41  57 2.65  61 2.65
  42  0.533  0.343  0.629-  69 2.41  58 2.65  62 2.65
  43  0.033  0.843  0.629-  72 2.41  59 2.65  63 2.65
  44  0.533  0.843  0.629-  71 2.41  60 2.65  64 2.65
  45  0.281  0.095  0.629-  65 2.41  61 2.65  57 2.65
  46  0.781  0.095  0.629-  66 2.41  62 2.65  58 2.65
  47  0.281  0.595  0.629-  67 2.41  63 2.65  59 2.65
  48  0.781  0.595  0.629-  68 2.41  64 2.65  60 2.65
  49  0.124  0.344  0.000-  73 2.51  86 2.51  81 2.52  77 2.52  13 2.53   1 2.53
  50  0.624  0.344  0.000-  74 2.51  85 2.51  82 2.52  78 2.52  14 2.53   2 2.53
  51  0.124  0.844  0.000-  75 2.51  88 2.51  83 2.52  79 2.52  15 2.53   3 2.53
  52  0.624  0.844  0.000-  76 2.51  87 2.51  84 2.52  80 2.52  16 2.53   4 2.53
  53  0.376  0.094  1.000-  85 2.51  76 2.51  77 2.52  83 2.52   3 2.53  13 2.53
  54  0.876  0.094  1.000-  86 2.51  75 2.51  78 2.52  84 2.52   4 2.53  14 2.53
  55  0.376  0.594  1.000-  87 2.51  74 2.51  79 2.52  81 2.52   1 2.53  15 2.53
  56  0.876  0.594  1.000-  88 2.51  73 2.51  80 2.52  82 2.52   2 2.53  16 2.53
  57  0.038  0.106  0.606-  17 2.01  38 2.41  41 2.65  45 2.65
  58  0.538  0.106  0.606-  18 2.01  37 2.41  42 2.65  46 2.65
  59  0.038  0.606  0.606-  19 2.01  40 2.41  43 2.65  47 2.65
  60  0.538  0.606  0.606-  20 2.01  39 2.41  44 2.65  48 2.65
  61  0.265  0.332  0.606-  21 2.01  33 2.41  45 2.65  41 2.65
  62  0.765  0.332  0.606-  22 2.01  34 2.41  46 2.65  42 2.65
  63  0.265  0.832  0.606-  23 2.01  35 2.41  47 2.65  43 2.65
  64  0.765  0.832  0.606-  24 2.01  36 2.41  48 2.65  44 2.65
  65  0.235  0.082  0.394-  25 2.01  45 2.41  35 2.65  37 2.65
  66  0.735  0.082  0.394-  26 2.01  46 2.41  36 2.65  38 2.65
  67  0.235  0.582  0.394-  27 2.01  47 2.41  33 2.65  39 2.65
  68  0.735  0.582  0.394-  28 2.01  48 2.41  34 2.65  40 2.65
  69  0.462  0.356  0.394-  29 2.01  42 2.41  39 2.65  33 2.65
  70  0.962  0.356  0.394-  30 2.01  41 2.41  40 2.65  34 2.65
  71  0.462  0.856  0.394-  31 2.01  44 2.41  37 2.65  35 2.65
  72  0.962  0.856  0.394-  32 2.01  43 2.41  38 2.65  36 2.65
  73  0.038  0.469  0.154-  30 2.01  27 2.01  49 2.51  56 2.51
  74  0.538  0.469  0.154-  29 2.01  28 2.01  50 2.51  55 2.51
  75  0.038  0.969  0.154-  32 2.01  25 2.01  51 2.51  54 2.51
  76  0.538  0.969  0.154-  31 2.01  26 2.01  52 2.51  53 2.51
  77  0.289  0.219  0.154-  25 2.01  29 2.01  53 2.52  49 2.52
  78  0.789  0.219  0.154-  26 2.01  30 2.01  54 2.52  50 2.52
  79  0.289  0.719  0.154-  27 2.01  31 2.01  55 2.52  51 2.52
  80  0.789  0.719  0.154-  28 2.01  32 2.01  56 2.52  52 2.52
  81  0.211  0.469  0.846-  21 2.01  19 2.01  49 2.52  55 2.52
  82  0.711  0.469  0.846-  22 2.01  20 2.01  50 2.52  56 2.52
  83  0.211  0.969  0.846-  23 2.01  17 2.01  51 2.52  53 2.52
  84  0.711  0.969  0.846-  24 2.01  18 2.01  52 2.52  54 2.52
  85  0.462  0.219  0.846-  18 2.01  21 2.01  53 2.51  50 2.51
  86  0.962  0.219  0.846-  17 2.01  22 2.01  54 2.51  49 2.51
  87  0.462  0.719  0.846-  20 2.01  23 2.01  55 2.51  52 2.51
  88  0.962  0.719  0.846-  19 2.01  24 2.01  56 2.51  51 2.51
 

IMPORTANT INFORMATION: All symmetrisations will be switched off!
NOSYMM: (Re-)initialisation of all symmetry stuff for point group C_1.

 
 
 KPOINTS: # No comment                            

Automatic generation of k-mesh.
Space group operators:
 irot       det(A)        alpha          n_x          n_y          n_z        tau_x        tau_y        tau_z
    1     1.000000     0.000000     1.000000     0.000000     0.000000     0.000000     0.000000     0.000000
 
 Subroutine IBZKPT returns following result:
 ===========================================
 
 Found     14 irreducible k-points:
 
 Following reciprocal coordinates:
            Coordinates               Weight
  0.000000  0.000000  0.000000      1.000000
  0.333333  0.000000  0.000000      2.000000
  0.000000  0.333333  0.000000      2.000000
  0.333333  0.333333  0.000000      2.000000
 -0.333333  0.333333 -0.000000      2.000000
  0.000000  0.000000  0.333333      2.000000
  0.333333  0.000000  0.333333      2.000000
 -0.333333  0.000000  0.333333      2.000000
  0.000000  0.333333  0.333333      2.000000
  0.333333  0.333333  0.333333      2.000000
 -0.333333  0.333333  0.333333      2.000000
  0.000000 -0.333333  0.333333      2.000000
  0.333333 -0.333333  0.333333      2.000000
 -0.333333 -0.333333  0.333333      2.000000
 
 Following cartesian coordinates:
            Coordinates               Weight
  0.000000  0.000000  0.000000      1.000000
  0.029997  0.000000  0.008162      2.000000
  0.000000  0.029983  0.000000      2.000000
  0.029997  0.029983  0.008162      2.000000
 -0.029997  0.029983 -0.008162      2.000000
  0.000001  0.000000  0.032684      2.000000
  0.029998  0.000000  0.040846      2.000000
 -0.029996  0.000000  0.024522      2.000000
  0.000001  0.029983  0.032684      2.000000
  0.029998  0.029983  0.040846      2.000000
 -0.029996  0.029983  0.024522      2.000000
  0.000001 -0.029983  0.032684      2.000000
  0.029998 -0.029983  0.040846      2.000000
 -0.029996 -0.029983  0.024522      2.000000
 


--------------------------------------------------------------------------------------------------------




 Dimension of arrays:
   k-points           NKPTS =     14   k-points in BZ     NKDIM =     14   number of bands    NBANDS=    538
   number of dos      NEDOS =    301   number of ions     NIONS =     88
   non local maximal  LDIM  =      6   non local SUM 2l+1 LMDIM =     18
   total plane-waves  NPLWV = 829440
   max r-space proj   IRMAX =      1   max aug-charges    IRDMAX= 166102
   dimension x,y,z NGX =    96 NGY =   96 NGZ =   90
   dimension x,y,z NGXF=   192 NGYF=  192 NGZF=  180
   support grid    NGXF=   384 NGYF=  384 NGZF=  360
   ions per type =              16  16  24  32
   NGX,Y,Z   is equivalent  to a cutoff of  14.36, 14.36, 14.16 a.u.
   NGXF,Y,Z  is equivalent  to a cutoff of  28.72, 28.71, 28.31 a.u.

 SYSTEM =  unknown system                          
 POSCAR =  # Compound: Li16O16S24Fe32. Old comment:

 Startparameter for this run:
   NWRITE =      1    write-flag & timer
   PREC   = accura    normal or accurate (medium, high low for compatibility)
   ISTART =      0    job   : 0-new  1-cont  2-samecut
   ICHARG =      1    charge: 1-file 2-atom 10-const
   ISPIN  =      2    spin polarized calculation?
   LNONCOLLINEAR =      F non collinear calculations
   LSORBIT =      F    spin-orbit coupling
   INIWAV =      1    electr: 0-lowe 1-rand  2-diag
   LASPH  =      T    aspherical Exc in radial PAW
   METAGGA=      F    non-selfconsistent MetaGGA calc.

 Electronic Relaxation 1
   ENCUT  =  650.0 eV  47.77 Ry    6.91 a.u.  23.10 23.11 21.97*2*pi/ulx,y,z
   ENINI  =  650.0     initial cutoff
   ENAUG  =  628.9 eV  augmentation charge cutoff
   NELM   =    200;   NELMIN=  8; NELMDL=  0     # of ELM steps 
   EDIFF  = 0.1E-05   stopping-criterion for ELM
   LREAL  =      F    real-space projection
   NLSPLINE    = F    spline interpolate recip. space projectors
   LCOMPAT=      F    compatible to vasp.4.4
   GGA_COMPAT  = T    GGA compatible to vasp.4.4-vasp.4.6
   LMAXPAW     = -100 max onsite density
   LMAXMIX     =    4 max onsite mixed and CHGCAR
   VOSKOWN=      0    Vosko Wilk Nusair interpolation
   ROPT   =    0.00000   0.00000   0.00000   0.00000
 Ionic relaxation
   EDIFFG = 0.1E-04   stopping-criterion for IOM
   NSW    =      0    number of steps for IOM
   NBLOCK =      1;   KBLOCK =      1    inner block; outer block 
   IBRION =     -1    ionic relax: 0-MD 1-quasi-New 2-CG
   NFREE  =      0    steps in history (QN), initial steepest desc. (CG)
   ISIF   =      2    stress and relaxation
   IWAVPR =     10    prediction:  0-non 1-charg 2-wave 3-comb
   ISYM   =      0    0-nonsym 1-usesym 2-fastsym
   LCORR  =      T    Harris-Foulkes like correction to forces

   POTIM  = 0.5000    time-step for ionic-motion
   TEIN   =    0.0    initial temperature
   TEBEG  =    0.0;   TEEND  =   0.0 temperature during run
   SMASS  =  -3.00    Nose mass-parameter (am)
   estimated Nose-frequenzy (Omega)   =  0.10E-29 period in steps =****** mass=  -0.282E-26a.u.
   SCALEE = 1.0000    scale energy and forces
   NPACO  =    256;   APACO  = 16.0  distance and # of slots for P.C.
   PSTRESS=    0.0 pullay stress

  Mass of Ions in am
   POMASS =   7.01 16.00 32.07 55.85
  Ionic Valenz
   ZVAL   =   3.00  6.00  6.00 14.00
  Atomic Wigner-Seitz radii
   RWIGS  =  -1.00 -1.00 -1.00 -1.00
  virtual crystal weights 
   VCA    =   1.00  1.00  1.00  1.00
   NELECT =     736.0000    total number of electrons
   NUPDOWN=      -1.0000    fix difference up-down

 DOS related values:
   EMIN   =  10.00;   EMAX   =-10.00  energy-range for DOS
   EFERMI =   0.00
   ISMEAR =     0;   SIGMA  =   0.05  broadening in eV -4-tet -1-fermi 0-gaus

 Electronic relaxation 2 (details)
   IALGO  =     38    algorithm
   LDIAG  =      T    sub-space diagonalisation (order eigenvalues)
   LSUBROT=      F    optimize rotation matrix (better conditioning)
   TURBO    =      0    0=normal 1=particle mesh
   IRESTART =      0    0=no restart 2=restart with 2 vectors
   NREBOOT  =      0    no. of reboots
   NMIN     =      0    reboot dimension
   EREF     =   0.00    reference energy to select bands
   IMIX   =      4    mixing-type and parameters
     AMIX     =   0.40;   BMIX     =  1.00
     AMIX_MAG =   1.60;   BMIX_MAG =  1.00
     AMIN     =   0.10
     WC   =   100.;   INIMIX=   1;  MIXPRE=   1;  MAXMIX= -45

 Intra band minimization:
   WEIMIN = 0.0000     energy-eigenvalue tresh-hold
   EBREAK =  0.46E-09  absolut break condition
   DEPER  =   0.30     relativ break condition  

   TIME   =   0.40     timestep for ELM

  volume/ion in A,a.u.               =      14.32        96.62
  Fermi-wavevector in a.u.,A,eV,Ry     =   1.368520  2.586127 25.481613  1.872846
  Thomas-Fermi vector in A             =   2.494476
 
 Write flags
   LWAVE        =      F    write WAVECAR
   LDOWNSAMPLE  =      F    k-point downsampling of WAVECAR
   LCHARG       =      T    write CHGCAR
   LVTOT        =      F    write LOCPOT, total local potential
   LVHAR        =      F    write LOCPOT, Hartree potential only
   LELF         =      F    write electronic localiz. function (ELF)
   LORBIT       =      0    0 simple, 1 ext, 2 COOP (PROOUT), +10 PAW based schemes


 Dipole corrections
   LMONO  =      F    monopole corrections only (constant potential shift)
   LDIPOL =      F    correct potential (dipole corrections)
   IDIPOL =      0    1-x, 2-y, 3-z, 4-all directions 
   EPSILON=  1.0000000 bulk dielectric constant

 LDA+U is selected, type is set to LDAUTYPE =  2
   angular momentum for each species LDAUL =    -1   -1   -1    2
   U (eV)           for each species LDAUU =   0.0  0.0  0.0  4.0
   J (eV)           for each species LDAUJ =   0.0  0.0  0.0  0.0
 Exchange correlation treatment:
   GGA     =    PE    GGA type
   LEXCH   =     8    internal setting for exchange type
   VOSKOWN=      0    Vosko Wilk Nusair interpolation
   LHFCALC =     F    Hartree Fock is set to
   LHFONE  =     F    Hartree Fock one center treatment
   AEXX    =    0.0000 exact exchange contribution

 Linear response parameters
   LEPSILON=     F    determine dielectric tensor
   LRPA    =     F    only Hartree local field effects (RPA)
   LNABLA  =     F    use nabla operator in PAW spheres
   LVEL    =     F    velocity operator in full k-point grid
   LINTERFAST=   F  fast interpolation
   KINTER  =     0    interpolate to denser k-point grid
   CSHIFT  =0.1000    complex shift for real part using Kramers Kronig
   OMEGAMAX=  -1.0    maximum frequency
   DEG_THRESHOLD= 0.2000000E-02 threshold for treating states as degnerate
   RTIME   =   -0.100 relaxation time in fs
  (WPLASMAI=    0.000 imaginary part of plasma frequency in eV, 0.658/RTIME)
   DFIELD  = 0.0000000 0.0000000 0.0000000 field for delta impulse in time
 
 Orbital magnetization related:
   ORBITALMAG=     F  switch on orbital magnetization
   LCHIMAG   =     F  perturbation theory with respect to B field
   DQ        =  0.001000  dq finite difference perturbation B field
   LLRAUG    =     F  two centre corrections for induced B field



--------------------------------------------------------------------------------------------------------


 Static calculation
 charge density and potential will be updated during run
 spin polarized calculation
 Variant of blocked Davidson
 Davidson routine will perform the subspace rotation
 perform sub-space diagonalisation
    after iterative eigenvector-optimisation
 modified Broyden-mixing scheme, WC =      100.0
 initial mixing is a Kerker type mixing with AMIX =  0.4000 and BMIX =      1.0000
 Hartree-type preconditioning will be used
 using additional bands          170
 reciprocal scheme for non local part
 use partial core corrections
 calculate Harris-corrections to forces 
   (improved forces if not selfconsistent)
 use gradient corrections 
 use of overlap-Matrix (Vanderbilt PP)
 Gauss-broadening in eV      SIGMA  =   0.05


--------------------------------------------------------------------------------------------------------


  energy-cutoff  :      650.00
  volume of cell :     1259.94
      direct lattice vectors                 reciprocal lattice vectors
    11.112233740  0.000000000 -0.000290340     0.089991547  0.000000000  0.024487024
     0.000000000 11.117451940  0.000000000     0.000000000  0.089948669  0.000000000
    -2.775108980  0.000000000 10.198722210     0.000002562  0.000000000  0.098052196

  length of vectors
    11.112233744 11.117451940 10.569539468     0.093263567  0.089948669  0.098052196


 
 k-points in units of 2pi/SCALE and weight: # No comment                            
   0.00000000  0.00000000  0.00000000       0.037
   0.02999718  0.00000000  0.00816234       0.074
   0.00000000  0.02998289  0.00000000       0.074
   0.02999718  0.02998289  0.00816234       0.074
  -0.02999718  0.02998289 -0.00816234       0.074
   0.00000085  0.00000000  0.03268407       0.074
   0.02999804  0.00000000  0.04084641       0.074
  -0.02999633  0.00000000  0.02452172       0.074
   0.00000085  0.02998289  0.03268407       0.074
   0.02999804  0.02998289  0.04084641       0.074
  -0.02999633  0.02998289  0.02452172       0.074
   0.00000085 -0.02998289  0.03268407       0.074
   0.02999804 -0.02998289  0.04084641       0.074
  -0.02999633 -0.02998289  0.02452172       0.074
 
 k-points in reciprocal lattice and weights: # No comment                            
   0.00000000  0.00000000  0.00000000       0.037
   0.33333333  0.00000000  0.00000000       0.074
   0.00000000  0.33333333  0.00000000       0.074
   0.33333333  0.33333333  0.00000000       0.074
  -0.33333333  0.33333333 -0.00000000       0.074
   0.00000000  0.00000000  0.33333333       0.074
   0.33333333  0.00000000  0.33333333       0.074
  -0.33333333  0.00000000  0.33333333       0.074
   0.00000000  0.33333333  0.33333333       0.074
   0.33333333  0.33333333  0.33333333       0.074
  -0.33333333  0.33333333  0.33333333       0.074
   0.00000000 -0.33333333  0.33333333       0.074
   0.33333333 -0.33333333  0.33333333       0.074
  -0.33333333 -0.33333333  0.33333333       0.074
 
 position of ions in fractional coordinates (direct lattice) 
   0.28894969  0.46933910  0.15583616
   0.78894969  0.46933910  0.15583616
   0.28894969  0.96933910  0.15583616
   0.78894969  0.96933910  0.15583616
   0.04736962  0.21934976  0.18586770
   0.54646972  0.21934976  0.18586770
   0.04646972  0.71934976  0.18586770
   0.54646972  0.71934976  0.18586770
   0.45353028  0.46934976  0.81413230
   0.95353028  0.46934976  0.81413230
   0.45353028  0.96934976  0.81413230
   0.95353028  0.96934976  0.81413230
   0.21105031  0.21933910  0.84416384
   0.71105031  0.21933910  0.84416384
   0.21105031  0.71933910  0.84416384
   0.71105031  0.71933910  0.84416384
   0.07654971  0.09530995  0.80250593
   0.57654971  0.09530995  0.80250593
   0.07654971  0.59530995  0.80250593
   0.57654971  0.59530995  0.80250593
   0.32470466  0.34338175  0.80250383
   0.82470466  0.34338175  0.80250383
   0.32470466  0.84338175  0.80250383
   0.82470466  0.84338175  0.80250383
   0.17529534  0.09338175  0.19749617
   0.67529534  0.09338175  0.19749617
   0.17529534  0.59338175  0.19749617
   0.67529534  0.59338175  0.19749617
   0.42345029  0.34530995  0.19749407
   0.92345029  0.34530995  0.19749407
   0.42345029  0.84530995  0.19749407
   0.92345029  0.84530995  0.19749407
   0.21868463  0.34523395  0.37102476
   0.71868463  0.34523395  0.37102476
   0.21868463  0.84523395  0.37102476
   0.71868463  0.84523395  0.37102476
   0.46681660  0.09344897  0.37102399
   0.96681660  0.09344897  0.37102399
   0.46681660  0.59344897  0.37102399
   0.96681660  0.59344897  0.37102399
   0.03318340  0.34344897  0.62897601
   0.53318340  0.34344897  0.62897601
   0.03318340  0.84344897  0.62897601
   0.53318340  0.84344897  0.62897601
   0.28131537  0.09523395  0.62897524
   0.78131537  0.09523395  0.62897524
   0.28131537  0.59523395  0.62897524
   0.78131537  0.59523395  0.62897524
   0.12439279  0.34434306  0.00000412
   0.62439279  0.34434306  0.00000412
   0.12439279  0.84434306  0.00000412
   0.62439279  0.84434306  0.00000412
   0.37560721  0.09434306  0.99999588
   0.87560721  0.09434306  0.99999588
   0.37560721  0.59434306  0.99999588
   0.87560721  0.59434306  0.99999588
   0.03824426  0.10634799  0.60632306
   0.53824426  0.10634799  0.60632306
   0.03824426  0.60634799  0.60632306
   0.53824426  0.60634799  0.60632306
   0.26492712  0.33232651  0.60632763
   0.76492712  0.33232651  0.60632763
   0.26492712  0.83232651  0.60632763
   0.76492712  0.83232651  0.60632763
   0.23507288  0.08232651  0.39367237
   0.73507288  0.08232651  0.39367237
   0.23507288  0.58232651  0.39367237
   0.73507288  0.58232651  0.39367237
   0.46175574  0.35634799  0.39367694
   0.96175574  0.35634799  0.39367694
   0.46175574  0.85634799  0.39367694
   0.96175574  0.85634799  0.39367694
   0.03848398  0.46936404  0.15397331
   0.53848398  0.46936404  0.15397331
   0.03848398  0.96936404  0.15397331
   0.53848398  0.96936404  0.15397331
   0.28861657  0.21935690  0.15447525
   0.78861657  0.21935690  0.15447525
   0.28861657  0.71935690  0.15447525
   0.78861657  0.71935690  0.15447525
   0.21138343  0.46935690  0.84552475
   0.71138343  0.46935690  0.84552475
   0.21138343  0.96935690  0.84552475
   0.71138343  0.96935690  0.84552475
   0.46151602  0.21936404  0.84602669
   0.96151602  0.21936404  0.84602669
   0.46151602  0.71936404  0.84602669
   0.96151602  0.71936404  0.84602669
 
 position of ions in cartesian coordinates  (Angst):
   2.77841422  5.21785483  1.58924581
   8.33453109  5.21785483  1.58910064
   2.77841422 10.77658080  1.58924581
   8.33453109 10.77658080  1.58910064
   0.01057921  2.43861041  1.89559929
   5.55669608  2.43861041  1.89545438
   0.00057921  7.99733638  1.89559955
   5.55669608  7.99733638  1.89545438
   2.78042868  5.21797340  8.30297749
   8.33654555  5.21797340  8.30283232
   2.78042868 10.77669937  8.30297749
   8.33654555 10.77669937  8.30283232
   0.00259367  2.43849185  8.60933123
   5.55871054  2.43849185  8.60918606
   0.00259367  7.99721782  8.60933123
   5.55871054  7.99721782  8.60918606
  -1.37640314  1.05960384  8.18451283
   4.17971373  1.05960384  8.18436766
  -1.37640314  6.61832981  8.18451283
   4.17971373  6.61832981  8.18436766
   1.38115855  3.81753010  8.18441936
   6.93727542  3.81753010  8.18427419
   1.38115855  9.37625607  8.18441936
   6.93727542  9.37625607  8.18427419
   1.39984934  1.03816712  2.01415768
   6.95596621  1.03816712  2.01401251
   1.39984934  6.59689309  2.01415768
   6.95596621  6.59689309  2.01401251
   4.15741103  3.83896683  2.01406421
   9.71352790  3.83896683  2.01391904
   4.15741103  9.39769280  2.01406421
   9.71352790  9.39769280  2.01391904
   1.40044058  3.83812185  3.78391497
   6.95655745  3.83812185  3.78376980
   1.40044058  9.39684782  3.78391497
   6.95655745  9.39684782  3.78376980
   4.15774317  1.03891443  3.78383507
   9.71386004  1.03891443  3.78368990
   4.15774317  6.59764040  3.78383507
   9.71386004  6.59764040  3.78368990
  -1.37673528  3.81827742  6.41474197
   4.17938159  3.81827742  6.41459680
  -1.37673528  9.37700339  6.41474197
   4.17938159  9.37700339  6.41459680
   1.38056731  1.05875886  6.41466207
   6.93668418  1.05875886  6.41451690
   1.38056731  6.61748483  6.41466207
   6.93668418  6.61748483  6.41451690
   1.38227032  3.82821742  0.00000590
   6.93838719  3.82821742 -0.00013927
   1.38227032  9.38694339  0.00000590
   6.93838719  9.38694339 -0.00013927
   1.39873757  1.04885444 10.19857114
   6.95485444  1.04885444 10.19842597
   1.39873757  6.60758041 10.19857114
   6.95485444  6.60758041 10.19842597
  -1.25763347  1.18231867  6.18370935
   4.29848340  1.18231867  6.18356418
  -1.25763347  6.74104464  6.18370935
   4.29848340  6.74104464  6.18356418
   1.26130689  3.69462400  6.18369015
   6.81742376  3.69462400  6.18354498
   1.26130689  9.25334997  6.18369015
   6.81742376  9.25334997  6.18354498
   1.51970100  0.91526102  4.01488689
   7.07581787  0.91526102  4.01474172
   1.51970100  6.47398699  4.01488689
   7.07581787  6.47398699  4.01474172
   4.03864136  3.96168165  4.01486769
   9.59475823  3.96168165  4.01472252
   4.03864136  9.52040762  4.01486769
   9.59475823  9.52040762  4.01472252
   0.00035027  5.21813216  1.57031984
   5.55646714  5.21813216  1.57017467
   0.00035027 10.77685813  1.57031984
   5.55646714 10.77685813  1.57017467
   2.77848919  2.43868979  1.57536637
   8.33460606  2.43868979  1.57522120
   2.77848919  7.99741576  1.57536637
   8.33460606  7.99741576  1.57522120
   0.00251870  5.21805278  8.62321067
   5.55863557  5.21805278  8.62306550
   0.00251870 10.77677875  8.62321067
   5.55863557 10.77677875  8.62306550
   2.78065762  2.43876917  8.62825720
   8.33677449  2.43876917  8.62811203
   2.78065762  7.99749514  8.62825720
   8.33677449  7.99749514  8.62811203
 


--------------------------------------------------------------------------------------------------------


 k-point  1 :   0.0000 0.0000 0.0000  plane waves:   47369
 k-point  2 :   0.3333 0.0000 0.0000  plane waves:   47373
 k-point  3 :   0.0000 0.3333 0.0000  plane waves:   47370
 k-point  4 :   0.3333 0.3333 0.0000  plane waves:   47404
 k-point  5 :  -0.3333 0.3333-0.0000  plane waves:   47404
 k-point  6 :   0.0000 0.0000 0.3333  plane waves:   47419
 k-point  7 :   0.3333 0.0000 0.3333  plane waves:   47399
 k-point  8 :  -0.3333 0.0000 0.3333  plane waves:   47417
 k-point  9 :   0.0000 0.3333 0.3333  plane waves:   47409
 k-point 10 :   0.3333 0.3333 0.3333  plane waves:   47422
 k-point 11 :  -0.3333 0.3333 0.3333  plane waves:   47440
 k-point 12 :   0.0000-0.3333 0.3333  plane waves:   47409
 k-point 13 :   0.3333-0.3333 0.3333  plane waves:   47422
 k-point 14 :  -0.3333-0.3333 0.3333  plane waves:   47440

 maximum and minimum number of plane-waves per node :      7942     7858

 maximum number of plane-waves:     47440
 maximum index in each direction: 
   IXMAX=   23   IYMAX=   23   IZMAX=   21
   IXMIN=  -23   IYMIN=  -23   IZMIN=  -22


 parallel 3D FFT for wavefunctions:
    minimum data exchange during FFTs selected (reduces bandwidth)
 parallel 3D FFT for charge:
    minimum data exchange during FFTs selected (reduces bandwidth)


 total amount of memory used by VASP MPI-rank0  1233264. kBytes
=======================================================================

   base      :      30000. kBytes
   nonl-proj :      75226. kBytes
   fftplans  :      85054. kBytes
   grid      :      64684. kBytes
   one-center:        466. kBytes
   wavefun   :     977834. kBytes
 
     INWAV:  cpu time    0.0000: real time    0.0000
 Broyden mixing: mesh for mixing (old mesh)
   NGX = 47   NGY = 47   NGZ = 43
  (NGX  =192   NGY  =192   NGZ  =180)
  gives a total of  94987 points

 initial charge density was supplied:
 number of electron     736.0000016 magnetization     127.9999885
 keeping initial charge density in first step


--------------------------------------------------------------------------------------------------------


 Maximum index for augmentation-charges        13229 (set IRDMAX)


--------------------------------------------------------------------------------------------------------


 First call to EWALD:  gamma=   0.164
 Maximum number of real-space cells 3x 3x 3
 Maximum number of reciprocal cells 3x 3x 3

    FEWALD:  cpu time    0.0039: real time    0.0044


--------------------------------------- Iteration      1(   1)  ---------------------------------------


    POTLOK:  cpu time    1.0351: real time    1.0688
    SETDIJ:  cpu time    2.3056: real time    2.3310
     EDDAV:  cpu time  314.5131: real time  317.3799
       DOS:  cpu time    0.0081: real time    0.0083
    --------------------------------------------
      LOOP:  cpu time  317.8618: real time  320.7880

 eigenvalue-minimisations  : 30944
 total energy-change (2. order) : 0.1040965E+05  (-0.4118850E+05)
 number of electron     736.0000016 magnetization     127.9999885
 augmentation part      736.0000016 magnetization     127.9999885

 Free energy of the ion-electron system (eV)
  ---------------------------------------------------
  alpha Z        PSCENC =      2314.49656628
  Ewald energy   TEWEN  =    -57723.03674834
  -Hartree energ DENC   =    -30348.88279623
  -exchange      EXHF   =         0.00000000
  -V(xc)+E(xc)   XCENC  =      3229.29963500
  PAW double counting   =     92679.89207989   -95535.38516353
  entropy T*S    EENTRO =        -0.01870233
  eigenvalues    EBANDS =       349.80429301
  atomic energy  EATOM  =     95443.47970955
  Solvation  Ediel_sol  =         0.00000000
  ---------------------------------------------------
  free energy    TOTEN  =     10409.64887330 eV

  energy without entropy =    10409.66757563  energy(sigma->0) =    10409.65822447


--------------------------------------------------------------------------------------------------------




--------------------------------------- Iteration      1(   2)  ---------------------------------------


     EDDAV:  cpu time  308.6182: real time  311.4182
       DOS:  cpu time    0.0084: real time    0.0084
    --------------------------------------------
      LOOP:  cpu time  308.6266: real time  311.4266

 eigenvalue-minimisations  : 30128
 total energy-change (2. order) :-0.9232158E+04  (-0.8658376E+04)
 number of electron     736.0000016 magnetization     127.9999885
 augmentation part      736.0000016 magnetization     127.9999885

 Free energy of the ion-electron system (eV)
  ---------------------------------------------------
  alpha Z        PSCENC =      2314.49656628
  Ewald energy   TEWEN  =    -57723.03674834
  -Hartree energ DENC   =    -30348.88279623
  -exchange      EXHF   =         0.00000000
  -V(xc)+E(xc)   XCENC  =      3229.29963500
  PAW double counting   =     92679.89207989   -95535.38516353
  entropy T*S    EENTRO =        -0.06583488
  eigenvalues    EBANDS =     -8882.30673494
  atomic energy  EATOM  =     95443.47970955
  Solvation  Ediel_sol  =         0.00000000
  ---------------------------------------------------
  free energy    TOTEN  =      1177.49071280 eV

  energy without entropy =     1177.55654768  energy(sigma->0) =     1177.52363024


--------------------------------------------------------------------------------------------------------




--------------------------------------- Iteration      1(   3)  ---------------------------------------


     EDDAV:  cpu time  326.5911: real time  329.2958
       DOS:  cpu time    0.0026: real time    0.0026
    --------------------------------------------
      LOOP:  cpu time  326.5937: real time  329.2984

 eigenvalue-minimisations  : 32376
 total energy-change (2. order) :-0.1485712E+04  (-0.1278929E+04)
 number of electron     736.0000016 magnetization     127.9999885
 augmentation part      736.0000016 magnetization     127.9999885

 Free energy of the ion-electron system (eV)
  ---------------------------------------------------
  alpha Z        PSCENC =      2314.49656628
  Ewald energy   TEWEN  =    -57723.03674834
  -Hartree energ DENC   =    -30348.88279623
  -exchange      EXHF   =         0.00000000
  -V(xc)+E(xc)   XCENC  =      3229.29963500
  PAW double counting   =     92679.89207989   -95535.38516353
  entropy T*S    EENTRO =        -0.00000000
  eigenvalues    EBANDS =    -10368.08463776
  atomic energy  EATOM  =     95443.47970955
  Solvation  Ediel_sol  =         0.00000000
  ---------------------------------------------------
  free energy    TOTEN  =      -308.22135513 eV

  energy without entropy =     -308.22135513  energy(sigma->0) =     -308.22135513


--------------------------------------------------------------------------------------------------------




--------------------------------------- Iteration      1(   4)  ---------------------------------------


     EDDAV:  cpu time  347.5160: real time  350.7681
       DOS:  cpu time    0.0024: real time    0.0024
    --------------------------------------------
      LOOP:  cpu time  347.5185: real time  350.7705

 eigenvalue-minimisations  : 35008
 total energy-change (2. order) :-0.1680863E+03  (-0.1653358E+03)
 number of electron     736.0000016 magnetization     127.9999885
 augmentation part      736.0000016 magnetization     127.9999885

 Free energy of the ion-electron system (eV)
  ---------------------------------------------------
  alpha Z        PSCENC =      2314.49656628
  Ewald energy   TEWEN  =    -57723.03674834
  -Hartree energ DENC   =    -30348.88279623
  -exchange      EXHF   =         0.00000000
  -V(xc)+E(xc)   XCENC  =      3229.29963500
  PAW double counting   =     92679.89207989   -95535.38516353
  entropy T*S    EENTRO =        -0.00000000
  eigenvalues    EBANDS =    -10536.17089375
  atomic energy  EATOM  =     95443.47970955
  Solvation  Ediel_sol  =         0.00000000
  ---------------------------------------------------
  free energy    TOTEN  =      -476.30761113 eV

  energy without entropy =     -476.30761113  energy(sigma->0) =     -476.30761113


--------------------------------------------------------------------------------------------------------




--------------------------------------- Iteration      1(   5)  ---------------------------------------


     EDDAV:  cpu time  461.4469: real time  465.0325
       DOS:  cpu time    0.0026: real time    0.0026
    CHARGE:  cpu time    9.2140: real time    9.3768
    MIXING:  cpu time    0.0308: real time    0.0308
    --------------------------------------------
      LOOP:  cpu time  470.6944: real time  474.4427

 eigenvalue-minimisations  : 49720
 total energy-change (2. order) :-0.1242556E+02  (-0.1230233E+02)
 number of electron     736.0000016 magnetization     127.9999932
 augmentation part      278.4628431 magnetization      84.1333652

 Broyden mixing:
  rms(total) = 0.20949E+00    rms(broyden)= 0.20933E+00
  rms(prec ) = 0.21287E+00
  weight for this iteration     100.00

 Free energy of the ion-electron system (eV)
  ---------------------------------------------------
  alpha Z        PSCENC =      2314.49656628
  Ewald energy   TEWEN  =    -57723.03674834
  -Hartree energ DENC   =    -30348.88279623
  -exchange      EXHF   =         0.00000000
  -V(xc)+E(xc)   XCENC  =      3229.29963500
  PAW double counting   =     92679.89207989   -95535.38516353
  entropy T*S    EENTRO =        -0.00000000
  eigenvalues    EBANDS =    -10548.59645834
  atomic energy  EATOM  =     95443.47970955
  Solvation  Ediel_sol  =         0.00000000
  ---------------------------------------------------
  free energy    TOTEN  =      -488.73317572 eV

  energy without entropy =     -488.73317572  energy(sigma->0) =     -488.73317572


--------------------------------------------------------------------------------------------------------




--------------------------------------- Iteration      1(   6)  ---------------------------------------


    POTLOK:  cpu time    1.0494: real time    1.0596
    SETDIJ:  cpu time    2.3004: real time    2.3209
     EDDAV:  cpu time  405.0666: real time  408.3211
       DOS:  cpu time    0.0026: real time    0.0026
    CHARGE:  cpu time    9.1985: real time    9.3375
    MIXING:  cpu time    0.0390: real time    0.0393
    --------------------------------------------
      LOOP:  cpu time  417.6565: real time  421.0810

 eigenvalue-minimisations  : 42152
 total energy-change (2. order) :-0.4674540E+00  (-0.4815472E+00)
 number of electron     736.0000016 magnetization     127.9999951
 augmentation part      277.9605249 magnetization      84.1626542

 Broyden mixing:
  rms(total) = 0.10488E+00    rms(broyden)= 0.10472E+00
  rms(prec ) = 0.10553E+00
  weight for this iteration     100.00

 eigenvalues of (default mixing * dielectric matrix)
  average eigenvalue GAMMA=   0.6474
  0.6474

 Free energy of the ion-electron system (eV)
  ---------------------------------------------------
  alpha Z        PSCENC =      2314.49656628
  Ewald energy   TEWEN  =    -57723.03674834
  -Hartree energ DENC   =    -30347.04852622
  -exchange      EXHF   =         0.00000000
  -V(xc)+E(xc)   XCENC  =      3228.99890742
  PAW double counting   =     92521.44727671   -95375.28593329
  entropy T*S    EENTRO =        -0.00000000
  eigenvalues    EBANDS =    -10552.25188180
  atomic energy  EATOM  =     95443.47970955
  Solvation  Ediel_sol  =         0.00000000
  ---------------------------------------------------
  free energy    TOTEN  =      -489.20062970 eV

  energy without entropy =     -489.20062970  energy(sigma->0) =     -489.20062970


--------------------------------------------------------------------------------------------------------




--------------------------------------- Iteration      1(   7)  ---------------------------------------


    POTLOK:  cpu time    1.0314: real time    1.0598
    SETDIJ:  cpu time    2.2774: real time    2.3068
     EDDAV:  cpu time  434.0515: real time  437.8666
       DOS:  cpu time    0.0028: real time    0.0028
    CHARGE:  cpu time    9.3753: real time    9.3975
    MIXING:  cpu time    0.0462: real time    0.0493
    --------------------------------------------
      LOOP:  cpu time  446.7846: real time  450.6829

 eigenvalue-minimisations  : 46368
 total energy-change (2. order) :-0.1667550E-01  (-0.1751898E-01)
 number of electron     736.0000016 magnetization     127.9999959
 augmentation part      277.8793547 magnetization      84.1548027

 Broyden mixing:
  rms(total) = 0.59645E-01    rms(broyden)= 0.59604E-01
  rms(prec ) = 0.61048E-01
  weight for this iteration     100.00

 eigenvalues of (default mixing * dielectric matrix)
  average eigenvalue GAMMA=   0.5863
  0.5863  0.5863

 Free energy of the ion-electron system (eV)
  ---------------------------------------------------
  alpha Z        PSCENC =      2314.49656628
  Ewald energy   TEWEN  =    -57723.03674834
  -Hartree energ DENC   =    -30347.97816828
  -exchange      EXHF   =         0.00000000
  -V(xc)+E(xc)   XCENC  =      3229.08395932
  PAW double counting   =     92579.19988631   -95433.61046964
  entropy T*S    EENTRO =        -0.00000000
  eigenvalues    EBANDS =    -10550.85204039
  atomic energy  EATOM  =     95443.47970955
  Solvation  Ediel_sol  =         0.00000000
  ---------------------------------------------------
  free energy    TOTEN  =      -489.21730520 eV

  energy without entropy =     -489.21730520  energy(sigma->0) =     -489.21730520


--------------------------------------------------------------------------------------------------------




--------------------------------------- Iteration      1(   8)  ---------------------------------------


    POTLOK:  cpu time    1.0520: real time    1.0555
    SETDIJ:  cpu time    2.3008: real time    2.3178
     EDDAV:  cpu time  405.5424: real time  409.1706
       DOS:  cpu time    0.0027: real time    0.0027
    CHARGE:  cpu time    9.2265: real time    9.3174
    MIXING:  cpu time    0.0379: real time    0.0380
    --------------------------------------------
      LOOP:  cpu time  418.1625: real time  421.9020

 eigenvalue-minimisations  : 42608
 total energy-change (2. order) : 0.5250849E-03  (-0.3339300E-03)
 number of electron     736.0000016 magnetization     127.9999962
 augmentation part      277.8714463 magnetization      84.1567672

 Broyden mixing:
  rms(total) = 0.53115E-01    rms(broyden)= 0.53112E-01
  rms(prec ) = 0.54336E-01
  weight for this iteration     100.00

 eigenvalues of (default mixing * dielectric matrix)
  average eigenvalue GAMMA=   0.5421
  0.6067  0.6067  0.4129

 Free energy of the ion-electron system (eV)
  ---------------------------------------------------
  alpha Z        PSCENC =      2314.49656628
  Ewald energy   TEWEN  =    -57723.03674834
  -Hartree energ DENC   =    -30347.94728748
  -exchange      EXHF   =         0.00000000
  -V(xc)+E(xc)   XCENC  =      3229.11398530
  PAW double counting   =     92593.34943215   -95447.89934240
  entropy T*S    EENTRO =        -0.00000000
  eigenvalues    EBANDS =    -10550.77309516
  atomic energy  EATOM  =     95443.47970955
  Solvation  Ediel_sol  =         0.00000000
  ---------------------------------------------------
  free energy    TOTEN  =      -489.21678011 eV

  energy without entropy =     -489.21678011  energy(sigma->0) =     -489.21678011


--------------------------------------------------------------------------------------------------------




--------------------------------------- Iteration      1(   9)  ---------------------------------------


    POTLOK:  cpu time    1.0473: real time    1.0497
    SETDIJ:  cpu time    2.2988: real time    2.3039
     EDDAV:  cpu time  438.1969: real time  442.0512
       DOS:  cpu time    0.0030: real time    0.0030
    CHARGE:  cpu time    9.3189: real time    9.3841
    MIXING:  cpu time    0.0309: real time    0.0364
    --------------------------------------------
      LOOP:  cpu time  450.8958: real time  454.8283

 eigenvalue-minimisations  : 46616
 total energy-change (2. order) : 0.3332092E-03  (-0.2091977E-04)
 number of electron     736.0000016 magnetization     127.9999969
 augmentation part      277.8735482 magnetization      84.1566801

 Broyden mixing:
  rms(total) = 0.48117E-01    rms(broyden)= 0.48117E-01
  rms(prec ) = 0.49202E-01
  weight for this iteration     100.00

 eigenvalues of (default mixing * dielectric matrix)
  average eigenvalue GAMMA=   0.5810
  0.6806  0.6806  0.4815  0.4815

 Free energy of the ion-electron system (eV)
  ---------------------------------------------------
  alpha Z        PSCENC =      2314.49656628
  Ewald energy   TEWEN  =    -57723.03674834
  -Hartree energ DENC   =    -30348.00393554
  -exchange      EXHF   =         0.00000000
  -V(xc)+E(xc)   XCENC  =      3229.13155705
  PAW double counting   =     92599.48612910   -95454.11688442
  entropy T*S    EENTRO =        -0.00000000
  eigenvalues    EBANDS =    -10550.65284058
  atomic energy  EATOM  =     95443.47970955
  Solvation  Ediel_sol  =         0.00000000
  ---------------------------------------------------
  free energy    TOTEN  =      -489.21644690 eV

  energy without entropy =     -489.21644690  energy(sigma->0) =     -489.21644690


--------------------------------------------------------------------------------------------------------




--------------------------------------- Iteration      1(  10)  ---------------------------------------


    POTLOK:  cpu time    1.0348: real time    1.0632
    SETDIJ:  cpu time    2.2521: real time    2.3227
     EDDAV:  cpu time  412.7755: real time  416.5159
       DOS:  cpu time    0.0031: real time    0.0050
    CHARGE:  cpu time    9.2484: real time    9.3620
    MIXING:  cpu time    0.0336: real time    0.0354
    --------------------------------------------
      LOOP:  cpu time  425.3475: real time  429.3044

 eigenvalue-minimisations  : 43520
 total energy-change (2. order) : 0.4447077E-03  (-0.1154888E-04)
 number of electron     736.0000016 magnetization     127.9999984
 augmentation part      277.8778846 magnetization      84.1571768

 Broyden mixing:
  rms(total) = 0.40195E-01    rms(broyden)= 0.40194E-01
  rms(prec ) = 0.41028E-01
  weight for this iteration     100.00

 eigenvalues of (default mixing * dielectric matrix)
  average eigenvalue GAMMA=   0.8234
  1.2270  1.2270  0.5899  0.5899  0.4835

 Free energy of the ion-electron system (eV)
  ---------------------------------------------------
  alpha Z        PSCENC =      2314.49656628
  Ewald energy   TEWEN  =    -57723.03674834
  -Hartree energ DENC   =    -30348.15888529
  -exchange      EXHF   =         0.00000000
  -V(xc)+E(xc)   XCENC  =      3229.16377724
  PAW double counting   =     92611.23512947   -95466.02045400
  entropy T*S    EENTRO =        -0.00000000
  eigenvalues    EBANDS =    -10550.37509711
  atomic energy  EATOM  =     95443.47970955
  Solvation  Ediel_sol  =         0.00000000
  ---------------------------------------------------
  free energy    TOTEN  =      -489.21600219 eV

  energy without entropy =     -489.21600219  energy(sigma->0) =     -489.21600219


--------------------------------------------------------------------------------------------------------




--------------------------------------- Iteration      1(  11)  ---------------------------------------


    POTLOK:  cpu time    1.0347: real time    1.0581
    SETDIJ:  cpu time    2.3083: real time    2.3292
     EDDAV:  cpu time  408.2576: real time  411.5986
       DOS:  cpu time    0.0026: real time    0.0026
    CHARGE:  cpu time    9.3213: real time    9.3654
    MIXING:  cpu time    0.0408: real time    0.0408
    --------------------------------------------
      LOOP:  cpu time  420.9652: real time  424.3945

 eigenvalue-minimisations  : 42888
 total energy-change (2. order) : 0.6219433E-03  (-0.3305118E-04)
 number of electron     736.0000016 magnetization     127.9999989
 augmentation part      277.8843221 magnetization      84.1579952

 Broyden mixing:
  rms(total) = 0.22513E-01    rms(broyden)= 0.22513E-01
  rms(prec ) = 0.22852E-01
  weight for this iteration     100.00

 eigenvalues of (default mixing * dielectric matrix)
  average eigenvalue GAMMA=   0.8435
  1.3750  1.3750  0.6466  0.6466  0.5090  0.5090

 Free energy of the ion-electron system (eV)
  ---------------------------------------------------
  alpha Z        PSCENC =      2314.49656628
  Ewald energy   TEWEN  =    -57723.03674834
  -Hartree energ DENC   =    -30348.49952156
  -exchange      EXHF   =         0.00000000
  -V(xc)+E(xc)   XCENC  =      3229.23319987
  PAW double counting   =     92639.29787634   -95494.42662569
  entropy T*S    EENTRO =        -0.00000000
  eigenvalues    EBANDS =    -10549.75983670
  atomic energy  EATOM  =     95443.47970955
  Solvation  Ediel_sol  =         0.00000000
  ---------------------------------------------------
  free energy    TOTEN  =      -489.21538025 eV

  energy without entropy =     -489.21538025  energy(sigma->0) =     -489.21538025


--------------------------------------------------------------------------------------------------------




--------------------------------------- Iteration      1(  12)  ---------------------------------------


    POTLOK:  cpu time    1.0522: real time    1.0534
    SETDIJ:  cpu time    2.2913: real time    2.3106
     EDDAV:  cpu time  360.6531: real time  363.5993
       DOS:  cpu time    0.0026: real time    0.0026
    CHARGE:  cpu time    9.3603: real time    9.4079
    MIXING:  cpu time    0.0394: real time    0.0407
    --------------------------------------------
      LOOP:  cpu time  373.3989: real time  376.4145

 eigenvalue-minimisations  : 36960
 total energy-change (2. order) : 0.8165819E-04  (-0.1907461E-04)
 number of electron     736.0000016 magnetization     127.9999990
 augmentation part      277.8873307 magnetization      84.1579488

 Broyden mixing:
  rms(total) = 0.16269E-01    rms(broyden)= 0.16268E-01
  rms(prec ) = 0.16468E-01
  weight for this iteration     100.00

 eigenvalues of (default mixing * dielectric matrix)
  average eigenvalue GAMMA=   0.8136
  1.4358  1.4358  0.6908  0.6908  0.5107  0.5107  0.4204

 Free energy of the ion-electron system (eV)
  ---------------------------------------------------
  alpha Z        PSCENC =      2314.49656628
  Ewald energy   TEWEN  =    -57723.03674834
  -Hartree energ DENC   =    -30348.60428205
  -exchange      EXHF   =         0.00000000
  -V(xc)+E(xc)   XCENC  =      3229.25443245
  PAW double counting   =     92649.48654824   -95504.72171466
  entropy T*S    EENTRO =        -0.00000000
  eigenvalues    EBANDS =    -10549.56981006
  atomic energy  EATOM  =     95443.47970955
  Solvation  Ediel_sol  =         0.00000000
  ---------------------------------------------------
  free energy    TOTEN  =      -489.21529859 eV

  energy without entropy =     -489.21529859  energy(sigma->0) =     -489.21529859


--------------------------------------------------------------------------------------------------------




--------------------------------------- Iteration      1(  13)  ---------------------------------------


    POTLOK:  cpu time    1.0413: real time    1.0508
    SETDIJ:  cpu time    2.3024: real time    2.3244
     EDDAV:  cpu time  380.9175: real time  384.3022
       DOS:  cpu time    0.0029: real time    0.0031
    CHARGE:  cpu time    9.3879: real time    9.4211
    MIXING:  cpu time    0.0355: real time    0.0356
    --------------------------------------------
      LOOP:  cpu time  393.6874: real time  397.1370

 eigenvalue-minimisations  : 39456
 total energy-change (2. order) :-0.5629234E-05  (-0.3725357E-05)
 number of electron     736.0000016 magnetization     127.9999991
 augmentation part      277.8891432 magnetization      84.1579451

 Broyden mixing:
  rms(total) = 0.15614E-01    rms(broyden)= 0.15614E-01
  rms(prec ) = 0.15799E-01
  weight for this iteration     100.00

 eigenvalues of (default mixing * dielectric matrix)
  average eigenvalue GAMMA=   0.8517
  1.5962  1.5962  0.8200  0.8200  0.5351  0.5351  0.4553  0.4553

 Free energy of the ion-electron system (eV)
  ---------------------------------------------------
  alpha Z        PSCENC =      2314.49656628
  Ewald energy   TEWEN  =    -57723.03674834
  -Hartree energ DENC   =    -30348.61420517
  -exchange      EXHF   =         0.00000000
  -V(xc)+E(xc)   XCENC  =      3229.25548044
  PAW double counting   =     92650.59471512   -95505.83463823
  entropy T*S    EENTRO =        -0.00000000
  eigenvalues    EBANDS =    -10549.55618387
  atomic energy  EATOM  =     95443.47970955
  Solvation  Ediel_sol  =         0.00000000
  ---------------------------------------------------
  free energy    TOTEN  =      -489.21530422 eV

  energy without entropy =     -489.21530422  energy(sigma->0) =     -489.21530422


--------------------------------------------------------------------------------------------------------




--------------------------------------- Iteration      1(  14)  ---------------------------------------


    POTLOK:  cpu time    1.0488: real time    1.0503
    SETDIJ:  cpu time    2.2992: real time    2.3010
     EDDAV:  cpu time  251.4264: real time  253.5746
       DOS:  cpu time    0.0024: real time    0.0024
    --------------------------------------------
      LOOP:  cpu time  254.7768: real time  256.9283

 eigenvalue-minimisations  : 22728
 total energy-change (2. order) : 0.4687317E-06  (-0.6493458E-07)
 number of electron     736.0000016 magnetization     127.9999991
 augmentation part      277.8891432 magnetization      84.1579451

 Free energy of the ion-electron system (eV)
  ---------------------------------------------------
  alpha Z        PSCENC =      2314.49656628
  Ewald energy   TEWEN  =    -57723.03674834
  -Hartree energ DENC   =    -30348.62688818
  -exchange      EXHF   =         0.00000000
  -V(xc)+E(xc)   XCENC  =      3229.25710753
  PAW double counting   =     92653.03355209   -95508.28607426
  entropy T*S    EENTRO =        -0.00000000
  eigenvalues    EBANDS =    -10549.53252842
  atomic energy  EATOM  =     95443.47970955
  Solvation  Ediel_sol  =         0.00000000
  ---------------------------------------------------
  free energy    TOTEN  =      -489.21530375 eV

  energy without entropy =     -489.21530375  energy(sigma->0) =     -489.21530375


--------------------------------------------------------------------------------------------------------




 average (electrostatic) potential at core
  the test charge radii are     0.7079  0.7215  0.9698  0.9500
  (the norm of the test charge is              1.0000)
       1 -58.9617       2 -58.9594       3 -58.9623       4 -58.9599       5 -58.9598
       6 -58.9598       7 -58.9598       8 -58.9597       9 -58.9599      10 -58.9602
      11 -58.9599      12 -58.9593      13 -58.9615      14 -58.9601      15 -58.9611
      16 -58.9606      17 -69.8164      18 -69.8161      19 -69.8167      20 -69.8163
      21 -69.8168      22 -69.8162      23 -69.8166      24 -69.8159      25 -69.8213
      26 -69.8157      27 -69.8167      28 -69.8162      29 -69.8172      30 -69.8114
      31 -69.8165      32 -69.8160      33 -85.5813      34 -85.5786      35 -85.5796
      36 -85.5789      37 -85.5797      38 -85.5772      39 -85.5795      40 -85.5788
      41 -85.5792      42 -85.5794      43 -85.5789      44 -85.5792      45 -85.5794
      46 -85.5787      47 -85.5796      48 -85.5790      49 -85.6408      50 -85.6376
      51 -85.6384      52 -85.6379      53 -85.6389      54 -85.6356      55 -85.6385
      56 -85.6379      57 -78.5734      58 -78.5743      59 -78.5741      60 -78.5743
      61 -78.5751      62 -78.5738      63 -78.5744      64 -78.5739      65 -78.5759
      66 -78.5735      67 -78.5749      68 -78.5739      69 -78.5746      70 -78.5726
      71 -78.5744      72 -78.5735      73 -78.5815      74 -78.5820      75 -78.5825
      76 -78.5820      77 -78.5949      78 -78.5884      79 -78.5918      80 -78.5914
      81 -78.5926      82 -78.5914      83 -78.5919      84 -78.5906      85 -78.5821
      86 -78.5819      87 -78.5821      88 -78.5819
 
 
 
 E-fermi :   5.2126     XC(G=0): -10.4850     alpha+bet :-11.8156


 spin component 1

 k-point     1 :       0.0000    0.0000    0.0000
  band No.  band energies     occupation 
      1     -51.0561      1.00000
      2     -51.0551      1.00000
      3     -51.0548      1.00000
      4     -51.0547      1.00000
      5     -51.0540      1.00000
      6     -51.0538      1.00000
      7     -51.0538      1.00000
      8     -51.0532      1.00000
      9     -51.0531      1.00000
     10     -51.0526      1.00000
     11     -51.0525      1.00000
     12     -51.0524      1.00000
     13     -51.0520      1.00000
     14     -51.0513      1.00000
     15     -51.0510      1.00000
     16     -51.0501      1.00000
     17     -51.0468      1.00000
     18     -51.0450      1.00000
     19     -51.0444      1.00000
     20     -51.0443      1.00000
     21     -51.0439      1.00000
     22     -51.0438      1.00000
     23     -51.0433      1.00000
     24     -51.0413      1.00000
     25     -51.0402      1.00000
     26     -51.0396      1.00000
     27     -51.0395      1.00000
     28     -51.0395      1.00000
     29     -51.0393      1.00000
     30     -51.0393      1.00000
     31     -51.0393      1.00000
     32     -51.0386      1.00000
     33     -49.7046      1.00000
     34     -49.7026      1.00000
     35     -49.7019      1.00000
     36     -49.7018      1.00000
     37     -49.7014      1.00000
     38     -49.7014      1.00000
     39     -49.7007      1.00000
     40     -49.6987      1.00000
     41     -49.6946      1.00000
     42     -49.6942      1.00000
     43     -49.6941      1.00000
     44     -49.6941      1.00000
     45     -49.6940      1.00000
     46     -49.6940      1.00000
     47     -49.6940      1.00000
     48     -49.6935      1.00000
     49     -49.5990      1.00000
     50     -49.5983      1.00000
     51     -49.5978      1.00000
     52     -49.5977      1.00000
     53     -49.5974      1.00000
     54     -49.5972      1.00000
     55     -49.5969      1.00000
     56     -49.5968      1.00000
     57     -49.5966      1.00000
     58     -49.5963      1.00000
     59     -49.5963      1.00000
     60     -49.5960      1.00000
     61     -49.5959      1.00000
     62     -49.5958      1.00000
     63     -49.5955      1.00000
     64     -49.5949      1.00000
     65     -49.5676      1.00000
     66     -49.5670      1.00000
     67     -49.5664      1.00000
     68     -49.5662      1.00000
     69     -49.5661      1.00000
     70     -49.5661      1.00000
     71     -49.5655      1.00000
     72     -49.5651      1.00000
     73     -49.5649      1.00000
     74     -49.5648      1.00000
     75     -49.5644      1.00000
     76     -49.5642      1.00000
     77     -49.5641      1.00000
     78     -49.5640      1.00000
     79     -49.5636      1.00000
     80     -49.5633      1.00000
     81     -49.5574      1.00000
     82     -49.5553      1.00000
     83     -49.5545      1.00000
     84     -49.5544      1.00000
     85     -49.5540      1.00000
     86     -49.5539      1.00000
     87     -49.5531      1.00000
     88     -49.5510      1.00000
     89     -49.5398      1.00000
     90     -49.5396      1.00000
     91     -49.5395      1.00000
     92     -49.5395      1.00000
     93     -49.5394      1.00000
     94     -49.5394      1.00000
     95     -49.5394      1.00000
     96     -49.5391      1.00000
     97     -39.8808      1.00000
     98     -39.8802      1.00000
     99     -39.8800      1.00000
    100     -39.8797      1.00000
    101     -39.8792      1.00000
    102     -39.8791      1.00000
    103     -39.8789      1.00000
    104     -39.8788      1.00000
    105     -39.8788      1.00000
    106     -39.8787      1.00000
    107     -39.8787      1.00000
    108     -39.8787      1.00000
    109     -39.8783      1.00000
    110     -39.8781      1.00000
    111     -39.8780      1.00000
    112     -39.8776      1.00000
    113     -13.2251      1.00000
    114     -13.2249      1.00000
    115     -13.2104      1.00000
    116     -13.1836      1.00000
    117     -13.1017      1.00000
    118     -13.0997      1.00000
    119     -13.0984      1.00000
    120     -13.0927      1.00000
    121     -13.0866      1.00000
    122     -13.0808      1.00000
    123     -13.0794      1.00000
    124     -13.0773      1.00000
    125     -12.9882      1.00000
    126     -12.9775      1.00000
    127     -12.9419      1.00000
    128     -12.9418      1.00000
    129      -7.6452      1.00000
    130      -7.4067      1.00000
    131      -7.3264      1.00000
    132      -7.3256      1.00000
    133      -7.3097      1.00000
    134      -7.3088      1.00000
    135      -7.3082      1.00000
    136      -7.3070      1.00000
    137      -7.1693      1.00000
    138      -7.1572      1.00000
    139      -7.1240      1.00000
    140      -7.1232      1.00000
    141      -7.0364      1.00000
    142      -7.0217      1.00000
    143      -7.0021      1.00000
    144      -7.0017      1.00000
    145      -6.9410      1.00000
    146      -6.9404      1.00000
    147      -6.8873      1.00000
    148      -6.8868      1.00000
    149      -6.8651      1.00000
    150      -6.8617      1.00000
    151      -6.8343      1.00000
    152      -6.8036      1.00000
    153      -1.9356      1.00000
    154      -1.9355      1.00000
    155      -1.9105      1.00000
    156      -1.8936      1.00000
    157      -1.6667      1.00000
    158      -1.6663      1.00000
    159      -1.6589      1.00000
    160      -1.6570      1.00000
    161      -1.6000      1.00000
    162      -1.5979      1.00000
    163      -1.5864      1.00000
    164      -1.5861      1.00000
    165      -1.2983      1.00000
    166      -1.1750      1.00000
    167      -1.1744      1.00000
    168      -1.1135      1.00000
    169      -1.1130      1.00000
    170      -1.1073      1.00000
    171      -1.0495      1.00000
    172      -0.9809      1.00000
    173      -0.9647      1.00000
    174      -0.9596      1.00000
    175      -0.9578      1.00000
    176      -0.9576      1.00000
    177      -0.9471      1.00000
    178      -0.9450      1.00000
    179      -0.9229      1.00000
    180      -0.8713      1.00000
    181      -0.8712      1.00000
    182      -0.8035      1.00000
    183      -0.8027      1.00000
    184      -0.8026      1.00000
    185      -0.7751      1.00000
    186      -0.7742      1.00000
    187      -0.7740      1.00000
    188      -0.7611      1.00000
    189      -0.7169      1.00000
    190      -0.7165      1.00000
    191      -0.7065      1.00000
    192      -0.7052      1.00000
    193      -0.6991      1.00000
    194      -0.6990      1.00000
    195      -0.6088      1.00000
    196      -0.6086      1.00000
    197      -0.5615      1.00000
    198      -0.5615      1.00000
    199      -0.5494      1.00000
    200      -0.5482      1.00000
    201      -0.4081      1.00000
    202      -0.4081      1.00000
    203      -0.3574      1.00000
    204      -0.3479      1.00000
    205      -0.3294      1.00000
    206      -0.3293      1.00000
    207      -0.2985      1.00000
    208      -0.2984      1.00000
    209      -0.2814      1.00000
    210      -0.2693      1.00000
    211      -0.2628      1.00000
    212      -0.2559      1.00000
    213      -0.2550      1.00000
    214      -0.2090      1.00000
    215      -0.2089      1.00000
    216      -0.1886      1.00000
    217      -0.1867      1.00000
    218      -0.1867      1.00000
    219      -0.1758      1.00000
    220      -0.1580      1.00000
    221      -0.1256      1.00000
    222      -0.1254      1.00000
    223      -0.1094      1.00000
    224      -0.0709      1.00000
    225      -0.0702      1.00000
    226      -0.0604      1.00000
    227      -0.0434      1.00000
    228      -0.0176      1.00000
    229      -0.0174      1.00000
    230      -0.0116      1.00000
    231       0.0016      1.00000
    232       0.0018      1.00000
    233       0.0462      1.00000
    234       0.0494      1.00000
    235       0.0495      1.00000
    236       0.0913      1.00000
    237       0.0933      1.00000
    238       0.1185      1.00000
    239       0.1185      1.00000
    240       0.1577      1.00000
    241       0.1627      1.00000
    242       0.1768      1.00000
    243       0.1792      1.00000
    244       0.1820      1.00000
    245       0.1821      1.00000
    246       0.1856      1.00000
    247       0.1892      1.00000
    248       0.1933      1.00000
    249       0.1941      1.00000
    250       0.2008      1.00000
    251       0.2012      1.00000
    252       0.2388      1.00000
    253       0.2512      1.00000
    254       0.2569      1.00000
    255       0.2570      1.00000
    256       0.2766      1.00000
    257       0.3373      1.00000
    258       0.3474      1.00000
    259       0.3588      1.00000
    260       0.3589      1.00000
    261       0.3605      1.00000
    262       0.3605      1.00000
    263       0.3882      1.00000
    264       0.4017      1.00000
    265       0.4526      1.00000
    266       0.4526      1.00000
    267       0.5789      1.00000
    268       0.5789      1.00000
    269       0.5844      1.00000
    270       0.6020      1.00000
    271       0.6020      1.00000
    272       0.6064      1.00000
    273       0.6079      1.00000
    274       0.6401      1.00000
    275       0.6511      1.00000
    276       0.6513      1.00000
    277       0.6621      1.00000
    278       0.6623      1.00000
    279       0.6655      1.00000
    280       0.6731      1.00000
    281       0.6747      1.00000
    282       0.6750      1.00000
    283       0.6966      1.00000
    284       0.7229      1.00000
    285       0.7833      1.00000
    286       0.8197      1.00000
    287       0.8296      1.00000
    288       0.8321      1.00000
    289       0.8322      1.00000
    290       0.8612      1.00000
    291       0.8613      1.00000
    292       0.9093      1.00000
    293       0.9405      1.00000
    294       0.9482      1.00000
    295       0.9482      1.00000
    296       0.9832      1.00000
    297       1.0259      1.00000
    298       1.0704      1.00000
    299       1.2693      1.00000
    300       1.2982      1.00000
    301       1.2982      1.00000
    302       1.3116      1.00000
    303       1.3331      1.00000
    304       1.3333      1.00000
    305       1.3379      1.00000
    306       1.3846      1.00000
    307       1.4050      1.00000
    308       1.4282      1.00000
    309       1.4669      1.00000
    310       1.4679      1.00000
    311       1.4681      1.00000
    312       1.4815      1.00000
    313       1.5109      1.00000
    314       1.5110      1.00000
    315       1.5407      1.00000
    316       1.5614      1.00000
    317       1.5770      1.00000
    318       1.6463      1.00000
    319       1.6555      1.00000
    320       1.7561      1.00000
    321       1.7563      1.00000
    322       1.7628      1.00000
    323       1.7786      1.00000
    324       1.8028      1.00000
    325       1.8029      1.00000
    326       1.8108      1.00000
    327       1.8233      1.00000
    328       1.8366      1.00000
    329       1.8366      1.00000
    330       1.8460      1.00000
    331       1.8469      1.00000
    332       1.8784      1.00000
    333       1.8900      1.00000
    334       1.9468      1.00000
    335       1.9934      1.00000
    336       1.9935      1.00000
    337       2.0064      1.00000
    338       2.0064      1.00000
    339       2.0100      1.00000
    340       2.0186      1.00000
    341       2.0201      1.00000
    342       2.0202      1.00000
    343       2.0395      1.00000
    344       2.0467      1.00000
    345       2.0468      1.00000
    346       2.0573      1.00000
    347       2.0688      1.00000
    348       2.0688      1.00000
    349       2.0915      1.00000
    350       2.1129      1.00000
    351       2.1907      1.00000
    352       2.1907      1.00000
    353       2.2469      1.00000
    354       2.2471      1.00000
    355       2.2708      1.00000
    356       2.2729      1.00000
    357       2.2846      1.00000
    358       2.4279      1.00000
    359       2.4664      1.00000
    360       2.4665      1.00000
    361       2.4776      1.00000
    362       2.5036      1.00000
    363       2.5275      1.00000
    364       2.5541      1.00000
    365       2.5923      1.00000
    366       2.6266      1.00000
    367       2.6269      1.00000
    368       2.6561      1.00000
    369       2.7384      1.00000
    370       2.7394      1.00000
    371       2.7601      1.00000
    372       2.7610      1.00000
    373       2.8340      1.00000
    374       2.8727      1.00000
    375       2.9261      1.00000
    376       2.9342      1.00000
    377       2.9347      1.00000
    378       2.9690      1.00000
    379       3.0274      1.00000
    380       3.0277      1.00000
    381       3.0616      1.00000
    382       3.0973      1.00000
    383       3.3079      1.00000
    384       3.3105      1.00000
    385       3.3480      1.00000
    386       3.3758      1.00000
    387       3.4217      1.00000
    388       3.4217      1.00000
    389       3.4405      1.00000
    390       3.4584      1.00000
    391       3.4588      1.00000
    392       3.5316      1.00000
    393       3.7481      1.00000
    394       3.8086      1.00000
    395       3.8090      1.00000
    396       3.8151      1.00000
    397       3.8156      1.00000
    398       3.8825      1.00000
    399       3.8827      1.00000
    400       3.9323      1.00000
    401       3.9351      1.00000
    402       3.9406      1.00000
    403       3.9408      1.00000
    404       4.0391      1.00000
    405       4.0397      1.00000
    406       4.0703      1.00000
    407       4.1387      1.00000
    408       4.1492      1.00000
    409       4.1514      1.00000
    410       4.3148      1.00000
    411       4.3182      1.00000
    412       4.3380      1.00000
    413       4.3583      1.00000
    414       4.3588      1.00000
    415       4.4289      1.00000
    416       4.4446      1.00000
    417       4.4463      1.00000
    418       4.4539      1.00000
    419       4.4563      1.00000
    420       4.4568      1.00000
    421       4.6364      1.00000
    422       4.6365      1.00000
    423       4.7324      1.00000
    424       4.7326      1.00000
    425       4.7641      1.00000
    426       4.7642      1.00000
    427       4.7694      1.00000
    428       4.7695      1.00000
    429       4.8107      1.00000
    430       4.8534      1.00000
    431       4.8535      1.00000
    432       4.8573      1.00000
    433       7.3436      0.00000
    434       8.1284      0.00000
    435       8.4450      0.00000
    436       8.6425      0.00000
    437       8.6426      0.00000
    438       8.8581      0.00000
    439       9.0844      0.00000
    440       9.0848      0.00000
    441       9.2613      0.00000
    442       9.2733      0.00000
    443       9.2891      0.00000
    444       9.2892      0.00000
    445       9.7266      0.00000
    446       9.7718      0.00000
    447       9.7719      0.00000
    448       9.7901      0.00000
    449       9.8545      0.00000
    450       9.8548      0.00000
    451       9.8591      0.00000
    452       9.8789      0.00000
    453       9.8893      0.00000
    454      10.0603      0.00000
    455      10.0829      0.00000
    456      10.1362      0.00000
    457      10.1364      0.00000
    458      10.3059      0.00000
    459      10.3063      0.00000
    460      10.4166      0.00000
    461      10.5267      0.00000
    462      10.5710      0.00000
    463      10.5716      0.00000
    464      10.5723      0.00000
    465      10.5782      0.00000
    466      10.5787      0.00000
    467      10.6757      0.00000
    468      10.9760      0.00000
    469      11.0191      0.00000
    470      11.0194      0.00000
    471      11.0405      0.00000
    472      11.0408      0.00000
    473      11.0774      0.00000
    474      11.1285      0.00000
    475      11.1782      0.00000
    476      11.1887      0.00000
    477      11.2285      0.00000
    478      11.2491      0.00000
    479      11.2496      0.00000
    480      11.2904      0.00000
    481      11.3068      0.00000
    482      11.4175      0.00000
    483      11.4177      0.00000
    484      11.4588      0.00000
    485      11.5209      0.00000
    486      11.5212      0.00000
    487      11.5305      0.00000
    488      11.5771      0.00000
    489      11.6800      0.00000
    490      11.6803      0.00000
    491      11.7974      0.00000
    492      11.7974      0.00000
    493      11.8155      0.00000
    494      11.8156      0.00000
    495      11.8822      0.00000
    496      11.9411      0.00000
    497      11.9762      0.00000
    498      11.9763      0.00000
    499      11.9819      0.00000
    500      12.0279      0.00000
    501      12.0283      0.00000
    502      12.0580      0.00000
    503      12.1618      0.00000
    504      12.2423      0.00000
    505      12.2567      0.00000
    506      12.2577      0.00000
    507      12.3156      0.00000
    508      12.3160      0.00000
    509      12.3216      0.00000
    510      12.3479      0.00000
    511      12.4614      0.00000
    512      12.4800      0.00000
    513      12.5166      0.00000
    514      12.5171      0.00000
    515      12.6144      0.00000
    516      12.6146      0.00000
    517      12.6605      0.00000
    518      12.6629      0.00000
    519      12.6633      0.00000
    520      12.6898      0.00000
    521      12.7472      0.00000
    522      12.8312      0.00000
    523      12.8725      0.00000
    524      12.8726      0.00000
    525      12.8728      0.00000
    526      13.1200      0.00000
    527      13.1202      0.00000
    528      13.2008      0.00000
    529      13.3816      0.00000
    530      13.4099      0.00000
    531      13.4116      0.00000
    532      13.4347      0.00000
    533      13.4382      0.00000
    534      13.4560      0.00000
    535      13.4950      0.00000
    536      13.5129      0.00000
    537      13.5456      0.00000
    538      13.5547      0.00000

 k-point     2 :       0.3333    0.0000    0.0000
  band No.  band energies     occupation 
      1     -51.0561      1.00000
      2     -51.0551      1.00000
      3     -51.0547      1.00000
      4     -51.0545      1.00000
      5     -51.0542      1.00000
      6     -51.0541      1.00000
      7     -51.0540      1.00000
      8     -51.0533      1.00000
      9     -51.0532      1.00000
     10     -51.0525      1.00000
     11     -51.0524      1.00000
     12     -51.0520      1.00000
     13     -51.0516      1.00000
     14     -51.0514      1.00000
     15     -51.0511      1.00000
     16     -51.0503      1.00000
     17     -51.0468      1.00000
     18     -51.0449      1.00000
     19     -51.0443      1.00000
     20     -51.0442      1.00000
     21     -51.0439      1.00000
     22     -51.0438      1.00000
     23     -51.0433      1.00000
     24     -51.0413      1.00000
     25     -51.0402      1.00000
     26     -51.0396      1.00000
     27     -51.0395      1.00000
     28     -51.0395      1.00000
     29     -51.0393      1.00000
     30     -51.0393      1.00000
     31     -51.0393      1.00000
     32     -51.0386      1.00000
     33     -49.7046      1.00000
     34     -49.7026      1.00000
     35     -49.7019      1.00000
     36     -49.7018      1.00000
     37     -49.7014      1.00000
     38     -49.7014      1.00000
     39     -49.7007      1.00000
     40     -49.6987      1.00000
     41     -49.6946      1.00000
     42     -49.6942      1.00000
     43     -49.6941      1.00000
     44     -49.6941      1.00000
     45     -49.6940      1.00000
     46     -49.6940      1.00000
     47     -49.6940      1.00000
     48     -49.6935      1.00000
[...]
   0.756E-02 0.284E-02 -.259E+02   -.882E-02 -.183E-02 0.257E+02   0.650E-03 -.832E-03 0.251E+00   0.104E-03 0.465E-04 0.710E-03
   -.698E-02 0.223E-02 -.259E+02   0.795E-02 -.181E-02 0.257E+02   -.498E-03 -.512E-03 0.251E+00   -.146E-03 0.202E-04 0.647E-03
   0.747E-02 0.161E-02 -.259E+02   -.882E-02 -.530E-03 0.257E+02   0.675E-03 -.831E-03 0.250E+00   0.155E-03 -.157E-04 0.521E-03
   0.147E-02 0.123E-01 -.420E+02   -.114E-02 -.120E-01 0.420E+02   -.536E-03 -.704E-03 0.116E-01   0.282E-03 0.781E-04 -.175E-03
   -.230E-02 0.123E-01 -.421E+02   0.325E-02 -.119E-01 0.421E+02   -.812E-03 -.715E-03 0.105E-01   0.140E-03 0.919E-04 -.340E-03
   0.651E-02 0.134E-01 -.421E+02   -.642E-02 -.119E-01 0.420E+02   -.333E-03 -.129E-02 0.111E-01   0.140E-03 0.977E-05 -.172E-03
   0.479E-02 0.133E-01 -.421E+02   -.406E-02 -.119E-01 0.421E+02   -.595E-03 -.132E-02 0.110E-01   -.468E-04 0.816E-04 -.184E-03
   0.159E+02 0.149E+02 -.126E+03   -.163E+02 -.153E+02 0.131E+03   0.389E+00 0.381E+00 -.463E+01   0.123E-03 0.421E-03 0.533E-03
   0.159E+02 0.149E+02 -.126E+03   -.162E+02 -.153E+02 0.131E+03   0.384E+00 0.380E+00 -.463E+01   -.612E-03 0.385E-03 0.566E-03
   0.159E+02 0.149E+02 -.126E+03   -.163E+02 -.153E+02 0.131E+03   0.388E+00 0.377E+00 -.463E+01   -.784E-04 0.482E-03 0.650E-03
   0.159E+02 0.149E+02 -.126E+03   -.163E+02 -.153E+02 0.131E+03   0.386E+00 0.380E+00 -.463E+01   -.735E-03 0.277E-03 0.477E-03
   -.159E+02 -.149E+02 -.126E+03   0.163E+02 0.153E+02 0.131E+03   -.391E+00 -.379E+00 -.463E+01   -.669E-04 -.437E-03 0.900E-03
   -.159E+02 -.149E+02 -.126E+03   0.163E+02 0.153E+02 0.131E+03   -.388E+00 -.378E+00 -.463E+01   -.239E-03 -.220E-03 0.423E-03
   -.159E+02 -.149E+02 -.126E+03   0.163E+02 0.153E+02 0.131E+03   -.389E+00 -.379E+00 -.463E+01   -.383E-03 -.715E-03 0.570E-03
   -.159E+02 -.149E+02 -.126E+03   0.163E+02 0.153E+02 0.131E+03   -.389E+00 -.382E+00 -.463E+01   -.374E-03 -.458E-03 0.688E-03
   0.158E+02 -.144E+02 0.126E+03   -.161E+02 0.148E+02 -.131E+03   0.374E+00 -.329E+00 0.462E+01   0.295E-02 -.514E-02 -.665E-03
   0.159E+02 -.149E+02 0.126E+03   -.162E+02 0.153E+02 -.131E+03   0.385E+00 -.381E+00 0.463E+01   -.261E-03 -.408E-03 -.850E-03
   0.159E+02 -.149E+02 0.126E+03   -.163E+02 0.153E+02 -.131E+03   0.391E+00 -.381E+00 0.463E+01   0.423E-03 -.699E-03 -.604E-03
   0.159E+02 -.149E+02 0.126E+03   -.163E+02 0.153E+02 -.131E+03   0.388E+00 -.379E+00 0.463E+01   0.116E-03 -.511E-03 -.628E-03
   -.159E+02 0.149E+02 0.126E+03   0.163E+02 -.153E+02 -.131E+03   -.391E+00 0.378E+00 0.463E+01   -.108E-03 0.719E-03 -.560E-03
   -.160E+02 0.154E+02 0.126E+03   0.164E+02 -.158E+02 -.131E+03   -.403E+00 0.430E+00 0.463E+01   0.274E-02 -.390E-02 -.592E-03
   -.159E+02 0.149E+02 0.126E+03   0.163E+02 -.153E+02 -.131E+03   -.388E+00 0.380E+00 0.463E+01   0.543E-05 0.434E-03 -.759E-03
   -.159E+02 0.149E+02 0.126E+03   0.163E+02 -.153E+02 -.131E+03   -.385E+00 0.379E+00 0.463E+01   0.500E-03 0.261E-03 -.495E-03
   0.280E+02 0.281E+02 0.332E+02   -.284E+02 -.284E+02 -.337E+02   0.353E+00 0.349E+00 0.515E+00   0.312E-03 0.861E-03 0.985E-03
   0.280E+02 0.282E+02 0.334E+02   -.283E+02 -.286E+02 -.339E+02   0.348E+00 0.354E+00 0.520E+00   -.227E-03 0.191E-03 -.390E-04
   0.280E+02 0.282E+02 0.333E+02   -.284E+02 -.286E+02 -.339E+02   0.351E+00 0.354E+00 0.518E+00   0.301E-03 0.132E-03 -.184E-03
   0.280E+02 0.282E+02 0.333E+02   -.283E+02 -.285E+02 -.339E+02   0.350E+00 0.353E+00 0.519E+00   0.510E-04 0.304E-03 -.342E-03
   -.280E+02 -.282E+02 0.333E+02   0.283E+02 0.286E+02 -.338E+02   -.352E+00 -.353E+00 0.518E+00   -.415E-03 -.339E-03 -.199E-03
   -.279E+02 -.283E+02 0.335E+02   0.282E+02 0.287E+02 -.340E+02   -.347E+00 -.358E+00 0.524E+00   0.343E-03 0.503E-03 -.872E-03
   -.279E+02 -.282E+02 0.333E+02   0.283E+02 0.286E+02 -.338E+02   -.350E+00 -.354E+00 0.519E+00   -.223E-03 -.184E-03 -.201E-03
   -.279E+02 -.282E+02 0.333E+02   0.283E+02 0.286E+02 -.338E+02   -.348E+00 -.353E+00 0.520E+00   0.285E-03 -.247E-03 -.273E-03
   0.279E+02 -.282E+02 -.333E+02   -.283E+02 0.286E+02 0.338E+02   0.350E+00 -.353E+00 -.518E+00   0.195E-03 -.170E-03 -.127E-04
   0.279E+02 -.282E+02 -.333E+02   -.283E+02 0.286E+02 0.339E+02   0.348E+00 -.354E+00 -.520E+00   0.175E-03 0.535E-05 0.549E-04
   0.279E+02 -.282E+02 -.333E+02   -.283E+02 0.286E+02 0.338E+02   0.350E+00 -.355E+00 -.518E+00   0.588E-03 -.207E-03 0.292E-03
   0.279E+02 -.282E+02 -.333E+02   -.283E+02 0.286E+02 0.338E+02   0.349E+00 -.354E+00 -.519E+00   -.187E-03 -.363E-03 0.497E-04
   -.280E+02 0.282E+02 -.334E+02   0.283E+02 -.285E+02 0.339E+02   -.350E+00 0.354E+00 -.519E+00   0.450E-04 0.144E-03 0.334E-03
   -.280E+02 0.282E+02 -.333E+02   0.284E+02 -.285E+02 0.339E+02   -.351E+00 0.353E+00 -.519E+00   0.534E-04 0.309E-03 0.272E-03
   -.280E+02 0.282E+02 -.333E+02   0.284E+02 -.285E+02 0.339E+02   -.350E+00 0.352E+00 -.520E+00   0.905E-04 0.470E-03 0.320E-03
   -.280E+02 0.282E+02 -.333E+02   0.284E+02 -.285E+02 0.339E+02   -.351E+00 0.353E+00 -.519E+00   -.957E-04 -.738E-04 0.197E-03
   0.992E+01 -.494E-01 0.124E+00   -.100E+02 0.506E-01 -.127E+00   0.118E+00 -.325E-02 0.477E-02   -.218E-03 0.901E-03 -.704E-03
   0.986E+01 0.597E-01 -.293E-01   -.997E+01 -.614E-01 0.298E-01   0.113E+00 0.147E-02 -.962E-03   -.932E-03 0.336E-03 0.296E-04
   0.991E+01 0.609E-01 -.266E-03   -.100E+02 -.615E-01 -.270E-03   0.115E+00 0.977E-03 0.887E-03   -.335E-03 -.212E-03 0.211E-03
   0.989E+01 0.400E-01 -.145E-01   -.100E+02 -.404E-01 0.145E-01   0.114E+00 0.554E-04 0.690E-04   -.863E-03 0.132E-03 -.319E-04
   -.994E+01 0.611E-01 0.268E-01   0.101E+02 -.618E-01 -.274E-01   -.117E+00 0.110E-02 0.960E-03   0.348E-03 -.195E-03 0.174E-05
   -.988E+01 -.492E-01 -.122E+00   0.999E+01 0.506E-01 0.124E+00   -.111E+00 -.342E-02 -.444E-02   0.126E-02 0.836E-03 0.858E-03
   -.991E+01 0.404E-01 0.133E-01   0.100E+02 -.401E-01 -.128E-01   -.115E+00 -.309E-03 -.304E-03   0.381E-03 -.226E-03 -.249E-03
   -.989E+01 0.612E-01 0.177E-02   0.100E+02 -.618E-01 -.144E-02   -.114E+00 0.942E-03 -.676E-03   0.733E-03 -.173E-03 -.117E-03
   0.191E+02 0.189E+02 0.185E+03   -.180E+02 -.178E+02 -.183E+03   -.106E+01 -.108E+01 -.240E+01   0.189E-02 0.347E-03 -.833E-04
   0.190E+02 0.189E+02 0.185E+03   -.179E+02 -.179E+02 -.183E+03   -.106E+01 -.108E+01 -.241E+01   0.623E-03 0.468E-03 -.989E-03
   0.190E+02 0.189E+02 0.185E+03   -.180E+02 -.179E+02 -.183E+03   -.106E+01 -.109E+01 -.241E+01   0.201E-02 0.536E-03 0.143E-03
   0.190E+02 0.189E+02 0.185E+03   -.179E+02 -.179E+02 -.183E+03   -.106E+01 -.108E+01 -.241E+01   0.862E-03 0.266E-03 -.637E-03
   -.189E+02 -.189E+02 0.185E+03   0.178E+02 0.178E+02 -.183E+03   0.107E+01 0.109E+01 -.241E+01   0.101E-02 -.287E-02 -.294E-02
   -.189E+02 -.189E+02 0.185E+03   0.179E+02 0.178E+02 -.183E+03   0.106E+01 0.109E+01 -.241E+01   0.180E-03 -.252E-02 -.215E-02
   -.189E+02 -.189E+02 0.185E+03   0.178E+02 0.178E+02 -.183E+03   0.106E+01 0.109E+01 -.241E+01   0.704E-03 -.316E-02 -.222E-02
   -.189E+02 -.189E+02 0.185E+03   0.178E+02 0.178E+02 -.183E+03   0.106E+01 0.109E+01 -.241E+01   0.303E-03 -.299E-02 -.239E-02
   0.189E+02 -.187E+02 -.185E+03   -.179E+02 0.176E+02 0.183E+03   -.106E+01 0.109E+01 0.239E+01   0.317E-03 -.402E-02 0.260E-02
   0.188E+02 -.189E+02 -.185E+03   -.178E+02 0.178E+02 0.183E+03   -.107E+01 0.109E+01 0.241E+01   -.104E-02 -.299E-02 0.278E-02
   0.189E+02 -.189E+02 -.185E+03   -.179E+02 0.178E+02 0.183E+03   -.106E+01 0.108E+01 0.241E+01   -.610E-03 -.264E-02 0.221E-02
   0.189E+02 -.189E+02 -.185E+03   -.178E+02 0.178E+02 0.183E+03   -.106E+01 0.109E+01 0.241E+01   -.117E-02 -.293E-02 0.251E-02
   -.191E+02 0.189E+02 -.185E+03   0.181E+02 -.178E+02 0.183E+03   0.106E+01 -.109E+01 0.241E+01   -.185E-02 0.729E-03 0.358E-03
   -.190E+02 0.191E+02 -.185E+03   0.179E+02 -.180E+02 0.182E+03   0.106E+01 -.108E+01 0.243E+01   0.109E-03 -.421E-03 0.598E-03
   -.191E+02 0.190E+02 -.185E+03   0.180E+02 -.179E+02 0.183E+03   0.106E+01 -.108E+01 0.241E+01   -.239E-02 0.691E-03 0.176E-03
   -.190E+02 0.189E+02 -.185E+03   0.179E+02 -.178E+02 0.183E+03   0.106E+01 -.109E+01 0.241E+01   -.910E-03 0.273E-03 0.892E-03
   0.259E+00 -.778E-01 0.209E+03   -.281E+00 0.669E-01 -.211E+03   0.170E-01 0.817E-02 0.206E+01   0.609E-03 0.876E-03 -.615E-03
   -.559E-01 -.702E-01 0.209E+03   0.605E-01 0.688E-01 -.211E+03   -.239E-02 0.191E-02 0.206E+01   -.140E-02 -.325E-03 -.945E-03
   0.259E+00 -.809E-01 0.209E+03   -.282E+00 0.701E-01 -.211E+03   0.168E-01 0.792E-02 0.207E+01   0.121E-02 0.116E-02 0.700E-04
   -.559E-01 -.696E-01 0.209E+03   0.605E-01 0.683E-01 -.211E+03   -.248E-02 0.179E-02 0.206E+01   -.136E-02 -.316E-03 -.102E-02
   -.517E+00 -.453E-01 0.199E+03   0.551E+00 0.512E-01 -.201E+03   -.228E-01 -.359E-02 0.207E+01   0.223E-02 -.189E-02 -.805E-03
   -.513E+00 -.463E-01 0.199E+03   0.546E+00 0.512E-01 -.201E+03   -.227E-01 -.369E-02 0.206E+01   0.289E-02 -.765E-03 0.449E-03
   0.197E-01 -.525E-01 0.199E+03   -.182E-01 0.512E-01 -.201E+03   0.108E-02 0.174E-02 0.206E+01   -.254E-02 -.392E-03 -.445E-03
   0.187E-01 -.525E-01 0.199E+03   -.173E-01 0.512E-01 -.201E+03   0.104E-02 0.200E-02 0.206E+01   -.233E-02 -.720E-03 -.102E-03
   -.205E-01 -.767E-01 -.199E+03   0.245E-01 0.796E-01 0.201E+03   -.630E-02 -.225E-02 -.206E+01   0.297E-02 -.750E-04 0.115E-02
   -.404E-01 -.250E-01 -.199E+03   0.399E-01 0.229E-01 0.201E+03   -.160E-02 0.251E-02 -.206E+01   0.225E-02 -.563E-03 -.375E-03
   -.272E-01 -.248E-01 -.199E+03   0.245E-01 0.228E-01 0.201E+03   -.901E-04 0.246E-02 -.206E+01   0.250E-02 -.621E-03 0.240E-03
   -.329E-01 -.760E-01 -.199E+03   0.399E-01 0.795E-01 0.201E+03   -.755E-02 -.218E-02 -.207E+01   0.173E-02 -.735E-03 0.181E-03
   -.723E-01 -.700E-01 -.209E+03   0.779E-01 0.685E-01 0.211E+03   -.387E-02 0.117E-02 -.206E+01   -.951E-03 0.475E-03 0.387E-04
   0.101E+00 -.776E-01 -.209E+03   -.109E+00 0.685E-01 0.211E+03   0.588E-02 0.787E-02 -.206E+01   0.281E-03 0.256E-03 0.752E-03
   -.369E-01 -.697E-01 -.209E+03   0.402E-01 0.685E-01 0.211E+03   -.233E-02 0.169E-02 -.206E+01   -.575E-03 -.447E-03 0.398E-03
   -.728E-03 -.694E-01 -.209E+03   -.328E-02 0.685E-01 0.211E+03   0.151E-02 0.167E-02 -.206E+01   0.199E-02 -.522E-03 0.107E-02
 -----------------------------------------------------------------------------------------------
   0.115E+00 -.139E+00 -.912E-03   0.583E-13 -.283E-12 -.284E-12   -.129E+00 0.171E+00 0.252E-03   0.148E-01 -.330E-01 0.655E-03
 
 
 POSITION                                       TOTAL-FORCE (eV/Angst)
 -----------------------------------------------------------------------------------
      2.77841      5.21785      1.58925         0.000437      0.000691      0.000127
      8.33453      5.21785      1.58910         0.000673     -0.000787      0.000138
      2.77841     10.77658      1.58925         0.000677     -0.000821     -0.000074
      8.33453     10.77658      1.58910         0.000429      0.000725     -0.000077
      0.01058      2.43861      1.89560        -0.040422      0.017972     -0.000063
      5.55670      2.43861      1.89545         0.000432     -0.000068      0.000046
      0.00058      7.99734      1.89560        -0.000359     -0.000027     -0.000005
      5.55670      7.99734      1.89545         0.000155      0.000069      0.000038
      2.78043      5.21797      8.30298         0.000302     -0.000048      0.000154
      8.33655      5.21797      8.30283        -0.000513      0.000245     -0.000436
      2.78043     10.77670      8.30298         0.000313     -0.000059     -0.000091
      8.33655     10.77670      8.30283        -0.000529      0.000250      0.000259
      0.00259      2.43849      8.60933         0.000075     -0.000228     -0.000526
      5.55871      2.43849      8.60919         0.000271     -0.000276      0.000486
      0.00259      7.99722      8.60933        -0.000113      0.000155     -0.000062
      5.55871      7.99722      8.60919         0.000076      0.000107      0.000029
     -1.37640      1.05960      8.18451         0.000727      0.000134      0.000499
      4.17971      1.05960      8.18437        -0.000628      0.000196     -0.000341
     -1.37640      6.61833      8.18451         0.000613     -0.000882      0.000632
      4.17971      6.61833      8.18437        -0.000005      0.000014     -0.000197
      1.38116      3.81753      8.18442        -0.000756      0.000265     -0.000076
      6.93728      3.81753      8.18427         0.000168      0.000336     -0.000208
      1.38116      9.37626      8.18442        -0.000175      0.000105     -0.000051
      6.93728      9.37626      8.18427         0.000057     -0.000643     -0.000499
      1.39985      1.03817      2.01416         0.010227     -0.003773     -0.000838
      6.95597      1.03817      2.01401        -0.001522     -0.000746      0.000359
      1.39985      6.59689      2.01416         0.000544     -0.000200      0.000237
      6.95597      6.59689      2.01401        -0.000158      0.000162      0.000034
      4.15741      3.83897      2.01406        -0.001896     -0.000948     -0.000344
      9.71353      3.83897      2.01392         0.009493     -0.003501      0.001012
      4.15741      9.39769      2.01406        -0.000487      0.000002     -0.000008
      9.71353      9.39769      2.01392         0.000183     -0.000363     -0.000134
      1.40044      3.83812      3.78391         0.001417     -0.000925     -0.001192
      6.95656      3.83812      3.78377        -0.000958      0.000089      0.000623
      1.40044      9.39685      3.78391         0.000212      0.000443     -0.000284
      6.95656      9.39685      3.78377        -0.000421     -0.000360      0.000153
      4.15774      1.03891      3.78384        -0.000905      0.000381     -0.000322
      9.71386      1.03891      3.78369         0.001630     -0.000585      0.001634
      4.15774      6.59764      3.78384        -0.000337     -0.000010      0.000153
      9.71386      6.59764      3.78369         0.000420      0.000736      0.000746
     -1.37674      3.81828      6.41474         0.000427      0.000472      0.000625
      4.17938      3.81828      6.41460        -0.000674      0.000204     -0.000519
     -1.37674      9.37700      6.41474         0.000134     -0.000321      0.000334
      4.17938      9.37700      6.41460        -0.000355      0.000136     -0.000453
      1.38057      1.05876      6.41466         0.000391      0.000121     -0.000447
      6.93668      1.05876      6.41452        -0.000342     -0.000068     -0.000408
      1.38057      6.61748      6.41466         0.000087     -0.000665     -0.000527
      6.93668      6.61748      6.41452        -0.000017     -0.000168     -0.000129
      1.38227      3.82822      0.00001         0.000879     -0.001154      0.001211
      6.93839      3.82822     -0.00014        -0.000846      0.000195     -0.000436
      1.38227      9.38694      0.00001         0.000346      0.000247      0.000562
      6.93839      9.38694     -0.00014        -0.000338     -0.000261      0.000049
      1.39874      1.04885     10.19857        -0.000931      0.000226      0.000338
      6.95485      1.04885     10.19843         0.000662     -0.001173     -0.001155
      1.39874      6.60758     10.19857        -0.000404     -0.000235     -0.000130
      6.95485      6.60758     10.19843         0.000183      0.000241     -0.000463
     -1.25763      1.18232      6.18371        -0.000746     -0.000437     -0.001514
      4.29848      1.18232      6.18356        -0.000020     -0.000032      0.000587
     -1.25763      6.74104      6.18371        -0.000511      0.000201     -0.000432
      4.29848      6.74104      6.18356        -0.000101      0.000092      0.000207
      1.26131      3.69462      6.18369        -0.000013     -0.000522      0.001307
      6.81742      3.69462      6.18354         0.000337     -0.000178     -0.000233
      1.26131      9.25335      6.18369         0.000111      0.000041      0.000187
      6.81742      9.25335      6.18354         0.000405     -0.000013      0.000168
      1.51970      0.91526      4.01489         0.000206     -0.002510      0.004862
      7.07582      0.91526      4.01474         0.000681      0.000040     -0.000305
      1.51970      6.47399      4.01489        -0.000435      0.000894     -0.000289
      7.07582      6.47399      4.01474        -0.000121     -0.000270     -0.000069
      4.03864      3.96168      4.01487         0.001286      0.000161      0.000444
      9.59476      3.96168      4.01472         0.000710     -0.002348     -0.005130
      4.03864      9.52041      4.01487         0.000466     -0.000142      0.000100
      9.59476      9.52041      4.01472         0.000090      0.001019      0.000132
      0.00035      5.21813      1.57032        -0.004852     -0.001771      0.001052
      5.55647      5.21813      1.57017         0.000746      0.000198     -0.000004
      0.00035     10.77686      1.57032        -0.004851     -0.001709     -0.000830
      5.55647     10.77686      1.57017         0.000744      0.000198      0.000321
      2.77849      2.43869      1.57537         0.013278      0.000449     -0.001018
      8.33461      2.43869      1.57522         0.013048      0.000456      0.000915
      2.77849      7.99742      1.57537         0.000108      0.000050     -0.000069
      8.33461      7.99742      1.57522         0.000114      0.000022     -0.000022
      0.00252      5.21805      8.62321         0.000714      0.000631     -0.000813
      5.55864      5.21805      8.62307         0.000077     -0.000143      0.000363
      0.00252     10.77678      8.62321        -0.000331     -0.000145     -0.000259
      5.55864     10.77678      8.62307         0.001106      0.000632      0.000874
      2.78066      2.43877      8.62826         0.000763      0.000139     -0.000051
      8.33677      2.43877      8.62811        -0.001397     -0.000980     -0.000207
      2.78066      7.99750      8.62826         0.000356      0.000064     -0.000004
      8.33677      7.99750      8.62811        -0.000515      0.000291     -0.000250
 -----------------------------------------------------------------------------------
    total drift:                                0.000677     -0.001535     -0.000006


--------------------------------------------------------------------------------------------------------



  FREE ENERGIE OF THE ION-ELECTRON SYSTEM (eV)
  ---------------------------------------------------
  free  energy   TOTEN  =      -489.21530375 eV

  energy  without entropy=     -489.21530375  energy(sigma->0) =     -489.21530375
 


--------------------------------------------------------------------------------------------------------


    POTLOK:  cpu time    3.3136: real time    3.3424


--------------------------------------------------------------------------------------------------------


     LOOP+:  cpu time 5906.3786: real time 5957.4954
    4ORBIT:  cpu time    0.0000: real time    0.0000

 total amount of memory used by VASP MPI-rank0  1233264. kBytes
=======================================================================

   base      :      30000. kBytes
   nonl-proj :      75226. kBytes
   fftplans  :      85054. kBytes
   grid      :      64684. kBytes
   one-center:        466. kBytes
   wavefun   :     977834. kBytes
 
  
  
 General timing and accounting informations for this job:
 ========================================================
  
                  Total CPU time used (sec):     6003.486
                            User time (sec):     5941.267
                          System time (sec):       62.219
                         Elapsed time (sec):     6059.252
  
                   Maximum memory used (kb):     1434216.
                   Average memory used (kb):           0.
  
                          Minor page faults:       839933
                          Major page faults:           10
                 Voluntary context switches:        59029
