<?xml version="1.0" encoding="ISO-8859-1"?>
<modeling>
 <generator>
  <i name="program" type="string">vasp </i>
  <i name="version" type="string">5.4.4.18Apr17-6-g9f103f2a35  </i>
  <i name="subversion" type="string">(build Oct 25 2017 14:42:18) complex            parallel </i>
  <i name="platform" type="string">LinuxIFC </i>
  <i name="date" type="string">2021 06 02 </i>
  <i name="time" type="string">13:38:52 </i>
 </generator>
 <incar>
  <i type="string" name="PREC">accurate</i>
  <i type="string" name="ALGO"> normal</i>
  <i type="logical" name="ADDGRID"> T  </i>
  <i type="int" name="ISPIN">     2</i>
  <i type="int" name="ICHARG">     1</i>
  <i type="int" name="NELM">   200</i>
  <i type="int" name="NELMIN">     8</i>
  <i name="EDIFF">      0.00000100</i>
  <i type="int" name="ISYM">     0</i>
  <i name="ENCUT">    650.00000000</i>
  <v name="MAGMOM">      0.60000000      0.60000000      0.60000000      0.60000000      0.60000000      0.60000000      0.60000000      0.60000000      0.60000000      0.60000000      0.60000000      0.60000000      0.60000000      0.60000000      0.60000000      0.60000000      0.60000000      0.60000000      0.60000000      0.60000000
      0.60000000      0.60000000      0.60000000      0.60000000      0.60000000      0.60000000      0.60000000      0.60000000      0.60000000      0.60000000      0.60000000      0.60000000      0.60000000      0.60000000      0.60000000      0.60000000      0.60000000      0.60000000      0.60000000      0.60000000
      0.60000000      0.60000000      0.60000000      0.60000000      0.60000000      0.60000000      0.60000000      0.60000000      0.60000000      0.60000000      0.60000000      0.60000000      0.60000000      0.60000000      0.60000000      0.60000000      5.00000000      5.00000000      5.00000000      5.00000000
      5.00000000      5.00000000      5.00000000      5.00000000      5.00000000      5.00000000      5.00000000      5.00000000      5.00000000      5.00000000      5.00000000      5.00000000      5.00000000      5.00000000      5.00000000      5.00000000      5.00000000      5.00000000      5.00000000      5.00000000
      5.00000000      5.00000000      5.00000000      5.00000000      5.00000000      5.00000000      5.00000000      5.00000000</v>
  <i type="logical" name="LREAL"> F  </i>
  <i type="int" name="ISMEAR">     0</i>
  <i name="SIGMA">      0.05000000</i>
  <i type="int" name="NWRITE">     1</i>
  <i type="int" name="LMAXMIX">     4</i>
  <i type="logical" name="LWAVE"> F  </i>
  <i type="logical" name="LASPH"> T  </i>
  <v type="int" name="KPOINT_BSE">    -1     0     0     0</v>
  <i type="int" name="NELM">   200</i>
  <i type="string" name="GGA"> pe</i>
  <i type="logical" name="LDAU"> T  </i>
  <v type="int" name="LDAUTYPE">     2</v>
  <v type="int" name="LDAUL">    -1    -1    -1     2</v>
  <v name="LDAUU">      0.00000000      0.00000000      0.00000000      4.00000000</v>
  <v name="LDAUJ">      0.00000000      0.00000000      0.00000000      0.00000000</v>
  <i type="logical" name="LASPH"> T  </i>
 </incar>
 <structure name="primitive_cell" >
  <crystal>
   <varray name="basis" >
    <v>      11.11223374       0.00000000      -0.00029034 </v>
    <v>       0.00000000      11.11745194       0.00000000 </v>
    <v>      -2.77510898       0.00000000      10.19872221 </v>
   </varray>
   <i name="volume">   1259.93837498 </i>
   <varray name="rec_basis" >
    <v>       0.08999155       0.00000000       0.02448702 </v>
    <v>       0.00000000       0.08994867       0.00000000 </v>
    <v>       0.00000256       0.00000000       0.09805220 </v>
   </varray>
  </crystal>
  <varray name="positions" >
   <v>       0.28894970       0.46933910       0.15583616 </v>
   <v>       0.17529533      -0.40661825       0.19749617 </v>
   <v>       0.42345029       0.34530995       0.19749407 </v>
   <v>       0.37560721      -0.40565694      -0.00000412 </v>
   <v>       0.12439279       0.34434306       0.00000412 </v>
   <v>      -0.46151602       0.46936404       0.15397331 </v>
   <v>       0.03848398       0.46936404       0.15397331 </v>
   <v>       0.28861657       0.21935690       0.15447525 </v>
   <v>       0.28861657      -0.28064310       0.15447525 </v>
   <v>       0.21868463       0.34523395       0.37102476 </v>
   <v>       0.46681660      -0.40655103       0.37102399 </v>
   <v>       0.23507288      -0.41767349       0.39367237 </v>
   <v>       0.46175575       0.35634799       0.39367694 </v>
   <v>       0.21138343       0.46935690      -0.15447525 </v>
   <v>       0.04736962       0.21934976       0.18586770 </v>
   <v>       0.04646972      -0.28065024       0.18586770 </v>
   <v>      -0.45353028       0.21934976       0.18586770 </v>
   <v>      -0.45353028      -0.28065024       0.18586770 </v>
   <v>       0.32470467       0.34338175      -0.19749617 </v>
   <v>       0.07654971      -0.40469005      -0.19749407 </v>
   <v>       0.21105030       0.21933910      -0.15583616 </v>
   <v>       0.21105030      -0.28066090      -0.15583616 </v>
   <v>      -0.07654971       0.34530995       0.19749407 </v>
   <v>      -0.32470467      -0.40661825       0.19749617 </v>
   <v>       0.17529533       0.09338175       0.19749617 </v>
   <v>       0.42345029      -0.15469005       0.19749407 </v>
   <v>       0.45353028       0.46934976      -0.18586770 </v>
   <v>      -0.04646972       0.46934976      -0.18586770 </v>
   <v>      -0.37560721       0.34434306       0.00000412 </v>
   <v>      -0.12439279      -0.40565694      -0.00000412 </v>
   <v>       0.37560721       0.09434306      -0.00000412 </v>
   <v>       0.12439279      -0.15565694       0.00000412 </v>
   <v>      -0.03318340      -0.40655103       0.37102399 </v>
   <v>      -0.28131537       0.34523395       0.37102476 </v>
   <v>       0.21868463      -0.15476605       0.37102476 </v>
   <v>       0.46681660       0.09344897       0.37102399 </v>
   <v>       0.46151602       0.21936404      -0.15397331 </v>
   <v>       0.46151602      -0.28063596      -0.15397331 </v>
   <v>      -0.03848398       0.21936404      -0.15397331 </v>
   <v>      -0.03848398      -0.28063596      -0.15397331 </v>
   <v>       0.26492712       0.33232651      -0.39367237 </v>
   <v>      -0.46175575      -0.39365201      -0.39367694 </v>
   <v>      -0.03824425       0.35634799       0.39367694 </v>
   <v>      -0.26492712      -0.41767349       0.39367237 </v>
   <v>       0.23507288       0.08232651       0.39367237 </v>
   <v>       0.46175575      -0.14365201       0.39367694 </v>
   <v>       0.28131537      -0.40476605      -0.37102476 </v>
   <v>      -0.46681660       0.34344897      -0.37102399 </v>
   <v>      -0.21105030       0.46933910       0.15583616 </v>
   <v>       0.28894970      -0.03066090       0.15583616 </v>
   <v>       0.32470467      -0.15661825      -0.19749617 </v>
   <v>       0.07654971       0.09530995      -0.19749407 </v>
   <v>      -0.42345029      -0.40469005      -0.19749407 </v>
   <v>      -0.17529533       0.34338175      -0.19749617 </v>
   <v>       0.03318340       0.34344897      -0.37102399 </v>
   <v>      -0.07654971      -0.15469005       0.19749407 </v>
   <v>      -0.32470467       0.09338175       0.19749617 </v>
   <v>       0.03824425      -0.39365201      -0.39367694 </v>
   <v>      -0.37560721      -0.15565694       0.00000412 </v>
   <v>      -0.12439279       0.09434306      -0.00000412 </v>
   <v>      -0.21138343       0.21935690       0.15447525 </v>
   <v>      -0.21138343      -0.28064310       0.15447525 </v>
   <v>      -0.46151602      -0.03063596       0.15397331 </v>
   <v>       0.03848398      -0.03063596       0.15397331 </v>
   <v>       0.26492712      -0.16767349      -0.39367237 </v>
   <v>      -0.46175575       0.10634799      -0.39367694 </v>
   <v>      -0.03318340       0.09344897       0.37102399 </v>
   <v>      -0.28131537      -0.15476605       0.37102476 </v>
   <v>      -0.23507288       0.33232651      -0.39367237 </v>
   <v>      -0.28861657       0.46935690      -0.15447525 </v>
   <v>       0.21138343      -0.03064310      -0.15447525 </v>
   <v>      -0.21868463      -0.40476605      -0.37102476 </v>
   <v>       0.28131537       0.09523395      -0.37102476 </v>
   <v>      -0.46681660      -0.15655103      -0.37102399 </v>
   <v>      -0.03824425      -0.14365201       0.39367694 </v>
   <v>      -0.26492712       0.08232651       0.39367237 </v>
   <v>      -0.42345029       0.09530995      -0.19749407 </v>
   <v>      -0.17529533      -0.15661825      -0.19749617 </v>
   <v>       0.03318340      -0.15655103      -0.37102399 </v>
   <v>      -0.28894970       0.21933910      -0.15583616 </v>
   <v>      -0.28894970      -0.28066090      -0.15583616 </v>
   <v>       0.03824425       0.10634799      -0.39367694 </v>
   <v>       0.45353028      -0.03065024      -0.18586770 </v>
   <v>      -0.04646972      -0.03065024      -0.18586770 </v>
   <v>      -0.23507288      -0.16767349      -0.39367237 </v>
   <v>      -0.21868463       0.09523395      -0.37102476 </v>
   <v>      -0.21105030      -0.03066090       0.15583616 </v>
   <v>      -0.28861657      -0.03064310      -0.15447525 </v>
  </varray>
 </structure>
 <varray name="primitive_index" >
  <v type="int" >        1 </v>
  <v type="int" >       27 </v>
  <v type="int" >       29 </v>
  <v type="int" >       55 </v>
  <v type="int" >       49 </v>
  <v type="int" >       74 </v>
  <v type="int" >       73 </v>
  <v type="int" >       77 </v>
  <v type="int" >       79 </v>
  <v type="int" >       33 </v>
  <v type="int" >       39 </v>
  <v type="int" >       67 </v>
  <v type="int" >       69 </v>
  <v type="int" >       81 </v>
  <v type="int" >        5 </v>
  <v type="int" >        7 </v>
  <v type="int" >        6 </v>
  <v type="int" >        8 </v>
  <v type="int" >       21 </v>
  <v type="int" >       19 </v>
  <v type="int" >       13 </v>
  <v type="int" >       15 </v>
  <v type="int" >       30 </v>
  <v type="int" >       28 </v>
  <v type="int" >       25 </v>
  <v type="int" >       31 </v>
  <v type="int" >        9 </v>
  <v type="int" >       10 </v>
  <v type="int" >       50 </v>
  <v type="int" >       56 </v>
  <v type="int" >       53 </v>
  <v type="int" >       51 </v>
  <v type="int" >       40 </v>
  <v type="int" >       34 </v>
  <v type="int" >       35 </v>
  <v type="int" >       37 </v>
  <v type="int" >       85 </v>
  <v type="int" >       87 </v>
  <v type="int" >       86 </v>
  <v type="int" >       88 </v>
  <v type="int" >       61 </v>
  <v type="int" >       60 </v>
  <v type="int" >       70 </v>
  <v type="int" >       68 </v>
  <v type="int" >       65 </v>
  <v type="int" >       71 </v>
  <v type="int" >       47 </v>
  <v type="int" >       42 </v>
  <v type="int" >        2 </v>
  <v type="int" >        3 </v>
  <v type="int" >       23 </v>
  <v type="int" >       17 </v>
  <v type="int" >       20 </v>
  <v type="int" >       22 </v>
  <v type="int" >       41 </v>
  <v type="int" >       32 </v>
  <v type="int" >       26 </v>
  <v type="int" >       59 </v>
  <v type="int" >       52 </v>
  <v type="int" >       54 </v>
  <v type="int" >       78 </v>
  <v type="int" >       80 </v>
  <v type="int" >       76 </v>
  <v type="int" >       75 </v>
  <v type="int" >       63 </v>
  <v type="int" >       58 </v>
  <v type="int" >       38 </v>
  <v type="int" >       36 </v>
  <v type="int" >       62 </v>
  <v type="int" >       82 </v>
  <v type="int" >       83 </v>
  <v type="int" >       48 </v>
  <v type="int" >       45 </v>
  <v type="int" >       44 </v>
  <v type="int" >       72 </v>
  <v type="int" >       66 </v>
  <v type="int" >       18 </v>
  <v type="int" >       24 </v>
  <v type="int" >       43 </v>
  <v type="int" >       14 </v>
  <v type="int" >       16 </v>
  <v type="int" >       57 </v>
  <v type="int" >       11 </v>
  <v type="int" >       12 </v>
  <v type="int" >       64 </v>
  <v type="int" >       46 </v>
  <v type="int" >        4 </v>
  <v type="int" >       84 </v>
 </varray>
 <kpoints>
  <generation param="Gamma">
   <v type="int" name="divisions">       3        3        3 </v>
   <v name="usershift">      0.00000000       0.00000000       0.00000000 </v>
   <v name="genvec1">      0.33333333       0.00000000       0.00000000 </v>
   <v name="genvec2">      0.00000000       0.33333333       0.00000000 </v>
   <v name="genvec3">      0.00000000       0.00000000       0.33333333 </v>
   <v name="shift">      0.00000000       0.00000000       0.00000000 </v>
  </generation>
  <varray name="kpointlist" >
   <v>       0.00000000       0.00000000       0.00000000 </v>
   <v>       0.33333333       0.00000000       0.00000000 </v>
   <v>       0.00000000       0.33333333       0.00000000 </v>
   <v>       0.33333333       0.33333333       0.00000000 </v>
   <v>      -0.33333333       0.33333333      -0.00000000 </v>
   <v>       0.00000000       0.00000000       0.33333333 </v>
   <v>       0.33333333       0.00000000       0.33333333 </v>
   <v>      -0.33333333       0.00000000       0.33333333 </v>
   <v>       0.00000000       0.33333333       0.33333333 </v>
   <v>       0.33333333       0.33333333       0.33333333 </v>
   <v>      -0.33333333       0.33333333       0.33333333 </v>
   <v>       0.00000000      -0.33333333       0.33333333 </v>
   <v>       0.33333333      -0.33333333       0.33333333 </v>
   <v>      -0.33333333      -0.33333333       0.33333333 </v>
  </varray>
  <varray name="weights" >
   <v>       0.03703704 </v>
   <v>       0.07407407 </v>
   <v>       0.07407407 </v>
   <v>       0.07407407 </v>
   <v>       0.07407407 </v>
   <v>       0.07407407 </v>
   <v>       0.07407407 </v>
   <v>       0.07407407 </v>
   <v>       0.07407407 </v>
   <v>       0.07407407 </v>
   <v>       0.07407407 </v>
   <v>       0.07407407 </v>
   <v>       0.07407407 </v>
   <v>       0.07407407 </v>
  </varray>
 </kpoints>
 <parameters>
  <separator name="general" >
   <i type="string" name="SYSTEM">unknown system</i>
   <i type="logical" name="LCOMPAT"> F  </i>
  </separator>
  <separator name="electronic" >
   <i type="string" name="PREC">accura</i>
   <i name="ENMAX">    650.00000000</i>
   <i name="ENAUG">    628.94500000</i>
   <i name="EDIFF">      0.00000100</i>
   <i type="int" name="IALGO">    38</i>
   <i type="int" name="IWAVPR">    10</i>
   <i type="int" name="NBANDS">   538</i>
   <i name="NELECT">    736.00000000</i>
   <i type="int" name="TURBO">     0</i>
   <i type="int" name="IRESTART">     0</i>
   <i type="int" name="NREBOOT">     0</i>
   <i type="int" name="NMIN">     0</i>
   <i name="EREF">      0.00000000</i>
   <separator name="electronic smearing" >
    <i type="int" name="ISMEAR">     0</i>
    <i name="SIGMA">      0.05000000</i>
    <i name="KSPACING">      0.50000000</i>
    <i type="logical" name="KGAMMA"> T  </i>
   </separator>
   <separator name="electronic projectors" >
    <i type="logical" name="LREAL"> F  </i>
    <v name="ROPT">      0.00000000      0.00000000      0.00000000      0.00000000</v>
    <i type="int" name="LMAXPAW">  -100</i>
    <i type="int" name="LMAXMIX">     4</i>
    <i type="logical" name="NLSPLINE"> F  </i>
   </separator>
   <separator name="electronic startup" >
    <i type="int" name="ISTART">     0</i>
    <i type="int" name="ICHARG">     1</i>
    <i type="int" name="INIWAV">     1</i>
   </separator>
   <separator name="electronic spin" >
    <i type="int" name="ISPIN">     2</i>
    <i type="logical" name="LNONCOLLINEAR"> F  </i>
    <v name="MAGMOM">      0.60000000      0.60000000      0.60000000      0.60000000      0.60000000      0.60000000      0.60000000      0.60000000      0.60000000      0.60000000      0.60000000      0.60000000      0.60000000      0.60000000      0.60000000      0.60000000      0.60000000      0.60000000      0.60000000      0.60000000
      0.60000000      0.60000000      0.60000000      0.60000000      0.60000000      0.60000000      0.60000000      0.60000000      0.60000000      0.60000000      0.60000000      0.60000000      0.60000000      0.60000000      0.60000000      0.60000000      0.60000000      0.60000000      0.60000000      0.60000000
      0.60000000      0.60000000      0.60000000      0.60000000      0.60000000      0.60000000      0.60000000      0.60000000      0.60000000      0.60000000      0.60000000      0.60000000      0.60000000      0.60000000      0.60000000      0.60000000      5.00000000      5.00000000      5.00000000      5.00000000
      5.00000000      5.00000000      5.00000000      5.00000000      5.00000000      5.00000000      5.00000000      5.00000000      5.00000000      5.00000000      5.00000000      5.00000000      5.00000000      5.00000000      5.00000000      5.00000000      5.00000000      5.00000000      5.00000000      5.00000000
      5.00000000      5.00000000      5.00000000      5.00000000      5.00000000      5.00000000      5.00000000      5.00000000</v>
    <i name="NUPDOWN">     -1.00000000</i>
    <i type="logical" name="LSORBIT"> F  </i>
    <v name="SAXIS">      0.00000000      0.00000000      1.00000000</v>
    <i type="logical" name="LSPIRAL"> F  </i>
    <v name="QSPIRAL">      0.00000000      0.00000000      0.00000000</v>
    <i type="logical" name="LZEROZ"> F  </i>
   </separator>
   <separator name="electronic exchange-correlation" >
    <i type="logical" name="LASPH"> T  </i>
    <i type="logical" name="LMETAGGA"> F  </i>
   </separator>
   <separator name="electronic convergence" >
    <i type="int" name="NELM">   200</i>
    <i type="int" name="NELMDL">     0</i>
    <i type="int" name="NELMIN">     8</i>
    <i name="ENINI">    650.00000000</i>
    <separator name="electronic convergence detail" >
     <i type="logical" name="LDIAG"> T  </i>
     <i type="logical" name="LSUBROT"> F  </i>
     <i name="WEIMIN">      0.00000000</i>
     <i name="EBREAK">      0.00000000</i>
     <i name="DEPER">      0.30000000</i>
     <i type="int" name="NRMM">     4</i>
     <i name="TIME">      0.40000000</i>
    </separator>
   </separator>
   <separator name="electronic mixer" >
    <i name="AMIX">      0.40000000</i>
    <i name="BMIX">      1.00000000</i>
    <i name="AMIN">      0.10000000</i>
    <i name="AMIX_MAG">      1.60000000</i>
    <i name="BMIX_MAG">      1.00000000</i>
    <separator name="electronic mixer details" >
     <i type="int" name="IMIX">     4</i>
     <i type="logical" name="MIXFIRST"> F  </i>
     <i type="int" name="MAXMIX">   -45</i>
     <i name="WC">    100.00000000</i>
     <i type="int" name="INIMIX">     1</i>
     <i type="int" name="MIXPRE">     1</i>
     <i type="int" name="MREMOVE">     5</i>
    </separator>
   </separator>
   <separator name="electronic dipolcorrection" >
    <i type="logical" name="LDIPOL"> F  </i>
    <i type="logical" name="LMONO"> F  </i>
    <i type="int" name="IDIPOL">     0</i>
    <i name="EPSILON">      1.00000000</i>
    <v name="DIPOL">   -100.00000000   -100.00000000   -100.00000000</v>
    <i name="EFIELD">      0.00000000</i>
   </separator>
  </separator>
  <separator name="grids" >
   <i type="int" name="NGX">    96</i>
   <i type="int" name="NGY">    96</i>
   <i type="int" name="NGZ">    90</i>
   <i type="int" name="NGXF">   192</i>
   <i type="int" name="NGYF">   192</i>
   <i type="int" name="NGZF">   180</i>
   <i type="logical" name="ADDGRID"> T  </i>
  </separator>
  <separator name="ionic" >
   <i type="int" name="NSW">     0</i>
   <i type="int" name="IBRION">    -1</i>
   <i type="int" name="MDALGO">     0</i>
   <i type="int" name="ISIF">     2</i>
   <i name="PSTRESS">      0.00000000</i>
   <i name="EDIFFG">      0.00001000</i>
   <i type="int" name="NFREE">     0</i>
   <i name="POTIM">      0.50000000</i>
   <i name="SMASS">     -3.00000000</i>
   <i name="SCALEE">      1.00000000</i>
  </separator>
  <separator name="ionic md" >
   <i name="TEBEG">      0.00010000</i>
   <i name="TEEND">      0.00010000</i>
   <i type="int" name="NBLOCK">     1</i>
   <i type="int" name="KBLOCK">     1</i>
   <i type="int" name="NPACO">   256</i>
   <i name="APACO">     16.00000000</i>
  </separator>
  <separator name="symmetry" >
   <i type="int" name="ISYM">     0</i>
   <i name="SYMPREC">      0.00001000</i>
  </separator>
  <separator name="dos" >
   <i type="int" name="LORBIT">     0</i>
   <v name="RWIGS">     -1.00000000     -1.00000000     -1.00000000     -1.00000000</v>
   <i type="int" name="NEDOS">   301</i>
   <i name="EMIN">     10.00000000</i>
   <i name="EMAX">    -10.00000000</i>
   <i name="EFERMI">      0.00000000</i>
  </separator>
  <separator name="writing" >
   <i type="int" name="NWRITE">     1</i>
   <i type="logical" name="LWAVE"> F  </i>
   <i type="logical" name="LDOWNSAMPLE"> F  </i>
   <i type="logical" name="LCHARG"> T  </i>
   <i type="logical" name="LPARD"> F  </i>
   <i type="logical" name="LVTOT"> F  </i>
   <i type="logical" name="LVHAR"> F  </i>
   <i type="logical" name="LELF"> F  </i>
   <i type="logical" name="LOPTICS"> F  </i>
   <v name="STM">      0.00000000      0.00000000      0.00000000      0.00000000      0.00000000      0.00000000      0.00000000</v>
  </separator>
  <separator name="performance" >
   <i type="int" name="NPAR">     2</i>
   <i type="int" name="NSIM">     4</i>
   <i type="int" name="NBLK">    -1</i>
   <i type="logical" name="LPLANE"> T  </i>
   <i type="logical" name="LSCALAPACK"> T  </i>
   <i type="logical" name="LSCAAWARE"> F  </i>
   <i type="logical" name="LSCALU"> F  </i>
   <i type="logical" name="LASYNC"> F  </i>
   <i type="logical" name="LORBITALREAL"> F  </i>
  </separator>
  <separator name="miscellaneous" >
   <i type="int" name="IDIOT">     3</i>
   <i type="int" name="ISPECIAL">     0</i>
   <i type="logical" name="LMUSIC"> F  </i>
   <v name="POMASS">      7.01000000     16.00000000     32.06600000     55.84700000</v>
   <v name="DARWINR">      0.00000000      0.00000000      0.00000000      0.00000000</v>
   <v name="DARWINV">      1.00000000      1.00000000      1.00000000      1.00000000</v>
   <i type="logical" name="LCORR"> T  </i>
  </separator>
  <i type="logical" name="GGA_COMPAT"> T  </i>
  <i type="logical" name="LBERRY"> F  </i>
  <i type="int" name="ICORELEVEL">     0</i>
  <i type="logical" name="LDAU"> T  </i>
  <v type="int" name="LDAUTYPE">     2</v>
  <v type="int" name="LDAUL">    -1</v>
  <v name="LDAUU">      0.00000000</v>
  <v name="LDAUJ">      0.00000000</v>
  <i type="int" name="LDAUPRINT">     0</i>
  <i type="int" name="I_CONSTRAINED_M">     0</i>
  <separator name="electronic exchange-correlation" >
   <i type="string" name="GGA">PE</i>
   <i type="int" name="VOSKOWN">     0</i>
   <i type="logical" name="LHFCALC"> F  </i>
   <i type="string" name="PRECFOCK"></i>
   <i type="logical" name="LSYMGRAD"> F  </i>
   <i type="logical" name="LHFONE"> F  </i>
   <i type="logical" name="LRHFCALC"> F  </i>
   <i type="logical" name="LTHOMAS"> F  </i>
   <i type="logical" name="LMODELHF"> F  </i>
   <i name="ENCUT4O">     -1.00000000</i>
   <i type="int" name="EXXOEP">     0</i>
   <i type="int" name="FOURORBIT">     0</i>
   <i name="AEXX">      0.00000000</i>
   <i name="HFALPHA">      0.00000000</i>
   <i name="MCALPHA">      0.00000000</i>
   <i name="ALDAX">      1.00000000</i>
   <i name="AGGAX">      1.00000000</i>
   <i name="ALDAC">      1.00000000</i>
   <i name="AGGAC">      1.00000000</i>
   <i type="int" name="NKREDX">     1</i>
   <i type="int" name="NKREDY">     1</i>
   <i type="int" name="NKREDZ">     1</i>
   <i type="logical" name="SHIFTRED"> F  </i>
   <i type="logical" name="ODDONLY"> F  </i>
   <i type="logical" name="EVENONLY"> F  </i>
   <i type="int" name="LMAXFOCK">     0</i>
   <i type="int" name="NMAXFOCKAE">     0</i>
   <i type="logical" name="LFOCKAEDFT"> F  </i>
   <i name="HFSCREEN">      0.00000000</i>
   <i name="HFSCREENC">      0.00000000</i>
   <i type="int" name="NBANDSGWLOW">     0</i>
  </separator>
  <separator name="vdW DFT" >
   <i type="logical" name="LUSE_VDW"> F  </i>
   <i name="Zab_VDW">     -0.84910000</i>
   <i name="PARAM1">      0.12340000</i>
   <i name="PARAM2">      1.00000000</i>
   <i name="PARAM3">      0.00000000</i>
  </separator>
  <separator name="model GW" >
   <i type="int" name="MODEL_GW">     0</i>
   <i name="MODEL_EPS0">      8.59048892</i>
   <i name="MODEL_ALPHA">      1.00000000</i>
  </separator>
  <separator name="linear response parameters" >
   <i type="logical" name="LEPSILON"> F  </i>
   <i type="logical" name="LRPA"> F  </i>
   <i type="logical" name="LNABLA"> F  </i>
   <i type="logical" name="LVEL"> F  </i>
   <i type="int" name="KINTER">     0</i>
   <i name="CSHIFT">      0.10000000</i>
   <i name="OMEGAMAX">     -1.00000000</i>
   <i name="DEG_THRESHOLD">      0.00200000</i>
   <i name="RTIME">     -0.10000000</i>
   <i name="WPLASMAI">      0.00000000</i>
   <v name="DFIELD">      0.00000000      0.00000000      0.00000000</v>
   <v name="WPLASMA">      0.00000000      0.00000000      0.00000000      0.00000000      0.00000000      0.00000000      0.00000000      0.00000000      0.00000000</v>
  </separator>
  <separator name="orbital magnetization" >
   <i type="logical" name="NUCIND"> F  </i>
   <v name="MAGPOS">      0.00000000      0.00000000      0.00000000</v>
   <i type="logical" name="LNICSALL"> T  </i>
   <i type="logical" name="ORBITALMAG"> F  </i>
   <i type="logical" name="LMAGBLOCH"> F  </i>
   <i type="logical" name="LCHIMAG"> F  </i>
   <i type="logical" name="LGAUGE"> T  </i>
   <i type="int" name="MAGATOM">     0</i>
   <v name="MAGDIPOL">      0.00000000      0.00000000      0.00000000</v>
   <v name="AVECCONST">      0.00000000      0.00000000      0.00000000</v>
  </separator>
  <separator name="response functions" >
   <i type="logical" name="LADDER"> F  </i>
   <i type="logical" name="LRPAFORCE"> F  </i>
   <i type="logical" name="LFXC"> F  </i>
   <i type="logical" name="LHARTREE"> T  </i>
   <i type="int" name="IBSE">     0</i>
   <v type="int" name="KPOINT">    -1     0     0     0</v>
   <i type="logical" name="LTCTE"> F  </i>
   <i type="logical" name="LTETE"> F  </i>
   <i type="logical" name="LTRIPLET"> F  </i>
   <i type="logical" name="LFXCEPS"> F  </i>
   <i type="logical" name="LFXHEG"> F  </i>
   <i type="int" name="NATURALO">     2</i>
   <i type="logical" name="L2ORDER"> F  </i>
   <i type="logical" name="LMP2LT"> F  </i>
   <i type="logical" name="LUSEW"> F  </i>
   <i name="ENCUTGW">     -2.00000000</i>
   <i name="ENCUTGWSOFT">     -2.00000000</i>
   <i name="ENCUTLF">     -1.00000000</i>
   <i type="int" name="LMAXMP2">    -1</i>
   <i name="SCISSOR">      0.00000000</i>
   <i type="int" name="NOMEGA">     0</i>
   <i type="int" name="NOMEGAR">     0</i>
   <i type="int" name="NBANDSGW">    -1</i>
   <i type="int" name="NBANDSO">    -1</i>
   <i type="int" name="NBANDSV">    -1</i>
   <i type="int" name="NELM">   200</i>
   <i type="int" name="NELMHF">     1</i>
   <i type="int" name="DIM">     3</i>
   <i type="int" name="ANTIRES">     0</i>
   <i name="OMEGAMAX">    -30.00000000</i>
   <i name="OMEGAMIN">    -30.00000000</i>
   <i name="OMEGATL">   -200.00000000</i>
   <i type="int" name="OMEGAGRID">   140</i>
   <i name="CSHIFT">     -0.10000000</i>
   <i type="logical" name="SELFENERGY"> F  </i>
   <i type="logical" name="LSPECTRAL"> F  </i>
   <i type="logical" name="LSPECTRALGW"> F  </i>
   <i type="logical" name="LSINGLES"> F  </i>
   <i type="logical" name="LFERMIGW"> F  </i>
   <i type="logical" name="ODDONLYGW"> F  </i>
   <i type="logical" name="EVENONLYGW"> F  </i>
   <i type="int" name="NKREDLFX">     1</i>
   <i type="int" name="NKREDLFY">     1</i>
   <i type="int" name="NKREDLFZ">     1</i>
   <i type="int" name="MAXMEM">  2800</i>
   <i type="int" name="TELESCOPE">     0</i>
   <i type="int" name="TAUPAR">     1</i>
   <i type="int" name="OMEGAPAR">    -1</i>
   <i name="LAMBDA">      1.00000000</i>
  </separator>
  <separator name="External order field" >
   <i name="OFIELD_KAPPA">      0.00000000</i>
   <v name="OFIELD_K">      0.00000000      0.00000000      0.00000000</v>
   <i name="OFIELD_Q6_NEAR">      0.00000000</i>
   <i name="OFIELD_Q6_FAR">      0.00000000</i>
   <i name="OFIELD_A">      0.00000000</i>
  </separator>
 </parameters>
 <atominfo>
  <atoms>      88 </atoms>
  <types>       4 </types>
  <array name="atoms" >
   <dimension dim="1">ion</dimension>
   <field type="string">element</field>
   <field type="int">atomtype</field>
   <set>
    <rc><c>Li</c><c>   1</c></rc>
    <rc><c>Li</c><c>   1</c></rc>
    <rc><c>Li</c><c>   1</c></rc>
    <rc><c>Li</c><c>   1</c></rc>
    <rc><c>Li</c><c>   1</c></rc>
    <rc><c>Li</c><c>   1</c></rc>
    <rc><c>Li</c><c>   1</c></rc>
    <rc><c>Li</c><c>   1</c></rc>
    <rc><c>Li</c><c>   1</c></rc>
    <rc><c>Li</c><c>   1</c></rc>
    <rc><c>Li</c><c>   1</c></rc>
    <rc><c>Li</c><c>   1</c></rc>
    <rc><c>Li</c><c>   1</c></rc>
    <rc><c>Li</c><c>   1</c></rc>
    <rc><c>Li</c><c>   1</c></rc>
    <rc><c>Li</c><c>   1</c></rc>
    <rc><c>O </c><c>   2</c></rc>
    <rc><c>O </c><c>   2</c></rc>
    <rc><c>O </c><c>   2</c></rc>
    <rc><c>O </c><c>   2</c></rc>
    <rc><c>O </c><c>   2</c></rc>
    <rc><c>O </c><c>   2</c></rc>
    <rc><c>O </c><c>   2</c></rc>
    <rc><c>O </c><c>   2</c></rc>
    <rc><c>O </c><c>   2</c></rc>
    <rc><c>O </c><c>   2</c></rc>
    <rc><c>O </c><c>   2</c></rc>
    <rc><c>O </c><c>   2</c></rc>
    <rc><c>O </c><c>   2</c></rc>
    <rc><c>O </c><c>   2</c></rc>
    <rc><c>O </c><c>   2</c></rc>
    <rc><c>O </c><c>   2</c></rc>
    <rc><c>S </c><c>   3</c></rc>
    <rc><c>S </c><c>   3</c></rc>
    <rc><c>S </c><c>   3</c></rc>
    <rc><c>S </c><c>   3</c></rc>
    <rc><c>S </c><c>   3</c></rc>
    <rc><c>S </c><c>   3</c></rc>
    <rc><c>S </c><c>   3</c></rc>
    <rc><c>S </c><c>   3</c></rc>
    <rc><c>S </c><c>   3</c></rc>
    <rc><c>S </c><c>   3</c></rc>
    <rc><c>S </c><c>   3</c></rc>
    <rc><c>S </c><c>   3</c></rc>
    <rc><c>S </c><c>   3</c></rc>
    <rc><c>S </c><c>   3</c></rc>
    <rc><c>S </c><c>   3</c></rc>
    <rc><c>S </c><c>   3</c></rc>
    <rc><c>S </c><c>   3</c></rc>
    <rc><c>S </c><c>   3</c></rc>
    <rc><c>S </c><c>   3</c></rc>
    <rc><c>S </c><c>   3</c></rc>
    <rc><c>S </c><c>   3</c></rc>
    <rc><c>S </c><c>   3</c></rc>
    <rc><c>S </c><c>   3</c></rc>
    <rc><c>S </c><c>   3</c></rc>
    <rc><c>Fe</c><c>   4</c></rc>
    <rc><c>Fe</c><c>   4</c></rc>
    <rc><c>Fe</c><c>   4</c></rc>
    <rc><c>Fe</c><c>   4</c></rc>
    <rc><c>Fe</c><c>   4</c></rc>
    <rc><c>Fe</c><c>   4</c></rc>
    <rc><c>Fe</c><c>   4</c></rc>
    <rc><c>Fe</c><c>   4</c></rc>
    <rc><c>Fe</c><c>   4</c></rc>
    <rc><c>Fe</c><c>   4</c></rc>
    <rc><c>Fe</c><c>   4</c></rc>
    <rc><c>Fe</c><c>   4</c></rc>
    <rc><c>Fe</c><c>   4</c></rc>
    <rc><c>Fe</c><c>   4</c></rc>
    <rc><c>Fe</c><c>   4</c></rc>
    <rc><c>Fe</c><c>   4</c></rc>
    <rc><c>Fe</c><c>   4</c></rc>
    <rc><c>Fe</c><c>   4</c></rc>
    <rc><c>Fe</c><c>   4</c></rc>
    <rc><c>Fe</c><c>   4</c></rc>
    <rc><c>Fe</c><c>   4</c></rc>
    <rc><c>Fe</c><c>   4</c></rc>
    <rc><c>Fe</c><c>   4</c></rc>
    <rc><c>Fe</c><c>   4</c></rc>
    <rc><c>Fe</c><c>   4</c></rc>
    <rc><c>Fe</c><c>   4</c></rc>
    <rc><c>Fe</c><c>   4</c></rc>
    <rc><c>Fe</c><c>   4</c></rc>
    <rc><c>Fe</c><c>   4</c></rc>
    <rc><c>Fe</c><c>   4</c></rc>
    <rc><c>Fe</c><c>   4</c></rc>
    <rc><c>Fe</c><c>   4</c></rc>
   </set>
  </array>
  <array name="atomtypes" >
   <dimension dim="1">type</dimension>
   <field type="int">atomspertype</field>
   <field type="string">element</field>
   <field>mass</field>
   <field>valence</field>
   <field type="string">pseudopotential</field>
   <set>
    <rc><c>  16</c><c>Li</c><c>      7.01000000</c><c>      3.00000000</c><c>  PAW_PBE Li_sv 10Sep2004               </c></rc>
    <rc><c>  16</c><c>O </c><c>     16.00000000</c><c>      6.00000000</c><c>  PAW_PBE O 08Apr2002                   </c></rc>
    <rc><c>  24</c><c>S </c><c>     32.06600000</c><c>      6.00000000</c><c>  PAW_PBE S 06Sep2000                   </c></rc>
    <rc><c>  32</c><c>Fe</c><c>     55.84700000</c><c>     14.00000000</c><c>  PAW_PBE Fe_pv 02Aug2007               </c></rc>
   </set>
  </array>
 </atominfo>
 <structure name="initialpos" >
  <crystal>
   <varray name="basis" >
    <v>      11.11223374       0.00000000      -0.00029034 </v>
    <v>       0.00000000      11.11745194       0.00000000 </v>
    <v>      -2.77510898       0.00000000      10.19872221 </v>
   </varray>
   <i name="volume">   1259.93837498 </i>
   <varray name="rec_basis" >
    <v>       0.08999155       0.00000000       0.02448702 </v>
    <v>       0.00000000       0.08994867       0.00000000 </v>
    <v>       0.00000256       0.00000000       0.09805220 </v>
   </varray>
  </crystal>
  <varray name="positions" >
   <v>       0.28894969       0.46933910       0.15583616 </v>
   <v>       0.78894969       0.46933910       0.15583616 </v>
   <v>       0.28894969       0.96933910       0.15583616 </v>
   <v>       0.78894969       0.96933910       0.15583616 </v>
   <v>       0.04736962       0.21934976       0.18586770 </v>
   <v>       0.54646972       0.21934976       0.18586770 </v>
   <v>       0.04646972       0.71934976       0.18586770 </v>
   <v>       0.54646972       0.71934976       0.18586770 </v>
   <v>       0.45353028       0.46934976       0.81413230 </v>
   <v>       0.95353028       0.46934976       0.81413230 </v>
   <v>       0.45353028       0.96934976       0.81413230 </v>
   <v>       0.95353028       0.96934976       0.81413230 </v>
   <v>       0.21105031       0.21933910       0.84416384 </v>
   <v>       0.71105031       0.21933910       0.84416384 </v>
   <v>       0.21105031       0.71933910       0.84416384 </v>
   <v>       0.71105031       0.71933910       0.84416384 </v>
   <v>       0.07654971       0.09530995       0.80250593 </v>
   <v>       0.57654971       0.09530995       0.80250593 </v>
   <v>       0.07654971       0.59530995       0.80250593 </v>
   <v>       0.57654971       0.59530995       0.80250593 </v>
   <v>       0.32470466       0.34338175       0.80250383 </v>
   <v>       0.82470466       0.34338175       0.80250383 </v>
   <v>       0.32470466       0.84338175       0.80250383 </v>
   <v>       0.82470466       0.84338175       0.80250383 </v>
   <v>       0.17529534       0.09338175       0.19749617 </v>
   <v>       0.67529534       0.09338175       0.19749617 </v>
   <v>       0.17529534       0.59338175       0.19749617 </v>
   <v>       0.67529534       0.59338175       0.19749617 </v>
   <v>       0.42345029       0.34530995       0.19749407 </v>
   <v>       0.92345029       0.34530995       0.19749407 </v>
   <v>       0.42345029       0.84530995       0.19749407 </v>
   <v>       0.92345029       0.84530995       0.19749407 </v>
   <v>       0.21868463       0.34523395       0.37102476 </v>
   <v>       0.71868463       0.34523395       0.37102476 </v>
   <v>       0.21868463       0.84523395       0.37102476 </v>
   <v>       0.71868463       0.84523395       0.37102476 </v>
   <v>       0.46681660       0.09344897       0.37102399 </v>
   <v>       0.96681660       0.09344897       0.37102399 </v>
   <v>       0.46681660       0.59344897       0.37102399 </v>
   <v>       0.96681660       0.59344897       0.37102399 </v>
   <v>       0.03318340       0.34344897       0.62897601 </v>
   <v>       0.53318340       0.34344897       0.62897601 </v>
   <v>       0.03318340       0.84344897       0.62897601 </v>
   <v>       0.53318340       0.84344897       0.62897601 </v>
   <v>       0.28131537       0.09523395       0.62897524 </v>
   <v>       0.78131537       0.09523395       0.62897524 </v>
   <v>       0.28131537       0.59523395       0.62897524 </v>
   <v>       0.78131537       0.59523395       0.62897524 </v>
   <v>       0.12439279       0.34434306       0.00000412 </v>
   <v>       0.62439279       0.34434306       0.00000412 </v>
   <v>       0.12439279       0.84434306       0.00000412 </v>
   <v>       0.62439279       0.84434306       0.00000412 </v>
   <v>       0.37560721       0.09434306       0.99999588 </v>
   <v>       0.87560721       0.09434306       0.99999588 </v>
   <v>       0.37560721       0.59434306       0.99999588 </v>
   <v>       0.87560721       0.59434306       0.99999588 </v>
   <v>       0.03824426       0.10634799       0.60632306 </v>
   <v>       0.53824426       0.10634799       0.60632306 </v>
   <v>       0.03824426       0.60634799       0.60632306 </v>
   <v>       0.53824426       0.60634799       0.60632306 </v>
   <v>       0.26492712       0.33232651       0.60632763 </v>
   <v>       0.76492712       0.33232651       0.60632763 </v>
   <v>       0.26492712       0.83232651       0.60632763 </v>
   <v>       0.76492712       0.83232651       0.60632763 </v>
   <v>       0.23507288       0.08232651       0.39367237 </v>
   <v>       0.73507288       0.08232651       0.39367237 </v>
   <v>       0.23507288       0.58232651       0.39367237 </v>
   <v>       0.73507288       0.58232651       0.39367237 </v>
   <v>       0.46175574       0.35634799       0.39367694 </v>
   <v>       0.96175574       0.35634799       0.39367694 </v>
   <v>       0.46175574       0.85634799       0.39367694 </v>
   <v>       0.96175574       0.85634799       0.39367694 </v>
   <v>       0.03848398       0.46936404       0.15397331 </v>
   <v>       0.53848398       0.46936404       0.15397331 </v>
   <v>       0.03848398       0.96936404       0.15397331 </v>
   <v>       0.53848398       0.96936404       0.15397331 </v>
   <v>       0.28861657       0.21935690       0.15447525 </v>
   <v>       0.78861657       0.21935690       0.15447525 </v>
   <v>       0.28861657       0.71935690       0.15447525 </v>
   <v>       0.78861657       0.71935690       0.15447525 </v>
   <v>       0.21138343       0.46935690       0.84552475 </v>
   <v>       0.71138343       0.46935690       0.84552475 </v>
   <v>       0.21138343       0.96935690       0.84552475 </v>
   <v>       0.71138343       0.96935690       0.84552475 </v>
   <v>       0.46151602       0.21936404       0.84602669 </v>
   <v>       0.96151602       0.21936404       0.84602669 </v>
   <v>       0.46151602       0.71936404       0.84602669 </v>
   <v>       0.96151602       0.71936404       0.84602669 </v>
  </varray>
 </structure>
 <calculation>
  <scstep>
   <time name="dav">  314.51  317.38</time>
   <time name="total">  317.86  320.79</time>
   <energy>
    <i name="alphaZ">   2314.49656628 </i>
    <i name="ewald"> -57723.03674834 </i>
    <i name="hartreedc"> -30348.88279623 </i>
    <i name="XCdc">   3229.29963500 </i>
    <i name="pawpsdc">  92679.89207989 </i>
    <i name="pawaedc"> -95535.38516353 </i>
    <i name="eentropy">     -0.01870233 </i>
    <i name="bandstr">    349.80429301 </i>
    <i name="atom">  95443.47970955 </i>
    <i name="e_fr_energy">  10409.64887330 </i>
    <i name="e_wo_entrp">  10409.66757563 </i>
    <i name="e_0_energy">  10409.65822447 </i>
   </energy>
  </scstep>
  <scstep>
   <time name="dav">  308.62  311.42</time>
   <time name="total">  308.63  311.43</time>
   <energy>
    <i name="e_fr_energy">   1177.49071280 </i>
    <i name="e_wo_entrp">   1177.55654768 </i>
    <i name="e_0_energy">   1177.52363024 </i>
   </energy>
  </scstep>
  <scstep>
   <time name="dav">  326.59  329.30</time>
   <time name="total">  326.59  329.30</time>
   <energy>
    <i name="e_fr_energy">   -308.22135513 </i>
    <i name="e_wo_entrp">   -308.22135513 </i>
    <i name="e_0_energy">   -308.22135513 </i>
   </energy>
  </scstep>
  <scstep>
   <time name="dav">  347.52  350.77</time>
   <time name="total">  347.52  350.77</time>
   <energy>
    <i name="e_fr_energy">   -476.30761113 </i>
    <i name="e_wo_entrp">   -476.30761113 </i>
    <i name="e_0_energy">   -476.30761113 </i>
   </energy>
  </scstep>
  <scstep>
   <time name="dav">  461.45  465.03</time>
   <time name="total">  470.69  474.44</time>
   <energy>
    <i name="e_fr_energy">   -488.73317572 </i>
    <i name="e_wo_entrp">   -488.73317572 </i>
    <i name="e_0_energy">   -488.73317572 </i>
   </energy>
  </scstep>
  <scstep>
   <time name="dav">  405.07  408.32</time>
   <time name="total">  417.66  421.08</time>
   <energy>
    <i name="e_fr_energy">   -489.20062970 </i>
    <i name="e_wo_entrp">   -489.20062970 </i>
    <i name="e_0_energy">   -489.20062970 </i>
   </energy>
  </scstep>
  <scstep>
   <time name="dav">  434.05  437.87</time>
   <time name="total">  446.78  450.68</time>
   <energy>
    <i name="e_fr_energy">   -489.21730520 </i>
    <i name="e_wo_entrp">   -489.21730520 </i>
    <i name="e_0_energy">   -489.21730520 </i>
   </energy>
  </scstep>
  <scstep>
   <time name="dav">  405.54  409.17</time>
   <time name="total">  418.16  421.90</time>
   <energy>
    <i name="e_fr_energy">   -489.21678011 </i>
    <i name="e_wo_entrp">   -489.21678011 </i>
    <i name="e_0_energy">   -489.21678011 </i>
   </energy>
  </scstep>
  <scstep>
   <time name="dav">  438.20  442.05</time>
   <time name="total">  450.90  454.83</time>
   <energy>
    <i name="e_fr_energy">   -489.21644690 </i>
    <i name="e_wo_entrp">   -489.21644690 </i>
    <i name="e_0_energy">   -489.21644690 </i>
   </energy>
  </scstep>
  <scstep>
   <time name="dav">  412.78  416.52</time>
   <time name="total">  425.35  429.30</time>
   <energy>
    <i name="e_fr_energy">   -489.21600219 </i>
    <i name="e_wo_entrp">   -489.21600219 </i>
    <i name="e_0_energy">   -489.21600219 </i>
   </energy>
  </scstep>
  <scstep>
   <time name="dav">  408.26  411.60</time>
   <time name="total">  420.97  424.39</time>
   <energy>
    <i name="e_fr_energy">   -489.21538025 </i>
    <i name="e_wo_entrp">   -489.21538025 </i>
    <i name="e_0_energy">   -489.21538025 </i>
   </energy>
  </scstep>
  <scstep>
   <time name="dav">  360.65  363.60</time>
   <time name="total">  373.40  376.41</time>
   <energy>
    <i name="e_fr_energy">   -489.21529859 </i>
    <i name="e_wo_entrp">   -489.21529859 </i>
    <i name="e_0_energy">   -489.21529859 </i>
   </energy>
  </scstep>
  <scstep>
   <time name="dav">  380.92  384.30</time>
   <time name="total">  393.69  397.14</time>
   <energy>
    <i name="e_fr_energy">   -489.21530422 </i>
    <i name="e_wo_entrp">   -489.21530422 </i>
    <i name="e_0_energy">   -489.21530422 </i>
   </energy>
  </scstep>
  <scstep>
   <time name="dav">  251.43  253.57</time>
   <time name="total">  254.78  256.93</time>
   <energy>
    <i name="alphaZ">   2314.49656628 </i>
    <i name="ewald"> -57723.03674834 </i>
    <i name="hartreedc"> -30348.62688818 </i>
    <i name="XCdc">   3229.25710753 </i>
    <i name="pawpsdc">  92653.03355209 </i>
    <i name="pawaedc"> -95508.28607426 </i>
    <i name="eentropy">     -0.00000000 </i>
    <i name="bandstr"> -10549.53252842 </i>
    <i name="atom">  95443.47970955 </i>
    <i name="e_fr_energy">   -489.21530375 </i>
    <i name="e_wo_entrp">   -489.21530375 </i>
    <i name="e_0_energy">   -489.21530375 </i>
   </energy>
  </scstep>
  <structure>
   <crystal>
    <varray name="basis" >
     <v>      11.11223374       0.00000000      -0.00029034 </v>
     <v>       0.00000000      11.11745194       0.00000000 </v>
     <v>      -2.77510898       0.00000000      10.19872221 </v>
    </varray>
    <i name="volume">   1259.93837498 </i>
    <varray name="rec_basis" >
     <v>       0.08999155       0.00000000       0.02448702 </v>
     <v>       0.00000000       0.08994867       0.00000000 </v>
     <v>       0.00000256       0.00000000       0.09805220 </v>
    </varray>
   </crystal>
   <varray name="positions" >
    <v>       0.28894969       0.46933910       0.15583616 </v>
    <v>       0.78894969       0.46933910       0.15583616 </v>
    <v>       0.28894969       0.96933910       0.15583616 </v>
    <v>       0.78894969       0.96933910       0.15583616 </v>
    <v>       0.04736962       0.21934976       0.18586770 </v>
    <v>       0.54646972       0.21934976       0.18586770 </v>
    <v>       0.04646972       0.71934976       0.18586770 </v>
    <v>       0.54646972       0.71934976       0.18586770 </v>
    <v>       0.45353028       0.46934976       0.81413230 </v>
    <v>       0.95353028       0.46934976       0.81413230 </v>
    <v>       0.45353028       0.96934976       0.81413230 </v>
    <v>       0.95353028       0.96934976       0.81413230 </v>
    <v>       0.21105031       0.21933910       0.84416384 </v>
    <v>       0.71105031       0.21933910       0.84416384 </v>
    <v>       0.21105031       0.71933910       0.84416384 </v>
    <v>       0.71105031       0.71933910       0.84416384 </v>
    <v>       0.07654971       0.09530995       0.80250593 </v>
    <v>       0.57654971       0.09530995       0.80250593 </v>
    <v>       0.07654971       0.59530995       0.80250593 </v>
    <v>       0.57654971       0.59530995       0.80250593 </v>
    <v>       0.32470466       0.34338175       0.80250383 </v>
    <v>       0.82470466       0.34338175       0.80250383 </v>
    <v>       0.32470466       0.84338175       0.80250383 </v>
    <v>       0.82470466       0.84338175       0.80250383 </v>
    <v>       0.17529534       0.09338175       0.19749617 </v>
    <v>       0.67529534       0.09338175       0.19749617 </v>
    <v>       0.17529534       0.59338175       0.19749617 </v>
    <v>       0.67529534       0.59338175       0.19749617 </v>
    <v>       0.42345029       0.34530995       0.19749407 </v>
    <v>       0.92345029       0.34530995       0.19749407 </v>
    <v>       0.42345029       0.84530995       0.19749407 </v>
    <v>       0.92345029       0.84530995       0.19749407 </v>
    <v>       0.21868463       0.34523395       0.37102476 </v>
    <v>       0.71868463       0.34523395       0.37102476 </v>
    <v>       0.21868463       0.84523395       0.37102476 </v>
    <v>       0.71868463       0.84523395       0.37102476 </v>
    <v>       0.46681660       0.09344897       0.37102399 </v>
    <v>       0.96681660       0.09344897       0.37102399 </v>
    <v>       0.46681660       0.59344897       0.37102399 </v>
    <v>       0.96681660       0.59344897       0.37102399 </v>
    <v>       0.03318340       0.34344897       0.62897601 </v>
    <v>       0.53318340       0.34344897       0.62897601 </v>
    <v>       0.03318340       0.84344897       0.62897601 </v>
    <v>       0.53318340       0.84344897       0.62897601 </v>
    <v>       0.28131537       0.09523395       0.62897524 </v>
    <v>       0.78131537       0.09523395       0.62897524 </v>
    <v>       0.28131537       0.59523395       0.62897524 </v>
    <v>       0.78131537       0.59523395       0.62897524 </v>
    <v>       0.12439279       0.34434306       0.00000412 </v>
    <v>       0.62439279       0.34434306       0.00000412 </v>
    <v>       0.12439279       0.84434306       0.00000412 </v>
    <v>       0.62439279       0.84434306       0.00000412 </v>
    <v>       0.37560721       0.09434306       0.99999588 </v>
    <v>       0.87560721       0.09434306       0.99999588 </v>
    <v>       0.37560721       0.59434306       0.99999588 </v>
    <v>       0.87560721       0.59434306       0.99999588 </v>
    <v>       0.03824426       0.10634799       0.60632306 </v>
    <v>       0.53824426       0.10634799       0.60632306 </v>
    <v>       0.03824426       0.60634799       0.60632306 </v>
    <v>       0.53824426       0.60634799       0.60632306 </v>
    <v>       0.26492712       0.33232651       0.60632763 </v>
    <v>       0.76492712       0.33232651       0.60632763 </v>
    <v>       0.26492712       0.83232651       0.60632763 </v>
    <v>       0.76492712       0.83232651       0.60632763 </v>
    <v>       0.23507288       0.08232651       0.39367237 </v>
    <v>       0.73507288       0.08232651       0.39367237 </v>
    <v>       0.23507288       0.58232651       0.39367237 </v>
    <v>       0.73507288       0.58232651       0.39367237 </v>
    <v>       0.46175574       0.35634799       0.39367694 </v>
    <v>       0.96175574       0.35634799       0.39367694 </v>
    <v>       0.46175574       0.85634799       0.39367694 </v>
    <v>       0.96175574       0.85634799       0.39367694 </v>
    <v>       0.03848398       0.46936404       0.15397331 </v>
    <v>       0.53848398       0.46936404       0.15397331 </v>
    <v>       0.03848398       0.96936404       0.15397331 </v>
    <v>       0.53848398       0.96936404       0.15397331 </v>
    <v>       0.28861657       0.21935690       0.15447525 </v>
    <v>       0.78861657       0.21935690       0.15447525 </v>
    <v>       0.28861657       0.71935690       0.15447525 </v>
    <v>       0.78861657       0.71935690       0.15447525 </v>
    <v>       0.21138343       0.46935690       0.84552475 </v>
    <v>       0.71138343       0.46935690       0.84552475 </v>
    <v>       0.21138343       0.96935690       0.84552475 </v>
    <v>       0.71138343       0.96935690       0.84552475 </v>
    <v>       0.46151602       0.21936404       0.84602669 </v>
    <v>       0.96151602       0.21936404       0.84602669 </v>
    <v>       0.46151602       0.71936404       0.84602669 </v>
    <v>       0.96151602       0.71936404       0.84602669 </v>
   </varray>
  </structure>
  <varray name="forces" >
   <v>       0.00043682       0.00069125       0.00012652 </v>
   <v>       0.00067274      -0.00078697       0.00013776 </v>
   <v>       0.00067691      -0.00082053      -0.00007388 </v>
   <v>       0.00042925       0.00072455      -0.00007743 </v>
   <v>      -0.04042248       0.01797229      -0.00006267 </v>
   <v>       0.00043238      -0.00006754       0.00004591 </v>
   <v>      -0.00035900      -0.00002736      -0.00000465 </v>
   <v>       0.00015482       0.00006925       0.00003786 </v>
   <v>       0.00030152      -0.00004842       0.00015411 </v>
   <v>      -0.00051327       0.00024453      -0.00043601 </v>
   <v>       0.00031308      -0.00005919      -0.00009094 </v>
   <v>      -0.00052853       0.00024968       0.00025947 </v>
   <v>       0.00007549      -0.00022756      -0.00052630 </v>
   <v>       0.00027122      -0.00027594       0.00048569 </v>
   <v>      -0.00011319       0.00015520      -0.00006224 </v>
   <v>       0.00007636       0.00010675       0.00002948 </v>
   <v>       0.00072729       0.00013395       0.00049935 </v>
   <v>      -0.00062795       0.00019631      -0.00034089 </v>
   <v>       0.00061256      -0.00088158       0.00063160 </v>
   <v>      -0.00000531       0.00001384      -0.00019747 </v>
   <v>      -0.00075586       0.00026481      -0.00007631 </v>
   <v>       0.00016811       0.00033641      -0.00020799 </v>
   <v>      -0.00017466       0.00010549      -0.00005070 </v>
   <v>       0.00005669      -0.00064338      -0.00049874 </v>
   <v>       0.01022707      -0.00377290      -0.00083789 </v>
   <v>      -0.00152220      -0.00074562       0.00035902 </v>
   <v>       0.00054395      -0.00020029       0.00023680 </v>
   <v>      -0.00015775       0.00016170       0.00003359 </v>
   <v>      -0.00189628      -0.00094780      -0.00034442 </v>
   <v>       0.00949321      -0.00350138       0.00101164 </v>
   <v>      -0.00048741       0.00000167      -0.00000818 </v>
   <v>       0.00018329      -0.00036324      -0.00013372 </v>
   <v>       0.00141669      -0.00092533      -0.00119189 </v>
   <v>      -0.00095757       0.00008912       0.00062264 </v>
   <v>       0.00021213       0.00044345      -0.00028391 </v>
   <v>      -0.00042145      -0.00035963       0.00015296 </v>
   <v>      -0.00090490       0.00038051      -0.00032199 </v>
   <v>       0.00162988      -0.00058484       0.00163385 </v>
   <v>      -0.00033687      -0.00001018       0.00015251 </v>
   <v>       0.00041975       0.00073604       0.00074567 </v>
   <v>       0.00042659       0.00047236       0.00062541 </v>
   <v>      -0.00067421       0.00020359      -0.00051930 </v>
   <v>       0.00013365      -0.00032127       0.00033381 </v>
   <v>      -0.00035457       0.00013600      -0.00045275 </v>
   <v>       0.00039084       0.00012119      -0.00044667 </v>
   <v>      -0.00034189      -0.00006802      -0.00040766 </v>
   <v>       0.00008743      -0.00066545      -0.00052661 </v>
   <v>      -0.00001747      -0.00016804      -0.00012892 </v>
   <v>       0.00087895      -0.00115415       0.00121100 </v>
   <v>      -0.00084577       0.00019477      -0.00043626 </v>
   <v>       0.00034568       0.00024741       0.00056177 </v>
   <v>      -0.00033794      -0.00026097       0.00004920 </v>
   <v>      -0.00093064       0.00022618       0.00033752 </v>
   <v>       0.00066238      -0.00117319      -0.00115458 </v>
   <v>      -0.00040362      -0.00023487      -0.00012976 </v>
   <v>       0.00018302       0.00024115      -0.00046290 </v>
   <v>      -0.00074629      -0.00043745      -0.00151444 </v>
   <v>      -0.00002014      -0.00003213       0.00058657 </v>
   <v>      -0.00051108       0.00020081      -0.00043218 </v>
   <v>      -0.00010109       0.00009174       0.00020743 </v>
   <v>      -0.00001296      -0.00052171       0.00130681 </v>
   <v>       0.00033674      -0.00017843      -0.00023278 </v>
   <v>       0.00011062       0.00004089       0.00018662 </v>
   <v>       0.00040528      -0.00001312       0.00016806 </v>
   <v>       0.00020565      -0.00250986       0.00486178 </v>
   <v>       0.00068095       0.00003966      -0.00030466 </v>
   <v>      -0.00043466       0.00089353      -0.00028889 </v>
   <v>      -0.00012150      -0.00026971      -0.00006930 </v>
   <v>       0.00128642       0.00016055       0.00044444 </v>
   <v>       0.00070977      -0.00234830      -0.00513017 </v>
   <v>       0.00046642      -0.00014230       0.00009973 </v>
   <v>       0.00008962       0.00101920       0.00013208 </v>
   <v>      -0.00485163      -0.00177063       0.00105159 </v>
   <v>       0.00074564       0.00019814      -0.00000419 </v>
   <v>      -0.00485126      -0.00170941      -0.00082973 </v>
   <v>       0.00074370       0.00019783       0.00032149 </v>
   <v>       0.01327826       0.00044863      -0.00101845 </v>
   <v>       0.01304828       0.00045640       0.00091543 </v>
   <v>       0.00010827       0.00004986      -0.00006943 </v>
   <v>       0.00011403       0.00002224      -0.00002219 </v>
   <v>       0.00071383       0.00063109      -0.00081333 </v>
   <v>       0.00007665      -0.00014334       0.00036265 </v>
   <v>      -0.00033098      -0.00014491      -0.00025917 </v>
   <v>       0.00110626       0.00063196       0.00087395 </v>
   <v>       0.00076311       0.00013923      -0.00005074 </v>
   <v>      -0.00139739      -0.00097976      -0.00020664 </v>
   <v>       0.00035586       0.00006411      -0.00000435 </v>
   <v>      -0.00051534       0.00029135      -0.00024954 </v>
  </varray>
  <varray name="stress" >
   <v>       2.15190193      -0.00083174      -0.09135601 </v>
   <v>      -0.00083157       1.89225107      -0.00890456 </v>
   <v>      -0.09170036      -0.00889043       0.54939183 </v>
  </varray>
  <energy>
   <i name="e_fr_energy">   -489.21530375 </i>
   <i name="e_wo_entrp">   -489.21530375 </i>
   <i name="e_0_energy">     -0.00000000 </i>
  </energy>
  <time name="totalsc"> 5906.38 5957.50</time>
  <eigenvalues>
   <array>
    <dimension dim="1">band</dimension>
    <dimension dim="2">kpoint</dimension>
    <dimension dim="3">spin</dimension>
    <field>eigene</field>
    <field>occ</field>
    <set>
     <set comment="spin 1">
      <set comment="kpoint 1">
       <r>  -51.0561    1.0000 </r>
       <r>  -51.0551    1.0000 </r>
       <r>  -51.0548    1.0000 </r>
       <r>  -51.0547    1.0000 </r>
       <r>  -51.0540    1.0000 </r>
       <r>  -51.0538    1.0000 </r>
       <r>  -51.0538    1.0000 </r>
       <r>  -51.0532    1.0000 </r>
       <r>  -51.0531    1.0000 </r>
       <r>  -51.0526    1.0000 </r>
       <r>  -51.0525    1.0000 </r>
       <r>  -51.0524    1.0000 </r>
       <r>  -51.0520    1.0000 </r>
       <r>  -51.0513    1.0000 </r>
       <r>  -51.0510    1.0000 </r>
       <r>  -51.0501    1.0000 </r>
       <r>  -51.0468    1.0000 </r>
       <r>  -51.0450    1.0000 </r>
       <r>  -51.0444    1.0000 </r>
       <r>  -51.0443    1.0000 </r>
       <r>  -51.0439    1.0000 </r>
       <r>  -51.0438    1.0000 </r>
       <r>  -51.0433    1.0000 </r>
       <r>  -51.0413    1.0000 </r>
       <r>  -51.0402    1.0000 </r>
       <r>  -51.0396    1.0000 </r>
       <r>  -51.0395    1.0000 </r>
       <r>  -51.0395    1.0000 </r>
       <r>  -51.0393    1.0000 </r>
       <r>  -51.0393    1.0000 </r>
       <r>  -51.0393    1.0000 </r>
       <r>  -51.0386    1.0000 </r>
       <r>  -49.7046    1.0000 </r>
       <r>  -49.7026    1.0000 </r>
       <r>  -49.7019    1.0000 </r>
       <r>  -49.7018    1.0000 </r>
       <r>  -49.7014    1.0000 </r>
       <r>  -49.7014    1.0000 </r>
       <r>  -49.7007    1.0000 </r>
       <r>  -49.6987    1.0000 </r>
       <r>  -49.6946    1.0000 </r>
       <r>  -49.6942    1.0000 </r>
       <r>  -49.6941    1.0000 </r>
       <r>  -49.6941    1.0000 </r>
       <r>  -49.6940    1.0000 </r>
       <r>  -49.6940    1.0000 </r>
       <r>  -49.6940    1.0000 </r>
       <r>  -49.6935    1.0000 </r>
       <r>  -49.5990    1.0000 </r>
       <r>  -49.5983    1.0000 </r>
       <r>  -49.5978    1.0000 </r>
       <r>  -49.5977    1.0000 </r>
       <r>  -49.5974    1.0000 </r>
       <r>  -49.5972    1.0000 </r>
       <r>  -49.5969    1.0000 </r>
       <r>  -49.5968    1.0000 </r>
       <r>  -49.5966    1.0000 </r>
       <r>  -49.5963    1.0000 </r>
       <r>  -49.5963    1.0000 </r>
       <r>  -49.5960    1.0000 </r>
       <r>  -49.5959    1.0000 </r>
       <r>  -49.5958    1.0000 </r>
       <r>  -49.5955    1.0000 </r>
       <r>  -49.5949    1.0000 </r>
       <r>  -49.5676    1.0000 </r>
       <r>  -49.5670    1.0000 </r>
       <r>  -49.5664    1.0000 </r>
       <r>  -49.5662    1.0000 </r>
       <r>  -49.5661    1.0000 </r>
       <r>  -49.5661    1.0000 </r>
       <r>  -49.5655    1.0000 </r>
       <r>  -49.5651    1.0000 </r>
       <r>  -49.5649    1.0000 </r>
       <r>  -49.5648    1.0000 </r>
       <r>  -49.5644    1.0000 </r>
       <r>  -49.5642    1.0000 </r>
       <r>  -49.5641    1.0000 </r>
       <r>  -49.5640    1.0000 </r>
       <r>  -49.5636    1.0000 </r>
       <r>  -49.5633    1.0000 </r>
       <r>  -49.5574    1.0000 </r>
       <r>  -49.5553    1.0000 </r>
       <r>  -49.5545    1.0000 </r>
       <r>  -49.5544    1.0000 </r>
       <r>  -49.5540    1.0000 </r>
       <r>  -49.5539    1.0000 </r>
       <r>  -49.5531    1.0000 </r>
       <r>  -49.5510    1.0000 </r>
       <r>  -49.5398    1.0000 </r>
       <r>  -49.5396    1.0000 </r>
       <r>  -49.5395    1.0000 </r>
       <r>  -49.5395    1.0000 </r>
       <r>  -49.5394    1.0000 </r>
       <r>  -49.5394    1.0000 </r>
       <r>  -49.5394    1.0000 </r>
       <r>  -49.5391    1.0000 </r>
       <r>  -39.8808    1.0000 </r>
       <r>  -39.8802    1.0000 </r>
       <r>  -39.8800    1.0000 </r>
       <r>  -39.8797    1.0000 </r>
       <r>  -39.8792    1.0000 </r>
       <r>  -39.8791    1.0000 </r>
       <r>  -39.8789    1.0000 </r>
       <r>  -39.8788    1.0000 </r>
       <r>  -39.8788    1.0000 </r>
       <r>  -39.8787    1.0000 </r>
       <r>  -39.8787    1.0000 </r>
       <r>  -39.8787    1.0000 </r>
       <r>  -39.8783    1.0000 </r>
       <r>  -39.8781    1.0000 </r>
       <r>  -39.8780    1.0000 </r>
       <r>  -39.8776    1.0000 </r>
       <r>  -13.2251    1.0000 </r>
       <r>  -13.2249    1.0000 </r>
       <r>  -13.2104    1.0000 </r>
       <r>  -13.1836    1.0000 </r>
       <r>  -13.1017    1.0000 </r>
       <r>  -13.0997    1.0000 </r>
       <r>  -13.0984    1.0000 </r>
       <r>  -13.0927    1.0000 </r>
       <r>  -13.0866    1.0000 </r>
       <r>  -13.0808    1.0000 </r>
       <r>  -13.0794    1.0000 </r>
       <r>  -13.0773    1.0000 </r>
       <r>  -12.9882    1.0000 </r>
       <r>  -12.9775    1.0000 </r>
       <r>  -12.9419    1.0000 </r>
       <r>  -12.9418    1.0000 </r>
       <r>   -7.6452    1.0000 </r>
       <r>   -7.4067    1.0000 </r>
       <r>   -7.3264    1.0000 </r>
       <r>   -7.3256    1.0000 </r>
       <r>   -7.3097    1.0000 </r>
       <r>   -7.3088    1.0000 </r>
       <r>   -7.3082    1.0000 </r>
       <r>   -7.3070    1.0000 </r>
       <r>   -7.1693    1.0000 </r>
       <r>   -7.1572    1.0000 </r>
       <r>   -7.1240    1.0000 </r>
       <r>   -7.1232    1.0000 </r>
       <r>   -7.0364    1.0000 </r>
       <r>   -7.0217    1.0000 </r>
       <r>   -7.0021    1.0000 </r>
       <r>   -7.0017    1.0000 </r>
       <r>   -6.9410    1.0000 </r>
       <r>   -6.9404    1.0000 </r>
       <r>   -6.8873    1.0000 </r>
       <r>   -6.8868    1.0000 </r>
       <r>   -6.8651    1.0000 </r>
       <r>   -6.8617    1.0000 </r>
       <r>   -6.8343    1.0000 </r>
       <r>   -6.8036    1.0000 </r>
       <r>   -1.9356    1.0000 </r>
       <r>   -1.9355    1.0000 </r>
       <r>   -1.9105    1.0000 </r>
       <r>   -1.8936    1.0000 </r>
       <r>   -1.6667    1.0000 </r>
       <r>   -1.6663    1.0000 </r>
       <r>   -1.6589    1.0000 </r>
       <r>   -1.6570    1.0000 </r>
       <r>   -1.6000    1.0000 </r>
       <r>   -1.5979    1.0000 </r>
       <r>   -1.5864    1.0000 </r>
       <r>   -1.5861    1.0000 </r>
       <r>   -1.2983    1.0000 </r>
       <r>   -1.1750    1.0000 </r>
       <r>   -1.1744    1.0000 </r>
       <r>   -1.1135    1.0000 </r>
       <r>   -1.1130    1.0000 </r>
       <r>   -1.1073    1.0000 </r>
       <r>   -1.0495    1.0000 </r>
       <r>   -0.9809    1.0000 </r>
       <r>   -0.9647    1.0000 </r>
       <r>   -0.9596    1.0000 </r>
       <r>   -0.9578    1.0000 </r>
       <r>   -0.9576    1.0000 </r>
       <r>   -0.9471    1.0000 </r>
       <r>   -0.9450    1.0000 </r>
       <r>   -0.9229    1.0000 </r>
       <r>   -0.8713    1.0000 </r>
       <r>   -0.8712    1.0000 </r>
       <r>   -0.8035    1.0000 </r>
       <r>   -0.8027    1.0000 </r>
       <r>   -0.8026    1.0000 </r>
       <r>   -0.7751    1.0000 </r>
       <r>   -0.7742    1.0000 </r>
       <r>   -0.7740    1.0000 </r>
       <r>   -0.7611    1.0000 </r>
       <r>   -0.7169    1.0000 </r>
       <r>   -0.7165    1.0000 </r>
       <r>   -0.7065    1.0000 </r>
       <r>   -0.7052    1.0000 </r>
       <r>   -0.6991    1.0000 </r>
       <r>   -0.6990    1.0000 </r>
       <r>   -0.6088    1.0000 </r>
       <r>   -0.6086    1.0000 </r>
       <r>   -0.5615    1.0000 </r>
       <r>   -0.5615    1.0000 </r>
       <r>   -0.5494    1.0000 </r>
       <r>   -0.5482    1.0000 </r>
       <r>   -0.4081    1.0000 </r>
       <r>   -0.4081    1.0000 </r>
       <r>   -0.3574    1.0000 </r>
       <r>   -0.3479    1.0000 </r>
       <r>   -0.3294    1.0000 </r>
       <r>   -0.3293    1.0000 </r>
       <r>   -0.2985    1.0000 </r>
       <r>   -0.2984    1.0000 </r>
       <r>   -0.2814    1.0000 </r>
       <r>   -0.2693    1.0000 </r>
       <r>   -0.2628    1.0000 </r>
       <r>   -0.2559    1.0000 </r>
       <r>   -0.2550    1.0000 </r>
       <r>   -0.2090    1.0000 </r>
       <r>   -0.2089    1.0000 </r>
       <r>   -0.1886    1.0000 </r>
       <r>   -0.1867    1.0000 </r>
       <r>   -0.1867    1.0000 </r>
       <r>   -0.1758    1.0000 </r>
       <r>   -0.1580    1.0000 </r>
       <r>   -0.1256    1.0000 </r>
       <r>   -0.1254    1.0000 </r>
       <r>   -0.1094    1.0000 </r>
       <r>   -0.0709    1.0000 </r>
       <r>   -0.0702    1.0000 </r>
       <r>   -0.0604    1.0000 </r>
       <r>   -0.0434    1.0000 </r>
       <r>   -0.0176    1.0000 </r>
       <r>   -0.0174    1.0000 </r>
       <r>   -0.0116    1.0000 </r>
       <r>    0.0016    1.0000 </r>
       <r>    0.0018    1.0000 </r>
       <r>    0.0462    1.0000 </r>
       <r>    0.0494    1.0000 </r>
       <r>    0.0495    1.0000 </r>
       <r>    0.0913    1.0000 </r>
       <r>    0.0933    1.0000 </r>
       <r>    0.1185    1.0000 </r>
       <r>    0.1185    1.0000 </r>
       <r>    0.1577    1.0000 </r>
       <r>    0.1627    1.0000 </r>
       <r>    0.1768    1.0000 </r>
       <r>    0.1792    1.0000 </r>
       <r>    0.1820    1.0000 </r>
       <r>    0.1821    1.0000 </r>
       <r>    0.1856    1.0000 </r>
       <r>    0.1892    1.0000 </r>
       <r>    0.1933    1.0000 </r>
       <r>    0.1941    1.0000 </r>
       <r>    0.2008    1.0000 </r>
       <r>    0.2012    1.0000 </r>
       <r>    0.2388    1.0000 </r>
       <r>    0.2512    1.0000 </r>
       <r>    0.2569    1.0000 </r>
       <r>    0.2570    1.0000 </r>
       <r>    0.2766    1.0000 </r>
       <r>    0.3373    1.0000 </r>
       <r>    0.3474    1.0000 </r>
       <r>    0.3588    1.0000 </r>
       <r>    0.3589    1.0000 </r>
       <r>    0.3605    1.0000 </r>
       <r>    0.3605    1.0000 </r>
       <r>    0.3882    1.0000 </r>
       <r>    0.4017    1.0000 </r>
       <r>    0.4526    1.0000 </r>
       <r>    0.4526    1.0000 </r>
       <r>    0.5789    1.0000 </r>
       <r>    0.5789    1.0000 </r>
       <r>    0.5844    1.0000 </r>
       <r>    0.6020    1.0000 </r>
       <r>    0.6020    1.0000 </r>
       <r>    0.6064    1.0000 </r>
       <r>    0.6079    1.0000 </r>
       <r>    0.6401    1.0000 </r>
       <r>    0.6511    1.0000 </r>
       <r>    0.6513    1.0000 </r>
       <r>    0.6621    1.0000 </r>
       <r>    0.6623    1.0000 </r>
       <r>    0.6655    1.0000 </r>
       <r>    0.6731    1.0000 </r>
       <r>    0.6747    1.0000 </r>
       <r>    0.6750    1.0000 </r>
       <r>    0.6966    1.0000 </r>
       <r>    0.7229    1.0000 </r>
       <r>    0.7833    1.0000 </r>
       <r>    0.8197    1.0000 </r>
       <r>    0.8296    1.0000 </r>
       <r>    0.8321    1.0000 </r>
       <r>    0.8322    1.0000 </r>
       <r>    0.8612    1.0000 </r>
       <r>    0.8613    1.0000 </r>
       <r>    0.9093    1.0000 </r>
       <r>    0.9405    1.0000 </r>
       <r>    0.9482    1.0000 </r>
       <r>    0.9482    1.0000 </r>
       <r>    0.9832    1.0000 </r>
       <r>    1.0259    1.0000 </r>
       <r>    1.0704    1.0000 </r>
       <r>    1.2693    1.0000 </r>
       <r>    1.2982    1.0000 </r>
       <r>    1.2982    1.0000 </r>
       <r>    1.3116    1.0000 </r>
       <r>    1.3331    1.0000 </r>
       <r>    1.3333    1.0000 </r>
       <r>    1.3379    1.0000 </r>
       <r>    1.3846    1.0000 </r>
       <r>    1.4050    1.0000 </r>
       <r>    1.4282    1.0000 </r>
       <r>    1.4669    1.0000 </r>
       <r>    1.4679    1.0000 </r>
       <r>    1.4681    1.0000 </r>
       <r>    1.4815    1.0000 </r>
       <r>    1.5109    1.0000 </r>
       <r>    1.5110    1.0000 </r>
       <r>    1.5407    1.0000 </r>
       <r>    1.5614    1.0000 </r>
       <r>    1.5770    1.0000 </r>
       <r>    1.6463    1.0000 </r>
       <r>    1.6555    1.0000 </r>
       <r>    1.7561    1.0000 </r>
       <r>    1.7563    1.0000 </r>
       <r>    1.7628    1.0000 </r>
       <r>    1.7786    1.0000 </r>
       <r>    1.8028    1.0000 </r>
       <r>    1.8029    1.0000 </r>
       <r>    1.8108    1.0000 </r>
       <r>    1.8233    1.0000 </r>
       <r>    1.8366    1.0000 </r>
       <r>    1.8366    1.0000 </r>
       <r>    1.8460    1.0000 </r>
       <r>    1.8469    1.0000 </r>
       <r>    1.8784    1.0000 </r>
       <r>    1.8900    1.0000 </r>
       <r>    1.9468    1.0000 </r>
       <r>    1.9934    1.0000 </r>
       <r>    1.9935    1.0000 </r>
       <r>    2.0064    1.0000 </r>
       <r>    2.0064    1.0000 </r>
       <r>    2.0100    1.0000 </r>
       <r>    2.0186    1.0000 </r>
       <r>    2.0201    1.0000 </r>
       <r>    2.0202    1.0000 </r>
       <r>    2.0395    1.0000 </r>
       <r>    2.0467    1.0000 </r>
       <r>    2.0468    1.0000 </r>
       <r>    2.0573    1.0000 </r>
       <r>    2.0688    1.0000 </r>
       <r>    2.0688    1.0000 </r>
       <r>    2.0915    1.0000 </r>
       <r>    2.1129    1.0000 </r>
       <r>    2.1907    1.0000 </r>
       <r>    2.1907    1.0000 </r>
       <r>    2.2469    1.0000 </r>
       <r>    2.2471    1.0000 </r>
       <r>    2.2708    1.0000 </r>
       <r>    2.2729    1.0000 </r>
       <r>    2.2846    1.0000 </r>
       <r>    2.4279    1.0000 </r>
       <r>    2.4664    1.0000 </r>
       <r>    2.4665    1.0000 </r>
       <r>    2.4776    1.0000 </r>
       <r>    2.5036    1.0000 </r>
       <r>    2.5275    1.0000 </r>
       <r>    2.5541    1.0000 </r>
       <r>    2.5923    1.0000 </r>
       <r>    2.6266    1.0000 </r>
       <r>    2.6269    1.0000 </r>
       <r>    2.6561    1.0000 </r>
       <r>    2.7384    1.0000 </r>
       <r>    2.7394    1.0000 </r>
       <r>    2.7601    1.0000 </r>
       <r>    2.7610    1.0000 </r>
       <r>    2.8340    1.0000 </r>
       <r>    2.8727    1.0000 </r>
       <r>    2.9261    1.0000 </r>
       <r>    2.9342    1.0000 </r>
       <r>    2.9347    1.0000 </r>
       <r>    2.9690    1.0000 </r>
       <r>    3.0274    1.0000 </r>
       <r>    3.0277    1.0000 </r>
       <r>    3.0616    1.0000 </r>
       <r>    3.0973    1.0000 </r>
       <r>    3.3079    1.0000 </r>
       <r>    3.3105    1.0000 </r>
       <r>    3.3480    1.0000 </r>
       <r>    3.3758    1.0000 </r>
       <r>    3.4217    1.0000 </r>
       <r>    3.4217    1.0000 </r>
       <r>    3.4405    1.0000 </r>
       <r>    3.4584    1.0000 </r>
       <r>    3.4588    1.0000 </r>
       <r>    3.5316    1.0000 </r>
       <r>    3.7481    1.0000 </r>
       <r>    3.8086    1.0000 </r>
       <r>    3.8090    1.0000 </r>
       <r>    3.8151    1.0000 </r>
       <r>    3.8156    1.0000 </r>
       <r>    3.8825    1.0000 </r>
       <r>    3.8827    1.0000 </r>
       <r>    3.9323    1.0000 </r>
       <r>    3.9351    1.0000 </r>
       <r>    3.9406    1.0000 </r>
       <r>    3.9408    1.0000 </r>
       <r>    4.0391    1.0000 </r>
       <r>    4.0397    1.0000 </r>
       <r>    4.0703    1.0000 </r>
       <r>    4.1387    1.0000 </r>
       <r>    4.1492    1.0000 </r>
       <r>    4.1514    1.0000 </r>
       <r>    4.3148    1.0000 </r>
       <r>    4.3182    1.0000 </r>
       <r>    4.3380    1.0000 </r>
       <r>    4.3583    1.0000 </r>
       <r>    4.3588    1.0000 </r>
       <r>    4.4289    1.0000 </r>
       <r>    4.4446    1.0000 </r>
       <r>    4.4463    1.0000 </r>
       <r>    4.4539    1.0000 </r>
       <r>    4.4563    1.0000 </r>
       <r>    4.4568    1.0000 </r>
       <r>    4.6364    1.0000 </r>
       <r>    4.6365    1.0000 </r>
       <r>    4.7324    1.0000 </r>
       <r>    4.7326    1.0000 </r>
       <r>    4.7641    1.0000 </r>
       <r>    4.7642    1.0000 </r>
       <r>    4.7694    1.0000 </r>
       <r>    4.7695    1.0000 </r>
       <r>    4.8107    1.0000 </r>
       <r>    4.8534    1.0000 </r>
       <r>    4.8535    1.0000 </r>
       <r>    4.8573    1.0000 </r>
       <r>    7.3436    0.0000 </r>
       <r>    8.1284    0.0000 </r>
       <r>    8.4450    0.0000 </r>
       <r>    8.6425    0.0000 </r>
       <r>    8.6426    0.0000 </r>
       <r>    8.8581    0.0000 </r>
       <r>    9.0844    0.0000 </r>
       <r>    9.0848    0.0000 </r>
       <r>    9.2613    0.0000 </r>
       <r>    9.2733    0.0000 </r>
       <r>    9.2891    0.0000 </r>
       <r>    9.2892    0.0000 </r>
       <r>    9.7266    0.0000 </r>
       <r>    9.7718    0.0000 </r>
       <r>    9.7719    0.0000 </r>
       <r>    9.7901    0.0000 </r>
       <r>    9.8545    0.0000 </r>
       <r>    9.8548    0.0000 </r>
       <r>    9.8591    0.0000 </r>
       <r>    9.8789    0.0000 </r>
       <r>    9.8893    0.0000 </r>
       <r>   10.0603    0.0000 </r>
       <r>   10.0829    0.0000 </r>
       <r>   10.1362    0.0000 </r>
       <r>   10.1364    0.0000 </r>
       <r>   10.3059    0.0000 </r>
       <r>   10.3063    0.0000 </r>
       <r>   10.4166    0.0000 </r>
       <r>   10.5267    0.0000 </r>
       <r>   10.5710    0.0000 </r>
       <r>   10.5716    0.0000 </r>
       <r>   10.5723    0.0000 </r>
       <r>   10.5782    0.0000 </r>
       <r>   10.5787    0.0000 </r>
       <r>   10.6757    0.0000 </r>
       <r>   10.9760    0.0000 </r>
       <r>   11.0191    0.0000 </r>
       <r>   11.0194    0.0000 </r>
       <r>   11.0405    0.0000 </r>
       <r>   11.0408    0.0000 </r>
       <r>   11.0774    0.0000 </r>
       <r>   11.1285    0.0000 </r>
       <r>   11.1782    0.0000 </r>
       <r>   11.1887    0.0000 </r>
       <r>   11.2285    0.0000 </r>
       <r>   11.2491    0.0000 </r>
       <r>   11.2496    0.0000 </r>
       <r>   11.2904    0.0000 </r>
       <r>   11.3068    0.0000 </r>
       <r>   11.4175    0.0000 </r>
       <r>   11.4177    0.0000 </r>
       <r>   11.4588    0.0000 </r>
       <r>   11.5209    0.0000 </r>
       <r>   11.5212    0.0000 </r>
       <r>   11.5305    0.0000 </r>
       <r>   11.5771    0.0000 </r>
       <r>   11.6800    0.0000 </r>
       <r>   11.6803    0.0000 </r>
       <r>   11.7974    0.0000 </r>
       <r>   11.7974    0.0000 </r>
       <r>   11.8155    0.0000 </r>
       <r>   11.8156    0.0000 </r>
       <r>   11.8822    0.0000 </r>
       <r>   11.9411    0.0000 </r>
       <r>   11.9762    0.0000 </r>
       <r>   11.9763    0.0000 </r>
       <r>   11.9819    0.0000 </r>
       <r>   12.0279    0.0000 </r>
       <r>   12.0283    0.0000 </r>
       <r>   12.0580    0.0000 </r>
       <r>   12.1618    0.0000 </r>
       <r>   12.2423    0.0000 </r>
       <r>   12.2567    0.0000 </r>
       <r>   12.2577    0.0000 </r>
       <r>   12.3156    0.0000 </r>
       <r>   12.3160    0.0000 </r>
       <r>   12.3216    0.0000 </r>
       <r>   12.3479    0.0000 </r>
       <r>   12.4614    0.0000 </r>
       <r>   12.4800    0.0000 </r>
       <r>   12.5166    0.0000 </r>
       <r>   12.5171    0.0000 </r>
       <r>   12.6144    0.0000 </r>
       <r>   12.6146    0.0000 </r>
       <r>   12.6605    0.0000 </r>
       <r>   12.6629    0.0000 </r>
       <r>   12.6633    0.0000 </r>
       <r>   12.6898    0.0000 </r>
       <r>   12.7472    0.0000 </r>
       <r>   12.8312    0.0000 </r>
       <r>   12.8725    0.0000 </r>
       <r>   12.8726    0.0000 </r>
       <r>   12.8728    0.0000 </r>
       <r>   13.1200    0.0000 </r>
       <r>   13.1202    0.0000 </r>
       <r>   13.2008    0.0000 </r>
       <r>   13.3816    0.0000 </r>
       <r>   13.4099    0.0000 </r>
       <r>   13.4116    0.0000 </r>
       <r>   13.4347    0.0000 </r>
       <r>   13.4382    0.0000 </r>
       <r>   13.4560    0.0000 </r>
       <r>   13.4950    0.0000 </r>
       <r>   13.5129    0.0000 </r>
       <r>   13.5456    0.0000 </r>
       <r>   13.5547    0.0000 </r>
      </set>
      <set comment="kpoint 2">
       <r>  -51.0561    1.0000 </r>
       <r>  -51.0551    1.0000 </r>
       <r>  -51.0547    1.0000 </r>
       <r>  -51.0545    1.0000 </r>
       <r>  -51.0542    1.0000 </r>
       <r>  -51.0541    1.0000 </r>
       <r>  -51.0540    1.0000 </r>
       <r>  -51.0533    1.0000 </r>
       <r>  -51.0532    1.0000 </r>
       <r>  -51.0525    1.0000 </r>
       <r>  -51.0524    1.0000 </r>
       <r>  -51.0520    1.0000 </r>
       <r>  -51.0516    1.0000 </r>
       <r>  -51.0514    1.0000 </r>
       <r>  -51.0511    1.0000 </r>
       <r>  -51.0503    1.0000 </r>
       <r>  -51.0468    1.0000 </r>
       <r>  -51.0449    1.0000 </r>
       <r>  -51.0443    1.0000 </r>
       <r>  -51.0442    1.0000 </r>
       <r>  -51.0439    1.0000 </r>
       <r>  -51.0438    1.0000 </r>
       <r>  -51.0433    1.0000 </r>
       <r>  -51.0413    1.0000 </r>
       <r>  -51.0402    1.0000 </r>
       <r>  -51.0396    1.0000 </r>
       <r>  -51.0395    1.0000 </r>
       <r>  -51.0395    1.0000 </r>
       <r>  -51.0393    1.0000 </r>
       <r>  -51.0393    1.0000 </r>
       <r>  -51.0393    1.0000 </r>
       <r>  -51.0386    1.0000 </r>
       <r>  -49.7046    1.0000 </r>
       <r>  -49.7026    1.0000 </r>
       <r>  -49.7019    1.0000 </r>
       <r>  -49.7018    1.0000 </r>
       <r>  -49.7014    1.0000 </r>
       <r>  -49.7014    1.0000 </r>
       <r>  -49.7007    1.0000 </r>
       <r>  -49.6987    1.0000 </r>
       <r>  -49.6946    1.0000 </r>
       <r>  -49.6942    1.0000 </r>
       <r>  -49.6941    1.0000 </r>
       <r>  -49.6941    1.0000 </r>
       <r>  -49.6940    1.0000 </r>
       <r>  -49.6940    1.0000 </r>
       <r>  -49.6940    1.0000 </r>
       <r>  -49.6935    1.0000 </r>
       <r>  -49.5990    1.0000 </r>
       <r>  -49.5982    1.0000 </r>
       <r>  -49.5979    1.0000 </r>
       <r>  -49.5978    1.0000 </r>
       <r>  -49.5974    1.0000 </r>
       <r>  -49.5971    1.0000 </r>
       <r>  -49.5969    1.0000 </r>
       <r>  -49.5968    1.0000 </r>
       <r>  -49.5965    1.0000 </r>
       <r>  -49.5963    1.0000 </r>
       <r>  -49.5963    1.0000 </r>
       <r>  -49.5960    1.0000 </r>
       <r>  -49.5959    1.0000 </r>
       <r>  -49.5958    1.0000 </r>
       <r>  -49.5955    1.0000 </r>
       <r>  -49.5949    1.0000 </r>
       <r>  -49.5676    1.0000 </r>
       <r>  -49.5670    1.0000 </r>
       <r>  -49.5666    1.0000 </r>
       <r>  -49.5664    1.0000 </r>
       <r>  -49.5661    1.0000 </r>
       <r>  -49.5657    1.0000 </r>
       <r>  -49.5655    1.0000 </r>
       <r>  -49.5652    1.0000 </r>
       <r>  -49.5649    1.0000 </r>
       <r>  -49.5648    1.0000 </r>
       <r>  -49.5644    1.0000 </r>
       <r>  -49.5642    1.0000 </r>
       <r>  -49.5641    1.0000 </r>
       <r>  -49.5640    1.0000 </r>
       <r>  -49.5636    1.0000 </r>
       <r>  -49.5633    1.0000 </r>
       <r>  -49.5574    1.0000 </r>
       <r>  -49.5553    1.0000 </r>
       <r>  -49.5545    1.0000 </r>
       <r>  -49.5544    1.0000 </r>
       <r>  -49.5540    1.0000 </r>
       <r>  -49.5539    1.0000 </r>
       <r>  -49.5531    1.0000 </r>
       <r>  -49.5510    1.0000 </r>
       <r>  -49.5398    1.0000 </r>
       <r>  -49.5396    1.0000 </r>
       <r>  -49.5395    1.0000 </r>
       <r>  -49.5395    1.0000 </r>
       <r>  -49.5394    1.0000 </r>
       <r>  -49.5394    1.0000 </r>
       <r>  -49.5394    1.0000 </r>
       <r>  -49.5391    1.0000 </r>
       <r>  -39.8808    1.0000 </r>
       <r>  -39.8801    1.0000 </r>
       <r>  -39.8800    1.0000 </r>
       <r>  -39.8797    1.0000 </r>
       <r>  -39.8793    1.0000 </r>
       <r>  -39.8790    1.0000 </r>
       <r>  -39.8790    1.0000 </r>
       <r>  -39.8788    1.0000 </r>
       <r>  -39.8787    1.0000 </r>
       <r>  -39.8787    1.0000 </r>
       <r>  -39.8786    1.0000 </r>
       <r>  -39.8786    1.0000 </r>
       <r>  -39.8783    1.0000 </r>
       <r>  -39.8781    1.0000 </r>
       <r>  -39.8780    1.0000 </r>
       <r>  -39.8776    1.0000 </r>
       <r>  -13.2078    1.0000 </r>
       <r>  -13.2074    1.0000 </r>
       <r>  -13.1950    1.0000 </r>
       <r>  -13.1703    1.0000 </r>
       <r>  -13.1594    1.0000 </r>
       <r>  -13.1590    1.0000 </r>
       <r>  -13.1531    1.0000 </r>
       <r>  -13.1332    1.0000 </r>
       <r>  -13.0419    1.0000 </r>
       <r>  -13.0302    1.0000 </r>
       <r>  -13.0170    1.0000 </r>
       <r>  -13.0168    1.0000 </r>
       <r>  -13.0024    1.0000 </r>
       <r>  -12.9916    1.0000 </r>
       <r>  -12.9624    1.0000 </r>
       <r>  -12.9622    1.0000 </r>
       <r>   -7.5966    1.0000 </r>
       <r>   -7.4681    1.0000 </r>
       <r>   -7.3782    1.0000 </r>
       <r>   -7.3200    1.0000 </r>
[...]
       <r>   -49.2825     0.0000     0.0000 </r>
       <r>   -49.0417     0.0000     0.0000 </r>
       <r>   -48.8008     0.0000     0.0000 </r>
       <r>   -48.5599     0.0000     0.0000 </r>
       <r>   -48.3191     0.0000     0.0000 </r>
       <r>   -48.0782     0.0000     0.0000 </r>
       <r>   -47.8373     0.0000     0.0000 </r>
       <r>   -47.5965     0.0000     0.0000 </r>
       <r>   -47.3556     0.0000     0.0000 </r>
       <r>   -47.1148     0.0000     0.0000 </r>
       <r>   -46.8739     0.0000     0.0000 </r>
       <r>   -46.6330     0.0000     0.0000 </r>
       <r>   -46.3922     0.4153     0.1000 </r>
       <r>   -46.1513   132.4031    31.9909 </r>
       <r>   -45.9104    62.0858    46.9451 </r>
       <r>   -45.6696   203.6638    96.0000 </r>
       <r>   -45.4287     0.0000    96.0000 </r>
       <r>   -45.1879     0.0000    96.0000 </r>
       <r>   -44.9470     0.0000    96.0000 </r>
       <r>   -44.7061     0.0000    96.0000 </r>
       <r>   -44.4653     0.0000    96.0000 </r>
       <r>   -44.2244     0.0000    96.0000 </r>
       <r>   -43.9835     0.0000    96.0000 </r>
       <r>   -43.7427     0.0000    96.0000 </r>
       <r>   -43.5018     0.0000    96.0000 </r>
       <r>   -43.2610     0.0000    96.0000 </r>
       <r>   -43.0201     0.0000    96.0000 </r>
       <r>   -42.7792     0.0000    96.0000 </r>
       <r>   -42.5384     0.0000    96.0000 </r>
       <r>   -42.2975     0.0000    96.0000 </r>
       <r>   -42.0566     0.0000    96.0000 </r>
       <r>   -41.8158     0.0000    96.0000 </r>
       <r>   -41.5749     0.0000    96.0000 </r>
       <r>   -41.3341     0.0000    96.0000 </r>
       <r>   -41.0932     0.0000    96.0000 </r>
       <r>   -40.8523     0.0000    96.0000 </r>
       <r>   -40.6115     0.0000    96.0000 </r>
       <r>   -40.3706     0.0000    96.0000 </r>
       <r>   -40.1298     0.0000    96.0000 </r>
       <r>   -39.8889    24.1605   101.8193 </r>
       <r>   -39.6480    42.2675   112.0000 </r>
       <r>   -39.4072     0.0000   112.0000 </r>
       <r>   -39.1663     0.0000   112.0000 </r>
       <r>   -38.9254     0.0000   112.0000 </r>
       <r>   -38.6846     0.0000   112.0000 </r>
       <r>   -38.4437     0.0000   112.0000 </r>
       <r>   -38.2029     0.0000   112.0000 </r>
       <r>   -37.9620     0.0000   112.0000 </r>
       <r>   -37.7211     0.0000   112.0000 </r>
       <r>   -37.4803     0.0000   112.0000 </r>
       <r>   -37.2394     0.0000   112.0000 </r>
       <r>   -36.9985     0.0000   112.0000 </r>
       <r>   -36.7577     0.0000   112.0000 </r>
       <r>   -36.5168     0.0000   112.0000 </r>
       <r>   -36.2760     0.0000   112.0000 </r>
       <r>   -36.0351     0.0000   112.0000 </r>
       <r>   -35.7942     0.0000   112.0000 </r>
       <r>   -35.5534     0.0000   112.0000 </r>
       <r>   -35.3125     0.0000   112.0000 </r>
       <r>   -35.0716     0.0000   112.0000 </r>
       <r>   -34.8308     0.0000   112.0000 </r>
       <r>   -34.5899     0.0000   112.0000 </r>
       <r>   -34.3491     0.0000   112.0000 </r>
       <r>   -34.1082     0.0000   112.0000 </r>
       <r>   -33.8673     0.0000   112.0000 </r>
       <r>   -33.6265     0.0000   112.0000 </r>
       <r>   -33.3856     0.0000   112.0000 </r>
       <r>   -33.1447     0.0000   112.0000 </r>
       <r>   -32.9039     0.0000   112.0000 </r>
       <r>   -32.6630     0.0000   112.0000 </r>
       <r>   -32.4222     0.0000   112.0000 </r>
       <r>   -32.1813     0.0000   112.0000 </r>
       <r>   -31.9404     0.0000   112.0000 </r>
       <r>   -31.6996     0.0000   112.0000 </r>
       <r>   -31.4587     0.0000   112.0000 </r>
       <r>   -31.2178     0.0000   112.0000 </r>
       <r>   -30.9770     0.0000   112.0000 </r>
       <r>   -30.7361     0.0000   112.0000 </r>
       <r>   -30.4953     0.0000   112.0000 </r>
       <r>   -30.2544     0.0000   112.0000 </r>
       <r>   -30.0135     0.0000   112.0000 </r>
       <r>   -29.7727     0.0000   112.0000 </r>
       <r>   -29.5318     0.0000   112.0000 </r>
       <r>   -29.2909     0.0000   112.0000 </r>
       <r>   -29.0501     0.0000   112.0000 </r>
       <r>   -28.8092     0.0000   112.0000 </r>
       <r>   -28.5684     0.0000   112.0000 </r>
       <r>   -28.3275     0.0000   112.0000 </r>
       <r>   -28.0866     0.0000   112.0000 </r>
       <r>   -27.8458     0.0000   112.0000 </r>
       <r>   -27.6049     0.0000   112.0000 </r>
       <r>   -27.3641     0.0000   112.0000 </r>
       <r>   -27.1232     0.0000   112.0000 </r>
       <r>   -26.8823     0.0000   112.0000 </r>
       <r>   -26.6415     0.0000   112.0000 </r>
       <r>   -26.4006     0.0000   112.0000 </r>
       <r>   -26.1597     0.0000   112.0000 </r>
       <r>   -25.9189     0.0000   112.0000 </r>
       <r>   -25.6780     0.0000   112.0000 </r>
       <r>   -25.4372     0.0000   112.0000 </r>
       <r>   -25.1963     0.0000   112.0000 </r>
       <r>   -24.9554     0.0000   112.0000 </r>
       <r>   -24.7146     0.0000   112.0000 </r>
       <r>   -24.4737     0.0000   112.0000 </r>
       <r>   -24.2328     0.0000   112.0000 </r>
       <r>   -23.9920     0.0000   112.0000 </r>
       <r>   -23.7511     0.0000   112.0000 </r>
       <r>   -23.5103     0.0000   112.0000 </r>
       <r>   -23.2694     0.0000   112.0000 </r>
       <r>   -23.0285     0.0000   112.0000 </r>
       <r>   -22.7877     0.0000   112.0000 </r>
       <r>   -22.5468     0.0000   112.0000 </r>
       <r>   -22.3059     0.0000   112.0000 </r>
       <r>   -22.0651     0.0000   112.0000 </r>
       <r>   -21.8242     0.0000   112.0000 </r>
       <r>   -21.5834     0.0000   112.0000 </r>
       <r>   -21.3425     0.0000   112.0000 </r>
       <r>   -21.1016     0.0000   112.0000 </r>
       <r>   -20.8608     0.0000   112.0000 </r>
       <r>   -20.6199     0.0000   112.0000 </r>
       <r>   -20.3790     0.0000   112.0000 </r>
       <r>   -20.1382     0.0000   112.0000 </r>
       <r>   -19.8973     0.0000   112.0000 </r>
       <r>   -19.6565     0.0000   112.0000 </r>
       <r>   -19.4156     0.0000   112.0000 </r>
       <r>   -19.1747     0.0000   112.0000 </r>
       <r>   -18.9339     0.0000   112.0000 </r>
       <r>   -18.6930     0.0000   112.0000 </r>
       <r>   -18.4521     0.0000   112.0000 </r>
       <r>   -18.2113     0.0000   112.0000 </r>
       <r>   -17.9704     0.0000   112.0000 </r>
       <r>   -17.7296     0.0000   112.0000 </r>
       <r>   -17.4887     0.0000   112.0000 </r>
       <r>   -17.2478     0.0000   112.0000 </r>
       <r>   -17.0070     0.0000   112.0000 </r>
       <r>   -16.7661     0.0000   112.0000 </r>
       <r>   -16.5252     0.0000   112.0000 </r>
       <r>   -16.2844     0.0000   112.0000 </r>
       <r>   -16.0435     0.0000   112.0000 </r>
       <r>   -15.8027     0.0000   112.0000 </r>
       <r>   -15.5618     0.0000   112.0000 </r>
       <r>   -15.3209     0.0000   112.0000 </r>
       <r>   -15.0801     0.0000   112.0000 </r>
       <r>   -14.8392     0.0000   112.0000 </r>
       <r>   -14.5984     0.0000   112.0000 </r>
       <r>   -14.3575     0.0000   112.0000 </r>
       <r>   -14.1166     0.0000   112.0000 </r>
       <r>   -13.8758     0.0000   112.0000 </r>
       <r>   -13.6349     0.0000   112.0000 </r>
       <r>   -13.3940     0.0000   112.0000 </r>
       <r>   -13.1532     0.0000   112.0000 </r>
       <r>   -12.9123     0.0156   112.0037 </r>
       <r>   -12.6715    44.3154   122.6777 </r>
       <r>   -12.4306    22.0970   128.0000 </r>
       <r>   -12.1897     0.0000   128.0000 </r>
       <r>   -11.9489     0.0000   128.0000 </r>
       <r>   -11.7080     0.0000   128.0000 </r>
       <r>   -11.4671     0.0000   128.0000 </r>
       <r>   -11.2263     0.0000   128.0000 </r>
       <r>   -10.9854     0.0000   128.0000 </r>
       <r>   -10.7446     0.0000   128.0000 </r>
       <r>   -10.5037     0.0000   128.0000 </r>
       <r>   -10.2628     0.0000   128.0000 </r>
       <r>   -10.0220     0.0000   128.0000 </r>
       <r>    -9.7811     0.0000   128.0000 </r>
       <r>    -9.5402     0.0000   128.0000 </r>
       <r>    -9.2994     0.0000   128.0000 </r>
       <r>    -9.0585     0.0000   128.0000 </r>
       <r>    -8.8177     0.0000   128.0000 </r>
       <r>    -8.5768     0.0000   128.0000 </r>
       <r>    -8.3359     0.0000   128.0000 </r>
       <r>    -8.0951     0.0000   128.0000 </r>
       <r>    -7.8542     0.0000   128.0000 </r>
       <r>    -7.6133     0.0000   128.0000 </r>
       <r>    -7.3725     0.6432   128.1549 </r>
       <r>    -7.1316    14.5613   131.6622 </r>
       <r>    -6.8908    29.3493   138.7313 </r>
       <r>    -6.6499    26.9916   145.2326 </r>
       <r>    -6.4090    28.0633   151.9920 </r>
       <r>    -6.1682     0.0334   152.0000 </r>
       <r>    -5.9273     0.0000   152.0000 </r>
       <r>    -5.6864     0.0000   152.0000 </r>
       <r>    -5.4456     0.0000   152.0000 </r>
       <r>    -5.2047     0.0000   152.0000 </r>
       <r>    -4.9639     0.0000   152.0000 </r>
       <r>    -4.7230     0.0000   152.0000 </r>
       <r>    -4.4821     0.0000   152.0000 </r>
       <r>    -4.2413     0.0000   152.0000 </r>
       <r>    -4.0004     0.0000   152.0000 </r>
       <r>    -3.7595     0.0000   152.0000 </r>
       <r>    -3.5187     0.0000   152.0000 </r>
       <r>    -3.2778     0.0000   152.0000 </r>
       <r>    -3.0370     0.0000   152.0000 </r>
       <r>    -2.7961     0.0000   152.0000 </r>
       <r>    -2.5552     0.0000   152.0000 </r>
       <r>    -2.3144     0.0000   152.0000 </r>
       <r>    -2.0735     0.0000   152.0000 </r>
       <r>    -1.8327     0.0000   152.0000 </r>
       <r>    -1.5918     0.0000   152.0000 </r>
       <r>    -1.3509     0.0000   152.0000 </r>
       <r>    -1.1101     0.0000   152.0000 </r>
       <r>    -0.8692     0.0000   152.0000 </r>
       <r>    -0.6283     0.0000   152.0000 </r>
       <r>    -0.3875     4.8183   153.1605 </r>
       <r>    -0.1466    20.2690   158.0426 </r>
       <r>     0.0942    12.2897   161.0027 </r>
       <r>     0.3351    18.9270   165.5615 </r>
       <r>     0.5760    29.7381   172.7243 </r>
       <r>     0.8168    39.5386   182.2476 </r>
       <r>     1.0577    37.2621   191.2226 </r>
       <r>     1.2986    30.6036   198.5939 </r>
       <r>     1.5394    20.8895   203.6254 </r>
       <r>     1.7803    28.7146   210.5416 </r>
       <r>     2.0211    37.5635   219.5893 </r>
       <r>     2.2620    26.7414   226.0303 </r>
       <r>     2.5029    27.1409   232.5675 </r>
       <r>     2.7437    31.6765   240.1972 </r>
       <r>     2.9846    44.7500   250.9757 </r>
       <r>     3.2255    45.4008   261.9111 </r>
       <r>     3.4663    30.9129   269.3568 </r>
       <r>     3.7072    11.9881   272.2443 </r>
       <r>     3.9480    18.7942   276.7711 </r>
       <r>     4.1889    51.8346   289.2561 </r>
       <r>     4.4298    45.6486   300.2511 </r>
       <r>     4.6706    15.5622   303.9995 </r>
       <r>     4.9115     0.0021   304.0000 </r>
       <r>     5.1524     0.0000   304.0000 </r>
       <r>     5.3932     0.0000   304.0000 </r>
       <r>     5.6341     0.0000   304.0000 </r>
       <r>     5.8749     0.0000   304.0000 </r>
       <r>     6.1158     0.0000   304.0000 </r>
       <r>     6.3567     0.4614   304.1111 </r>
       <r>     6.5975     4.2215   305.1279 </r>
       <r>     6.8384     8.1041   307.0799 </r>
       <r>     7.0793    20.2513   311.9577 </r>
       <r>     7.3201    44.8163   322.7523 </r>
       <r>     7.5610    54.1596   335.7973 </r>
       <r>     7.8018    62.8350   350.9319 </r>
       <r>     8.0427    66.4123   366.9281 </r>
       <r>     8.2836    70.6175   383.9372 </r>
       <r>     8.5244    58.3593   397.9937 </r>
       <r>     8.7653    58.8871   412.1774 </r>
       <r>     9.0061    46.6280   423.4083 </r>
       <r>     9.2470    28.9134   430.3725 </r>
       <r>     9.4879     8.4901   432.4174 </r>
       <r>     9.7287     3.2507   433.2004 </r>
       <r>     9.9696     8.5205   435.2527 </r>
       <r>    10.2105    18.9114   439.8077 </r>
       <r>    10.4513    17.9686   444.1357 </r>
       <r>    10.6922    17.4331   448.3346 </r>
       <r>    10.9330    27.4714   454.9515 </r>
       <r>    11.1739    18.9522   459.5164 </r>
       <r>    11.4148    24.1175   465.3254 </r>
       <r>    11.6556    14.2990   468.7694 </r>
       <r>    11.8965    13.9489   472.1292 </r>
       <r>    12.1374    16.4659   476.0952 </r>
       <r>    12.3782    37.4584   485.1175 </r>
       <r>    12.6191    32.3951   492.9203 </r>
       <r>    12.8599    29.1181   499.9338 </r>
       <r>    13.1008    20.1764   504.7935 </r>
       <r>    13.3417    22.6531   510.2498 </r>
       <r>    13.5825    27.3039   516.8263 </r>
       <r>    13.8234    23.7303   522.5420 </r>
       <r>    14.0643    26.0590   528.8186 </r>
       <r>    14.3051    18.8194   533.3515 </r>
       <r>    14.5460    16.0297   537.2125 </r>
       <r>    14.7868     3.2696   538.0000 </r>
       <r>    15.0277     0.0000   538.0000 </r>
       <r>    15.2686     0.0000   538.0000 </r>
       <r>    15.5094     0.0000   538.0000 </r>
       <r>    15.7503     0.0000   538.0000 </r>
       <r>    15.9912     0.0000   538.0000 </r>
       <r>    16.2320     0.0000   538.0000 </r>
       <r>    16.4729     0.0000   538.0000 </r>
       <r>    16.7137     0.0000   538.0000 </r>
       <r>    16.9546     0.0000   538.0000 </r>
       <r>    17.1955     0.0000   538.0000 </r>
       <r>    17.4363     0.0000   538.0000 </r>
       <r>    17.6772     0.0000   538.0000 </r>
       <r>    17.9181     0.0000   538.0000 </r>
      </set>
     </set>
    </array>
   </total>
  </dos>
 </calculation>
 <structure name="finalpos" >
  <crystal>
   <varray name="basis" >
    <v>      11.11223374       0.00000000      -0.00029034 </v>
    <v>       0.00000000      11.11745194       0.00000000 </v>
    <v>      -2.77510898       0.00000000      10.19872221 </v>
   </varray>
   <i name="volume">   1259.93837498 </i>
   <varray name="rec_basis" >
    <v>       0.08999155       0.00000000       0.02448702 </v>
    <v>       0.00000000       0.08994867       0.00000000 </v>
    <v>       0.00000256       0.00000000       0.09805220 </v>
   </varray>
  </crystal>
  <varray name="positions" >
   <v>       0.28894969       0.46933910       0.15583616 </v>
   <v>       0.78894969       0.46933910       0.15583616 </v>
   <v>       0.28894969       0.96933910       0.15583616 </v>
   <v>       0.78894969       0.96933910       0.15583616 </v>
   <v>       0.04736962       0.21934976       0.18586770 </v>
   <v>       0.54646972       0.21934976       0.18586770 </v>
   <v>       0.04646972       0.71934976       0.18586770 </v>
   <v>       0.54646972       0.71934976       0.18586770 </v>
   <v>       0.45353028       0.46934976       0.81413230 </v>
   <v>       0.95353028       0.46934976       0.81413230 </v>
   <v>       0.45353028       0.96934976       0.81413230 </v>
   <v>       0.95353028       0.96934976       0.81413230 </v>
   <v>       0.21105031       0.21933910       0.84416384 </v>
   <v>       0.71105031       0.21933910       0.84416384 </v>
   <v>       0.21105031       0.71933910       0.84416384 </v>
   <v>       0.71105031       0.71933910       0.84416384 </v>
   <v>       0.07654971       0.09530995       0.80250593 </v>
   <v>       0.57654971       0.09530995       0.80250593 </v>
   <v>       0.07654971       0.59530995       0.80250593 </v>
   <v>       0.57654971       0.59530995       0.80250593 </v>
   <v>       0.32470466       0.34338175       0.80250383 </v>
   <v>       0.82470466       0.34338175       0.80250383 </v>
   <v>       0.32470466       0.84338175       0.80250383 </v>
   <v>       0.82470466       0.84338175       0.80250383 </v>
   <v>       0.17529534       0.09338175       0.19749617 </v>
   <v>       0.67529534       0.09338175       0.19749617 </v>
   <v>       0.17529534       0.59338175       0.19749617 </v>
   <v>       0.67529534       0.59338175       0.19749617 </v>
   <v>       0.42345029       0.34530995       0.19749407 </v>
   <v>       0.92345029       0.34530995       0.19749407 </v>
   <v>       0.42345029       0.84530995       0.19749407 </v>
   <v>       0.92345029       0.84530995       0.19749407 </v>
   <v>       0.21868463       0.34523395       0.37102476 </v>
   <v>       0.71868463       0.34523395       0.37102476 </v>
   <v>       0.21868463       0.84523395       0.37102476 </v>
   <v>       0.71868463       0.84523395       0.37102476 </v>
   <v>       0.46681660       0.09344897       0.37102399 </v>
   <v>       0.96681660       0.09344897       0.37102399 </v>
   <v>       0.46681660       0.59344897       0.37102399 </v>
   <v>       0.96681660       0.59344897       0.37102399 </v>
   <v>       0.03318340       0.34344897       0.62897601 </v>
   <v>       0.53318340       0.34344897       0.62897601 </v>
   <v>       0.03318340       0.84344897       0.62897601 </v>
   <v>       0.53318340       0.84344897       0.62897601 </v>
   <v>       0.28131537       0.09523395       0.62897524 </v>
   <v>       0.78131537       0.09523395       0.62897524 </v>
   <v>       0.28131537       0.59523395       0.62897524 </v>
   <v>       0.78131537       0.59523395       0.62897524 </v>
   <v>       0.12439279       0.34434306       0.00000412 </v>
   <v>       0.62439279       0.34434306       0.00000412 </v>
   <v>       0.12439279       0.84434306       0.00000412 </v>
   <v>       0.62439279       0.84434306       0.00000412 </v>
   <v>       0.37560721       0.09434306       0.99999588 </v>
   <v>       0.87560721       0.09434306       0.99999588 </v>
   <v>       0.37560721       0.59434306       0.99999588 </v>
   <v>       0.87560721       0.59434306       0.99999588 </v>
   <v>       0.03824426       0.10634799       0.60632306 </v>
   <v>       0.53824426       0.10634799       0.60632306 </v>
   <v>       0.03824426       0.60634799       0.60632306 </v>
   <v>       0.53824426       0.60634799       0.60632306 </v>
   <v>       0.26492712       0.33232651       0.60632763 </v>
   <v>       0.76492712       0.33232651       0.60632763 </v>
   <v>       0.26492712       0.83232651       0.60632763 </v>
   <v>       0.76492712       0.83232651       0.60632763 </v>
   <v>       0.23507288       0.08232651       0.39367237 </v>
   <v>       0.73507288       0.08232651       0.39367237 </v>
   <v>       0.23507288       0.58232651       0.39367237 </v>
   <v>       0.73507288       0.58232651       0.39367237 </v>
   <v>       0.46175574       0.35634799       0.39367694 </v>
   <v>       0.96175574       0.35634799       0.39367694 </v>
   <v>       0.46175574       0.85634799       0.39367694 </v>
   <v>       0.96175574       0.85634799       0.39367694 </v>
   <v>       0.03848398       0.46936404       0.15397331 </v>
   <v>       0.53848398       0.46936404       0.15397331 </v>
   <v>       0.03848398       0.96936404       0.15397331 </v>
   <v>       0.53848398       0.96936404       0.15397331 </v>
   <v>       0.28861657       0.21935690       0.15447525 </v>
   <v>       0.78861657       0.21935690       0.15447525 </v>
   <v>       0.28861657       0.71935690       0.15447525 </v>
   <v>       0.78861657       0.71935690       0.15447525 </v>
   <v>       0.21138343       0.46935690       0.84552475 </v>
   <v>       0.71138343       0.46935690       0.84552475 </v>
   <v>       0.21138343       0.96935690       0.84552475 </v>
   <v>       0.71138343       0.96935690       0.84552475 </v>
   <v>       0.46151602       0.21936404       0.84602669 </v>
   <v>       0.96151602       0.21936404       0.84602669 </v>
   <v>       0.46151602       0.71936404       0.84602669 </v>
   <v>       0.96151602       0.71936404       0.84602669 </v>
  </varray>
 </structure>
</modeling>
