   9   9   0   0
  0.1367340E+02  0.3836790E-09  0.5663702E-09  0.5663702E-09  0.5000000E-15
  1.000000000000000E-004
  CAR 
 unknown system                          
     23.30550528    -54.91598121  301      5.11900967      1.00000000
    -54.916  0.0000E+00  0.0000E+00  0.0000E+00  0.0000E+00
    -54.655  0.0000E+00  0.0000E+00  0.0000E+00  0.0000E+00
    -54.395  0.0000E+00  0.0000E+00  0.0000E+00  0.0000E+00
    -54.134  0.0000E+00  0.0000E+00  0.0000E+00  0.0000E+00
    -53.873  0.0000E+00  0.0000E+00  0.0000E+00  0.0000E+00
    -53.612  0.0000E+00  0.0000E+00  0.0000E+00  0.0000E+00
    -53.352  0.0000E+00  0.0000E+00  0.0000E+00  0.0000E+00
    -53.091  0.0000E+00  0.0000E+00  0.0000E+00  0.0000E+00
    -52.830  0.0000E+00  0.0000E+00  0.0000E+00  0.0000E+00
    -52.569  0.0000E+00  0.0000E+00  0.0000E+00  0.0000E+00
    -52.309  0.0000E+00  0.0000E+00  0.0000E+00  0.0000E+00
    -52.048  0.0000E+00  0.0000E+00  0.0000E+00  0.0000E+00
    -51.787  0.0000E+00  0.0000E+00  0.0000E+00  0.0000E+00
    -51.526  0.7905E-05  0.0000E+00  0.2061E-05  0.0000E+00
    -51.266  0.7637E+01  0.0000E+00  0.1991E+01  0.0000E+00
    -51.005  0.3747E+01  0.0000E+00  0.2968E+01  0.0000E+00
    -50.744  0.1221E+00  0.0000E+00  0.3000E+01  0.0000E+00
    -50.483  0.0000E+00  0.0000E+00  0.3000E+01  0.0000E+00
    -50.223  0.1057E+00  0.0000E+00  0.3028E+01  0.0000E+00
    -49.962  0.7566E+01  0.0000E+00  0.5000E+01  0.0000E+00
    -49.701  0.9695E+01  0.0000E+00  0.7528E+01  0.0000E+00
    -49.440  0.5645E+01  0.0000E+00  0.9000E+01  0.0000E+00
    -49.180  0.0000E+00  0.0000E+00  0.9000E+01  0.0000E+00
    -48.919  0.0000E+00  0.0000E+00  0.9000E+01  0.0000E+00
    -48.658  0.0000E+00  0.0000E+00  0.9000E+01  0.0000E+00
    -48.398  0.0000E+00  0.0000E+00  0.9000E+01  0.0000E+00
    -48.137  0.0000E+00  0.0000E+00  0.9000E+01  0.0000E+00
    -47.876  0.0000E+00  0.0000E+00  0.9000E+01  0.0000E+00
    -47.615  0.0000E+00  0.0000E+00  0.9000E+01  0.0000E+00
    -47.355  0.0000E+00  0.0000E+00  0.9000E+01  0.0000E+00
    -47.094  0.0000E+00  0.0000E+00  0.9000E+01  0.0000E+00
    -46.833  0.0000E+00  0.6218E-09  0.9000E+01  0.1621E-09
    -46.572  0.0000E+00  0.6401E+01  0.9000E+01  0.1669E+01
    -46.312  0.0000E+00  0.6739E+01  0.9000E+01  0.3426E+01
    -46.051  0.0000E+00  0.1370E+02  0.9000E+01  0.7000E+01
    -45.790  0.0000E+00  0.7630E+01  0.9000E+01  0.8989E+01
    -45.529  0.0000E+00  0.4205E-01  0.9000E+01  0.9000E+01
    -45.269  0.0000E+00  0.0000E+00  0.9000E+01  0.9000E+01
    -45.008  0.0000E+00  0.0000E+00  0.9000E+01  0.9000E+01
    -44.747  0.0000E+00  0.0000E+00  0.9000E+01  0.9000E+01
    -44.486  0.0000E+00  0.0000E+00  0.9000E+01  0.9000E+01
    -44.226  0.0000E+00  0.0000E+00  0.9000E+01  0.9000E+01
    -43.965  0.0000E+00  0.0000E+00  0.9000E+01  0.9000E+01
    -43.704  0.0000E+00  0.0000E+00  0.9000E+01  0.9000E+01
    -43.443  0.0000E+00  0.0000E+00  0.9000E+01  0.9000E+01
    -43.183  0.0000E+00  0.0000E+00  0.9000E+01  0.9000E+01
    -42.922  0.0000E+00  0.0000E+00  0.9000E+01  0.9000E+01
    -42.661  0.0000E+00  0.0000E+00  0.9000E+01  0.9000E+01
    -42.401  0.0000E+00  0.0000E+00  0.9000E+01  0.9000E+01
    -42.140  0.0000E+00  0.0000E+00  0.9000E+01  0.9000E+01
    -41.879  0.0000E+00  0.0000E+00  0.9000E+01  0.9000E+01
    -41.618  0.0000E+00  0.0000E+00  0.9000E+01  0.9000E+01
    -41.358  0.0000E+00  0.0000E+00  0.9000E+01  0.9000E+01
    -41.097  0.0000E+00  0.0000E+00  0.9000E+01  0.9000E+01
    -40.836  0.0000E+00  0.0000E+00  0.9000E+01  0.9000E+01
    -40.575  0.0000E+00  0.0000E+00  0.9000E+01  0.9000E+01
    -40.315  0.4626E-06  0.7340E-06  0.9000E+01  0.9000E+01
    -40.054  0.7527E+01  0.7555E+01  0.1096E+02  0.1097E+02
    -39.793  0.1433E+00  0.1160E+00  0.1100E+02  0.1100E+02
    -39.532  0.0000E+00  0.0000E+00  0.1100E+02  0.1100E+02
    -39.272  0.0000E+00  0.0000E+00  0.1100E+02  0.1100E+02
    -39.011  0.0000E+00  0.0000E+00  0.1100E+02  0.1100E+02
    -38.750  0.0000E+00  0.0000E+00  0.1100E+02  0.1100E+02
    -38.489  0.0000E+00  0.0000E+00  0.1100E+02  0.1100E+02
    -38.229  0.0000E+00  0.0000E+00  0.1100E+02  0.1100E+02
    -37.968  0.0000E+00  0.0000E+00  0.1100E+02  0.1100E+02
    -37.707  0.0000E+00  0.0000E+00  0.1100E+02  0.1100E+02
    -37.447  0.0000E+00  0.0000E+00  0.1100E+02  0.1100E+02
    -37.186  0.0000E+00  0.0000E+00  0.1100E+02  0.1100E+02
    -36.925  0.0000E+00  0.0000E+00  0.1100E+02  0.1100E+02
    -36.664  0.0000E+00  0.0000E+00  0.1100E+02  0.1100E+02
    -36.404  0.0000E+00  0.0000E+00  0.1100E+02  0.1100E+02
    -36.143  0.0000E+00  0.0000E+00  0.1100E+02  0.1100E+02
    -35.882  0.0000E+00  0.0000E+00  0.1100E+02  0.1100E+02
    -35.621  0.0000E+00  0.0000E+00  0.1100E+02  0.1100E+02
    -35.361  0.0000E+00  0.0000E+00  0.1100E+02  0.1100E+02
    -35.100  0.0000E+00  0.0000E+00  0.1100E+02  0.1100E+02
    -34.839  0.0000E+00  0.0000E+00  0.1100E+02  0.1100E+02
    -34.578  0.0000E+00  0.0000E+00  0.1100E+02  0.1100E+02
    -34.318  0.0000E+00  0.0000E+00  0.1100E+02  0.1100E+02
    -34.057  0.0000E+00  0.0000E+00  0.1100E+02  0.1100E+02
    -33.796  0.0000E+00  0.0000E+00  0.1100E+02  0.1100E+02
    -33.535  0.0000E+00  0.0000E+00  0.1100E+02  0.1100E+02
    -33.275  0.0000E+00  0.0000E+00  0.1100E+02  0.1100E+02
    -33.014  0.0000E+00  0.0000E+00  0.1100E+02  0.1100E+02
    -32.753  0.0000E+00  0.0000E+00  0.1100E+02  0.1100E+02
    -32.492  0.0000E+00  0.0000E+00  0.1100E+02  0.1100E+02
    -32.232  0.0000E+00  0.0000E+00  0.1100E+02  0.1100E+02
    -31.971  0.0000E+00  0.0000E+00  0.1100E+02  0.1100E+02
    -31.710  0.0000E+00  0.0000E+00  0.1100E+02  0.1100E+02
    -31.450  0.0000E+00  0.0000E+00  0.1100E+02  0.1100E+02
    -31.189  0.0000E+00  0.0000E+00  0.1100E+02  0.1100E+02
    -30.928  0.0000E+00  0.0000E+00  0.1100E+02  0.1100E+02
    -30.667  0.0000E+00  0.0000E+00  0.1100E+02  0.1100E+02
    -30.407  0.0000E+00  0.0000E+00  0.1100E+02  0.1100E+02
    -30.146  0.0000E+00  0.0000E+00  0.1100E+02  0.1100E+02
    -29.885  0.0000E+00  0.0000E+00  0.1100E+02  0.1100E+02
    -29.624  0.0000E+00  0.0000E+00  0.1100E+02  0.1100E+02
    -29.364  0.0000E+00  0.0000E+00  0.1100E+02  0.1100E+02
    -29.103  0.0000E+00  0.0000E+00  0.1100E+02  0.1100E+02
    -28.842  0.0000E+00  0.0000E+00  0.1100E+02  0.1100E+02
    -28.581  0.0000E+00  0.0000E+00  0.1100E+02  0.1100E+02
    -28.321  0.0000E+00  0.0000E+00  0.1100E+02  0.1100E+02
    -28.060  0.0000E+00  0.0000E+00  0.1100E+02  0.1100E+02
    -27.799  0.0000E+00  0.0000E+00  0.1100E+02  0.1100E+02
    -27.538  0.0000E+00  0.0000E+00  0.1100E+02  0.1100E+02
    -27.278  0.0000E+00  0.0000E+00  0.1100E+02  0.1100E+02
    -27.017  0.0000E+00  0.0000E+00  0.1100E+02  0.1100E+02
    -26.756  0.0000E+00  0.0000E+00  0.1100E+02  0.1100E+02
    -26.496  0.0000E+00  0.0000E+00  0.1100E+02  0.1100E+02
    -26.235  0.0000E+00  0.0000E+00  0.1100E+02  0.1100E+02
    -25.974  0.0000E+00  0.0000E+00  0.1100E+02  0.1100E+02
    -25.713  0.0000E+00  0.0000E+00  0.1100E+02  0.1100E+02
    -25.453  0.0000E+00  0.0000E+00  0.1100E+02  0.1100E+02
    -25.192  0.0000E+00  0.0000E+00  0.1100E+02  0.1100E+02
    -24.931  0.0000E+00  0.0000E+00  0.1100E+02  0.1100E+02
    -24.670  0.0000E+00  0.0000E+00  0.1100E+02  0.1100E+02
    -24.410  0.0000E+00  0.0000E+00  0.1100E+02  0.1100E+02
    -24.149  0.0000E+00  0.0000E+00  0.1100E+02  0.1100E+02
    -23.888  0.0000E+00  0.0000E+00  0.1100E+02  0.1100E+02
    -23.627  0.0000E+00  0.0000E+00  0.1100E+02  0.1100E+02
    -23.367  0.0000E+00  0.0000E+00  0.1100E+02  0.1100E+02
    -23.106  0.0000E+00  0.0000E+00  0.1100E+02  0.1100E+02
    -22.845  0.0000E+00  0.0000E+00  0.1100E+02  0.1100E+02
    -22.584  0.0000E+00  0.0000E+00  0.1100E+02  0.1100E+02
    -22.324  0.0000E+00  0.0000E+00  0.1100E+02  0.1100E+02
    -22.063  0.0000E+00  0.0000E+00  0.1100E+02  0.1100E+02
    -21.802  0.0000E+00  0.0000E+00  0.1100E+02  0.1100E+02
    -21.541  0.0000E+00  0.0000E+00  0.1100E+02  0.1100E+02
    -21.281  0.0000E+00  0.0000E+00  0.1100E+02  0.1100E+02
    -21.020  0.0000E+00  0.0000E+00  0.1100E+02  0.1100E+02
    -20.759  0.0000E+00  0.0000E+00  0.1100E+02  0.1100E+02
    -20.499  0.0000E+00  0.0000E+00  0.1100E+02  0.1100E+02
    -20.238  0.0000E+00  0.0000E+00  0.1100E+02  0.1100E+02
    -19.977  0.0000E+00  0.0000E+00  0.1100E+02  0.1100E+02
    -19.716  0.0000E+00  0.0000E+00  0.1100E+02  0.1100E+02
    -19.456  0.0000E+00  0.0000E+00  0.1100E+02  0.1100E+02
    -19.195  0.0000E+00  0.0000E+00  0.1100E+02  0.1100E+02
    -18.934  0.0000E+00  0.0000E+00  0.1100E+02  0.1100E+02
    -18.673  0.0000E+00  0.0000E+00  0.1100E+02  0.1100E+02
    -18.413  0.0000E+00  0.0000E+00  0.1100E+02  0.1100E+02
    -18.152  0.0000E+00  0.0000E+00  0.1100E+02  0.1100E+02
    -17.891  0.0000E+00  0.0000E+00  0.1100E+02  0.1100E+02
    -17.630  0.0000E+00  0.0000E+00  0.1100E+02  0.1100E+02
    -17.370  0.0000E+00  0.0000E+00  0.1100E+02  0.1100E+02
    -17.109  0.0000E+00  0.0000E+00  0.1100E+02  0.1100E+02
    -16.848  0.0000E+00  0.0000E+00  0.1100E+02  0.1100E+02
    -16.587  0.0000E+00  0.0000E+00  0.1100E+02  0.1100E+02
    -16.327  0.0000E+00  0.0000E+00  0.1100E+02  0.1100E+02
    -16.066  0.0000E+00  0.0000E+00  0.1100E+02  0.1100E+02
    -15.805  0.0000E+00  0.0000E+00  0.1100E+02  0.1100E+02
    -15.544  0.0000E+00  0.0000E+00  0.1100E+02  0.1100E+02
    -15.284  0.0000E+00  0.0000E+00  0.1100E+02  0.1100E+02
    -15.023  0.0000E+00  0.0000E+00  0.1100E+02  0.1100E+02
    -14.762  0.0000E+00  0.0000E+00  0.1100E+02  0.1100E+02
    -14.502  0.0000E+00  0.0000E+00  0.1100E+02  0.1100E+02
    -14.241  0.0000E+00  0.0000E+00  0.1100E+02  0.1100E+02
    -13.980  0.0000E+00  0.0000E+00  0.1100E+02  0.1100E+02
    -13.719  0.4440E-05  0.0000E+00  0.1100E+02  0.1100E+02
    -13.459  0.1832E+01  0.7299E-16  0.1148E+02  0.1100E+02
    -13.198  0.5188E+01  0.1012E+00  0.1283E+02  0.1103E+02
    -12.937  0.6503E+00  0.5953E+01  0.1300E+02  0.1258E+02
    -12.676  0.0000E+00  0.1616E+01  0.1300E+02  0.1300E+02
    -12.416  0.0000E+00  0.0000E+00  0.1300E+02  0.1300E+02
    -12.155  0.0000E+00  0.0000E+00  0.1300E+02  0.1300E+02
    -11.894  0.0000E+00  0.0000E+00  0.1300E+02  0.1300E+02
    -11.633  0.0000E+00  0.0000E+00  0.1300E+02  0.1300E+02
    -11.373  0.0000E+00  0.0000E+00  0.1300E+02  0.1300E+02
    -11.112  0.0000E+00  0.0000E+00  0.1300E+02  0.1300E+02
    -10.851  0.0000E+00  0.0000E+00  0.1300E+02  0.1300E+02
    -10.590  0.0000E+00  0.0000E+00  0.1300E+02  0.1300E+02
    -10.330  0.0000E+00  0.0000E+00  0.1300E+02  0.1300E+02
    -10.069  0.0000E+00  0.0000E+00  0.1300E+02  0.1300E+02
     -9.808  0.0000E+00  0.0000E+00  0.1300E+02  0.1300E+02
     -9.548  0.0000E+00  0.0000E+00  0.1300E+02  0.1300E+02
     -9.287  0.0000E+00  0.0000E+00  0.1300E+02  0.1300E+02
     -9.026  0.0000E+00  0.0000E+00  0.1300E+02  0.1300E+02
     -8.765  0.0000E+00  0.0000E+00  0.1300E+02  0.1300E+02
     -8.505  0.0000E+00  0.0000E+00  0.1300E+02  0.1300E+02
     -8.244  0.0000E+00  0.0000E+00  0.1300E+02  0.1300E+02
     -7.983  0.0000E+00  0.0000E+00  0.1300E+02  0.1300E+02
     -7.722  0.5251E-09  0.0000E+00  0.1300E+02  0.1300E+02
     -7.462  0.2452E+00  0.9207E-10  0.1306E+02  0.1300E+02
     -7.201  0.2699E+01  0.3103E+00  0.1377E+02  0.1308E+02
     -6.940  0.4136E+01  0.3321E+01  0.1485E+02  0.1395E+02
     -6.679  0.5904E+00  0.3465E+01  0.1500E+02  0.1485E+02
     -6.419  0.0000E+00  0.5739E+00  0.1500E+02  0.1500E+02
     -6.158  0.0000E+00  0.8135E-05  0.1500E+02  0.1500E+02
     -5.897  0.0000E+00  0.0000E+00  0.1500E+02  0.1500E+02
     -5.636  0.0000E+00  0.0000E+00  0.1500E+02  0.1500E+02
     -5.376  0.0000E+00  0.0000E+00  0.1500E+02  0.1500E+02
     -5.115  0.0000E+00  0.0000E+00  0.1500E+02  0.1500E+02
     -4.854  0.0000E+00  0.0000E+00  0.1500E+02  0.1500E+02
     -4.593  0.0000E+00  0.0000E+00  0.1500E+02  0.1500E+02
     -4.333  0.0000E+00  0.0000E+00  0.1500E+02  0.1500E+02
     -4.072  0.0000E+00  0.0000E+00  0.1500E+02  0.1500E+02
     -3.811  0.0000E+00  0.0000E+00  0.1500E+02  0.1500E+02
     -3.551  0.0000E+00  0.0000E+00  0.1500E+02  0.1500E+02
     -3.290  0.0000E+00  0.0000E+00  0.1500E+02  0.1500E+02
     -3.029  0.0000E+00  0.0000E+00  0.1500E+02  0.1500E+02
     -2.768  0.0000E+00  0.0000E+00  0.1500E+02  0.1500E+02
     -2.508  0.0000E+00  0.0000E+00  0.1500E+02  0.1500E+02
     -2.247  0.1112E-03  0.0000E+00  0.1500E+02  0.1500E+02
     -1.986  0.1966E+01  0.0000E+00  0.1551E+02  0.1500E+02
     -1.725  0.3821E+01  0.0000E+00  0.1651E+02  0.1500E+02
     -1.465  0.1433E+01  0.0000E+00  0.1688E+02  0.1500E+02
     -1.204  0.2136E+01  0.0000E+00  0.1744E+02  0.1500E+02
     -0.943  0.6281E+01  0.1008E-03  0.1908E+02  0.1500E+02
     -0.682  0.4942E+01  0.3299E+00  0.2037E+02  0.1509E+02
     -0.422  0.5885E+01  0.1319E+01  0.2190E+02  0.1543E+02
     -0.161  0.4734E+01  0.2260E+01  0.2313E+02  0.1602E+02
      0.100  0.5052E+01  0.2621E+01  0.2445E+02  0.1670E+02
      0.361  0.7170E+01  0.2598E+01  0.2632E+02  0.1738E+02
      0.621  0.5421E+01  0.3037E+01  0.2773E+02  0.1817E+02
      0.882  0.4430E+01  0.4357E+01  0.2889E+02  0.1931E+02
      1.143  0.4651E+01  0.4592E+01  0.3010E+02  0.2051E+02
      1.403  0.5114E+01  0.1906E+01  0.3144E+02  0.2100E+02
      1.664  0.4455E+01  0.2197E+01  0.3260E+02  0.2157E+02
      1.925  0.4602E+01  0.4327E+01  0.3380E+02  0.2270E+02
      2.186  0.3693E+01  0.2412E+01  0.3476E+02  0.2333E+02
      2.446  0.2283E+01  0.2381E+01  0.3536E+02  0.2395E+02
      2.707  0.3384E+01  0.3454E+01  0.3624E+02  0.2485E+02
      2.968  0.2357E+01  0.3138E+01  0.3685E+02  0.2567E+02
      3.229  0.3435E+01  0.4333E+01  0.3775E+02  0.2680E+02
      3.489  0.2192E+01  0.3856E+01  0.3832E+02  0.2781E+02
      3.750  0.2527E+01  0.8139E+00  0.3898E+02  0.2802E+02
      4.011  0.4434E+01  0.7180E+00  0.4013E+02  0.2821E+02
      4.272  0.3065E+01  0.3382E+01  0.4093E+02  0.2909E+02
      4.532  0.2672E+01  0.1898E+01  0.4163E+02  0.2958E+02
      4.793  0.1416E+01  0.1493E+01  0.4200E+02  0.2997E+02
      5.054  0.3431E-03  0.1066E+00  0.4200E+02  0.3000E+02
      5.315  0.0000E+00  0.0000E+00  0.4200E+02  0.3000E+02
      5.575  0.0000E+00  0.0000E+00  0.4200E+02  0.3000E+02
      5.836  0.0000E+00  0.0000E+00  0.4200E+02  0.3000E+02
      6.097  0.0000E+00  0.3945E-03  0.4200E+02  0.3000E+02
      6.358  0.0000E+00  0.1043E+00  0.4200E+02  0.3003E+02
      6.618  0.7952E-07  0.5757E+00  0.4200E+02  0.3018E+02
      6.879  0.2187E-01  0.1775E+01  0.4201E+02  0.3064E+02
      7.140  0.4238E-04  0.5410E+01  0.4201E+02  0.3205E+02
      7.400  0.8268E-01  0.6043E+01  0.4203E+02  0.3363E+02
      7.661  0.7082E-01  0.4654E+01  0.4205E+02  0.3484E+02
      7.922  0.3863E+00  0.6609E+01  0.4215E+02  0.3656E+02
      8.183  0.2557E+00  0.6627E+01  0.4221E+02  0.3829E+02
      8.443  0.2560E+00  0.4274E+01  0.4228E+02  0.3941E+02
      8.704  0.8242E+00  0.5905E+01  0.4249E+02  0.4094E+02
      8.965  0.9963E+00  0.3170E+01  0.4275E+02  0.4177E+02
      9.226  0.1890E+01  0.1182E+01  0.4325E+02  0.4208E+02
      9.486  0.1783E+01  0.5407E+00  0.4371E+02  0.4222E+02
      9.747  0.1130E+01  0.4424E+00  0.4401E+02  0.4234E+02
     10.008  0.1041E+01  0.1329E+01  0.4428E+02  0.4268E+02
     10.269  0.2378E+01  0.1765E+01  0.4490E+02  0.4314E+02
     10.529  0.1566E+01  0.1537E+01  0.4531E+02  0.4354E+02
     10.790  0.2003E+01  0.2732E+01  0.4583E+02  0.4426E+02
     11.051  0.2130E+01  0.2184E+01  0.4638E+02  0.4483E+02
     11.312  0.2123E+01  0.1883E+01  0.4694E+02  0.4532E+02
     11.572  0.2259E+01  0.1710E+01  0.4753E+02  0.4576E+02
     11.833  0.3262E+01  0.1998E+01  0.4838E+02  0.4628E+02
     12.094  0.2171E+01  0.1921E+01  0.4894E+02  0.4678E+02
     12.354  0.2463E+01  0.2962E+01  0.4959E+02  0.4756E+02
     12.615  0.2494E+01  0.3101E+01  0.5024E+02  0.4836E+02
     12.876  0.2247E+01  0.2014E+01  0.5082E+02  0.4889E+02
     13.137  0.2334E+01  0.2716E+01  0.5143E+02  0.4960E+02
     13.397  0.1820E+01  0.3326E+01  0.5190E+02  0.5047E+02
     13.658  0.2144E+01  0.2098E+01  0.5246E+02  0.5101E+02
     13.919  0.1480E+01  0.2597E+01  0.5285E+02  0.5169E+02
     14.180  0.1490E+01  0.2102E+01  0.5324E+02  0.5224E+02
     14.440  0.1466E+01  0.1192E+01  0.5362E+02  0.5255E+02
     14.701  0.8422E+00  0.1983E+01  0.5384E+02  0.5307E+02
     14.962  0.7771E+00  0.6939E+00  0.5404E+02  0.5325E+02
     15.223  0.1311E+01  0.1397E+01  0.5438E+02  0.5361E+02
     15.483  0.1256E+01  0.1573E+01  0.5471E+02  0.5402E+02
     15.744  0.1890E+01  0.1080E+01  0.5520E+02  0.5430E+02
     16.005  0.1476E+01  0.1323E+01  0.5559E+02  0.5465E+02
     16.266  0.2325E+01  0.1493E+01  0.5620E+02  0.5504E+02
     16.526  0.2429E+01  0.1306E+01  0.5683E+02  0.5538E+02
     16.787  0.2317E+01  0.2477E+01  0.5743E+02  0.5602E+02
     17.048  0.2025E+01  0.1711E+01  0.5796E+02  0.5647E+02
     17.309  0.1572E+01  0.2848E+01  0.5837E+02  0.5721E+02
     17.569  0.2077E+01  0.1839E+01  0.5891E+02  0.5769E+02
     17.830  0.1324E+01  0.2126E+01  0.5926E+02  0.5825E+02
     18.091  0.1260E+01  0.1483E+01  0.5959E+02  0.5863E+02
     18.351  0.1232E+01  0.1649E+01  0.5991E+02  0.5906E+02
     18.612  0.1452E+00  0.1709E+01  0.5995E+02  0.5951E+02
     18.873  0.1205E+00  0.1071E+01  0.5998E+02  0.5979E+02
     19.134  0.8713E-01  0.7276E+00  0.6000E+02  0.5998E+02
     19.394  0.0000E+00  0.1767E-02  0.6000E+02  0.5998E+02
     19.655  0.0000E+00  0.3210E-03  0.6000E+02  0.5998E+02
     19.916  0.0000E+00  0.8734E-01  0.6000E+02  0.6000E+02
     20.177  0.0000E+00  0.0000E+00  0.6000E+02  0.6000E+02
     20.437  0.0000E+00  0.0000E+00  0.6000E+02  0.6000E+02
     20.698  0.0000E+00  0.0000E+00  0.6000E+02  0.6000E+02
     20.959  0.0000E+00  0.0000E+00  0.6000E+02  0.6000E+02
     21.220  0.0000E+00  0.0000E+00  0.6000E+02  0.6000E+02
     21.480  0.0000E+00  0.0000E+00  0.6000E+02  0.6000E+02
     21.741  0.0000E+00  0.0000E+00  0.6000E+02  0.6000E+02
     22.002  0.0000E+00  0.0000E+00  0.6000E+02  0.6000E+02
     22.263  0.0000E+00  0.0000E+00  0.6000E+02  0.6000E+02
     22.523  0.0000E+00  0.0000E+00  0.6000E+02  0.6000E+02
     22.784  0.0000E+00  0.0000E+00  0.6000E+02  0.6000E+02
     23.045  0.0000E+00  0.0000E+00  0.6000E+02  0.6000E+02
     23.306  0.0000E+00  0.0000E+00  0.6000E+02  0.6000E+02
