    9    9    1    2
  0.1367340E+02  0.3836789E-09  0.5663702E-09  0.5663702E-09  0.5000000E-15
  1.000000000000000E-004
  CAR 
 unknown system                          
     72     88     60
 
  0.0000000E+00  0.0000000E+00  0.0000000E+00  0.5714286E-02
    1      -51.358299    -46.606274   1.000000   1.000000
    2      -51.356358    -46.603772   1.000000   1.000000
    3      -51.070587    -46.320980   1.000000   1.000000
    4      -50.145858    -46.318466   1.000000   1.000000
    5      -50.143751    -46.287793   1.000000   1.000000
    6      -49.837610    -46.193330   1.000000   1.000000
    7      -49.812451    -46.162207   1.000000   1.000000
    8      -49.703799    -45.931196   1.000000   1.000000
    9      -49.581831    -45.870385   1.000000   1.000000
   10      -40.128404    -40.131442   1.000000   1.000000
   11      -40.127112    -40.130123   1.000000   1.000000
   12      -13.551342    -13.151868   1.000000   1.000000
   13      -13.423326    -13.064477   1.000000   1.000000
   14       -7.529317     -7.257786   1.000000   1.000000
   15       -7.048910     -6.800783   1.000000   1.000000
   16       -1.766386     -0.529257   1.000000   1.000000
   17       -1.370228      0.219604   1.000000   1.000000
   18       -1.215341      0.625187   1.000000   1.000000
   19       -0.935850      0.647788   1.000000   1.000000
   20       -0.748943      0.818124   1.000000   1.000000
   21       -0.435220      0.872793   1.000000   1.000000
   22       -0.236874      1.835678   1.000000   1.000000
   23       -0.209331      2.823054   1.000000   1.000000
   24        0.159479      3.000582   1.000000   1.000000
   25        0.238160      3.293385   1.000000   1.000000
   26        0.422591      3.314456   1.000000   1.000000
   27        0.439485      3.601309   1.000000   1.000000
   28        0.581050      3.746420   1.000000   1.000000
   29        0.582076      3.815687   1.000000   1.000000
   30        0.606626      4.759502   1.000000   1.000000
   31        0.993335      6.640417   1.000000   0.000000
   32        1.246072      6.707717   1.000000   0.000000
   33        1.518094      6.828488   1.000000   0.000000
   34        1.606238      6.975531   1.000000   0.000000
   35        2.542823      7.574725   1.000000   0.000000
   36        2.598901      7.701480   1.000000   0.000000
   37        3.231586      7.926924   1.000000   0.000000
   38        3.865435      8.029405   1.000000   0.000000
   39        4.014052      8.326968   1.000000   0.000000
   40        4.022978      8.330611   1.000000   0.000000
   41        4.621503      8.413463   1.000000   0.000000
   42        4.702243      8.433174   1.000000   0.000000
   43        6.776860      9.004574   0.000000   0.000000
   44        7.320739      9.224127   0.000000   0.000000
   45        9.029591      9.674674   0.000000   0.000000
   46        9.472495     10.257061   0.000000   0.000000
   47       10.714588     11.327553   0.000000   0.000000
   48       11.662773     12.563530   0.000000   0.000000
   49       12.220744     13.377967   0.000000   0.000000
   50       13.792166     14.419671   0.000000   0.000000
   51       14.013502     14.520198   0.000000   0.000000
   52       15.334018     15.514570   0.000000   0.000000
   53       15.487361     15.669110   0.000000   0.000000
   54       15.563666     16.244267   0.000000   0.000000
   55       15.598038     16.290886   0.000000   0.000000
   56       15.933271     17.096387   0.000000   0.000000
   57       16.359717     17.134667   0.000000   0.000000
   58       16.894722     17.386264   0.000000   0.000000
   59       16.919616     17.740314   0.000000   0.000000
   60       17.564960     18.157083   0.000000   0.000000
 
  0.1428571E+00  0.0000000E+00  0.0000000E+00  0.1142857E-01
    1      -51.358712    -46.606930   1.000000   1.000000
    2      -51.356779    -46.604451   1.000000   1.000000
    3      -51.070537    -46.320942   1.000000   1.000000
    4      -50.145828    -46.318427   1.000000   1.000000
    5      -50.143726    -46.287630   1.000000   1.000000
    6      -49.837590    -46.193307   1.000000   1.000000
    7      -49.812432    -46.162274   1.000000   1.000000
    8      -49.703776    -45.931167   1.000000   1.000000
    9      -49.582045    -45.870690   1.000000   1.000000
   10      -40.128304    -40.131332   1.000000   1.000000
   11      -40.127031    -40.130046   1.000000   1.000000
   12      -13.507951    -13.116043   1.000000   1.000000
   13      -13.382810    -13.033459   1.000000   1.000000
   14       -7.489963     -7.227712   1.000000   1.000000
   15       -7.011128     -6.752896   1.000000   1.000000
   16       -1.902102     -0.405849   1.000000   1.000000
   17       -1.588840      0.315274   1.000000   1.000000
   18       -1.028450      0.461790   1.000000   1.000000
   19       -0.990140      0.558712   1.000000   1.000000
   20       -0.518764      0.795954   1.000000   1.000000
   21       -0.500559      0.904209   1.000000   1.000000
   22       -0.350844      1.831131   1.000000   1.000000
   23       -0.155109      2.853292   1.000000   1.000000
   24        0.017108      2.971108   1.000000   1.000000
   25        0.354716      2.998912   1.000000   1.000000
   26        0.392213      3.041240   1.000000   1.000000
   27        0.394309      3.127202   1.000000   1.000000
   28        0.436661      3.224763   1.000000   1.000000
   29        0.676462      4.054887   1.000000   1.000000
   30        0.917321      4.785337   1.000000   1.000000
   31        0.949212      6.665875   1.000000   0.000000
   32        1.288236      6.677356   1.000000   0.000000
   33        1.370082      6.906942   1.000000   0.000000
   34        1.756125      7.117620   1.000000   0.000000
   35        2.041919      7.192220   1.000000   0.000000
   36        2.730764      7.739644   1.000000   0.000000
   37        3.160399      7.986487   1.000000   0.000000
   38        3.334936      8.019628   1.000000   0.000000
   39        3.780665      8.144708   1.000000   0.000000
   40        3.999598      8.398790   1.000000   0.000000
   41        4.122299      8.468687   1.000000   0.000000
   42        4.587870      8.809579   1.000000   0.000000
   43        7.345894      8.914979   0.000000   0.000000
   44        7.868326      9.774552   0.000000   0.000000
   45        9.331461     10.401288   0.000000   0.000000
   46       10.428955     10.749256   0.000000   0.000000
   47       11.111654     11.783780   0.000000   0.000000
   48       11.637556     12.533175   0.000000   0.000000
   49       11.774186     12.930713   0.000000   0.000000
   50       13.768378     14.095569   0.000000   0.000000
   51       13.951136     14.396085   0.000000   0.000000
   52       14.000092     14.557578   0.000000   0.000000
   53       15.074902     15.491820   0.000000   0.000000
   54       15.242006     15.907474   0.000000   0.000000
   55       15.481949     16.436533   0.000000   0.000000
   56       15.914697     17.105164   0.000000   0.000000
   57       16.571767     17.121353   0.000000   0.000000
   58       16.778051     17.430070   0.000000   0.000000
   59       16.786837     17.629111   0.000000   0.000000
   60       17.240205     17.675316   0.000000   0.000000
 
  0.2857143E+00  0.0000000E+00  0.0000000E+00  0.1142857E-01
    1      -51.359634    -46.608380   1.000000   1.000000
    2      -51.357732    -46.605947   1.000000   1.000000
    3      -51.070449    -46.320876   1.000000   1.000000
    4      -50.145785    -46.318341   1.000000   1.000000
    5      -50.143678    -46.287273   1.000000   1.000000
    6      -49.837571    -46.193260   1.000000   1.000000
    7      -49.812408    -46.162428   1.000000   1.000000
    8      -49.703740    -45.931112   1.000000   1.000000
    9      -49.582515    -45.871351   1.000000   1.000000
   10      -40.128081    -40.131087   1.000000   1.000000
   11      -40.126903    -40.129928   1.000000   1.000000
   12      -13.407979    -13.033769   1.000000   1.000000
   13      -13.289791    -12.962610   1.000000   1.000000
   14       -7.400669     -7.160665   1.000000   1.000000
   15       -6.923444     -6.640341   1.000000   1.000000
   16       -2.012113     -0.101585   1.000000   1.000000
   17       -1.876110      0.141358   1.000000   1.000000
   18       -1.100565      0.230138   1.000000   1.000000
   19       -0.958887      0.595295   1.000000   1.000000
   20       -0.840487      0.981482   1.000000   1.000000
   21       -0.275722      1.068432   1.000000   1.000000
   22       -0.263781      1.681030   1.000000   1.000000
   23       -0.105052      2.023433   1.000000   1.000000
   24       -0.023678      2.367249   1.000000   1.000000
   25        0.193755      2.428353   1.000000   1.000000
   26        0.243215      2.796872   1.000000   1.000000
   27        0.423091      2.898807   1.000000   1.000000
   28        0.584257      2.946275   1.000000   1.000000
   29        0.907814      4.123422   1.000000   1.000000
   30        0.932152      4.841430   1.000000   1.000000
   31        1.279848      6.366286   1.000000   0.000000
   32        1.371304      6.544152   1.000000   0.000000
   33        1.378340      6.768834   1.000000   0.000000
   34        1.523780      7.262086   1.000000   0.000000
   35        1.732160      7.456977   1.000000   0.000000
   36        2.499893      7.825149   1.000000   0.000000
   37        2.598480      7.927622   1.000000   0.000000
   38        2.974720      7.936535   1.000000   0.000000
   39        2.996660      8.297769   1.000000   0.000000
   40        3.963101      8.366643   1.000000   0.000000
   41        4.000548      8.505021   1.000000   0.000000
   42        4.025605      8.936454   1.000000   0.000000
   43        8.389750      9.870350   0.000000   0.000000
   44        9.085566     10.501967   0.000000   0.000000
   45        9.683331     10.791764   0.000000   0.000000
   46       10.983727     12.311692   0.000000   0.000000
   47       11.687654     12.525349   0.000000   0.000000
   48       12.325734     12.652619   0.000000   0.000000
   49       12.343986     12.716612   0.000000   0.000000
   50       12.450202     13.007489   0.000000   0.000000
   51       13.622145     14.028973   0.000000   0.000000
   52       13.837750     14.626364   0.000000   0.000000
   53       14.157535     14.684557   0.000000   0.000000
   54       15.173884     15.606353   0.000000   0.000000
   55       15.223076     15.872469   0.000000   0.000000
   56       15.301032     16.091823   0.000000   0.000000
   57       15.826772     16.542152   0.000000   0.000000
   58       16.033799     17.174276   0.000000   0.000000
   59       16.614696     17.768716   0.000000   0.000000
   60       17.738167     17.917228   0.000000   0.000000
 
  0.4285714E+00  0.0000000E+00  0.0000000E+00  0.1142857E-01
    1      -51.360366    -46.609536   1.000000   1.000000
    2      -51.358489    -46.607148   1.000000   1.000000
    3      -51.070368    -46.320815   1.000000   1.000000
    4      -50.145742    -46.318259   1.000000   1.000000
    5      -50.143621    -46.286980   1.000000   1.000000
    6      -49.837552    -46.193224   1.000000   1.000000
    7      -49.812370    -46.162539   1.000000   1.000000
    8      -49.703699    -45.931056   1.000000   1.000000
    9      -49.582888    -45.871882   1.000000   1.000000
   10      -40.127862    -40.130852   1.000000   1.000000
   11      -40.126813    -40.129846   1.000000   1.000000
   12      -13.325161    -12.965891   1.000000   1.000000
   13      -13.213095    -12.904591   1.000000   1.000000
   14       -7.328389     -7.107712   1.000000   1.000000
   15       -6.850109     -6.544516   1.000000   1.000000
   16       -2.041937     -0.166413   1.000000   1.000000
   17       -1.962444     -0.029460   1.000000   1.000000
   18       -1.283226      0.471514   1.000000   1.000000
   19       -1.180421      1.016539   1.000000   1.000000
   20       -1.031122      1.050682   1.000000   1.000000
   21       -0.182487      1.275350   1.000000   1.000000
   22       -0.168963      1.411804   1.000000   1.000000
   23       -0.151223      1.429121   1.000000   1.000000
   24       -0.041890      1.783314   1.000000   1.000000
   25        0.105157      1.836520   1.000000   1.000000
   26        0.394977      2.497425   1.000000   1.000000
   27        0.456010      2.751875   1.000000   1.000000
   28        0.782958      2.920087   1.000000   1.000000
   29        0.901129      4.148173   1.000000   1.000000
   30        1.003122      4.881312   1.000000   1.000000
   31        1.130903      6.180416   1.000000   0.000000
   32        1.407723      6.404246   1.000000   0.000000
   33        1.425560      6.557728   1.000000   0.000000
   34        1.547436      7.456687   1.000000   0.000000
   35        1.810541      7.796863   1.000000   0.000000
   36        2.154436      7.816981   1.000000   0.000000
   37        2.276978      7.923349   1.000000   0.000000
   38        2.589025      8.036514   1.000000   0.000000
   39        2.862444      8.133193   1.000000   0.000000
   40        3.428244      8.494955   1.000000   0.000000
   41        3.943906      8.542239   1.000000   0.000000
   42        3.980921      9.137413   1.000000   0.000000
   43        9.247637     10.450103   0.000000   0.000000
   44        9.858044     10.768104   0.000000   0.000000
   45       10.268063     11.827145   0.000000   0.000000
   46       10.645649     12.006786   0.000000   0.000000
   47       11.744610     12.069707   0.000000   0.000000
   48       11.874867     12.605971   0.000000   0.000000
   49       12.320671     13.078271   0.000000   0.000000
   50       12.926033     13.607788   0.000000   0.000000
   51       13.170228     13.634639   0.000000   0.000000
   52       14.016246     14.533743   0.000000   0.000000
   53       14.233157     14.553616   0.000000   0.000000
   54       14.316886     14.815935   0.000000   0.000000
   55       14.923388     15.908774   0.000000   0.000000
   56       15.449028     15.909999   0.000000   0.000000
   57       16.283941     17.290284   0.000000   0.000000
   58       16.530026     17.463055   0.000000   0.000000
   59       16.996506     17.868759   0.000000   0.000000
   60       18.198416     18.376896   0.000000   0.000000
 
  0.0000000E+00  0.2000000E+00  0.0000000E+00  0.1142857E-01
    1      -51.358295    -46.606263   1.000000   1.000000
    2      -51.356361    -46.603785   1.000000   1.000000
    3      -51.070578    -46.321070   1.000000   1.000000
    4      -50.145918    -46.318384   1.000000   1.000000
    5      -50.143696    -46.287841   1.000000   1.000000
    6      -49.837576    -46.193078   1.000000   1.000000
    7      -49.812457    -46.162380   1.000000   1.000000
    8      -49.703803    -45.931206   1.000000   1.000000
    9      -49.581833    -45.870385   1.000000   1.000000
   10      -40.128258    -40.131289   1.000000   1.000000
   11      -40.127194    -40.130205   1.000000   1.000000
   12      -13.550502    -13.149841   1.000000   1.000000
   13      -13.422110    -13.063662   1.000000   1.000000
   14       -7.488701     -7.226849   1.000000   1.000000
   15       -7.092633     -6.855014   1.000000   1.000000
   16       -1.737588     -0.378860   1.000000   1.000000
   17       -1.407225      0.339098   1.000000   1.000000
   18       -1.173706      0.623047   1.000000   1.000000
   19       -0.958769      0.651449   1.000000   1.000000
   20       -0.824607      0.810014   1.000000   1.000000
   21       -0.488222      0.913675   1.000000   1.000000
   22       -0.263815      1.758880   1.000000   1.000000
   23       -0.196118      2.591540   1.000000   1.000000
   24        0.119064      2.727901   1.000000   1.000000
   25        0.226899      3.092671   1.000000   1.000000
   26        0.355460      3.346271   1.000000   1.000000
   27        0.388071      3.523259   1.000000   1.000000
   28        0.433890      3.736148   1.000000   1.000000
   29        0.608153      3.821180   1.000000   1.000000
   30        0.966437      4.664078   1.000000   1.000000
   31        1.025154      6.796739   1.000000   0.000000
   32        1.383490      7.028786   1.000000   0.000000
   33        1.588616      7.032314   1.000000   0.000000
   34        1.680354      7.150564   1.000000   0.000000
   35        2.536035      7.550361   1.000000   0.000000
   36        2.571386      7.800402   1.000000   0.000000
   37        3.082017      7.938486   1.000000   0.000000
   38        3.592391      8.028167   1.000000   0.000000
   39        3.863179      8.101105   1.000000   0.000000
   40        3.957461      8.322013   1.000000   0.000000
   41        4.576545      8.600948   1.000000   0.000000
   42        4.602941      8.692778   1.000000   0.000000
   43        7.427000      8.998011   0.000000   0.000000
   44        7.771179      9.348165   0.000000   0.000000
   45        9.371327      9.925235   0.000000   0.000000
   46        9.645211     10.529015   0.000000   0.000000
   47       10.795161     11.382668   0.000000   0.000000
   48       11.853709     12.650369   0.000000   0.000000
   49       12.439755     13.501276   0.000000   0.000000
   50       13.213408     13.807342   0.000000   0.000000
   51       13.369753     13.999370   0.000000   0.000000
   52       14.253115     14.690793   0.000000   0.000000
   53       14.339673     15.129153   0.000000   0.000000
   54       15.408633     15.643126   0.000000   0.000000
   55       15.454922     16.714410   0.000000   0.000000
   56       16.095457     16.774630   0.000000   0.000000
   57       16.246130     16.856138   0.000000   0.000000
   58       16.748314     17.148032   0.000000   0.000000
   59       16.781545     17.507987   0.000000   0.000000
   60       17.084166     17.737493   0.000000   0.000000
 
  0.1428571E+00  0.2000000E+00  0.0000000E+00  0.1142857E-01
    1      -51.358720    -46.606932   1.000000   1.000000
    2      -51.356781    -46.604449   1.000000   1.000000
    3      -51.070539    -46.321032   1.000000   1.000000
    4      -50.145891    -46.318344   1.000000   1.000000
    5      -50.143673    -46.287674   1.000000   1.000000
    6      -49.837569    -46.193102   1.000000   1.000000
    7      -49.812448    -46.162423   1.000000   1.000000
    8      -49.703782    -45.931176   1.000000   1.000000
    9      -49.582048    -45.870691   1.000000   1.000000
   10      -40.128183    -40.131206   1.000000   1.000000
   11      -40.127134    -40.130147   1.000000   1.000000
   12      -13.508125    -13.115159   1.000000   1.000000
   13      -13.380855    -13.031895   1.000000   1.000000
   14       -7.445978     -7.191843   1.000000   1.000000
   15       -7.052934     -6.805974   1.000000   1.000000
   16       -1.874778     -0.277088   1.000000   1.000000
   17       -1.615193      0.357569   1.000000   1.000000
   18       -1.009995      0.421434   1.000000   1.000000
   19       -0.996635      0.590307   1.000000   1.000000
   20       -0.664088      0.769451   1.000000   1.000000
   21       -0.492177      0.987067   1.000000   1.000000
   22       -0.390072      1.792069   1.000000   1.000000
   23       -0.211408      2.521870   1.000000   1.000000
   24        0.002029      2.648100   1.000000   1.000000
   25        0.262682      2.865867   1.000000   1.000000
   26        0.358908      3.095591   1.000000   1.000000
   27        0.383674      3.225899   1.000000   1.000000
   28        0.537339      3.299347   1.000000   1.000000
   29        0.725064      4.095229   1.000000   1.000000
   30        0.922034      4.671068   1.000000   1.000000
   31        1.085911      6.873204   1.000000   0.000000
   32        1.328518      6.946005   1.000000   0.000000
   33        1.499660      7.042808   1.000000   0.000000
   34        1.810576      7.199405   1.000000   0.000000
   35        1.986745      7.230134   1.000000   0.000000
   36        2.683159      7.790637   1.000000   0.000000
   37        3.096561      7.988918   1.000000   0.000000
   38        3.235128      8.094463   1.000000   0.000000
   39        3.792293      8.121993   1.000000   0.000000
   40        3.877412      8.234592   1.000000   0.000000
   41        4.091086      8.626882   1.000000   0.000000
   42        4.610658      8.745099   1.000000   0.000000
   43        7.844752      9.238695   0.000000   0.000000
   44        8.199013      9.830935   0.000000   0.000000
   45        9.691144     10.699797   0.000000   0.000000
   46       10.492653     10.862732   0.000000   0.000000
   47       11.156477     11.818257   0.000000   0.000000
   48       11.776455     12.571670   0.000000   0.000000
   49       11.900835     12.987956   0.000000   0.000000
   50       13.161867     13.602380   0.000000   0.000000
   51       13.322019     13.776553   0.000000   0.000000
   52       13.535292     14.111719   0.000000   0.000000
   53       14.145538     15.032136   0.000000   0.000000
   54       14.353976     15.403299   0.000000   0.000000
   55       15.558217     15.865624   0.000000   0.000000
   56       16.151374     16.962811   0.000000   0.000000
   57       16.532635     17.029333   0.000000   0.000000
   58       16.886111     17.435741   0.000000   0.000000
   59       17.341539     18.118150   0.000000   0.000000
   60       17.651795     18.399095   0.000000   0.000000
 
  0.2857143E+00  0.2000000E+00  0.0000000E+00  0.1142857E-01
    1      -51.359655    -46.608412   1.000000   1.000000
    2      -51.357709    -46.605914   1.000000   1.000000
    3      -51.070448    -46.320956   1.000000   1.000000
    4      -50.145839    -46.318250   1.000000   1.000000
    5      -50.143612    -46.287297   1.000000   1.000000
    6      -49.837547    -46.193150   1.000000   1.000000
    7      -49.812426    -46.162518   1.000000   1.000000
    8      -49.703737    -45.931109   1.000000   1.000000
    9      -49.582513    -45.871349   1.000000   1.000000
   10      -40.127944    -40.130948   1.000000   1.000000
   11      -40.127011    -40.130031   1.000000   1.000000
   12      -13.410670    -13.035764   1.000000   1.000000
   13      -13.285997    -12.959115   1.000000   1.000000
   14       -7.349030     -7.112912   1.000000   1.000000
   15       -6.959490     -6.690143   1.000000   1.000000
   16       -2.000022     -0.127404   1.000000   1.000000
   17       -1.888362      0.030395   1.000000   1.000000
   18       -1.127787      0.252982   1.000000   1.000000
   19       -0.940482      0.690921   1.000000   1.000000
   20       -0.817838      0.968649   1.000000   1.000000
   21       -0.469311      1.014165   1.000000   1.000000
   22       -0.306561      1.736387   1.000000   1.000000
   23       -0.249982      2.011129   1.000000   1.000000
   24       -0.036705      2.143857   1.000000   1.000000
   25        0.158036      2.520853   1.000000   1.000000
   26        0.251701      2.750956   1.000000   1.000000
   27        0.399251      2.819464   1.000000   1.000000
   28        0.688207      3.140983   1.000000   1.000000
   29        0.884775      4.154965   1.000000   1.000000
   30        0.980246      4.687325   1.000000   1.000000
   31        1.195694      6.578853   1.000000   0.000000
   32        1.297356      6.802238   1.000000   0.000000
   33        1.348434      6.953323   1.000000   0.000000
   34        1.680962      7.285016   1.000000   0.000000
   35        1.909496      7.443095   1.000000   0.000000
   36        2.331598      7.802585   1.000000   0.000000
   37        2.873110      7.917792   1.000000   0.000000
   38        2.974699      8.019133   1.000000   0.000000
   39        3.157934      8.156623   1.000000   0.000000
   40        3.833305      8.401065   1.000000   0.000000
   41        3.849224      8.642584   1.000000   0.000000
   42        4.376337      8.797371   1.000000   0.000000
   43        8.671133     10.050689   0.000000   0.000000
   44        9.179191     10.658220   0.000000   0.000000
   45       10.031766     10.866847   0.000000   0.000000
   46       10.979399     12.217619   0.000000   0.000000
   47       11.491048     12.352197   0.000000   0.000000
   48       11.968350     12.427830   0.000000   0.000000
   49       12.305617     12.889729   0.000000   0.000000
   50       12.594079     13.082750   0.000000   0.000000
   51       12.918926     13.431144   0.000000   0.000000
   52       13.459926     14.089297   0.000000   0.000000
   53       13.634933     14.179082   0.000000   0.000000
   54       13.909967     14.971744   0.000000   0.000000
   55       15.544688     15.993808   0.000000   0.000000
   56       15.981936     16.536154   0.000000   0.000000
   57       16.032821     16.914751   0.000000   0.000000
   58       16.518073     17.315698   0.000000   0.000000
   59       17.444474     18.033262   0.000000   0.000000
   60       17.772271     18.481413   0.000000   0.000000
 
  0.4285714E+00  0.2000000E+00  0.0000000E+00  0.1142857E-01
    1      -51.360398    -46.609591   1.000000   1.000000
    2      -51.358454    -46.607091   1.000000   1.000000
    3      -51.070372    -46.320888   1.000000   1.000000
    4      -50.145790    -46.318175   1.000000   1.000000
    5      -50.143562    -46.286993   1.000000   1.000000
    6      -49.837527    -46.193188   1.000000   1.000000
    7      -49.812404    -46.162591   1.000000   1.000000
    8      -49.703695    -45.931054   1.000000   1.000000
    9      -49.582884    -45.871874   1.000000   1.000000
   10      -40.127745    -40.130735   1.000000   1.000000
   11      -40.126898    -40.129924   1.000000   1.000000
   12      -13.330169    -12.970630   1.000000   1.000000
   13      -13.207609    -12.899210   1.000000   1.000000
   14       -7.270623     -7.049561   1.000000   1.000000
   15       -6.879862     -6.590966   1.000000   1.000000
   16       -2.067108     -0.312596   1.000000   1.000000
   17       -1.940596     -0.131255   1.000000   1.000000
   18       -1.249206      0.426973   1.000000   1.000000
   19       -1.221500      0.800235   1.000000   1.000000
   20       -1.004415      0.948685   1.000000   1.000000
   21       -0.371470      1.201989   1.000000   1.000000
   22       -0.334753      1.530383   1.000000   1.000000
   23       -0.279477      1.738197   1.000000   1.000000
   24       -0.035027      1.810701   1.000000   1.000000
   25        0.095724      2.192014   1.000000   1.000000
   26        0.335398      2.444602   1.000000   1.000000
   27        0.395785      2.584816   1.000000   1.000000
   28        0.634049      3.075952   1.000000   1.000000
   29        0.846943      4.156403   1.000000   1.000000
   30        0.941947      4.700622   1.000000   1.000000
   31        1.252469      6.384442   1.000000   0.000000
   32        1.437664      6.670026   1.000000   0.000000
   33        1.531043      6.821659   1.000000   0.000000
   34        1.686543      7.405193   1.000000   0.000000
   35        1.881425      7.745284   1.000000   0.000000
   36        2.064546      7.845321   1.000000   0.000000
   37        2.612950      7.894800   1.000000   0.000000
   38        2.794626      8.024982   1.000000   0.000000
   39        2.952065      8.083697   1.000000   0.000000
   40        3.612896      8.532969   1.000000   0.000000
   41        3.732641      8.556435   1.000000   0.000000
   42        4.245474      8.979715   1.000000   0.000000
   43        9.396389     10.780161   0.000000   0.000000
   44       10.121123     10.934836   0.000000   0.000000
   45       10.214850     11.361854   0.000000   0.000000
   46       10.611847     11.654558   0.000000   0.000000
   47       11.111544     12.123337   0.000000   0.000000
   48       11.611314     12.395529   0.000000   0.000000
   49       11.884577     12.556269   0.000000   0.000000
   50       12.566094     13.118425   0.000000   0.000000
   51       13.424210     14.075230   0.000000   0.000000
   52       13.729615     14.277004   0.000000   0.000000
   53       13.903803     14.709294   0.000000   0.000000
   54       14.394880     14.992281   0.000000   0.000000
   55       14.892917     15.438601   0.000000   0.000000
   56       15.806714     16.300170   0.000000   0.000000
   57       16.043425     17.109571   0.000000   0.000000
   58       17.128359     17.682141   0.000000   0.000000
   59       17.833467     18.583830   0.000000   0.000000
   60       18.580505     19.045641   0.000000   0.000000
 
 -0.4285714E+00  0.2000000E+00  0.0000000E+00  0.1142857E-01
    1      -51.360398    -46.609591   1.000000   1.000000
    2      -51.358454    -46.607091   1.000000   1.000000
    3      -51.070372    -46.320888   1.000000   1.000000
    4      -50.145790    -46.318175   1.000000   1.000000
    5      -50.143562    -46.286993   1.000000   1.000000
    6      -49.837527    -46.193188   1.000000   1.000000
    7      -49.812404    -46.162591   1.000000   1.000000
    8      -49.703695    -45.931054   1.000000   1.000000
    9      -49.582884    -45.871874   1.000000   1.000000
   10      -40.127745    -40.130735   1.000000   1.000000
   11      -40.126898    -40.129924   1.000000   1.000000
   12      -13.330169    -12.970630   1.000000   1.000000
   13      -13.207609    -12.899210   1.000000   1.000000
   14       -7.270623     -7.049561   1.000000   1.000000
   15       -6.879862     -6.590966   1.000000   1.000000
   16       -2.067108     -0.312596   1.000000   1.000000
   17       -1.940596     -0.131254   1.000000   1.000000
   18       -1.249206      0.426973   1.000000   1.000000
   19       -1.221500      0.800235   1.000000   1.000000
   20       -1.004415      0.948685   1.000000   1.000000
   21       -0.371470      1.201990   1.000000   1.000000
   22       -0.334754      1.530384   1.000000   1.000000
   23       -0.279477      1.738197   1.000000   1.000000
   24       -0.035025      1.810702   1.000000   1.000000