  99  99   0   0
  0.1430410E+02  0.1177748E-08  0.1177748E-08  0.1058004E-08  0.5000000E-15
  1.000000000000000E-004
  CAR 
 unknown system                          
     17.97998203    -54.33869505  301      5.26394798      1.00000000
    -54.339  0.0000E+00  0.0000E+00  0.0000E+00  0.0000E+00
    -54.098  0.0000E+00  0.0000E+00  0.0000E+00  0.0000E+00
    -53.857  0.0000E+00  0.0000E+00  0.0000E+00  0.0000E+00
    -53.616  0.0000E+00  0.0000E+00  0.0000E+00  0.0000E+00
    -53.374  0.0000E+00  0.0000E+00  0.0000E+00  0.0000E+00
    -53.133  0.0000E+00  0.0000E+00  0.0000E+00  0.0000E+00
    -52.892  0.0000E+00  0.0000E+00  0.0000E+00  0.0000E+00
    -52.651  0.0000E+00  0.0000E+00  0.0000E+00  0.0000E+00
    -52.410  0.0000E+00  0.0000E+00  0.0000E+00  0.0000E+00
    -52.169  0.0000E+00  0.0000E+00  0.0000E+00  0.0000E+00
    -51.928  0.0000E+00  0.0000E+00  0.0000E+00  0.0000E+00
    -51.687  0.0000E+00  0.0000E+00  0.0000E+00  0.0000E+00
    -51.446  0.0000E+00  0.0000E+00  0.0000E+00  0.0000E+00
    -51.205  0.4617E-03  0.0000E+00  0.1113E-03  0.0000E+00
    -50.964  0.1472E+03  0.0000E+00  0.3549E+02  0.0000E+00
    -50.723  0.2115E+01  0.0000E+00  0.3600E+02  0.0000E+00
    -50.482  0.0000E+00  0.0000E+00  0.3600E+02  0.0000E+00
    -50.241  0.0000E+00  0.0000E+00  0.3600E+02  0.0000E+00
    -50.000  0.0000E+00  0.0000E+00  0.3600E+02  0.0000E+00
    -49.759  0.1868E+01  0.0000E+00  0.3645E+02  0.0000E+00
    -49.517  0.2717E+03  0.0000E+00  0.1020E+03  0.0000E+00
    -49.276  0.2509E+02  0.0000E+00  0.1080E+03  0.0000E+00
    -49.035  0.0000E+00  0.0000E+00  0.1080E+03  0.0000E+00
    -48.794  0.0000E+00  0.0000E+00  0.1080E+03  0.0000E+00
    -48.553  0.0000E+00  0.0000E+00  0.1080E+03  0.0000E+00
    -48.312  0.0000E+00  0.0000E+00  0.1080E+03  0.0000E+00
    -48.071  0.0000E+00  0.0000E+00  0.1080E+03  0.0000E+00
    -47.830  0.0000E+00  0.0000E+00  0.1080E+03  0.0000E+00
    -47.589  0.0000E+00  0.0000E+00  0.1080E+03  0.0000E+00
    -47.348  0.0000E+00  0.0000E+00  0.1080E+03  0.0000E+00
    -47.107  0.0000E+00  0.0000E+00  0.1080E+03  0.0000E+00
    -46.866  0.0000E+00  0.0000E+00  0.1080E+03  0.0000E+00
    -46.625  0.0000E+00  0.0000E+00  0.1080E+03  0.0000E+00
    -46.384  0.0000E+00  0.4511E+00  0.1080E+03  0.1087E+00
    -46.143  0.0000E+00  0.1489E+03  0.1080E+03  0.3599E+02
    -45.902  0.0000E+00  0.7346E+02  0.1080E+03  0.5370E+02
    -45.660  0.0000E+00  0.2252E+03  0.1080E+03  0.1080E+03
    -45.419  0.0000E+00  0.0000E+00  0.1080E+03  0.1080E+03
    -45.178  0.0000E+00  0.0000E+00  0.1080E+03  0.1080E+03
    -44.937  0.0000E+00  0.0000E+00  0.1080E+03  0.1080E+03
    -44.696  0.0000E+00  0.0000E+00  0.1080E+03  0.1080E+03
    -44.455  0.0000E+00  0.0000E+00  0.1080E+03  0.1080E+03
    -44.214  0.0000E+00  0.0000E+00  0.1080E+03  0.1080E+03
    -43.973  0.0000E+00  0.0000E+00  0.1080E+03  0.1080E+03
    -43.732  0.0000E+00  0.0000E+00  0.1080E+03  0.1080E+03
    -43.491  0.0000E+00  0.0000E+00  0.1080E+03  0.1080E+03
    -43.250  0.0000E+00  0.0000E+00  0.1080E+03  0.1080E+03
    -43.009  0.0000E+00  0.0000E+00  0.1080E+03  0.1080E+03
    -42.768  0.0000E+00  0.0000E+00  0.1080E+03  0.1080E+03
    -42.527  0.0000E+00  0.0000E+00  0.1080E+03  0.1080E+03
    -42.286  0.0000E+00  0.0000E+00  0.1080E+03  0.1080E+03
    -42.045  0.0000E+00  0.0000E+00  0.1080E+03  0.1080E+03
    -41.803  0.0000E+00  0.0000E+00  0.1080E+03  0.1080E+03
    -41.562  0.0000E+00  0.0000E+00  0.1080E+03  0.1080E+03
    -41.321  0.0000E+00  0.0000E+00  0.1080E+03  0.1080E+03
    -41.080  0.0000E+00  0.0000E+00  0.1080E+03  0.1080E+03
    -40.839  0.0000E+00  0.0000E+00  0.1080E+03  0.1080E+03
    -40.598  0.0000E+00  0.0000E+00  0.1080E+03  0.1080E+03
    -40.357  0.0000E+00  0.0000E+00  0.1080E+03  0.1080E+03
    -40.116  0.3010E-10  0.1961E-10  0.1080E+03  0.1080E+03
    -39.875  0.2699E+02  0.2537E+02  0.1145E+03  0.1141E+03
    -39.634  0.4768E+02  0.4930E+02  0.1260E+03  0.1260E+03
    -39.393  0.0000E+00  0.0000E+00  0.1260E+03  0.1260E+03
    -39.152  0.0000E+00  0.0000E+00  0.1260E+03  0.1260E+03
    -38.911  0.0000E+00  0.0000E+00  0.1260E+03  0.1260E+03
    -38.670  0.0000E+00  0.0000E+00  0.1260E+03  0.1260E+03
    -38.429  0.0000E+00  0.0000E+00  0.1260E+03  0.1260E+03
    -38.188  0.0000E+00  0.0000E+00  0.1260E+03  0.1260E+03
    -37.946  0.0000E+00  0.0000E+00  0.1260E+03  0.1260E+03
    -37.705  0.0000E+00  0.0000E+00  0.1260E+03  0.1260E+03
    -37.464  0.0000E+00  0.0000E+00  0.1260E+03  0.1260E+03
    -37.223  0.0000E+00  0.0000E+00  0.1260E+03  0.1260E+03
    -36.982  0.0000E+00  0.0000E+00  0.1260E+03  0.1260E+03
    -36.741  0.0000E+00  0.0000E+00  0.1260E+03  0.1260E+03
    -36.500  0.0000E+00  0.0000E+00  0.1260E+03  0.1260E+03
    -36.259  0.0000E+00  0.0000E+00  0.1260E+03  0.1260E+03
    -36.018  0.0000E+00  0.0000E+00  0.1260E+03  0.1260E+03
    -35.777  0.0000E+00  0.0000E+00  0.1260E+03  0.1260E+03
    -35.536  0.0000E+00  0.0000E+00  0.1260E+03  0.1260E+03
    -35.295  0.0000E+00  0.0000E+00  0.1260E+03  0.1260E+03
    -35.054  0.0000E+00  0.0000E+00  0.1260E+03  0.1260E+03
    -34.813  0.0000E+00  0.0000E+00  0.1260E+03  0.1260E+03
    -34.572  0.0000E+00  0.0000E+00  0.1260E+03  0.1260E+03
    -34.331  0.0000E+00  0.0000E+00  0.1260E+03  0.1260E+03
    -34.089  0.0000E+00  0.0000E+00  0.1260E+03  0.1260E+03
    -33.848  0.0000E+00  0.0000E+00  0.1260E+03  0.1260E+03
    -33.607  0.0000E+00  0.0000E+00  0.1260E+03  0.1260E+03
    -33.366  0.0000E+00  0.0000E+00  0.1260E+03  0.1260E+03
    -33.125  0.0000E+00  0.0000E+00  0.1260E+03  0.1260E+03
    -32.884  0.0000E+00  0.0000E+00  0.1260E+03  0.1260E+03
    -32.643  0.0000E+00  0.0000E+00  0.1260E+03  0.1260E+03
    -32.402  0.0000E+00  0.0000E+00  0.1260E+03  0.1260E+03
    -32.161  0.0000E+00  0.0000E+00  0.1260E+03  0.1260E+03
    -31.920  0.0000E+00  0.0000E+00  0.1260E+03  0.1260E+03
    -31.679  0.0000E+00  0.0000E+00  0.1260E+03  0.1260E+03
    -31.438  0.0000E+00  0.0000E+00  0.1260E+03  0.1260E+03
    -31.197  0.0000E+00  0.0000E+00  0.1260E+03  0.1260E+03
    -30.956  0.0000E+00  0.0000E+00  0.1260E+03  0.1260E+03
    -30.715  0.0000E+00  0.0000E+00  0.1260E+03  0.1260E+03
    -30.474  0.0000E+00  0.0000E+00  0.1260E+03  0.1260E+03
    -30.232  0.0000E+00  0.0000E+00  0.1260E+03  0.1260E+03
    -29.991  0.0000E+00  0.0000E+00  0.1260E+03  0.1260E+03
    -29.750  0.0000E+00  0.0000E+00  0.1260E+03  0.1260E+03
    -29.509  0.0000E+00  0.0000E+00  0.1260E+03  0.1260E+03
    -29.268  0.0000E+00  0.0000E+00  0.1260E+03  0.1260E+03
    -29.027  0.0000E+00  0.0000E+00  0.1260E+03  0.1260E+03
    -28.786  0.0000E+00  0.0000E+00  0.1260E+03  0.1260E+03
    -28.545  0.0000E+00  0.0000E+00  0.1260E+03  0.1260E+03
    -28.304  0.0000E+00  0.0000E+00  0.1260E+03  0.1260E+03
    -28.063  0.0000E+00  0.0000E+00  0.1260E+03  0.1260E+03
    -27.822  0.0000E+00  0.0000E+00  0.1260E+03  0.1260E+03
    -27.581  0.0000E+00  0.0000E+00  0.1260E+03  0.1260E+03
    -27.340  0.0000E+00  0.0000E+00  0.1260E+03  0.1260E+03
    -27.099  0.0000E+00  0.0000E+00  0.1260E+03  0.1260E+03
    -26.858  0.0000E+00  0.0000E+00  0.1260E+03  0.1260E+03
    -26.617  0.0000E+00  0.0000E+00  0.1260E+03  0.1260E+03
    -26.375  0.0000E+00  0.0000E+00  0.1260E+03  0.1260E+03
    -26.134  0.0000E+00  0.0000E+00  0.1260E+03  0.1260E+03
    -25.893  0.0000E+00  0.0000E+00  0.1260E+03  0.1260E+03
    -25.652  0.0000E+00  0.0000E+00  0.1260E+03  0.1260E+03
    -25.411  0.0000E+00  0.0000E+00  0.1260E+03  0.1260E+03
    -25.170  0.0000E+00  0.0000E+00  0.1260E+03  0.1260E+03
    -24.929  0.0000E+00  0.0000E+00  0.1260E+03  0.1260E+03
    -24.688  0.0000E+00  0.0000E+00  0.1260E+03  0.1260E+03
    -24.447  0.0000E+00  0.0000E+00  0.1260E+03  0.1260E+03
    -24.206  0.0000E+00  0.0000E+00  0.1260E+03  0.1260E+03
    -23.965  0.0000E+00  0.0000E+00  0.1260E+03  0.1260E+03
    -23.724  0.0000E+00  0.0000E+00  0.1260E+03  0.1260E+03
    -23.483  0.0000E+00  0.0000E+00  0.1260E+03  0.1260E+03
    -23.242  0.0000E+00  0.0000E+00  0.1260E+03  0.1260E+03
    -23.001  0.0000E+00  0.0000E+00  0.1260E+03  0.1260E+03
    -22.760  0.0000E+00  0.0000E+00  0.1260E+03  0.1260E+03
    -22.518  0.0000E+00  0.0000E+00  0.1260E+03  0.1260E+03
    -22.277  0.0000E+00  0.0000E+00  0.1260E+03  0.1260E+03
    -22.036  0.0000E+00  0.0000E+00  0.1260E+03  0.1260E+03
    -21.795  0.0000E+00  0.0000E+00  0.1260E+03  0.1260E+03
    -21.554  0.0000E+00  0.0000E+00  0.1260E+03  0.1260E+03
    -21.313  0.0000E+00  0.0000E+00  0.1260E+03  0.1260E+03
    -21.072  0.0000E+00  0.0000E+00  0.1260E+03  0.1260E+03
    -20.831  0.0000E+00  0.0000E+00  0.1260E+03  0.1260E+03
    -20.590  0.0000E+00  0.0000E+00  0.1260E+03  0.1260E+03
    -20.349  0.0000E+00  0.0000E+00  0.1260E+03  0.1260E+03
    -20.108  0.0000E+00  0.0000E+00  0.1260E+03  0.1260E+03
    -19.867  0.0000E+00  0.0000E+00  0.1260E+03  0.1260E+03
    -19.626  0.0000E+00  0.0000E+00  0.1260E+03  0.1260E+03
    -19.385  0.0000E+00  0.0000E+00  0.1260E+03  0.1260E+03
    -19.144  0.0000E+00  0.0000E+00  0.1260E+03  0.1260E+03
    -18.903  0.0000E+00  0.0000E+00  0.1260E+03  0.1260E+03
    -18.661  0.0000E+00  0.0000E+00  0.1260E+03  0.1260E+03
    -18.420  0.0000E+00  0.0000E+00  0.1260E+03  0.1260E+03
    -18.179  0.0000E+00  0.0000E+00  0.1260E+03  0.1260E+03
    -17.938  0.0000E+00  0.0000E+00  0.1260E+03  0.1260E+03
    -17.697  0.0000E+00  0.0000E+00  0.1260E+03  0.1260E+03
    -17.456  0.0000E+00  0.0000E+00  0.1260E+03  0.1260E+03
    -17.215  0.0000E+00  0.0000E+00  0.1260E+03  0.1260E+03
    -16.974  0.0000E+00  0.0000E+00  0.1260E+03  0.1260E+03
    -16.733  0.0000E+00  0.0000E+00  0.1260E+03  0.1260E+03
    -16.492  0.0000E+00  0.0000E+00  0.1260E+03  0.1260E+03
    -16.251  0.0000E+00  0.0000E+00  0.1260E+03  0.1260E+03
    -16.010  0.0000E+00  0.0000E+00  0.1260E+03  0.1260E+03
    -15.769  0.0000E+00  0.0000E+00  0.1260E+03  0.1260E+03
    -15.528  0.0000E+00  0.0000E+00  0.1260E+03  0.1260E+03
    -15.287  0.0000E+00  0.0000E+00  0.1260E+03  0.1260E+03
    -15.046  0.0000E+00  0.0000E+00  0.1260E+03  0.1260E+03
    -14.804  0.0000E+00  0.0000E+00  0.1260E+03  0.1260E+03
    -14.563  0.0000E+00  0.0000E+00  0.1260E+03  0.1260E+03
    -14.322  0.0000E+00  0.0000E+00  0.1260E+03  0.1260E+03
    -14.081  0.0000E+00  0.0000E+00  0.1260E+03  0.1260E+03
    -13.840  0.0000E+00  0.0000E+00  0.1260E+03  0.1260E+03
    -13.599  0.0000E+00  0.0000E+00  0.1260E+03  0.1260E+03
    -13.358  0.1719E-02  0.0000E+00  0.1260E+03  0.1260E+03
    -13.117  0.3458E+02  0.9041E-15  0.1343E+03  0.1260E+03
    -12.876  0.4004E+02  0.8246E+00  0.1440E+03  0.1262E+03
    -12.635  0.5193E-01  0.6356E+02  0.1440E+03  0.1415E+03
    -12.394  0.0000E+00  0.1028E+02  0.1440E+03  0.1440E+03
    -12.153  0.0000E+00  0.0000E+00  0.1440E+03  0.1440E+03
    -11.912  0.0000E+00  0.0000E+00  0.1440E+03  0.1440E+03
    -11.671  0.0000E+00  0.0000E+00  0.1440E+03  0.1440E+03
    -11.430  0.0000E+00  0.0000E+00  0.1440E+03  0.1440E+03
    -11.189  0.0000E+00  0.0000E+00  0.1440E+03  0.1440E+03
    -10.947  0.0000E+00  0.0000E+00  0.1440E+03  0.1440E+03
    -10.706  0.0000E+00  0.0000E+00  0.1440E+03  0.1440E+03
    -10.465  0.0000E+00  0.0000E+00  0.1440E+03  0.1440E+03
    -10.224  0.0000E+00  0.0000E+00  0.1440E+03  0.1440E+03
     -9.983  0.0000E+00  0.0000E+00  0.1440E+03  0.1440E+03
     -9.742  0.0000E+00  0.0000E+00  0.1440E+03  0.1440E+03
     -9.501  0.0000E+00  0.0000E+00  0.1440E+03  0.1440E+03
     -9.260  0.0000E+00  0.0000E+00  0.1440E+03  0.1440E+03
     -9.019  0.0000E+00  0.0000E+00  0.1440E+03  0.1440E+03
     -8.778  0.0000E+00  0.0000E+00  0.1440E+03  0.1440E+03
     -8.537  0.0000E+00  0.0000E+00  0.1440E+03  0.1440E+03
     -8.296  0.0000E+00  0.0000E+00  0.1440E+03  0.1440E+03
     -8.055  0.0000E+00  0.0000E+00  0.1440E+03  0.1440E+03
     -7.814  0.1469E-08  0.0000E+00  0.1440E+03  0.1440E+03
     -7.573  0.1080E+01  0.2307E-09  0.1443E+03  0.1440E+03
     -7.332  0.2013E+02  0.9663E+00  0.1491E+03  0.1442E+03
     -7.090  0.3114E+02  0.2214E+02  0.1566E+03  0.1496E+03
     -6.849  0.3794E+02  0.2941E+02  0.1658E+03  0.1567E+03
     -6.608  0.2171E+02  0.2839E+02  0.1710E+03  0.1635E+03
     -6.367  0.3462E-05  0.3107E+02  0.1710E+03  0.1710E+03
     -6.126  0.0000E+00  0.2389E-01  0.1710E+03  0.1710E+03
     -5.885  0.0000E+00  0.0000E+00  0.1710E+03  0.1710E+03
     -5.644  0.0000E+00  0.0000E+00  0.1710E+03  0.1710E+03
     -5.403  0.0000E+00  0.0000E+00  0.1710E+03  0.1710E+03
     -5.162  0.0000E+00  0.0000E+00  0.1710E+03  0.1710E+03
     -4.921  0.0000E+00  0.0000E+00  0.1710E+03  0.1710E+03
     -4.680  0.0000E+00  0.0000E+00  0.1710E+03  0.1710E+03
     -4.439  0.0000E+00  0.0000E+00  0.1710E+03  0.1710E+03
     -4.198  0.0000E+00  0.0000E+00  0.1710E+03  0.1710E+03
     -3.957  0.0000E+00  0.0000E+00  0.1710E+03  0.1710E+03
     -3.716  0.0000E+00  0.0000E+00  0.1710E+03  0.1710E+03
     -3.475  0.0000E+00  0.0000E+00  0.1710E+03  0.1710E+03
     -3.233  0.0000E+00  0.0000E+00  0.1710E+03  0.1710E+03
     -2.992  0.0000E+00  0.0000E+00  0.1710E+03  0.1710E+03
     -2.751  0.0000E+00  0.0000E+00  0.1710E+03  0.1710E+03
     -2.510  0.0000E+00  0.0000E+00  0.1710E+03  0.1710E+03
     -2.269  0.0000E+00  0.0000E+00  0.1710E+03  0.1710E+03
     -2.028  0.6076E-01  0.0000E+00  0.1710E+03  0.1710E+03
     -1.787  0.2717E+02  0.0000E+00  0.1776E+03  0.1710E+03
     -1.546  0.1840E+02  0.0000E+00  0.1820E+03  0.1710E+03
     -1.305  0.1493E+02  0.0000E+00  0.1856E+03  0.1710E+03
     -1.064  0.2451E+02  0.0000E+00  0.1915E+03  0.1710E+03
     -0.823  0.5738E+02  0.0000E+00  0.2053E+03  0.1710E+03
     -0.582  0.6233E+02  0.2053E-02  0.2204E+03  0.1710E+03
     -0.341  0.4205E+02  0.1183E+02  0.2305E+03  0.1739E+03
     -0.100  0.8201E+02  0.1992E+02  0.2503E+03  0.1787E+03
      0.141  0.9061E+02  0.1377E+02  0.2721E+03  0.1820E+03
      0.382  0.8244E+02  0.2406E+02  0.2920E+03  0.1878E+03
      0.623  0.7303E+02  0.3340E+02  0.3096E+03  0.1958E+03
      0.865  0.5755E+02  0.4707E+02  0.3235E+03  0.2072E+03
      1.106  0.3777E+02  0.4048E+02  0.3326E+03  0.2169E+03
      1.347  0.3777E+02  0.3258E+02  0.3417E+03  0.2248E+03
      1.588  0.4917E+02  0.2556E+02  0.3535E+03  0.2309E+03
      1.829  0.5718E+02  0.3264E+02  0.3673E+03  0.2388E+03
      2.070  0.7674E+02  0.4105E+02  0.3858E+03  0.2487E+03
      2.311  0.5808E+02  0.2592E+02  0.3998E+03  0.2549E+03
      2.552  0.3300E+02  0.2997E+02  0.4078E+03  0.2622E+03
      2.793  0.5086E+02  0.4189E+02  0.4200E+03  0.2723E+03
      3.034  0.2095E+02  0.4686E+02  0.4251E+03  0.2836E+03
      3.275  0.1155E+02  0.4641E+02  0.4279E+03  0.2948E+03
      3.516  0.3891E+02  0.3875E+02  0.4372E+03  0.3041E+03
      3.757  0.2568E+02  0.6845E+01  0.4434E+03  0.3057E+03
      3.998  0.3879E+02  0.2672E+02  0.4528E+03  0.3122E+03
      4.239  0.3842E+02  0.7571E+02  0.4620E+03  0.3304E+03
      4.480  0.3883E+02  0.3886E+02  0.4714E+03  0.3398E+03
      4.722  0.3495E+02  0.9095E+01  0.4798E+03  0.3420E+03
      4.963  0.2342E+02  0.0000E+00  0.4855E+03  0.3420E+03
      5.204  0.2152E+01  0.0000E+00  0.4860E+03  0.3420E+03
      5.445  0.0000E+00  0.0000E+00  0.4860E+03  0.3420E+03
      5.686  0.0000E+00  0.0000E+00  0.4860E+03  0.3420E+03
      5.927  0.0000E+00  0.0000E+00  0.4860E+03  0.3420E+03
      6.168  0.0000E+00  0.3927E-07  0.4860E+03  0.3420E+03
      6.409  0.0000E+00  0.1695E+01  0.4860E+03  0.3424E+03
      6.650  0.0000E+00  0.5099E+01  0.4860E+03  0.3436E+03
      6.891  0.0000E+00  0.1189E+02  0.4860E+03  0.3465E+03
      7.132  0.3811E-11  0.2257E+02  0.4860E+03  0.3519E+03
      7.373  0.9176E-01  0.6148E+02  0.4860E+03  0.3668E+03
      7.614  0.6189E-01  0.6270E+02  0.4860E+03  0.3819E+03
      7.855  0.6108E+00  0.6281E+02  0.4862E+03  0.3970E+03
      8.096  0.8288E+00  0.7563E+02  0.4864E+03  0.4153E+03
      8.337  0.2561E+01  0.8166E+02  0.4870E+03  0.4349E+03
      8.579  0.4687E+01  0.6794E+02  0.4881E+03  0.4513E+03
      8.820  0.1023E+02  0.6411E+02  0.4906E+03  0.4668E+03
      9.061  0.1459E+02  0.4372E+02  0.4941E+03  0.4773E+03
      9.302  0.1765E+02  0.3076E+02  0.4984E+03  0.4847E+03
      9.543  0.1891E+02  0.7978E+01  0.5029E+03  0.4866E+03
      9.784  0.1660E+02  0.6086E+01  0.5069E+03  0.4881E+03
     10.025  0.2476E+02  0.1187E+02  0.5129E+03  0.4910E+03
     10.266  0.1664E+02  0.1837E+02  0.5169E+03  0.4954E+03
     10.507  0.2178E+02  0.2239E+02  0.5222E+03  0.5008E+03
     10.748  0.1266E+02  0.2269E+02  0.5252E+03  0.5063E+03
     10.989  0.1592E+02  0.2380E+02  0.5290E+03  0.5120E+03
     11.230  0.2352E+02  0.2977E+02  0.5347E+03  0.5192E+03
     11.471  0.3269E+02  0.2004E+02  0.5426E+03  0.5240E+03
     11.712  0.2785E+02  0.1746E+02  0.5493E+03  0.5282E+03
     11.953  0.3379E+02  0.1134E+02  0.5575E+03  0.5310E+03
     12.194  0.3532E+02  0.2744E+02  0.5660E+03  0.5376E+03
     12.436  0.2206E+02  0.4589E+02  0.5713E+03  0.5486E+03
     12.677  0.1943E+02  0.3475E+02  0.5760E+03  0.5570E+03
     12.918  0.2465E+02  0.3038E+02  0.5819E+03  0.5643E+03
     13.159  0.2690E+02  0.2072E+02  0.5884E+03  0.5693E+03
     13.400  0.2846E+02  0.2533E+02  0.5953E+03  0.5754E+03
     13.641  0.2452E+02  0.3280E+02  0.6012E+03  0.5833E+03
     13.882  0.1716E+02  0.2597E+02  0.6053E+03  0.5896E+03
     14.123  0.2854E+01  0.2542E+02  0.6060E+03  0.5957E+03
     14.364  0.1550E-04  0.2341E+02  0.6060E+03  0.6014E+03
     14.605  0.0000E+00  0.1764E+02  0.6060E+03  0.6056E+03
     14.846  0.0000E+00  0.1551E+01  0.6060E+03  0.6060E+03
     15.087  0.0000E+00  0.2200E-05  0.6060E+03  0.6060E+03
     15.328  0.0000E+00  0.0000E+00  0.6060E+03  0.6060E+03
     15.569  0.0000E+00  0.0000E+00  0.6060E+03  0.6060E+03
     15.810  0.0000E+00  0.0000E+00  0.6060E+03  0.6060E+03
     16.051  0.0000E+00  0.0000E+00  0.6060E+03  0.6060E+03
     16.293  0.0000E+00  0.0000E+00  0.6060E+03  0.6060E+03
     16.534  0.0000E+00  0.0000E+00  0.6060E+03  0.6060E+03
     16.775  0.0000E+00  0.0000E+00  0.6060E+03  0.6060E+03
     17.016  0.0000E+00  0.0000E+00  0.6060E+03  0.6060E+03
     17.257  0.0000E+00  0.0000E+00  0.6060E+03  0.6060E+03
     17.498  0.0000E+00  0.0000E+00  0.6060E+03  0.6060E+03
     17.739  0.0000E+00  0.0000E+00  0.6060E+03  0.6060E+03
     17.980  0.0000E+00  0.0000E+00  0.6060E+03  0.6060E+03
