<?xml version="1.0" encoding="ISO-8859-1"?>
<modeling>
 <generator>
  <i name="program" type="string">vasp </i>
  <i name="version" type="string">5.4.4.18Apr17-6-g9f103f2a35  </i>
  <i name="subversion" type="string">(build Oct 25 2017 14:42:18) complex            parallel </i>
  <i name="platform" type="string">LinuxIFC </i>
  <i name="date" type="string">2021 05 28 </i>
  <i name="time" type="string">05:29:17 </i>
 </generator>
 <incar>
  <i type="string" name="PREC">accurate</i>
  <i type="string" name="ALGO"> normal</i>
  <i type="logical" name="ADDGRID"> T  </i>
  <i type="int" name="ISPIN">     2</i>
  <i type="int" name="ICHARG">     1</i>
  <i type="int" name="NELM">   200</i>
  <i type="int" name="NELMIN">     8</i>
  <i name="EDIFF">      0.00000100</i>
  <i type="int" name="ISYM">     0</i>
  <i name="ENCUT">    650.00000000</i>
  <v name="MAGMOM">      0.60000000      0.60000000      0.60000000      0.60000000      0.60000000      0.60000000      0.60000000      0.60000000      0.60000000      0.60000000      0.60000000      0.60000000      0.60000000      0.60000000      0.60000000      0.60000000      0.60000000      0.60000000      0.60000000      0.60000000
      0.60000000      0.60000000      0.60000000      0.60000000      0.60000000      0.60000000      0.60000000      0.60000000      0.60000000      0.60000000      0.60000000      0.60000000      0.60000000      0.60000000      0.60000000      0.60000000      0.60000000      0.60000000      0.60000000      0.60000000
      0.60000000      0.60000000      0.60000000      0.60000000      0.60000000      0.60000000      0.60000000      0.60000000      0.60000000      0.60000000      0.60000000      0.60000000      0.60000000      0.60000000      0.60000000      0.60000000      0.60000000      0.60000000      0.60000000      0.60000000
      0.60000000      0.60000000      0.60000000      5.00000000      5.00000000      5.00000000      5.00000000      5.00000000      5.00000000      5.00000000      5.00000000      5.00000000      5.00000000      5.00000000      5.00000000      5.00000000      5.00000000      5.00000000      5.00000000      5.00000000
      5.00000000      5.00000000      5.00000000      5.00000000      5.00000000      5.00000000      5.00000000      5.00000000      5.00000000      5.00000000      5.00000000      5.00000000      5.00000000      5.00000000      5.00000000      5.00000000      5.00000000      5.00000000      5.00000000</v>
  <i type="logical" name="LREAL"> F  </i>
  <i type="int" name="ISMEAR">     0</i>
  <i name="SIGMA">      0.05000000</i>
  <i type="int" name="NWRITE">     1</i>
  <i type="int" name="LMAXMIX">     4</i>
  <i type="logical" name="LWAVE"> F  </i>
  <i type="logical" name="LASPH"> T  </i>
  <v type="int" name="KPOINT_BSE">    -1     0     0     0</v>
  <i type="int" name="NELM">   200</i>
  <i type="string" name="GGA"> pe</i>
  <i type="logical" name="LDAU"> T  </i>
  <v type="int" name="LDAUTYPE">     2</v>
  <v type="int" name="LDAUL">    -1    -1    -1     2</v>
  <v name="LDAUU">      0.00000000      0.00000000      0.00000000      4.00000000</v>
  <v name="LDAUJ">      0.00000000      0.00000000      0.00000000      0.00000000</v>
  <i type="logical" name="LASPH"> T  </i>
 </incar>
 <structure name="primitive_cell" >
  <crystal>
   <varray name="basis" >
    <v>      11.77726974       0.00848871       0.06923316 </v>
    <v>      -0.03028248      11.77723386       0.06923316 </v>
    <v>      -2.02000231      -2.02666320      10.18574622 </v>
   </varray>
   <i name="volume">   1416.10551572 </i>
   <varray name="rec_basis" >
    <v>       0.08481023       0.00011906       0.01684296 </v>
    <v>      -0.00016014       0.08481016       0.01684296 </v>
    <v>      -0.00057537      -0.00057727       0.09794744 </v>
   </varray>
  </crystal>
  <varray name="positions" >
   <v>       0.20224939       0.24206952      -0.16816581 </v>
   <v>       0.19734517       0.40355659      -0.19686089 </v>
   <v>       0.19734517       0.07022326      -0.19686089 </v>
   <v>       0.39684232       0.26982435       0.00000000 </v>
   <v>       0.06350899       0.26982435       0.00000000 </v>
   <v>       0.37094724       0.41064640      -0.15457223 </v>
   <v>       0.03761391       0.07816214      -0.15457223 </v>
   <v>       0.03761391       0.41064640      -0.15457223 </v>
   <v>       0.37094724       0.07731307      -0.15457223 </v>
   <v>       0.00253935       0.20657296      -0.37079665 </v>
   <v>       0.33587268       0.20657296      -0.37079665 </v>
   <v>       0.16118393       0.04306059      -0.39352170 </v>
   <v>       0.16118393       0.37639393      -0.39352170 </v>
   <v>       0.25602027       0.29571943       0.15457223 </v>
   <v>       0.20224939      -0.42459715      -0.16816581 </v>
   <v>       0.20224939      -0.09126381      -0.16816581 </v>
   <v>      -0.13108394       0.24206952      -0.16816581 </v>
   <v>      -0.46441728       0.24206952      -0.16816581 </v>
   <v>       0.26311007       0.46932149       0.19686089 </v>
   <v>       0.26311007       0.13598816       0.19686089 </v>
   <v>      -0.46932149       0.40355659      -0.19686089 </v>
   <v>      -0.13598816       0.07022326      -0.19686089 </v>
   <v>      -0.13598816       0.40355659      -0.19686089 </v>
   <v>      -0.46932149       0.07022326      -0.19686089 </v>
   <v>       0.42459715       0.46441728       0.16816581 </v>
   <v>       0.42459715       0.13108394       0.16816581 </v>
   <v>       0.09126381       0.46441728       0.16816581 </v>
   <v>       0.09126381       0.13108394       0.16816581 </v>
   <v>       0.39684232      -0.39684232       0.00000000 </v>
   <v>       0.06350899      -0.39684232       0.00000000 </v>
   <v>       0.06350899      -0.06350899       0.00000000 </v>
   <v>       0.39684232      -0.06350899       0.00000000 </v>
   <v>       0.00253935      -0.46009370      -0.37079665 </v>
   <v>       0.33587268      -0.46009370      -0.37079665 </v>
   <v>       0.29027274       0.17214940       0.39352170 </v>
   <v>       0.00253935      -0.12676037      -0.37079665 </v>
   <v>       0.33587268      -0.12676037      -0.37079665 </v>
   <v>       0.49451727       0.04306059      -0.39352170 </v>
   <v>      -0.04306059       0.17214940       0.39352170 </v>
   <v>       0.49451727       0.37639393      -0.39352170 </v>
   <v>      -0.17214940       0.04306059      -0.39352170 </v>
   <v>      -0.17214940       0.37639393      -0.39352170 </v>
   <v>       0.12676037       0.33079399       0.37079665 </v>
   <v>       0.12676037      -0.00253935       0.37079665 </v>
   <v>       0.25602027      -0.37094724       0.15457223 </v>
   <v>      -0.41064640       0.29571943       0.15457223 </v>
   <v>      -0.07731307       0.29571943       0.15457223 </v>
   <v>       0.25602027      -0.03761391       0.15457223 </v>
   <v>      -0.46441728      -0.42459715      -0.16816581 </v>
   <v>      -0.13108394      -0.09126381      -0.16816581 </v>
   <v>      -0.13108394      -0.42459715      -0.16816581 </v>
   <v>      -0.46441728      -0.09126381      -0.16816581 </v>
   <v>      -0.40355659       0.46932149       0.19686089 </v>
   <v>      -0.07022326       0.13598816       0.19686089 </v>
   <v>      -0.07022326       0.46932149       0.19686089 </v>
   <v>      -0.40355659       0.13598816       0.19686089 </v>
   <v>       0.46009370       0.33079399       0.37079665 </v>
   <v>       0.19734517      -0.26311007      -0.19686089 </v>
   <v>       0.29027274      -0.49451727       0.39352170 </v>
   <v>      -0.26982435       0.26982435       0.00000000 </v>
   <v>       0.37094724      -0.25602027      -0.15457223 </v>
   <v>      -0.29571943       0.41064640      -0.15457223 </v>
   <v>       0.03761391      -0.25602027      -0.15457223 </v>
   <v>      -0.29571943       0.07731307      -0.15457223 </v>
   <v>       0.29027274      -0.16118393       0.39352170 </v>
   <v>      -0.33079399       0.20657296      -0.37079665 </v>
   <v>      -0.04306059      -0.16118393       0.39352170 </v>
   <v>       0.16118393      -0.29027274      -0.39352170 </v>
   <v>      -0.04306059      -0.49451727       0.39352170 </v>
   <v>      -0.20657296       0.33079399       0.37079665 </v>
   <v>      -0.20657296      -0.00253935       0.37079665 </v>
   <v>      -0.41064640      -0.37094724       0.15457223 </v>
   <v>       0.46009370      -0.00253935       0.37079665 </v>
   <v>      -0.07731307      -0.03761391       0.15457223 </v>
   <v>      -0.07731307      -0.37094724       0.15457223 </v>
   <v>      -0.41064640      -0.03761391       0.15457223 </v>
   <v>       0.26311007      -0.19734517       0.19686089 </v>
   <v>       0.12676037      -0.33587268       0.37079665 </v>
   <v>       0.46009370      -0.33587268       0.37079665 </v>
   <v>      -0.46932149      -0.26311007      -0.19686089 </v>
   <v>      -0.13598816      -0.26311007      -0.19686089 </v>
   <v>       0.42459715      -0.20224939       0.16816581 </v>
   <v>      -0.24206952       0.46441728       0.16816581 </v>
   <v>       0.09126381      -0.20224939       0.16816581 </v>
   <v>      -0.24206952       0.13108394       0.16816581 </v>
   <v>      -0.37639393       0.17214940       0.39352170 </v>
   <v>      -0.37639393      -0.49451727       0.39352170 </v>
   <v>      -0.26982435      -0.39684232       0.00000000 </v>
   <v>      -0.26982435      -0.06350899       0.00000000 </v>
   <v>      -0.33079399      -0.46009370      -0.37079665 </v>
   <v>      -0.33079399      -0.12676037      -0.37079665 </v>
   <v>       0.49451727      -0.29027274      -0.39352170 </v>
   <v>      -0.17214940      -0.29027274      -0.39352170 </v>
   <v>      -0.07022326      -0.19734517       0.19686089 </v>
   <v>      -0.40355659      -0.19734517       0.19686089 </v>
   <v>      -0.37639393      -0.16118393       0.39352170 </v>
   <v>      -0.29571943      -0.25602027      -0.15457223 </v>
   <v>      -0.20657296      -0.33587268       0.37079665 </v>
   <v>      -0.24206952      -0.20224939       0.16816581 </v>
  </varray>
 </structure>
 <varray name="primitive_index" >
  <v type="int" >        1 </v>
  <v type="int" >       31 </v>
  <v type="int" >       28 </v>
  <v type="int" >       56 </v>
  <v type="int" >       55 </v>
  <v type="int" >       86 </v>
  <v type="int" >       82 </v>
  <v type="int" >       85 </v>
  <v type="int" >       83 </v>
  <v type="int" >       37 </v>
  <v type="int" >       38 </v>
  <v type="int" >       73 </v>
  <v type="int" >       76 </v>
  <v type="int" >       91 </v>
  <v type="int" >        4 </v>
  <v type="int" >        7 </v>
  <v type="int" >        3 </v>
  <v type="int" >        2 </v>
  <v type="int" >       22 </v>
  <v type="int" >       19 </v>
  <v type="int" >       32 </v>
  <v type="int" >       30 </v>
  <v type="int" >       33 </v>
  <v type="int" >       29 </v>
  <v type="int" >       14 </v>
  <v type="int" >       11 </v>
  <v type="int" >       13 </v>
  <v type="int" >       10 </v>
  <v type="int" >       59 </v>
  <v type="int" >       58 </v>
  <v type="int" >       61 </v>
  <v type="int" >       62 </v>
  <v type="int" >       40 </v>
  <v type="int" >       41 </v>
  <v type="int" >       64 </v>
  <v type="int" >       43 </v>
  <v type="int" >       44 </v>
  <v type="int" >       74 </v>
  <v type="int" >       66 </v>
  <v type="int" >       77 </v>
  <v type="int" >       75 </v>
  <v type="int" >       78 </v>
  <v type="int" >       46 </v>
  <v type="int" >       52 </v>
  <v type="int" >       94 </v>
  <v type="int" >       92 </v>
  <v type="int" >       93 </v>
  <v type="int" >       97 </v>
  <v type="int" >        5 </v>
  <v type="int" >        9 </v>
  <v type="int" >        6 </v>
  <v type="int" >        8 </v>
  <v type="int" >       23 </v>
  <v type="int" >       21 </v>
  <v type="int" >       24 </v>
  <v type="int" >       20 </v>
  <v type="int" >       47 </v>
  <v type="int" >       34 </v>
  <v type="int" >       67 </v>
  <v type="int" >       57 </v>
  <v type="int" >       89 </v>
  <v type="int" >       87 </v>
  <v type="int" >       88 </v>
  <v type="int" >       84 </v>
  <v type="int" >       70 </v>
  <v type="int" >       39 </v>
  <v type="int" >       72 </v>
  <v type="int" >       79 </v>
  <v type="int" >       69 </v>
  <v type="int" >       48 </v>
  <v type="int" >       54 </v>
  <v type="int" >       95 </v>
  <v type="int" >       53 </v>
  <v type="int" >       99 </v>
  <v type="int" >       96 </v>
  <v type="int" >       98 </v>
  <v type="int" >       25 </v>
  <v type="int" >       49 </v>
  <v type="int" >       50 </v>
  <v type="int" >       35 </v>
  <v type="int" >       36 </v>
  <v type="int" >       17 </v>
  <v type="int" >       15 </v>
  <v type="int" >       16 </v>
  <v type="int" >       12 </v>
  <v type="int" >       65 </v>
  <v type="int" >       68 </v>
  <v type="int" >       60 </v>
  <v type="int" >       63 </v>
  <v type="int" >       42 </v>
  <v type="int" >       45 </v>
  <v type="int" >       80 </v>
  <v type="int" >       81 </v>
  <v type="int" >       27 </v>
  <v type="int" >       26 </v>
  <v type="int" >       71 </v>
  <v type="int" >       90 </v>
  <v type="int" >       51 </v>
  <v type="int" >       18 </v>
 </varray>
 <kpoints>
  <generation param="Gamma">
   <v type="int" name="divisions">       3        3        3 </v>
   <v name="usershift">      0.00000000       0.00000000       0.00000000 </v>
   <v name="genvec1">      0.33333333       0.00000000       0.00000000 </v>
   <v name="genvec2">      0.00000000       0.33333333       0.00000000 </v>
   <v name="genvec3">      0.00000000       0.00000000       0.33333333 </v>
   <v name="shift">      0.00000000       0.00000000       0.00000000 </v>
  </generation>
  <varray name="kpointlist" >
   <v>       0.00000000       0.00000000       0.00000000 </v>
   <v>       0.33333333      -0.00000000      -0.00000000 </v>
   <v>       0.00000000       0.33333333       0.00000000 </v>
   <v>       0.33333333       0.33333333       0.00000000 </v>
   <v>      -0.33333333       0.33333333       0.00000000 </v>
   <v>      -0.00000000      -0.00000000       0.33333333 </v>
   <v>       0.33333333      -0.00000000       0.33333333 </v>
   <v>      -0.33333333      -0.00000000       0.33333333 </v>
   <v>      -0.00000000       0.33333333       0.33333333 </v>
   <v>       0.33333333       0.33333333       0.33333333 </v>
   <v>      -0.33333333       0.33333333       0.33333333 </v>
   <v>      -0.00000000      -0.33333333       0.33333333 </v>
   <v>       0.33333333      -0.33333333       0.33333333 </v>
   <v>      -0.33333333      -0.33333333       0.33333333 </v>
  </varray>
  <varray name="weights" >
   <v>       0.03703704 </v>
   <v>       0.07407407 </v>
   <v>       0.07407407 </v>
   <v>       0.07407407 </v>
   <v>       0.07407407 </v>
   <v>       0.07407407 </v>
   <v>       0.07407407 </v>
   <v>       0.07407407 </v>
   <v>       0.07407407 </v>
   <v>       0.07407407 </v>
   <v>       0.07407407 </v>
   <v>       0.07407407 </v>
   <v>       0.07407407 </v>
   <v>       0.07407407 </v>
  </varray>
 </kpoints>
 <parameters>
  <separator name="general" >
   <i type="string" name="SYSTEM">unknown system</i>
   <i type="logical" name="LCOMPAT"> F  </i>
  </separator>
  <separator name="electronic" >
   <i type="string" name="PREC">accura</i>
   <i name="ENMAX">    650.00000000</i>
   <i name="ENAUG">    628.94500000</i>
   <i name="EDIFF">      0.00000100</i>
   <i type="int" name="IALGO">    38</i>
   <i type="int" name="IWAVPR">    10</i>
   <i type="int" name="NBANDS">   606</i>
   <i name="NELECT">    828.00000000</i>
   <i type="int" name="TURBO">     0</i>
   <i type="int" name="IRESTART">     0</i>
   <i type="int" name="NREBOOT">     0</i>
   <i type="int" name="NMIN">     0</i>
   <i name="EREF">      0.00000000</i>
   <separator name="electronic smearing" >
    <i type="int" name="ISMEAR">     0</i>
    <i name="SIGMA">      0.05000000</i>
    <i name="KSPACING">      0.50000000</i>
    <i type="logical" name="KGAMMA"> T  </i>
   </separator>
   <separator name="electronic projectors" >
    <i type="logical" name="LREAL"> F  </i>
    <v name="ROPT">      0.00000000      0.00000000      0.00000000      0.00000000</v>
    <i type="int" name="LMAXPAW">  -100</i>
    <i type="int" name="LMAXMIX">     4</i>
    <i type="logical" name="NLSPLINE"> F  </i>
   </separator>
   <separator name="electronic startup" >
    <i type="int" name="ISTART">     0</i>
    <i type="int" name="ICHARG">     1</i>
    <i type="int" name="INIWAV">     1</i>
   </separator>
   <separator name="electronic spin" >
    <i type="int" name="ISPIN">     2</i>
    <i type="logical" name="LNONCOLLINEAR"> F  </i>
    <v name="MAGMOM">      0.60000000      0.60000000      0.60000000      0.60000000      0.60000000      0.60000000      0.60000000      0.60000000      0.60000000      0.60000000      0.60000000      0.60000000      0.60000000      0.60000000      0.60000000      0.60000000      0.60000000      0.60000000      0.60000000      0.60000000
      0.60000000      0.60000000      0.60000000      0.60000000      0.60000000      0.60000000      0.60000000      0.60000000      0.60000000      0.60000000      0.60000000      0.60000000      0.60000000      0.60000000      0.60000000      0.60000000      0.60000000      0.60000000      0.60000000      0.60000000
      0.60000000      0.60000000      0.60000000      0.60000000      0.60000000      0.60000000      0.60000000      0.60000000      0.60000000      0.60000000      0.60000000      0.60000000      0.60000000      0.60000000      0.60000000      0.60000000      0.60000000      0.60000000      0.60000000      0.60000000
      0.60000000      0.60000000      0.60000000      5.00000000      5.00000000      5.00000000      5.00000000      5.00000000      5.00000000      5.00000000      5.00000000      5.00000000      5.00000000      5.00000000      5.00000000      5.00000000      5.00000000      5.00000000      5.00000000      5.00000000
      5.00000000      5.00000000      5.00000000      5.00000000      5.00000000      5.00000000      5.00000000      5.00000000      5.00000000      5.00000000      5.00000000      5.00000000      5.00000000      5.00000000      5.00000000      5.00000000      5.00000000      5.00000000      5.00000000</v>
    <i name="NUPDOWN">     -1.00000000</i>
    <i type="logical" name="LSORBIT"> F  </i>
    <v name="SAXIS">      0.00000000      0.00000000      1.00000000</v>
    <i type="logical" name="LSPIRAL"> F  </i>
    <v name="QSPIRAL">      0.00000000      0.00000000      0.00000000</v>
    <i type="logical" name="LZEROZ"> F  </i>
   </separator>
   <separator name="electronic exchange-correlation" >
    <i type="logical" name="LASPH"> T  </i>
    <i type="logical" name="LMETAGGA"> F  </i>
   </separator>
   <separator name="electronic convergence" >
    <i type="int" name="NELM">   200</i>
    <i type="int" name="NELMDL">     0</i>
    <i type="int" name="NELMIN">     8</i>
    <i name="ENINI">    650.00000000</i>
    <separator name="electronic convergence detail" >
     <i type="logical" name="LDIAG"> T  </i>
     <i type="logical" name="LSUBROT"> F  </i>
     <i name="WEIMIN">      0.00000000</i>
     <i name="EBREAK">      0.00000000</i>
     <i name="DEPER">      0.30000000</i>
     <i type="int" name="NRMM">     4</i>
     <i name="TIME">      0.40000000</i>
    </separator>
   </separator>
   <separator name="electronic mixer" >
    <i name="AMIX">      0.40000000</i>
    <i name="BMIX">      1.00000000</i>
    <i name="AMIN">      0.10000000</i>
    <i name="AMIX_MAG">      1.60000000</i>
    <i name="BMIX_MAG">      1.00000000</i>
    <separator name="electronic mixer details" >
     <i type="int" name="IMIX">     4</i>
     <i type="logical" name="MIXFIRST"> F  </i>
     <i type="int" name="MAXMIX">   -45</i>
     <i name="WC">    100.00000000</i>
     <i type="int" name="INIMIX">     1</i>
     <i type="int" name="MIXPRE">     1</i>
     <i type="int" name="MREMOVE">     5</i>
    </separator>
   </separator>
   <separator name="electronic dipolcorrection" >
    <i type="logical" name="LDIPOL"> F  </i>
    <i type="logical" name="LMONO"> F  </i>
    <i type="int" name="IDIPOL">     0</i>
    <i name="EPSILON">      1.00000000</i>
    <v name="DIPOL">   -100.00000000   -100.00000000   -100.00000000</v>
    <i name="EFIELD">      0.00000000</i>
   </separator>
  </separator>
  <separator name="grids" >
   <i type="int" name="NGX">    98</i>
   <i type="int" name="NGY">    98</i>
   <i type="int" name="NGZ">    90</i>
   <i type="int" name="NGXF">   196</i>
   <i type="int" name="NGYF">   196</i>
   <i type="int" name="NGZF">   180</i>
   <i type="logical" name="ADDGRID"> T  </i>
  </separator>
  <separator name="ionic" >
   <i type="int" name="NSW">     0</i>
   <i type="int" name="IBRION">    -1</i>
   <i type="int" name="MDALGO">     0</i>
   <i type="int" name="ISIF">     2</i>
   <i name="PSTRESS">      0.00000000</i>
   <i name="EDIFFG">      0.00001000</i>
   <i type="int" name="NFREE">     0</i>
   <i name="POTIM">      0.50000000</i>
   <i name="SMASS">     -3.00000000</i>
   <i name="SCALEE">      1.00000000</i>
  </separator>
  <separator name="ionic md" >
   <i name="TEBEG">      0.00010000</i>
   <i name="TEEND">      0.00010000</i>
   <i type="int" name="NBLOCK">     1</i>
   <i type="int" name="KBLOCK">     1</i>
   <i type="int" name="NPACO">   256</i>
   <i name="APACO">     16.00000000</i>
  </separator>
  <separator name="symmetry" >
   <i type="int" name="ISYM">     0</i>
   <i name="SYMPREC">      0.00001000</i>
  </separator>
  <separator name="dos" >
   <i type="int" name="LORBIT">     0</i>
   <v name="RWIGS">     -1.00000000     -1.00000000     -1.00000000     -1.00000000</v>
   <i type="int" name="NEDOS">   301</i>
   <i name="EMIN">     10.00000000</i>
   <i name="EMAX">    -10.00000000</i>
   <i name="EFERMI">      0.00000000</i>
  </separator>
  <separator name="writing" >
   <i type="int" name="NWRITE">     1</i>
   <i type="logical" name="LWAVE"> F  </i>
   <i type="logical" name="LDOWNSAMPLE"> F  </i>
   <i type="logical" name="LCHARG"> T  </i>
   <i type="logical" name="LPARD"> F  </i>
   <i type="logical" name="LVTOT"> F  </i>
   <i type="logical" name="LVHAR"> F  </i>
   <i type="logical" name="LELF"> F  </i>
   <i type="logical" name="LOPTICS"> F  </i>
   <v name="STM">      0.00000000      0.00000000      0.00000000      0.00000000      0.00000000      0.00000000      0.00000000</v>
  </separator>
  <separator name="performance" >
   <i type="int" name="NPAR">     2</i>
   <i type="int" name="NSIM">     4</i>
   <i type="int" name="NBLK">    -1</i>
   <i type="logical" name="LPLANE"> T  </i>
   <i type="logical" name="LSCALAPACK"> T  </i>
   <i type="logical" name="LSCAAWARE"> F  </i>
   <i type="logical" name="LSCALU"> F  </i>
   <i type="logical" name="LASYNC"> F  </i>
   <i type="logical" name="LORBITALREAL"> F  </i>
  </separator>
  <separator name="miscellaneous" >
   <i type="int" name="IDIOT">     3</i>
   <i type="int" name="ISPECIAL">     0</i>
   <i type="logical" name="LMUSIC"> F  </i>
   <v name="POMASS">      7.01000000     16.00000000     32.06600000     55.84700000</v>
   <v name="DARWINR">      0.00000000      0.00000000      0.00000000      0.00000000</v>
   <v name="DARWINV">      1.00000000      1.00000000      1.00000000      1.00000000</v>
   <i type="logical" name="LCORR"> T  </i>
  </separator>
  <i type="logical" name="GGA_COMPAT"> T  </i>
  <i type="logical" name="LBERRY"> F  </i>
  <i type="int" name="ICORELEVEL">     0</i>
  <i type="logical" name="LDAU"> T  </i>
  <v type="int" name="LDAUTYPE">     2</v>
  <v type="int" name="LDAUL">    -1</v>
  <v name="LDAUU">      0.00000000</v>
  <v name="LDAUJ">      0.00000000</v>
  <i type="int" name="LDAUPRINT">     0</i>
  <i type="int" name="I_CONSTRAINED_M">     0</i>
  <separator name="electronic exchange-correlation" >
   <i type="string" name="GGA">PE</i>
   <i type="int" name="VOSKOWN">     0</i>
   <i type="logical" name="LHFCALC"> F  </i>
   <i type="string" name="PRECFOCK"></i>
   <i type="logical" name="LSYMGRAD"> F  </i>
   <i type="logical" name="LHFONE"> F  </i>
   <i type="logical" name="LRHFCALC"> F  </i>
   <i type="logical" name="LTHOMAS"> F  </i>
   <i type="logical" name="LMODELHF"> F  </i>
   <i name="ENCUT4O">     -1.00000000</i>
   <i type="int" name="EXXOEP">     0</i>
   <i type="int" name="FOURORBIT">     0</i>
   <i name="AEXX">      0.00000000</i>
   <i name="HFALPHA">      0.00000000</i>
   <i name="MCALPHA">      0.00000000</i>
   <i name="ALDAX">      1.00000000</i>
   <i name="AGGAX">      1.00000000</i>
   <i name="ALDAC">      1.00000000</i>
   <i name="AGGAC">      1.00000000</i>
   <i type="int" name="NKREDX">     1</i>
   <i type="int" name="NKREDY">     1</i>
   <i type="int" name="NKREDZ">     1</i>
   <i type="logical" name="SHIFTRED"> F  </i>
   <i type="logical" name="ODDONLY"> F  </i>
   <i type="logical" name="EVENONLY"> F  </i>
   <i type="int" name="LMAXFOCK">     0</i>
   <i type="int" name="NMAXFOCKAE">     0</i>
   <i type="logical" name="LFOCKAEDFT"> F  </i>
   <i name="HFSCREEN">      0.00000000</i>
   <i name="HFSCREENC">      0.00000000</i>
   <i type="int" name="NBANDSGWLOW">     0</i>
  </separator>
  <separator name="vdW DFT" >
   <i type="logical" name="LUSE_VDW"> F  </i>
   <i name="Zab_VDW">     -0.84910000</i>
   <i name="PARAM1">      0.12340000</i>
   <i name="PARAM2">      1.00000000</i>
   <i name="PARAM3">      0.00000000</i>
  </separator>
  <separator name="model GW" >
   <i type="int" name="MODEL_GW">     0</i>
   <i name="MODEL_EPS0">      8.58245767</i>
   <i name="MODEL_ALPHA">      1.00000000</i>
  </separator>
  <separator name="linear response parameters" >
   <i type="logical" name="LEPSILON"> F  </i>
   <i type="logical" name="LRPA"> F  </i>
   <i type="logical" name="LNABLA"> F  </i>
   <i type="logical" name="LVEL"> F  </i>
   <i type="int" name="KINTER">     0</i>
   <i name="CSHIFT">      0.10000000</i>
   <i name="OMEGAMAX">     -1.00000000</i>
   <i name="DEG_THRESHOLD">      0.00200000</i>
   <i name="RTIME">     -0.10000000</i>
   <i name="WPLASMAI">      0.00000000</i>
   <v name="DFIELD">      0.00000000      0.00000000      0.00000000</v>
   <v name="WPLASMA">      0.00000000      0.00000000      0.00000000      0.00000000      0.00000000      0.00000000      0.00000000      0.00000000      0.00000000</v>
  </separator>
  <separator name="orbital magnetization" >
   <i type="logical" name="NUCIND"> F  </i>
   <v name="MAGPOS">      0.00000000      0.00000000      0.00000000</v>
   <i type="logical" name="LNICSALL"> T  </i>
   <i type="logical" name="ORBITALMAG"> F  </i>
   <i type="logical" name="LMAGBLOCH"> F  </i>
   <i type="logical" name="LCHIMAG"> F  </i>
   <i type="logical" name="LGAUGE"> T  </i>
   <i type="int" name="MAGATOM">     0</i>
   <v name="MAGDIPOL">      0.00000000      0.00000000      0.00000000</v>
   <v name="AVECCONST">      0.00000000      0.00000000      0.00000000</v>
  </separator>
  <separator name="response functions" >
   <i type="logical" name="LADDER"> F  </i>
   <i type="logical" name="LRPAFORCE"> F  </i>
   <i type="logical" name="LFXC"> F  </i>
   <i type="logical" name="LHARTREE"> T  </i>
   <i type="int" name="IBSE">     0</i>
   <v type="int" name="KPOINT">    -1     0     0     0</v>
   <i type="logical" name="LTCTE"> F  </i>
   <i type="logical" name="LTETE"> F  </i>
   <i type="logical" name="LTRIPLET"> F  </i>
   <i type="logical" name="LFXCEPS"> F  </i>
   <i type="logical" name="LFXHEG"> F  </i>
   <i type="int" name="NATURALO">     2</i>
   <i type="logical" name="L2ORDER"> F  </i>
   <i type="logical" name="LMP2LT"> F  </i>
   <i type="logical" name="LUSEW"> F  </i>
   <i name="ENCUTGW">     -2.00000000</i>
   <i name="ENCUTGWSOFT">     -2.00000000</i>
   <i name="ENCUTLF">     -1.00000000</i>
   <i type="int" name="LMAXMP2">    -1</i>
   <i name="SCISSOR">      0.00000000</i>
   <i type="int" name="NOMEGA">     0</i>
   <i type="int" name="NOMEGAR">     0</i>
   <i type="int" name="NBANDSGW">    -1</i>
   <i type="int" name="NBANDSO">    -1</i>
   <i type="int" name="NBANDSV">    -1</i>
   <i type="int" name="NELM">   200</i>
   <i type="int" name="NELMHF">     1</i>
   <i type="int" name="DIM">     3</i>
   <i type="int" name="ANTIRES">     0</i>
   <i name="OMEGAMAX">    -30.00000000</i>
   <i name="OMEGAMIN">    -30.00000000</i>
   <i name="OMEGATL">   -200.00000000</i>
   <i type="int" name="OMEGAGRID">   140</i>
   <i name="CSHIFT">     -0.10000000</i>
   <i type="logical" name="SELFENERGY"> F  </i>
   <i type="logical" name="LSPECTRAL"> F  </i>
   <i type="logical" name="LSPECTRALGW"> F  </i>
   <i type="logical" name="LSINGLES"> F  </i>
   <i type="logical" name="LFERMIGW"> F  </i>
   <i type="logical" name="ODDONLYGW"> F  </i>
   <i type="logical" name="EVENONLYGW"> F  </i>
   <i type="int" name="NKREDLFX">     1</i>
   <i type="int" name="NKREDLFY">     1</i>
   <i type="int" name="NKREDLFZ">     1</i>
   <i type="int" name="MAXMEM">  2800</i>
   <i type="int" name="TELESCOPE">     0</i>
   <i type="int" name="TAUPAR">     1</i>
   <i type="int" name="OMEGAPAR">    -1</i>
   <i name="LAMBDA">      1.00000000</i>
  </separator>
  <separator name="External order field" >
   <i name="OFIELD_KAPPA">      0.00000000</i>
   <v name="OFIELD_K">      0.00000000      0.00000000      0.00000000</v>
   <i name="OFIELD_Q6_NEAR">      0.00000000</i>
   <i name="OFIELD_Q6_FAR">      0.00000000</i>
   <i name="OFIELD_A">      0.00000000</i>
  </separator>
 </parameters>
 <atominfo>
  <atoms>      99 </atoms>
  <types>       4 </types>
  <array name="atoms" >
   <dimension dim="1">ion</dimension>
   <field type="string">element</field>
   <field type="int">atomtype</field>
   <set>
    <rc><c>Li</c><c>   1</c></rc>
    <rc><c>Li</c><c>   1</c></rc>
    <rc><c>Li</c><c>   1</c></rc>
    <rc><c>Li</c><c>   1</c></rc>
    <rc><c>Li</c><c>   1</c></rc>
    <rc><c>Li</c><c>   1</c></rc>
    <rc><c>Li</c><c>   1</c></rc>
    <rc><c>Li</c><c>   1</c></rc>
    <rc><c>Li</c><c>   1</c></rc>
    <rc><c>Li</c><c>   1</c></rc>
    <rc><c>Li</c><c>   1</c></rc>
    <rc><c>Li</c><c>   1</c></rc>
    <rc><c>Li</c><c>   1</c></rc>
    <rc><c>Li</c><c>   1</c></rc>
    <rc><c>Li</c><c>   1</c></rc>
    <rc><c>Li</c><c>   1</c></rc>
    <rc><c>Li</c><c>   1</c></rc>
    <rc><c>Li</c><c>   1</c></rc>
    <rc><c>O </c><c>   2</c></rc>
    <rc><c>O </c><c>   2</c></rc>
    <rc><c>O </c><c>   2</c></rc>
    <rc><c>O </c><c>   2</c></rc>
    <rc><c>O </c><c>   2</c></rc>
    <rc><c>O </c><c>   2</c></rc>
    <rc><c>O </c><c>   2</c></rc>
    <rc><c>O </c><c>   2</c></rc>
    <rc><c>O </c><c>   2</c></rc>
    <rc><c>O </c><c>   2</c></rc>
    <rc><c>O </c><c>   2</c></rc>
    <rc><c>O </c><c>   2</c></rc>
    <rc><c>O </c><c>   2</c></rc>
    <rc><c>O </c><c>   2</c></rc>
    <rc><c>O </c><c>   2</c></rc>
    <rc><c>O </c><c>   2</c></rc>
    <rc><c>O </c><c>   2</c></rc>
    <rc><c>O </c><c>   2</c></rc>
    <rc><c>S </c><c>   3</c></rc>
    <rc><c>S </c><c>   3</c></rc>
    <rc><c>S </c><c>   3</c></rc>
    <rc><c>S </c><c>   3</c></rc>
    <rc><c>S </c><c>   3</c></rc>
    <rc><c>S </c><c>   3</c></rc>
    <rc><c>S </c><c>   3</c></rc>
    <rc><c>S </c><c>   3</c></rc>
    <rc><c>S </c><c>   3</c></rc>
    <rc><c>S </c><c>   3</c></rc>
    <rc><c>S </c><c>   3</c></rc>
    <rc><c>S </c><c>   3</c></rc>
    <rc><c>S </c><c>   3</c></rc>
    <rc><c>S </c><c>   3</c></rc>
    <rc><c>S </c><c>   3</c></rc>
    <rc><c>S </c><c>   3</c></rc>
    <rc><c>S </c><c>   3</c></rc>
    <rc><c>S </c><c>   3</c></rc>
    <rc><c>S </c><c>   3</c></rc>
    <rc><c>S </c><c>   3</c></rc>
    <rc><c>S </c><c>   3</c></rc>
    <rc><c>S </c><c>   3</c></rc>
    <rc><c>S </c><c>   3</c></rc>
    <rc><c>S </c><c>   3</c></rc>
    <rc><c>S </c><c>   3</c></rc>
    <rc><c>S </c><c>   3</c></rc>
    <rc><c>S </c><c>   3</c></rc>
    <rc><c>Fe</c><c>   4</c></rc>
    <rc><c>Fe</c><c>   4</c></rc>
    <rc><c>Fe</c><c>   4</c></rc>
    <rc><c>Fe</c><c>   4</c></rc>
    <rc><c>Fe</c><c>   4</c></rc>
    <rc><c>Fe</c><c>   4</c></rc>
    <rc><c>Fe</c><c>   4</c></rc>
    <rc><c>Fe</c><c>   4</c></rc>
    <rc><c>Fe</c><c>   4</c></rc>
    <rc><c>Fe</c><c>   4</c></rc>
    <rc><c>Fe</c><c>   4</c></rc>
    <rc><c>Fe</c><c>   4</c></rc>
    <rc><c>Fe</c><c>   4</c></rc>
    <rc><c>Fe</c><c>   4</c></rc>
    <rc><c>Fe</c><c>   4</c></rc>
    <rc><c>Fe</c><c>   4</c></rc>
    <rc><c>Fe</c><c>   4</c></rc>
    <rc><c>Fe</c><c>   4</c></rc>
    <rc><c>Fe</c><c>   4</c></rc>
    <rc><c>Fe</c><c>   4</c></rc>
    <rc><c>Fe</c><c>   4</c></rc>
    <rc><c>Fe</c><c>   4</c></rc>
    <rc><c>Fe</c><c>   4</c></rc>
    <rc><c>Fe</c><c>   4</c></rc>
    <rc><c>Fe</c><c>   4</c></rc>
    <rc><c>Fe</c><c>   4</c></rc>
    <rc><c>Fe</c><c>   4</c></rc>
    <rc><c>Fe</c><c>   4</c></rc>
    <rc><c>Fe</c><c>   4</c></rc>
    <rc><c>Fe</c><c>   4</c></rc>
    <rc><c>Fe</c><c>   4</c></rc>
    <rc><c>Fe</c><c>   4</c></rc>
    <rc><c>Fe</c><c>   4</c></rc>
    <rc><c>Fe</c><c>   4</c></rc>
    <rc><c>Fe</c><c>   4</c></rc>
    <rc><c>Fe</c><c>   4</c></rc>
   </set>
  </array>
  <array name="atomtypes" >
   <dimension dim="1">type</dimension>
   <field type="int">atomspertype</field>
   <field type="string">element</field>
   <field>mass</field>
   <field>valence</field>
   <field type="string">pseudopotential</field>
   <set>
    <rc><c>  18</c><c>Li</c><c>      7.01000000</c><c>      3.00000000</c><c>  PAW_PBE Li_sv 10Sep2004               </c></rc>
    <rc><c>  18</c><c>O </c><c>     16.00000000</c><c>      6.00000000</c><c>  PAW_PBE O 08Apr2002                   </c></rc>
    <rc><c>  27</c><c>S </c><c>     32.06600000</c><c>      6.00000000</c><c>  PAW_PBE S 06Sep2000                   </c></rc>
    <rc><c>  36</c><c>Fe</c><c>     55.84700000</c><c>     14.00000000</c><c>  PAW_PBE Fe_pv 02Aug2007               </c></rc>
   </set>
  </array>
 </atominfo>
 <structure name="initialpos" >
  <crystal>
   <varray name="basis" >
    <v>      11.77726974       0.00848871       0.06923316 </v>
    <v>      -0.03028248      11.77723386       0.06923316 </v>
    <v>      -2.02000231      -2.02666320      10.18574622 </v>
   </varray>
   <i name="volume">   1416.10551572 </i>
   <varray name="rec_basis" >
    <v>       0.08481023       0.00011906       0.01684296 </v>
    <v>      -0.00016014       0.08481016       0.01684296 </v>
    <v>      -0.00057537      -0.00057727       0.09794744 </v>
   </varray>
  </crystal>
  <varray name="positions" >
   <v>       0.20224939       0.24206952       0.83183419 </v>
   <v>       0.53558272       0.24206952       0.83183419 </v>
   <v>       0.86891606       0.24206952       0.83183419 </v>
   <v>       0.20224939       0.57540285       0.83183419 </v>
   <v>       0.53558272       0.57540285       0.83183419 </v>
   <v>       0.86891606       0.57540285       0.83183419 </v>
   <v>       0.20224939       0.90873619       0.83183419 </v>
   <v>       0.53558272       0.90873619       0.83183419 </v>
   <v>       0.86891606       0.90873619       0.83183419 </v>
   <v>       0.09126381       0.13108394       0.16816581 </v>
   <v>       0.42459715       0.13108394       0.16816581 </v>
   <v>       0.75793048       0.13108394       0.16816581 </v>
   <v>       0.09126381       0.46441728       0.16816581 </v>
   <v>       0.42459715       0.46441728       0.16816581 </v>
   <v>       0.75793048       0.46441728       0.16816581 </v>
   <v>       0.09126381       0.79775061       0.16816581 </v>
   <v>       0.42459715       0.79775061       0.16816581 </v>
   <v>       0.75793048       0.79775061       0.16816581 </v>
   <v>       0.26311007       0.13598816       0.19686089 </v>
   <v>       0.59644341       0.13598816       0.19686089 </v>
   <v>       0.92977674       0.13598816       0.19686089 </v>
   <v>       0.26311007       0.46932149       0.19686089 </v>
   <v>       0.59644341       0.46932149       0.19686089 </v>
   <v>       0.92977674       0.46932149       0.19686089 </v>
   <v>       0.26311007       0.80265483       0.19686089 </v>
   <v>       0.59644341       0.80265483       0.19686089 </v>
   <v>       0.92977674       0.80265483       0.19686089 </v>
   <v>       0.19734517       0.07022326       0.80313911 </v>
   <v>       0.53067851       0.07022326       0.80313911 </v>
   <v>       0.86401184       0.07022326       0.80313911 </v>
   <v>       0.19734517       0.40355659       0.80313911 </v>
   <v>       0.53067851       0.40355659       0.80313911 </v>
   <v>       0.86401184       0.40355659       0.80313911 </v>
   <v>       0.19734517       0.73688993       0.80313911 </v>
   <v>       0.53067851       0.73688993       0.80313911 </v>
   <v>       0.86401184       0.73688993       0.80313911 </v>
   <v>       0.00253935       0.20657296       0.62920335 </v>
   <v>       0.33587268       0.20657296       0.62920335 </v>
   <v>       0.66920601       0.20657296       0.62920335 </v>
   <v>       0.00253935       0.53990630       0.62920335 </v>
   <v>       0.33587268       0.53990630       0.62920335 </v>
   <v>       0.66920601       0.53990630       0.62920335 </v>
   <v>       0.00253935       0.87323963       0.62920335 </v>
   <v>       0.33587268       0.87323963       0.62920335 </v>
   <v>       0.66920601       0.87323963       0.62920335 </v>
   <v>       0.12676037       0.33079399       0.37079665 </v>
   <v>       0.46009370       0.33079399       0.37079665 </v>
   <v>       0.79342704       0.33079399       0.37079665 </v>
   <v>       0.12676037       0.66412732       0.37079665 </v>
   <v>       0.46009370       0.66412732       0.37079665 </v>
   <v>       0.79342704       0.66412732       0.37079665 </v>
   <v>       0.12676037       0.99746065       0.37079665 </v>
   <v>       0.46009370       0.99746065       0.37079665 </v>
   <v>       0.79342704       0.99746065       0.37079665 </v>
   <v>       0.06350899       0.26982435       0.00000000 </v>
   <v>       0.39684232       0.26982435       0.00000000 </v>
   <v>       0.73017565       0.26982435       0.00000000 </v>
   <v>       0.06350899       0.60315768       0.00000000 </v>
   <v>       0.39684232       0.60315768       0.00000000 </v>
   <v>       0.73017565       0.60315768       0.00000000 </v>
   <v>       0.06350899       0.93649101       0.00000000 </v>
   <v>       0.39684232       0.93649101       0.00000000 </v>
   <v>       0.73017565       0.93649101       0.00000000 </v>
   <v>       0.29027274       0.17214940       0.39352170 </v>
   <v>       0.62360607       0.17214940       0.39352170 </v>
   <v>       0.95693941       0.17214940       0.39352170 </v>
   <v>       0.29027274       0.50548273       0.39352170 </v>
   <v>       0.62360607       0.50548273       0.39352170 </v>
   <v>       0.95693941       0.50548273       0.39352170 </v>
   <v>       0.29027274       0.83881607       0.39352170 </v>
   <v>       0.62360607       0.83881607       0.39352170 </v>
   <v>       0.95693941       0.83881607       0.39352170 </v>
   <v>       0.16118393       0.04306059       0.60647830 </v>
   <v>       0.49451727       0.04306059       0.60647830 </v>
   <v>       0.82785060       0.04306059       0.60647830 </v>
   <v>       0.16118393       0.37639393       0.60647830 </v>
   <v>       0.49451727       0.37639393       0.60647830 </v>
   <v>       0.82785060       0.37639393       0.60647830 </v>
   <v>       0.16118393       0.70972726       0.60647830 </v>
   <v>       0.49451727       0.70972726       0.60647830 </v>
   <v>       0.82785060       0.70972726       0.60647830 </v>
   <v>       0.03761391       0.07816215       0.84542777 </v>
   <v>       0.37094724       0.07731307       0.84542777 </v>
   <v>       0.70428057       0.07731307       0.84542777 </v>
   <v>       0.03761391       0.41064640       0.84542777 </v>
   <v>       0.37094724       0.41064640       0.84542777 </v>
   <v>       0.70428057       0.41064640       0.84542777 </v>
   <v>       0.03761391       0.74397973       0.84542777 </v>
   <v>       0.37094724       0.74397973       0.84542777 </v>
   <v>       0.70428057       0.74397973       0.84542777 </v>
   <v>       0.25602027       0.29571943       0.15457223 </v>
   <v>       0.58935360       0.29571943       0.15457223 </v>
   <v>       0.92268693       0.29571943       0.15457223 </v>
   <v>       0.25602027       0.62905276       0.15457223 </v>
   <v>       0.58935360       0.62905276       0.15457223 </v>
   <v>       0.92268693       0.62905276       0.15457223 </v>
   <v>       0.25602027       0.96238609       0.15457223 </v>
   <v>       0.58935360       0.96238609       0.15457223 </v>
   <v>       0.92268693       0.96238609       0.15457223 </v>
  </varray>
 </structure>
 <calculation>
  <scstep>
   <time name="dav">  440.11  443.79</time>
   <time name="total">  443.83  447.52</time>
   <energy>
    <i name="alphaZ">   2606.24521607 </i>
    <i name="ewald"> -65007.66022253 </i>
    <i name="hartreedc"> -34081.95846280 </i>
    <i name="XCdc">   3632.83791806 </i>
    <i name="pawpsdc"> 104149.30743192 </i>
    <i name="pawaedc">-107360.85880398 </i>
    <i name="eentropy">     -0.01653614 </i>
    <i name="bandstr">    395.72776461 </i>
    <i name="atom"> 107373.91467324 </i>
    <i name="e_fr_energy">  11707.53897845 </i>
    <i name="e_wo_entrp">  11707.55551459 </i>
    <i name="e_0_energy">  11707.54724652 </i>
   </energy>
  </scstep>
  <scstep>
   <time name="dav">  430.45  434.69</time>
   <time name="total">  430.46  434.70</time>
   <energy>
    <i name="e_fr_energy">   1329.17844616 </i>
    <i name="e_wo_entrp">   1329.24601037 </i>
    <i name="e_0_energy">   1329.21222827 </i>
   </energy>
  </scstep>
  <scstep>
   <time name="dav">  453.96  458.40</time>
   <time name="total">  453.96  458.40</time>
   <energy>
    <i name="e_fr_energy">   -345.42500493 </i>
    <i name="e_wo_entrp">   -345.42500493 </i>
    <i name="e_0_energy">   -345.42500493 </i>
   </energy>
  </scstep>
  <scstep>
   <time name="dav">  487.61  492.28</time>
   <time name="total">  487.62  492.29</time>
   <energy>
    <i name="e_fr_energy">   -535.87411371 </i>
    <i name="e_wo_entrp">   -535.87411371 </i>
    <i name="e_0_energy">   -535.87411371 </i>
   </energy>
  </scstep>
  <scstep>
   <time name="dav">  640.05  646.11</time>
   <time name="total">  652.13  658.21</time>
   <energy>
    <i name="e_fr_energy">   -549.78885444 </i>
    <i name="e_wo_entrp">   -549.78885444 </i>
    <i name="e_0_energy">   -549.78885444 </i>
   </energy>
  </scstep>
  <scstep>
   <time name="dav">  575.06  580.60</time>
   <time name="total">  590.72  596.42</time>
   <energy>
    <i name="e_fr_energy">   -550.32214476 </i>
    <i name="e_wo_entrp">   -550.32214476 </i>
    <i name="e_0_energy">   -550.32214476 </i>
   </energy>
  </scstep>
  <scstep>
   <time name="dav">  597.79  603.27</time>
   <time name="total">  613.56  619.33</time>
   <energy>
    <i name="e_fr_energy">   -550.34108520 </i>
    <i name="e_wo_entrp">   -550.34108520 </i>
    <i name="e_0_energy">   -550.34108520 </i>
   </energy>
  </scstep>
  <scstep>
   <time name="dav">  578.58  584.00</time>
   <time name="total">  594.55  600.10</time>
   <energy>
    <i name="e_fr_energy">   -550.34062700 </i>
    <i name="e_wo_entrp">   -550.34062700 </i>
    <i name="e_0_energy">   -550.34062700 </i>
   </energy>
  </scstep>
  <scstep>
   <time name="dav">  633.68  639.39</time>
   <time name="total">  649.56  655.47</time>
   <energy>
    <i name="e_fr_energy">   -550.33999993 </i>
    <i name="e_wo_entrp">   -550.33999993 </i>
    <i name="e_0_energy">   -550.33999993 </i>
   </energy>
  </scstep>
  <scstep>
   <time name="dav">  637.91  643.77</time>
   <time name="total">  653.71  659.73</time>
   <energy>
    <i name="e_fr_energy">   -550.33889209 </i>
    <i name="e_wo_entrp">   -550.33889209 </i>
    <i name="e_0_energy">   -550.33889209 </i>
   </energy>
  </scstep>
  <scstep>
   <time name="dav">  511.79  516.51</time>
   <time name="total">  527.66  532.45</time>
   <energy>
    <i name="e_fr_energy">   -550.33897127 </i>
    <i name="e_wo_entrp">   -550.33897127 </i>
    <i name="e_0_energy">   -550.33897127 </i>
   </energy>
  </scstep>
  <scstep>
   <time name="dav">  557.35  562.61</time>
   <time name="total">  573.24  578.68</time>
   <energy>
    <i name="e_fr_energy">   -550.33896652 </i>
    <i name="e_wo_entrp">   -550.33896652 </i>
    <i name="e_0_energy">   -550.33896652 </i>
   </energy>
  </scstep>
  <scstep>
   <time name="dav">  485.37  489.99</time>
   <time name="total">  501.39  506.07</time>
   <energy>
    <i name="e_fr_energy">   -550.33894850 </i>
    <i name="e_wo_entrp">   -550.33894850 </i>
    <i name="e_0_energy">   -550.33894850 </i>
   </energy>
  </scstep>
  <scstep>
   <time name="dav">  448.04  452.06</time>
   <time name="total">  464.06  468.11</time>
   <energy>
    <i name="e_fr_energy">   -550.33895445 </i>
    <i name="e_wo_entrp">   -550.33895445 </i>
    <i name="e_0_energy">   -550.33895445 </i>
   </energy>
  </scstep>
  <scstep>
   <time name="dav">  431.06  435.21</time>
   <time name="total">  446.88  451.21</time>
   <energy>
    <i name="e_fr_energy">   -550.33895244 </i>
    <i name="e_wo_entrp">   -550.33895244 </i>
    <i name="e_0_energy">   -550.33895244 </i>
   </energy>
  </scstep>
  <scstep>
   <time name="dav">  320.81  324.31</time>
   <time name="total">  324.50  328.01</time>
   <energy>
    <i name="alphaZ">   2606.24521607 </i>
    <i name="ewald"> -65007.66022253 </i>
    <i name="hartreedc"> -34081.95037235 </i>
    <i name="XCdc">   3632.83790883 </i>
    <i name="pawpsdc"> 104148.89427944 </i>
    <i name="pawaedc">-107360.44373691 </i>
    <i name="eentropy">     -0.00000000 </i>
    <i name="bandstr"> -11862.17669806 </i>
    <i name="atom"> 107373.91467324 </i>
    <i name="e_fr_energy">   -550.33895227 </i>
    <i name="e_wo_entrp">   -550.33895227 </i>
    <i name="e_0_energy">   -550.33895227 </i>
   </energy>
  </scstep>
  <structure>
   <crystal>
    <varray name="basis" >
     <v>      11.77726974       0.00848871       0.06923316 </v>
     <v>      -0.03028248      11.77723386       0.06923316 </v>
     <v>      -2.02000231      -2.02666320      10.18574622 </v>
    </varray>
    <i name="volume">   1416.10551572 </i>
    <varray name="rec_basis" >
     <v>       0.08481023       0.00011906       0.01684296 </v>
     <v>      -0.00016014       0.08481016       0.01684296 </v>
     <v>      -0.00057537      -0.00057727       0.09794744 </v>
    </varray>
   </crystal>
   <varray name="positions" >
    <v>       0.20224939       0.24206952       0.83183419 </v>
    <v>       0.53558272       0.24206952       0.83183419 </v>
    <v>       0.86891606       0.24206952       0.83183419 </v>
    <v>       0.20224939       0.57540285       0.83183419 </v>
    <v>       0.53558272       0.57540285       0.83183419 </v>
    <v>       0.86891606       0.57540285       0.83183419 </v>
    <v>       0.20224939       0.90873619       0.83183419 </v>
    <v>       0.53558272       0.90873619       0.83183419 </v>
    <v>       0.86891606       0.90873619       0.83183419 </v>
    <v>       0.09126381       0.13108394       0.16816581 </v>
    <v>       0.42459715       0.13108394       0.16816581 </v>
    <v>       0.75793048       0.13108394       0.16816581 </v>
    <v>       0.09126381       0.46441728       0.16816581 </v>
    <v>       0.42459715       0.46441728       0.16816581 </v>
    <v>       0.75793048       0.46441728       0.16816581 </v>
    <v>       0.09126381       0.79775061       0.16816581 </v>
    <v>       0.42459715       0.79775061       0.16816581 </v>
    <v>       0.75793048       0.79775061       0.16816581 </v>
    <v>       0.26311007       0.13598816       0.19686089 </v>
    <v>       0.59644341       0.13598816       0.19686089 </v>
    <v>       0.92977674       0.13598816       0.19686089 </v>
    <v>       0.26311007       0.46932149       0.19686089 </v>
    <v>       0.59644341       0.46932149       0.19686089 </v>
    <v>       0.92977674       0.46932149       0.19686089 </v>
    <v>       0.26311007       0.80265483       0.19686089 </v>
    <v>       0.59644341       0.80265483       0.19686089 </v>
    <v>       0.92977674       0.80265483       0.19686089 </v>
    <v>       0.19734517       0.07022326       0.80313911 </v>
    <v>       0.53067851       0.07022326       0.80313911 </v>
    <v>       0.86401184       0.07022326       0.80313911 </v>
    <v>       0.19734517       0.40355659       0.80313911 </v>
    <v>       0.53067851       0.40355659       0.80313911 </v>
    <v>       0.86401184       0.40355659       0.80313911 </v>
    <v>       0.19734517       0.73688993       0.80313911 </v>
    <v>       0.53067851       0.73688993       0.80313911 </v>
    <v>       0.86401184       0.73688993       0.80313911 </v>
    <v>       0.00253935       0.20657296       0.62920335 </v>
    <v>       0.33587268       0.20657296       0.62920335 </v>
    <v>       0.66920601       0.20657296       0.62920335 </v>
    <v>       0.00253935       0.53990630       0.62920335 </v>
    <v>       0.33587268       0.53990630       0.62920335 </v>
    <v>       0.66920601       0.53990630       0.62920335 </v>
    <v>       0.00253935       0.87323963       0.62920335 </v>
    <v>       0.33587268       0.87323963       0.62920335 </v>
    <v>       0.66920601       0.87323963       0.62920335 </v>
    <v>       0.12676037       0.33079399       0.37079665 </v>
    <v>       0.46009370       0.33079399       0.37079665 </v>
    <v>       0.79342704       0.33079399       0.37079665 </v>
    <v>       0.12676037       0.66412732       0.37079665 </v>
    <v>       0.46009370       0.66412732       0.37079665 </v>
    <v>       0.79342704       0.66412732       0.37079665 </v>
    <v>       0.12676037       0.99746065       0.37079665 </v>
    <v>       0.46009370       0.99746065       0.37079665 </v>
    <v>       0.79342704       0.99746065       0.37079665 </v>
    <v>       0.06350899       0.26982435       0.00000000 </v>
    <v>       0.39684232       0.26982435       0.00000000 </v>
    <v>       0.73017565       0.26982435       0.00000000 </v>
    <v>       0.06350899       0.60315768       0.00000000 </v>
    <v>       0.39684232       0.60315768       0.00000000 </v>
    <v>       0.73017565       0.60315768       0.00000000 </v>
    <v>       0.06350899       0.93649101       0.00000000 </v>
    <v>       0.39684232       0.93649101       0.00000000 </v>
    <v>       0.73017565       0.93649101       0.00000000 </v>
    <v>       0.29027274       0.17214940       0.39352170 </v>
    <v>       0.62360607       0.17214940       0.39352170 </v>
    <v>       0.95693941       0.17214940       0.39352170 </v>
    <v>       0.29027274       0.50548273       0.39352170 </v>
    <v>       0.62360607       0.50548273       0.39352170 </v>
    <v>       0.95693941       0.50548273       0.39352170 </v>
    <v>       0.29027274       0.83881607       0.39352170 </v>
    <v>       0.62360607       0.83881607       0.39352170 </v>
    <v>       0.95693941       0.83881607       0.39352170 </v>
    <v>       0.16118393       0.04306059       0.60647830 </v>
    <v>       0.49451727       0.04306059       0.60647830 </v>
    <v>       0.82785060       0.04306059       0.60647830 </v>
    <v>       0.16118393       0.37639393       0.60647830 </v>
    <v>       0.49451727       0.37639393       0.60647830 </v>
    <v>       0.82785060       0.37639393       0.60647830 </v>
    <v>       0.16118393       0.70972726       0.60647830 </v>
    <v>       0.49451727       0.70972726       0.60647830 </v>
    <v>       0.82785060       0.70972726       0.60647830 </v>
    <v>       0.03761391       0.07816215       0.84542777 </v>
    <v>       0.37094724       0.07731307       0.84542777 </v>
    <v>       0.70428057       0.07731307       0.84542777 </v>
    <v>       0.03761391       0.41064640       0.84542777 </v>
    <v>       0.37094724       0.41064640       0.84542777 </v>
    <v>       0.70428057       0.41064640       0.84542777 </v>
    <v>       0.03761391       0.74397973       0.84542777 </v>
    <v>       0.37094724       0.74397973       0.84542777 </v>
    <v>       0.70428057       0.74397973       0.84542777 </v>
    <v>       0.25602027       0.29571943       0.15457223 </v>
    <v>       0.58935360       0.29571943       0.15457223 </v>
    <v>       0.92268693       0.29571943       0.15457223 </v>
    <v>       0.25602027       0.62905276       0.15457223 </v>
    <v>       0.58935360       0.62905276       0.15457223 </v>
    <v>       0.92268693       0.62905276       0.15457223 </v>
    <v>       0.25602027       0.96238609       0.15457223 </v>
    <v>       0.58935360       0.96238609       0.15457223 </v>
    <v>       0.92268693       0.96238609       0.15457223 </v>
   </varray>
  </structure>
  <varray name="forces" >
   <v>       0.00806656       0.00553411      -0.00083553 </v>
   <v>       0.00003224       0.00044604      -0.00012699 </v>
   <v>      -0.00808165       0.00558859      -0.00093612 </v>
   <v>       0.00004787       0.00008099       0.00001516 </v>
   <v>       0.00008630      -0.00043008      -0.00000315 </v>
   <v>      -0.00009969       0.00006403       0.00000305 </v>
   <v>      -0.00788427       0.00537435       0.00108587 </v>
   <v>       0.00002677       0.00030452       0.00030297 </v>
   <v>       0.00799631       0.00547598       0.00117326 </v>
   <v>      -0.00026387      -0.00275910      -0.00010802 </v>
   <v>       0.00061423      -0.00028876       0.00011142 </v>
   <v>      -0.00062169      -0.00038702      -0.00013645 </v>
   <v>      -0.00038056       0.00202537       0.00121200 </v>
   <v>       0.00085138       0.00018629       0.00016725 </v>
   <v>      -0.00075981       0.00039478      -0.00000507 </v>
   <v>      -0.00047754       0.00170042      -0.00121220 </v>
   <v>       0.00035694       0.00014623       0.00006150 </v>
   <v>      -0.00015451       0.00005551      -0.00007545 </v>
   <v>      -0.00020988       0.00331972       0.00004407 </v>
   <v>      -0.00010705       0.00091193       0.00000601 </v>
   <v>      -0.00036423       0.00333231       0.00069543 </v>
   <v>      -0.00103982      -0.00216747      -0.00124547 </v>
   <v>      -0.00012098      -0.00079343      -0.00017664 </v>
   <v>       0.00055737      -0.00219732      -0.00125355 </v>
   <v>       0.00069449      -0.00154585       0.00119978 </v>
   <v>      -0.00013559      -0.00019714       0.00016344 </v>
   <v>      -0.00123649      -0.00153928       0.00053703 </v>
   <v>      -0.00024405       0.00767030       0.00016832 </v>
   <v>       0.00008530       0.00096900       0.00007220 </v>
   <v>       0.00005413       0.00762830       0.00008457 </v>
   <v>      -0.00141593      -0.00121731       0.00033815 </v>
   <v>       0.00003926      -0.00009527       0.00020917 </v>
   <v>       0.00150387      -0.00121447       0.00046320 </v>
   <v>       0.00151991      -0.00117936      -0.00044595 </v>
   <v>       0.00004728      -0.00009157      -0.00023291 </v>
   <v>      -0.00144463      -0.00117379      -0.00049265 </v>
   <v>       0.00000410       0.00056283       0.00514309 </v>
   <v>      -0.00021636       0.00077163      -0.00001590 </v>
   <v>       0.00025570       0.00065259      -0.00000029 </v>
   <v>       0.00006988      -0.00138283      -0.00015289 </v>
   <v>      -0.00005623      -0.00060190      -0.00015082 </v>
   <v>       0.00000645      -0.00055400      -0.00005915 </v>
   <v>       0.00000788      -0.00000037      -0.00501543 </v>
   <v>       0.00030821       0.00039439       0.00010502 </v>
   <v>      -0.00022556       0.00045526       0.00000236 </v>
   <v>      -0.00064301      -0.00033987      -0.00055434 </v>
   <v>      -0.00011644       0.00013276      -0.00024701 </v>
   <v>       0.00080562      -0.00048888       0.00041999 </v>
   <v>       0.00069175      -0.00112058      -0.00063171 </v>
   <v>       0.00001550      -0.00035033       0.00005305 </v>
   <v>      -0.00061476      -0.00097733      -0.00064473 </v>
   <v>       0.00000532       0.00128965       0.00133786 </v>
   <v>       0.00016426       0.00035263       0.00033443 </v>
   <v>      -0.00010377       0.00121123       0.00037119 </v>
   <v>      -0.00007995       0.01448246       0.00692823 </v>
   <v>      -0.00077875       0.00026110       0.00009158 </v>
   <v>       0.00082154       0.00022334       0.00017818 </v>
   <v>       0.00004533      -0.00169168      -0.00012442 </v>
   <v>       0.00001185      -0.00047419      -0.00004162 </v>
   <v>      -0.00001416      -0.00048771      -0.00011118 </v>
   <v>      -0.00000631       0.01413429      -0.00610452 </v>
   <v>       0.00081311       0.00026203      -0.00004164 </v>
   <v>      -0.00078341       0.00031944      -0.00006485 </v>
   <v>       0.00018921      -0.00096675      -0.00024745 </v>
   <v>      -0.00000016      -0.00066986      -0.00023567 </v>
   <v>      -0.00018391      -0.00137266      -0.00340168 </v>
   <v>       0.00013803       0.00067465       0.00049730 </v>
   <v>       0.00010688       0.00049940       0.00001736 </v>
   <v>      -0.00013171       0.00071398       0.00044954 </v>
   <v>      -0.00007139       0.00012672      -0.00049957 </v>
   <v>       0.00012100       0.00003683       0.00000828 </v>
   <v>       0.00020557      -0.00062697       0.00247470 </v>
   <v>       0.00011331      -0.00359652      -0.00047992 </v>
   <v>      -0.00000762      -0.00069024      -0.00003730 </v>
   <v>      -0.00025822      -0.00326409      -0.00020600 </v>
   <v>       0.00091575       0.00115156       0.00018144 </v>
   <v>      -0.00000752      -0.00008894       0.00007390 </v>
   <v>      -0.00100613       0.00099139      -0.00012923 </v>
   <v>      -0.00145384       0.00127771       0.00043210 </v>
   <v>      -0.00002126       0.00006638       0.00029483 </v>
   <v>       0.00127094       0.00114657       0.00049132 </v>
   <v>       0.00038752      -0.06227284      -0.00059230 </v>
   <v>       0.00006492      -0.00058306      -0.00004841 </v>
   <v>       0.00018086      -0.00057934      -0.00000224 </v>
   <v>       0.00005683       0.00423861      -0.00032724 </v>
   <v>       0.00083991       0.00025904      -0.00001397 </v>
   <v>      -0.00044929       0.00033291       0.00001579 </v>
   <v>       0.00010078       0.00416818       0.00041875 </v>
   <v>      -0.00060641       0.00032923       0.00000763 </v>
   <v>       0.00094761       0.00026109       0.00007844 </v>
   <v>       0.00323729      -0.00126980       0.00261399 </v>
   <v>      -0.00011349      -0.00031830       0.00021069 </v>
   <v>      -0.00294906      -0.00092819       0.00251154 </v>
   <v>      -0.00010817       0.00135025       0.00008363 </v>
   <v>       0.00023556       0.00015153       0.00005435 </v>
   <v>       0.00006242       0.00159957       0.00014788 </v>
   <v>      -0.00291117      -0.00116555      -0.00300763 </v>
   <v>       0.00003889      -0.00026582      -0.00066865 </v>
   <v>       0.00314030      -0.00168422      -0.00299838 </v>
  </varray>
  <varray name="stress" >
   <v>      -0.16083357      -0.00213624      -0.00763039 </v>
   <v>      -0.00166547      -0.14180392       0.04464533 </v>
   <v>       0.00199783       0.05445537      -0.14898518 </v>
  </varray>
  <energy>
   <i name="e_fr_energy">   -550.33895227 </i>
   <i name="e_wo_entrp">   -550.33895227 </i>
   <i name="e_0_energy">     -0.00000000 </i>
  </energy>
  <time name="totalsc"> 9160.65 9245.44</time>
  <eigenvalues>
   <array>
    <dimension dim="1">band</dimension>
    <dimension dim="2">kpoint</dimension>
    <dimension dim="3">spin</dimension>
    <field>eigene</field>
    <field>occ</field>
    <set>
     <set comment="spin 1">
      <set comment="kpoint 1">
       <r>  -51.0514    1.0000 </r>
       <r>  -51.0509    1.0000 </r>
       <r>  -51.0504    1.0000 </r>
       <r>  -51.0502    1.0000 </r>
       <r>  -51.0499    1.0000 </r>
       <r>  -51.0497    1.0000 </r>
       <r>  -51.0497    1.0000 </r>
       <r>  -51.0495    1.0000 </r>
       <r>  -51.0494    1.0000 </r>
       <r>  -51.0493    1.0000 </r>
       <r>  -51.0493    1.0000 </r>
       <r>  -51.0486    1.0000 </r>
       <r>  -51.0483    1.0000 </r>
       <r>  -51.0476    1.0000 </r>
       <r>  -51.0472    1.0000 </r>
       <r>  -51.0469    1.0000 </r>
       <r>  -51.0466    1.0000 </r>
       <r>  -51.0457    1.0000 </r>
       <r>  -51.0386    1.0000 </r>
       <r>  -51.0384    1.0000 </r>
       <r>  -51.0383    1.0000 </r>
       <r>  -51.0372    1.0000 </r>
       <r>  -51.0371    1.0000 </r>
       <r>  -51.0370    1.0000 </r>
       <r>  -51.0365    1.0000 </r>
       <r>  -51.0363    1.0000 </r>
       <r>  -51.0362    1.0000 </r>
       <r>  -51.0361    1.0000 </r>
       <r>  -51.0361    1.0000 </r>
       <r>  -51.0359    1.0000 </r>
       <r>  -51.0359    1.0000 </r>
       <r>  -51.0357    1.0000 </r>
       <r>  -51.0354    1.0000 </r>
       <r>  -51.0344    1.0000 </r>
       <r>  -51.0343    1.0000 </r>
       <r>  -51.0342    1.0000 </r>
       <r>  -49.6918    1.0000 </r>
       <r>  -49.6913    1.0000 </r>
       <r>  -49.6907    1.0000 </r>
       <r>  -49.6898    1.0000 </r>
       <r>  -49.6898    1.0000 </r>
       <r>  -49.6897    1.0000 </r>
       <r>  -49.6893    1.0000 </r>
       <r>  -49.6893    1.0000 </r>
       <r>  -49.6893    1.0000 </r>
       <r>  -49.6892    1.0000 </r>
       <r>  -49.6892    1.0000 </r>
       <r>  -49.6887    1.0000 </r>
       <r>  -49.6886    1.0000 </r>
       <r>  -49.6885    1.0000 </r>
       <r>  -49.6885    1.0000 </r>
       <r>  -49.6876    1.0000 </r>
       <r>  -49.6873    1.0000 </r>
       <r>  -49.6868    1.0000 </r>
       <r>  -49.5920    1.0000 </r>
       <r>  -49.5917    1.0000 </r>
       <r>  -49.5910    1.0000 </r>
       <r>  -49.5909    1.0000 </r>
       <r>  -49.5909    1.0000 </r>
       <r>  -49.5905    1.0000 </r>
       <r>  -49.5901    1.0000 </r>
       <r>  -49.5901    1.0000 </r>
       <r>  -49.5897    1.0000 </r>
       <r>  -49.5895    1.0000 </r>
       <r>  -49.5890    1.0000 </r>
       <r>  -49.5888    1.0000 </r>
       <r>  -49.5886    1.0000 </r>
       <r>  -49.5885    1.0000 </r>
       <r>  -49.5884    1.0000 </r>
       <r>  -49.5882    1.0000 </r>
       <r>  -49.5880    1.0000 </r>
       <r>  -49.5865    1.0000 </r>
       <r>  -49.5627    1.0000 </r>
       <r>  -49.5618    1.0000 </r>
       <r>  -49.5615    1.0000 </r>
       <r>  -49.5613    1.0000 </r>
       <r>  -49.5611    1.0000 </r>
       <r>  -49.5609    1.0000 </r>
       <r>  -49.5604    1.0000 </r>
       <r>  -49.5599    1.0000 </r>
       <r>  -49.5594    1.0000 </r>
       <r>  -49.5593    1.0000 </r>
       <r>  -49.5591    1.0000 </r>
       <r>  -49.5591    1.0000 </r>
       <r>  -49.5589    1.0000 </r>
       <r>  -49.5585    1.0000 </r>
       <r>  -49.5581    1.0000 </r>
       <r>  -49.5579    1.0000 </r>
       <r>  -49.5573    1.0000 </r>
       <r>  -49.5566    1.0000 </r>
       <r>  -49.5503    1.0000 </r>
       <r>  -49.5501    1.0000 </r>
       <r>  -49.5498    1.0000 </r>
       <r>  -49.5486    1.0000 </r>
       <r>  -49.5484    1.0000 </r>
       <r>  -49.5479    1.0000 </r>
       <r>  -49.5476    1.0000 </r>
       <r>  -49.5473    1.0000 </r>
       <r>  -49.5473    1.0000 </r>
       <r>  -49.5472    1.0000 </r>
       <r>  -49.5471    1.0000 </r>
       <r>  -49.5469    1.0000 </r>
       <r>  -49.5468    1.0000 </r>
       <r>  -49.5466    1.0000 </r>
       <r>  -49.5463    1.0000 </r>
       <r>  -49.5450    1.0000 </r>
       <r>  -49.5450    1.0000 </r>
       <r>  -49.5449    1.0000 </r>
       <r>  -39.8666    1.0000 </r>
       <r>  -39.8664    1.0000 </r>
       <r>  -39.8649    1.0000 </r>
       <r>  -39.8632    1.0000 </r>
       <r>  -39.8631    1.0000 </r>
       <r>  -39.8629    1.0000 </r>
       <r>  -39.8626    1.0000 </r>
       <r>  -39.8626    1.0000 </r>
       <r>  -39.8624    1.0000 </r>
       <r>  -39.8624    1.0000 </r>
       <r>  -39.8623    1.0000 </r>
       <r>  -39.8622    1.0000 </r>
       <r>  -39.8621    1.0000 </r>
       <r>  -39.8617    1.0000 </r>
       <r>  -39.8615    1.0000 </r>
       <r>  -39.8598    1.0000 </r>
       <r>  -39.8583    1.0000 </r>
       <r>  -39.8582    1.0000 </r>
       <r>  -13.2355    1.0000 </r>
       <r>  -13.2349    1.0000 </r>
       <r>  -13.2348    1.0000 </r>
       <r>  -13.2343    1.0000 </r>
       <r>  -13.2258    1.0000 </r>
       <r>  -13.1987    1.0000 </r>
       <r>  -13.0558    1.0000 </r>
       <r>  -13.0554    1.0000 </r>
       <r>  -13.0542    1.0000 </r>
       <r>  -13.0539    1.0000 </r>
       <r>  -13.0426    1.0000 </r>
       <r>  -13.0422    1.0000 </r>
       <r>  -13.0411    1.0000 </r>
       <r>  -13.0407    1.0000 </r>
       <r>  -13.0191    1.0000 </r>
       <r>  -13.0186    1.0000 </r>
       <r>  -13.0185    1.0000 </r>
       <r>  -13.0181    1.0000 </r>
       <r>   -7.6149    1.0000 </r>
       <r>   -7.4117    1.0000 </r>
       <r>   -7.3788    1.0000 </r>
       <r>   -7.3751    1.0000 </r>
       <r>   -7.3749    1.0000 </r>
       <r>   -7.3714    1.0000 </r>
       <r>   -7.1836    1.0000 </r>
       <r>   -7.1800    1.0000 </r>
       <r>   -7.1730    1.0000 </r>
       <r>   -7.1694    1.0000 </r>
       <r>   -7.1528    1.0000 </r>
       <r>   -7.1514    1.0000 </r>
       <r>   -7.1510    1.0000 </r>
       <r>   -7.1495    1.0000 </r>
       <r>   -6.9846    1.0000 </r>
       <r>   -6.9655    1.0000 </r>
       <r>   -6.9646    1.0000 </r>
       <r>   -6.9312    1.0000 </r>
       <r>   -6.9295    1.0000 </r>
       <r>   -6.8725    1.0000 </r>
       <r>   -6.8715    1.0000 </r>
       <r>   -6.8712    1.0000 </r>
       <r>   -6.8702    1.0000 </r>
       <r>   -6.8078    1.0000 </r>
       <r>   -6.8066    1.0000 </r>
       <r>   -6.7810    1.0000 </r>
       <r>   -6.7798    1.0000 </r>
       <r>   -1.8371    1.0000 </r>
       <r>   -1.8367    1.0000 </r>
       <r>   -1.8366    1.0000 </r>
       <r>   -1.8363    1.0000 </r>
       <r>   -1.8163    1.0000 </r>
       <r>   -1.8160    1.0000 </r>
       <r>   -1.8035    1.0000 </r>
       <r>   -1.8035    1.0000 </r>
       <r>   -1.7663    1.0000 </r>
       <r>   -1.7662    1.0000 </r>
       <r>   -1.7537    1.0000 </r>
       <r>   -1.7533    1.0000 </r>
       <r>   -1.2808    1.0000 </r>
       <r>   -1.1979    1.0000 </r>
       <r>   -1.1973    1.0000 </r>
       <r>   -1.1970    1.0000 </r>
       <r>   -1.1968    1.0000 </r>
       <r>   -1.0053    1.0000 </r>
       <r>   -1.0048    1.0000 </r>
       <r>   -0.9744    1.0000 </r>
       <r>   -0.9738    1.0000 </r>
       <r>   -0.9591    1.0000 </r>
       <r>   -0.9585    1.0000 </r>
       <r>   -0.9468    1.0000 </r>
       <r>   -0.9385    1.0000 </r>
       <r>   -0.9312    1.0000 </r>
       <r>   -0.9283    1.0000 </r>
       <r>   -0.9278    1.0000 </r>
       <r>   -0.8849    1.0000 </r>
       <r>   -0.8845    1.0000 </r>
       <r>   -0.8845    1.0000 </r>
       <r>   -0.8838    1.0000 </r>
       <r>   -0.8714    1.0000 </r>
       <r>   -0.8712    1.0000 </r>
       <r>   -0.8676    1.0000 </r>
       <r>   -0.8673    1.0000 </r>
       <r>   -0.8673    1.0000 </r>
       <r>   -0.8667    1.0000 </r>
       <r>   -0.8596    1.0000 </r>
       <r>   -0.8593    1.0000 </r>
       <r>   -0.7008    1.0000 </r>
       <r>   -0.7001    1.0000 </r>
       <r>   -0.7001    1.0000 </r>
       <r>   -0.6994    1.0000 </r>
       <r>   -0.6713    1.0000 </r>
       <r>   -0.6711    1.0000 </r>
       <r>   -0.6230    1.0000 </r>
       <r>   -0.6229    1.0000 </r>
       <r>   -0.6226    1.0000 </r>
       <r>   -0.6226    1.0000 </r>
       <r>   -0.6219    1.0000 </r>
       <r>   -0.6218    1.0000 </r>
       <r>   -0.3532    1.0000 </r>
       <r>   -0.3522    1.0000 </r>
       <r>   -0.3520    1.0000 </r>
       <r>   -0.3509    1.0000 </r>
       <r>   -0.3218    1.0000 </r>
       <r>   -0.3215    1.0000 </r>
       <r>   -0.2915    1.0000 </r>
       <r>   -0.2913    1.0000 </r>
       <r>   -0.2647    1.0000 </r>
       <r>   -0.2642    1.0000 </r>
       <r>   -0.2642    1.0000 </r>
       <r>   -0.2633    1.0000 </r>
       <r>   -0.2606    1.0000 </r>
       <r>   -0.2606    1.0000 </r>
       <r>   -0.2574    1.0000 </r>
       <r>   -0.2488    1.0000 </r>
       <r>   -0.2484    1.0000 </r>
       <r>   -0.2426    1.0000 </r>
       <r>   -0.2209    1.0000 </r>
       <r>   -0.1407    1.0000 </r>
       <r>   -0.1404    1.0000 </r>
       <r>   -0.1402    1.0000 </r>
       <r>   -0.1397    1.0000 </r>
       <r>   -0.1394    1.0000 </r>
       <r>   -0.1392    1.0000 </r>
       <r>   -0.1241    1.0000 </r>
       <r>   -0.1230    1.0000 </r>
       <r>   -0.1228    1.0000 </r>
       <r>   -0.1220    1.0000 </r>
       <r>   -0.1204    1.0000 </r>
       <r>   -0.1194    1.0000 </r>
       <r>   -0.0779    1.0000 </r>
       <r>   -0.0775    1.0000 </r>
       <r>   -0.0595    1.0000 </r>
       <r>   -0.0117    1.0000 </r>
       <r>   -0.0116    1.0000 </r>
       <r>    0.0156    1.0000 </r>
       <r>    0.0161    1.0000 </r>
       <r>    0.0262    1.0000 </r>
       <r>    0.0263    1.0000 </r>
       <r>    0.0426    1.0000 </r>
       <r>    0.0430    1.0000 </r>
       <r>    0.0431    1.0000 </r>
       <r>    0.0439    1.0000 </r>
       <r>    0.0602    1.0000 </r>
       <r>    0.0611    1.0000 </r>
       <r>    0.1497    1.0000 </r>
       <r>    0.1499    1.0000 </r>
       <r>    0.1500    1.0000 </r>
       <r>    0.1509    1.0000 </r>
       <r>    0.1583    1.0000 </r>
       <r>    0.1639    1.0000 </r>
       <r>    0.1656    1.0000 </r>
       <r>    0.1823    1.0000 </r>
       <r>    0.1827    1.0000 </r>
       <r>    0.1923    1.0000 </r>
       <r>    0.1964    1.0000 </r>
       <r>    0.1969    1.0000 </r>
       <r>    0.2078    1.0000 </r>
       <r>    0.2082    1.0000 </r>
       <r>    0.2566    1.0000 </r>
       <r>    0.2583    1.0000 </r>
       <r>    0.2584    1.0000 </r>
       <r>    0.2603    1.0000 </r>
       <r>    0.2784    1.0000 </r>
       <r>    0.2789    1.0000 </r>
       <r>    0.3392    1.0000 </r>
       <r>    0.3396    1.0000 </r>
       <r>    0.3593    1.0000 </r>
       <r>    0.3598    1.0000 </r>
       <r>    0.3600    1.0000 </r>
       <r>    0.3608    1.0000 </r>
       <r>    0.3802    1.0000 </r>
       <r>    0.3832    1.0000 </r>
       <r>    0.4894    1.0000 </r>
       <r>    0.4899    1.0000 </r>
       <r>    0.4899    1.0000 </r>
       <r>    0.4903    1.0000 </r>
       <r>    0.5168    1.0000 </r>
       <r>    0.5170    1.0000 </r>
       <r>    0.5171    1.0000 </r>
       <r>    0.5176    1.0000 </r>
       <r>    0.5588    1.0000 </r>
       <r>    0.5589    1.0000 </r>
       <r>    0.6088    1.0000 </r>
       <r>    0.6089    1.0000 </r>
       <r>    0.6148    1.0000 </r>
       <r>    0.6306    1.0000 </r>
       <r>    0.6309    1.0000 </r>
       <r>    0.6310    1.0000 </r>
       <r>    0.6316    1.0000 </r>
       <r>    0.7522    1.0000 </r>
       <r>    0.7524    1.0000 </r>
       <r>    0.7613    1.0000 </r>
       <r>    0.7615    1.0000 </r>
       <r>    0.7621    1.0000 </r>
       <r>    0.7625    1.0000 </r>
       <r>    0.7906    1.0000 </r>
       <r>    0.7908    1.0000 </r>
       <r>    0.7932    1.0000 </r>
       <r>    0.8459    1.0000 </r>
       <r>    0.8464    1.0000 </r>
       <r>    0.8549    1.0000 </r>
       <r>    0.8555    1.0000 </r>
       <r>    0.9689    1.0000 </r>
       <r>    0.9691    1.0000 </r>
       <r>    0.9692    1.0000 </r>
       <r>    0.9694    1.0000 </r>
       <r>    0.9793    1.0000 </r>
       <r>    1.2397    1.0000 </r>
       <r>    1.2399    1.0000 </r>
       <r>    1.2400    1.0000 </r>
       <r>    1.2407    1.0000 </r>
       <r>    1.2638    1.0000 </r>
       <r>    1.2924    1.0000 </r>
       <r>    1.2930    1.0000 </r>
       <r>    1.3304    1.0000 </r>
       <r>    1.3309    1.0000 </r>
       <r>    1.3581    1.0000 </r>
       <r>    1.3589    1.0000 </r>
       <r>    1.3590    1.0000 </r>
       <r>    1.3592    1.0000 </r>
       <r>    1.4366    1.0000 </r>
       <r>    1.4369    1.0000 </r>
       <r>    1.4642    1.0000 </r>
       <r>    1.4755    1.0000 </r>
       <r>    1.4873    1.0000 </r>
       <r>    1.4876    1.0000 </r>
       <r>    1.5475    1.0000 </r>
       <r>    1.6788    1.0000 </r>
       <r>    1.6802    1.0000 </r>
       <r>    1.6803    1.0000 </r>
       <r>    1.7231    1.0000 </r>
       <r>    1.7238    1.0000 </r>
       <r>    1.7239    1.0000 </r>
       <r>    1.7242    1.0000 </r>
       <r>    1.7657    1.0000 </r>
       <r>    1.7658    1.0000 </r>
       <r>    1.8140    1.0000 </r>
       <r>    1.8144    1.0000 </r>
       <r>    1.8149    1.0000 </r>
       <r>    1.8149    1.0000 </r>
       <r>    1.8266    1.0000 </r>
       <r>    1.8271    1.0000 </r>
       <r>    1.8278    1.0000 </r>
       <r>    1.8281    1.0000 </r>
       <r>    1.8396    1.0000 </r>
       <r>    1.8760    1.0000 </r>
       <r>    1.8866    1.0000 </r>
       <r>    1.9029    1.0000 </r>
       <r>    1.9032    1.0000 </r>
       <r>    1.9173    1.0000 </r>
       <r>    1.9175    1.0000 </r>
       <r>    1.9634    1.0000 </r>
       <r>    1.9636    1.0000 </r>
       <r>    1.9900    1.0000 </r>
       <r>    1.9900    1.0000 </r>
       <r>    1.9986    1.0000 </r>
       <r>    1.9993    1.0000 </r>
       <r>    1.9994    1.0000 </r>
       <r>    1.9996    1.0000 </r>
       <r>    2.0712    1.0000 </r>
       <r>    2.0715    1.0000 </r>
       <r>    2.0810    1.0000 </r>
       <r>    2.0816    1.0000 </r>
       <r>    2.0816    1.0000 </r>
       <r>    2.0822    1.0000 </r>
       <r>    2.0944    1.0000 </r>
       <r>    2.0946    1.0000 </r>
       <r>    2.1160    1.0000 </r>
       <r>    2.1164    1.0000 </r>
       <r>    2.1165    1.0000 </r>
       <r>    2.1166    1.0000 </r>
       <r>    2.1955    1.0000 </r>
       <r>    2.1956    1.0000 </r>
       <r>    2.2885    1.0000 </r>
       <r>    2.2887    1.0000 </r>
       <r>    2.4163    1.0000 </r>
       <r>    2.4164    1.0000 </r>
       <r>    2.4402    1.0000 </r>
       <r>    2.4408    1.0000 </r>
       <r>    2.4411    1.0000 </r>
       <r>    2.4418    1.0000 </r>
       <r>    2.4997    1.0000 </r>
       <r>    2.5161    1.0000 </r>
       <r>    2.5161    1.0000 </r>
       <r>    2.5166    1.0000 </r>
       <r>    2.5172    1.0000 </r>
       <r>    2.5592    1.0000 </r>
       <r>    2.5596    1.0000 </r>
       <r>    2.5654    1.0000 </r>
       <r>    2.7184    1.0000 </r>
       <r>    2.7188    1.0000 </r>
       <r>    2.7189    1.0000 </r>
       <r>    2.7196    1.0000 </r>
       <r>    2.7332    1.0000 </r>
       <r>    2.7336    1.0000 </r>
       <r>    2.8003    1.0000 </r>
       <r>    2.8003    1.0000 </r>
       <r>    3.0020    1.0000 </r>
       <r>    3.0028    1.0000 </r>
       <r>    3.0061    1.0000 </r>
       <r>    3.0071    1.0000 </r>
       <r>    3.1702    1.0000 </r>
       <r>    3.2189    1.0000 </r>
       <r>    3.2194    1.0000 </r>
       <r>    3.2218    1.0000 </r>
       <r>    3.2225    1.0000 </r>
       <r>    3.3595    1.0000 </r>
       <r>    3.3597    1.0000 </r>
       <r>    3.3598    1.0000 </r>
       <r>    3.3599    1.0000 </r>
       <r>    3.3930    1.0000 </r>
       <r>    3.4018    1.0000 </r>
       <r>    3.5018    1.0000 </r>
       <r>    3.5019    1.0000 </r>
       <r>    3.5874    1.0000 </r>
       <r>    3.5878    1.0000 </r>
       <r>    3.8159    1.0000 </r>
       <r>    3.8161    1.0000 </r>
       <r>    3.8300    1.0000 </r>
       <r>    3.8304    1.0000 </r>
       <r>    4.0024    1.0000 </r>
       <r>    4.0028    1.0000 </r>
       <r>    4.0033    1.0000 </r>
       <r>    4.0036    1.0000 </r>
       <r>    4.0310    1.0000 </r>
       <r>    4.0314    1.0000 </r>
       <r>    4.0320    1.0000 </r>
       <r>    4.0324    1.0000 </r>
       <r>    4.1063    1.0000 </r>
       <r>    4.1168    1.0000 </r>
       <r>    4.1221    1.0000 </r>
       <r>    4.1598    1.0000 </r>
       <r>    4.1603    1.0000 </r>
       <r>    4.2588    1.0000 </r>
       <r>    4.2593    1.0000 </r>
       <r>    4.2767    1.0000 </r>
       <r>    4.2772    1.0000 </r>
       <r>    4.3302    1.0000 </r>
       <r>    4.3304    1.0000 </r>
       <r>    4.3583    1.0000 </r>
       <r>    4.3587    1.0000 </r>
       <r>    4.3587    1.0000 </r>
       <r>    4.3590    1.0000 </r>
       <r>    4.4116    1.0000 </r>
       <r>    4.4117    1.0000 </r>
       <r>    4.4337    1.0000 </r>
       <r>    4.4343    1.0000 </r>
       <r>    4.5231    1.0000 </r>
       <r>    4.5233    1.0000 </r>
       <r>    4.5235    1.0000 </r>
       <r>    4.5242    1.0000 </r>
       <r>    4.5508    1.0000 </r>
       <r>    4.5511    1.0000 </r>
       <r>    4.8116    1.0000 </r>
       <r>    4.8120    1.0000 </r>
       <r>    4.8120    1.0000 </r>
       <r>    4.8123    1.0000 </r>
       <r>    4.8747    1.0000 </r>
       <r>    4.8750    1.0000 </r>
       <r>    4.8751    1.0000 </r>
       <r>    4.8753    1.0000 </r>
       <r>    7.3645    0.0000 </r>
       <r>    8.4303    0.0000 </r>
       <r>    8.6645    0.0000 </r>
       <r>    8.6661    0.0000 </r>
       <r>    8.8412    0.0000 </r>
       <r>    8.8419    0.0000 </r>
       <r>    8.8419    0.0000 </r>
       <r>    8.8423    0.0000 </r>
       <r>    8.9861    0.0000 </r>
       <r>    8.9868    0.0000 </r>
       <r>    9.3105    0.0000 </r>
       <r>    9.3111    0.0000 </r>
       <r>    9.3113    0.0000 </r>
       <r>    9.3118    0.0000 </r>
       <r>    9.3211    0.0000 </r>
       <r>    9.3218    0.0000 </r>
       <r>    9.4445    0.0000 </r>
       <r>    9.4453    0.0000 </r>
       <r>    9.5153    0.0000 </r>
       <r>    9.5157    0.0000 </r>
       <r>    9.5159    0.0000 </r>
       <r>    9.5162    0.0000 </r>
       <r>    9.8732    0.0000 </r>
       <r>    9.8786    0.0000 </r>
       <r>    9.9180    0.0000 </r>
       <r>    9.9191    0.0000 </r>
       <r>    9.9192    0.0000 </r>
       <r>    9.9204    0.0000 </r>
       <r>    9.9663    0.0000 </r>
       <r>    9.9677    0.0000 </r>
       <r>   10.0693    0.0000 </r>
       <r>   10.0696    0.0000 </r>
       <r>   10.4888    0.0000 </r>
       <r>   10.5018    0.0000 </r>
       <r>   10.5033    0.0000 </r>
       <r>   10.5194    0.0000 </r>
       <r>   10.5200    0.0000 </r>
       <r>   10.8008    0.0000 </r>
       <r>   10.8011    0.0000 </r>
       <r>   10.8015    0.0000 </r>
       <r>   10.8024    0.0000 </r>
       <r>   10.8751    0.0000 </r>
       <r>   10.8761    0.0000 </r>
       <r>   11.0180    0.0000 </r>
       <r>   11.0186    0.0000 </r>
       <r>   11.0512    0.0000 </r>
       <r>   11.2660    0.0000 </r>
       <r>   11.2667    0.0000 </r>
       <r>   11.3725    0.0000 </r>
       <r>   11.3734    0.0000 </r>
       <r>   11.3740    0.0000 </r>
       <r>   11.3748    0.0000 </r>
       <r>   11.3874    0.0000 </r>
       <r>   11.3885    0.0000 </r>
       <r>   11.3932    0.0000 </r>
       <r>   11.3939    0.0000 </r>
       <r>   11.3948    0.0000 </r>
       <r>   11.3954    0.0000 </r>
       <r>   11.4482    0.0000 </r>
       <r>   11.6176    0.0000 </r>
       <r>   11.6178    0.0000 </r>
       <r>   11.8010    0.0000 </r>
       <r>   11.8014    0.0000 </r>
[...]
       <r>   -45.9015    73.4602    53.7026 </r>
       <r>   -45.6605   225.2421   108.0000 </r>
       <r>   -45.4194     0.0000   108.0000 </r>
       <r>   -45.1783     0.0000   108.0000 </r>
       <r>   -44.9373     0.0000   108.0000 </r>
       <r>   -44.6962     0.0000   108.0000 </r>
       <r>   -44.4551     0.0000   108.0000 </r>
       <r>   -44.2141     0.0000   108.0000 </r>
       <r>   -43.9730     0.0000   108.0000 </r>
       <r>   -43.7320     0.0000   108.0000 </r>
       <r>   -43.4909     0.0000   108.0000 </r>
       <r>   -43.2498     0.0000   108.0000 </r>
       <r>   -43.0088     0.0000   108.0000 </r>
       <r>   -42.7677     0.0000   108.0000 </r>
       <r>   -42.5266     0.0000   108.0000 </r>
       <r>   -42.2856     0.0000   108.0000 </r>
       <r>   -42.0445     0.0000   108.0000 </r>
       <r>   -41.8035     0.0000   108.0000 </r>
       <r>   -41.5624     0.0000   108.0000 </r>
       <r>   -41.3213     0.0000   108.0000 </r>
       <r>   -41.0803     0.0000   108.0000 </r>
       <r>   -40.8392     0.0000   108.0000 </r>
       <r>   -40.5981     0.0000   108.0000 </r>
       <r>   -40.3571     0.0000   108.0000 </r>
       <r>   -40.1160     0.0000   108.0000 </r>
       <r>   -39.8750    25.3664   114.1149 </r>
       <r>   -39.6339    49.3031   126.0000 </r>
       <r>   -39.3928     0.0000   126.0000 </r>
       <r>   -39.1518     0.0000   126.0000 </r>
       <r>   -38.9107     0.0000   126.0000 </r>
       <r>   -38.6696     0.0000   126.0000 </r>
       <r>   -38.4286     0.0000   126.0000 </r>
       <r>   -38.1875     0.0000   126.0000 </r>
       <r>   -37.9465     0.0000   126.0000 </r>
       <r>   -37.7054     0.0000   126.0000 </r>
       <r>   -37.4643     0.0000   126.0000 </r>
       <r>   -37.2233     0.0000   126.0000 </r>
       <r>   -36.9822     0.0000   126.0000 </r>
       <r>   -36.7412     0.0000   126.0000 </r>
       <r>   -36.5001     0.0000   126.0000 </r>
       <r>   -36.2590     0.0000   126.0000 </r>
       <r>   -36.0180     0.0000   126.0000 </r>
       <r>   -35.7769     0.0000   126.0000 </r>
       <r>   -35.5358     0.0000   126.0000 </r>
       <r>   -35.2948     0.0000   126.0000 </r>
       <r>   -35.0537     0.0000   126.0000 </r>
       <r>   -34.8127     0.0000   126.0000 </r>
       <r>   -34.5716     0.0000   126.0000 </r>
       <r>   -34.3305     0.0000   126.0000 </r>
       <r>   -34.0895     0.0000   126.0000 </r>
       <r>   -33.8484     0.0000   126.0000 </r>
       <r>   -33.6073     0.0000   126.0000 </r>
       <r>   -33.3663     0.0000   126.0000 </r>
       <r>   -33.1252     0.0000   126.0000 </r>
       <r>   -32.8842     0.0000   126.0000 </r>
       <r>   -32.6431     0.0000   126.0000 </r>
       <r>   -32.4020     0.0000   126.0000 </r>
       <r>   -32.1610     0.0000   126.0000 </r>
       <r>   -31.9199     0.0000   126.0000 </r>
       <r>   -31.6788     0.0000   126.0000 </r>
       <r>   -31.4378     0.0000   126.0000 </r>
       <r>   -31.1967     0.0000   126.0000 </r>
       <r>   -30.9557     0.0000   126.0000 </r>
       <r>   -30.7146     0.0000   126.0000 </r>
       <r>   -30.4735     0.0000   126.0000 </r>
       <r>   -30.2325     0.0000   126.0000 </r>
       <r>   -29.9914     0.0000   126.0000 </r>
       <r>   -29.7503     0.0000   126.0000 </r>
       <r>   -29.5093     0.0000   126.0000 </r>
       <r>   -29.2682     0.0000   126.0000 </r>
       <r>   -29.0272     0.0000   126.0000 </r>
       <r>   -28.7861     0.0000   126.0000 </r>
       <r>   -28.5450     0.0000   126.0000 </r>
       <r>   -28.3040     0.0000   126.0000 </r>
       <r>   -28.0629     0.0000   126.0000 </r>
       <r>   -27.8218     0.0000   126.0000 </r>
       <r>   -27.5808     0.0000   126.0000 </r>
       <r>   -27.3397     0.0000   126.0000 </r>
       <r>   -27.0987     0.0000   126.0000 </r>
       <r>   -26.8576     0.0000   126.0000 </r>
       <r>   -26.6165     0.0000   126.0000 </r>
       <r>   -26.3755     0.0000   126.0000 </r>
       <r>   -26.1344     0.0000   126.0000 </r>
       <r>   -25.8933     0.0000   126.0000 </r>
       <r>   -25.6523     0.0000   126.0000 </r>
       <r>   -25.4112     0.0000   126.0000 </r>
       <r>   -25.1702     0.0000   126.0000 </r>
       <r>   -24.9291     0.0000   126.0000 </r>
       <r>   -24.6880     0.0000   126.0000 </r>
       <r>   -24.4470     0.0000   126.0000 </r>
       <r>   -24.2059     0.0000   126.0000 </r>
       <r>   -23.9649     0.0000   126.0000 </r>
       <r>   -23.7238     0.0000   126.0000 </r>
       <r>   -23.4827     0.0000   126.0000 </r>
       <r>   -23.2417     0.0000   126.0000 </r>
       <r>   -23.0006     0.0000   126.0000 </r>
       <r>   -22.7595     0.0000   126.0000 </r>
       <r>   -22.5185     0.0000   126.0000 </r>
       <r>   -22.2774     0.0000   126.0000 </r>
       <r>   -22.0364     0.0000   126.0000 </r>
       <r>   -21.7953     0.0000   126.0000 </r>
       <r>   -21.5542     0.0000   126.0000 </r>
       <r>   -21.3132     0.0000   126.0000 </r>
       <r>   -21.0721     0.0000   126.0000 </r>
       <r>   -20.8310     0.0000   126.0000 </r>
       <r>   -20.5900     0.0000   126.0000 </r>
       <r>   -20.3489     0.0000   126.0000 </r>
       <r>   -20.1079     0.0000   126.0000 </r>
       <r>   -19.8668     0.0000   126.0000 </r>
       <r>   -19.6257     0.0000   126.0000 </r>
       <r>   -19.3847     0.0000   126.0000 </r>
       <r>   -19.1436     0.0000   126.0000 </r>
       <r>   -18.9025     0.0000   126.0000 </r>
       <r>   -18.6615     0.0000   126.0000 </r>
       <r>   -18.4204     0.0000   126.0000 </r>
       <r>   -18.1794     0.0000   126.0000 </r>
       <r>   -17.9383     0.0000   126.0000 </r>
       <r>   -17.6972     0.0000   126.0000 </r>
       <r>   -17.4562     0.0000   126.0000 </r>
       <r>   -17.2151     0.0000   126.0000 </r>
       <r>   -16.9740     0.0000   126.0000 </r>
       <r>   -16.7330     0.0000   126.0000 </r>
       <r>   -16.4919     0.0000   126.0000 </r>
       <r>   -16.2509     0.0000   126.0000 </r>
       <r>   -16.0098     0.0000   126.0000 </r>
       <r>   -15.7687     0.0000   126.0000 </r>
       <r>   -15.5277     0.0000   126.0000 </r>
       <r>   -15.2866     0.0000   126.0000 </r>
       <r>   -15.0455     0.0000   126.0000 </r>
       <r>   -14.8045     0.0000   126.0000 </r>
       <r>   -14.5634     0.0000   126.0000 </r>
       <r>   -14.3224     0.0000   126.0000 </r>
       <r>   -14.0813     0.0000   126.0000 </r>
       <r>   -13.8402     0.0000   126.0000 </r>
       <r>   -13.5992     0.0000   126.0000 </r>
       <r>   -13.3581     0.0000   126.0000 </r>
       <r>   -13.1170     0.0000   126.0000 </r>
       <r>   -12.8760     0.8246   126.1988 </r>
       <r>   -12.6349    63.5604   141.5208 </r>
       <r>   -12.3939    10.2845   144.0000 </r>
       <r>   -12.1528     0.0000   144.0000 </r>
       <r>   -11.9117     0.0000   144.0000 </r>
       <r>   -11.6707     0.0000   144.0000 </r>
       <r>   -11.4296     0.0000   144.0000 </r>
       <r>   -11.1886     0.0000   144.0000 </r>
       <r>   -10.9475     0.0000   144.0000 </r>
       <r>   -10.7064     0.0000   144.0000 </r>
       <r>   -10.4654     0.0000   144.0000 </r>
       <r>   -10.2243     0.0000   144.0000 </r>
       <r>    -9.9832     0.0000   144.0000 </r>
       <r>    -9.7422     0.0000   144.0000 </r>
       <r>    -9.5011     0.0000   144.0000 </r>
       <r>    -9.2601     0.0000   144.0000 </r>
       <r>    -9.0190     0.0000   144.0000 </r>
       <r>    -8.7779     0.0000   144.0000 </r>
       <r>    -8.5369     0.0000   144.0000 </r>
       <r>    -8.2958     0.0000   144.0000 </r>
       <r>    -8.0547     0.0000   144.0000 </r>
       <r>    -7.8137     0.0000   144.0000 </r>
       <r>    -7.5726     0.0000   144.0000 </r>
       <r>    -7.3316     0.9663   144.2329 </r>
       <r>    -7.0905    22.1423   149.5706 </r>
       <r>    -6.8494    29.4116   156.6606 </r>
       <r>    -6.6084    28.3875   163.5038 </r>
       <r>    -6.3673    31.0727   170.9942 </r>
       <r>    -6.1262     0.0239   171.0000 </r>
       <r>    -5.8852     0.0000   171.0000 </r>
       <r>    -5.6441     0.0000   171.0000 </r>
       <r>    -5.4031     0.0000   171.0000 </r>
       <r>    -5.1620     0.0000   171.0000 </r>
       <r>    -4.9209     0.0000   171.0000 </r>
       <r>    -4.6799     0.0000   171.0000 </r>
       <r>    -4.4388     0.0000   171.0000 </r>
       <r>    -4.1977     0.0000   171.0000 </r>
       <r>    -3.9567     0.0000   171.0000 </r>
       <r>    -3.7156     0.0000   171.0000 </r>
       <r>    -3.4746     0.0000   171.0000 </r>
       <r>    -3.2335     0.0000   171.0000 </r>
       <r>    -2.9924     0.0000   171.0000 </r>
       <r>    -2.7514     0.0000   171.0000 </r>
       <r>    -2.5103     0.0000   171.0000 </r>
       <r>    -2.2692     0.0000   171.0000 </r>
       <r>    -2.0282     0.0000   171.0000 </r>
       <r>    -1.7871     0.0000   171.0000 </r>
       <r>    -1.5461     0.0000   171.0000 </r>
       <r>    -1.3050     0.0000   171.0000 </r>
       <r>    -1.0639     0.0000   171.0000 </r>
       <r>    -0.8229     0.0000   171.0000 </r>
       <r>    -0.5818     0.0021   171.0005 </r>
       <r>    -0.3407    11.8262   173.8514 </r>
       <r>    -0.0997    19.9189   178.6530 </r>
       <r>     0.1414    13.7679   181.9720 </r>
       <r>     0.3824    24.0562   187.7710 </r>
       <r>     0.6235    33.3956   195.8214 </r>
       <r>     0.8646    47.0700   207.1682 </r>
       <r>     1.1056    40.4772   216.9257 </r>
       <r>     1.3467    32.5792   224.7794 </r>
       <r>     1.5877    25.5552   230.9398 </r>
       <r>     1.8288    32.6368   238.8073 </r>
       <r>     2.0699    41.0482   248.7024 </r>
       <r>     2.3109    25.9160   254.9498 </r>
       <r>     2.5520    29.9733   262.1752 </r>
       <r>     2.7931    41.8876   272.2727 </r>
       <r>     3.0341    46.8640   283.5699 </r>
       <r>     3.2752    46.4122   294.7581 </r>
       <r>     3.5162    38.7495   304.0992 </r>
       <r>     3.7573     6.8447   305.7492 </r>
       <r>     3.9984    26.7157   312.1893 </r>
       <r>     4.2394    75.7091   330.4399 </r>
       <r>     4.4805    38.8601   339.8076 </r>
       <r>     4.7216     9.0946   342.0000 </r>
       <r>     4.9626     0.0000   342.0000 </r>
       <r>     5.2037     0.0000   342.0000 </r>
       <r>     5.4447     0.0000   342.0000 </r>
       <r>     5.6858     0.0000   342.0000 </r>
       <r>     5.9269     0.0000   342.0000 </r>
       <r>     6.1679     0.0000   342.0000 </r>
       <r>     6.4090     1.6955   342.4087 </r>
       <r>     6.6501     5.0991   343.6379 </r>
       <r>     6.8911    11.8857   346.5031 </r>
       <r>     7.1322    22.5715   351.9443 </r>
       <r>     7.3732    61.4787   366.7645 </r>
       <r>     7.6143    62.6989   381.8788 </r>
       <r>     7.8554    62.8103   397.0200 </r>
       <r>     8.0964    75.6282   415.2511 </r>
       <r>     8.3375    81.6597   434.9362 </r>
       <r>     8.5786    67.9370   451.3132 </r>
       <r>     8.8196    64.1058   466.7667 </r>
       <r>     9.0607    43.7212   477.3062 </r>
       <r>     9.3017    30.7559   484.7203 </r>
       <r>     9.5428     7.9785   486.6436 </r>
       <r>     9.7839     6.0861   488.1108 </r>
       <r>    10.0249    11.8665   490.9714 </r>
       <r>    10.2660    18.3702   495.3997 </r>
       <r>    10.5071    22.3939   500.7980 </r>
       <r>    10.7481    22.6872   506.2671 </r>
       <r>    10.9892    23.8017   512.0048 </r>
       <r>    11.2302    29.7737   519.1821 </r>
       <r>    11.4713    20.0377   524.0124 </r>
       <r>    11.7124    17.4630   528.2221 </r>
       <r>    11.9534    11.3416   530.9561 </r>
       <r>    12.1945    27.4412   537.5711 </r>
       <r>    12.4356    45.8931   548.6342 </r>
       <r>    12.6766    34.7480   557.0107 </r>
       <r>    12.9177    30.3783   564.3337 </r>
       <r>    13.1587    20.7175   569.3279 </r>
       <r>    13.3998    25.3280   575.4336 </r>
       <r>    13.6409    32.7997   583.3403 </r>
       <r>    13.8819    25.9742   589.6017 </r>
       <r>    14.1230    25.4185   595.7292 </r>
       <r>    14.3640    23.4146   601.3735 </r>
       <r>    14.6051    17.6406   605.6260 </r>
       <r>    14.8462     1.5514   606.0000 </r>
       <r>    15.0872     0.0000   606.0000 </r>
       <r>    15.3283     0.0000   606.0000 </r>
       <r>    15.5694     0.0000   606.0000 </r>
       <r>    15.8104     0.0000   606.0000 </r>
       <r>    16.0515     0.0000   606.0000 </r>
       <r>    16.2925     0.0000   606.0000 </r>
       <r>    16.5336     0.0000   606.0000 </r>
       <r>    16.7747     0.0000   606.0000 </r>
       <r>    17.0157     0.0000   606.0000 </r>
       <r>    17.2568     0.0000   606.0000 </r>
       <r>    17.4979     0.0000   606.0000 </r>
       <r>    17.7389     0.0000   606.0000 </r>
       <r>    17.9800     0.0000   606.0000 </r>
      </set>
     </set>
    </array>
   </total>
  </dos>
 </calculation>
 <structure name="finalpos" >
  <crystal>
   <varray name="basis" >
    <v>      11.77726974       0.00848871       0.06923316 </v>
    <v>      -0.03028248      11.77723386       0.06923316 </v>
    <v>      -2.02000231      -2.02666320      10.18574622 </v>
   </varray>
   <i name="volume">   1416.10551572 </i>
   <varray name="rec_basis" >
    <v>       0.08481023       0.00011906       0.01684296 </v>
    <v>      -0.00016014       0.08481016       0.01684296 </v>
    <v>      -0.00057537      -0.00057727       0.09794744 </v>
   </varray>
  </crystal>
  <varray name="positions" >
   <v>       0.20224939       0.24206952       0.83183419 </v>
   <v>       0.53558272       0.24206952       0.83183419 </v>
   <v>       0.86891606       0.24206952       0.83183419 </v>
   <v>       0.20224939       0.57540285       0.83183419 </v>
   <v>       0.53558272       0.57540285       0.83183419 </v>
   <v>       0.86891606       0.57540285       0.83183419 </v>
   <v>       0.20224939       0.90873619       0.83183419 </v>
   <v>       0.53558272       0.90873619       0.83183419 </v>
   <v>       0.86891606       0.90873619       0.83183419 </v>
   <v>       0.09126381       0.13108394       0.16816581 </v>
   <v>       0.42459715       0.13108394       0.16816581 </v>
   <v>       0.75793048       0.13108394       0.16816581 </v>
   <v>       0.09126381       0.46441728       0.16816581 </v>
   <v>       0.42459715       0.46441728       0.16816581 </v>
   <v>       0.75793048       0.46441728       0.16816581 </v>
   <v>       0.09126381       0.79775061       0.16816581 </v>
   <v>       0.42459715       0.79775061       0.16816581 </v>
   <v>       0.75793048       0.79775061       0.16816581 </v>
   <v>       0.26311007       0.13598816       0.19686089 </v>
   <v>       0.59644341       0.13598816       0.19686089 </v>
   <v>       0.92977674       0.13598816       0.19686089 </v>
   <v>       0.26311007       0.46932149       0.19686089 </v>
   <v>       0.59644341       0.46932149       0.19686089 </v>
   <v>       0.92977674       0.46932149       0.19686089 </v>
   <v>       0.26311007       0.80265483       0.19686089 </v>
   <v>       0.59644341       0.80265483       0.19686089 </v>
   <v>       0.92977674       0.80265483       0.19686089 </v>
   <v>       0.19734517       0.07022326       0.80313911 </v>
   <v>       0.53067851       0.07022326       0.80313911 </v>
   <v>       0.86401184       0.07022326       0.80313911 </v>
   <v>       0.19734517       0.40355659       0.80313911 </v>
   <v>       0.53067851       0.40355659       0.80313911 </v>
   <v>       0.86401184       0.40355659       0.80313911 </v>
   <v>       0.19734517       0.73688993       0.80313911 </v>
   <v>       0.53067851       0.73688993       0.80313911 </v>
   <v>       0.86401184       0.73688993       0.80313911 </v>
   <v>       0.00253935       0.20657296       0.62920335 </v>
   <v>       0.33587268       0.20657296       0.62920335 </v>
   <v>       0.66920601       0.20657296       0.62920335 </v>
   <v>       0.00253935       0.53990630       0.62920335 </v>
   <v>       0.33587268       0.53990630       0.62920335 </v>
   <v>       0.66920601       0.53990630       0.62920335 </v>
   <v>       0.00253935       0.87323963       0.62920335 </v>
   <v>       0.33587268       0.87323963       0.62920335 </v>
   <v>       0.66920601       0.87323963       0.62920335 </v>
   <v>       0.12676037       0.33079399       0.37079665 </v>
   <v>       0.46009370       0.33079399       0.37079665 </v>
   <v>       0.79342704       0.33079399       0.37079665 </v>
   <v>       0.12676037       0.66412732       0.37079665 </v>
   <v>       0.46009370       0.66412732       0.37079665 </v>
   <v>       0.79342704       0.66412732       0.37079665 </v>
   <v>       0.12676037       0.99746065       0.37079665 </v>
   <v>       0.46009370       0.99746065       0.37079665 </v>
   <v>       0.79342704       0.99746065       0.37079665 </v>
   <v>       0.06350899       0.26982435       0.00000000 </v>
   <v>       0.39684232       0.26982435       0.00000000 </v>
   <v>       0.73017565       0.26982435       0.00000000 </v>
   <v>       0.06350899       0.60315768       0.00000000 </v>
   <v>       0.39684232       0.60315768       0.00000000 </v>
   <v>       0.73017565       0.60315768       0.00000000 </v>
   <v>       0.06350899       0.93649101       0.00000000 </v>
   <v>       0.39684232       0.93649101       0.00000000 </v>
   <v>       0.73017565       0.93649101       0.00000000 </v>
   <v>       0.29027274       0.17214940       0.39352170 </v>
   <v>       0.62360607       0.17214940       0.39352170 </v>
   <v>       0.95693941       0.17214940       0.39352170 </v>
   <v>       0.29027274       0.50548273       0.39352170 </v>
   <v>       0.62360607       0.50548273       0.39352170 </v>
   <v>       0.95693941       0.50548273       0.39352170 </v>
   <v>       0.29027274       0.83881607       0.39352170 </v>
   <v>       0.62360607       0.83881607       0.39352170 </v>
   <v>       0.95693941       0.83881607       0.39352170 </v>
   <v>       0.16118393       0.04306059       0.60647830 </v>
   <v>       0.49451727       0.04306059       0.60647830 </v>
   <v>       0.82785060       0.04306059       0.60647830 </v>
   <v>       0.16118393       0.37639393       0.60647830 </v>
   <v>       0.49451727       0.37639393       0.60647830 </v>
   <v>       0.82785060       0.37639393       0.60647830 </v>
   <v>       0.16118393       0.70972726       0.60647830 </v>
   <v>       0.49451727       0.70972726       0.60647830 </v>
   <v>       0.82785060       0.70972726       0.60647830 </v>
   <v>       0.03761391       0.07816215       0.84542777 </v>
   <v>       0.37094724       0.07731307       0.84542777 </v>
   <v>       0.70428057       0.07731307       0.84542777 </v>
   <v>       0.03761391       0.41064640       0.84542777 </v>
   <v>       0.37094724       0.41064640       0.84542777 </v>
   <v>       0.70428057       0.41064640       0.84542777 </v>
   <v>       0.03761391       0.74397973       0.84542777 </v>
   <v>       0.37094724       0.74397973       0.84542777 </v>
   <v>       0.70428057       0.74397973       0.84542777 </v>
   <v>       0.25602027       0.29571943       0.15457223 </v>
   <v>       0.58935360       0.29571943       0.15457223 </v>
   <v>       0.92268693       0.29571943       0.15457223 </v>
   <v>       0.25602027       0.62905276       0.15457223 </v>
   <v>       0.58935360       0.62905276       0.15457223 </v>
   <v>       0.92268693       0.62905276       0.15457223 </v>
   <v>       0.25602027       0.96238609       0.15457223 </v>
   <v>       0.58935360       0.96238609       0.15457223 </v>
   <v>       0.92268693       0.96238609       0.15457223 </v>
  </varray>
 </structure>
</modeling>
