  88  88   0   0
  0.1431748E+02  0.1111223E-08  0.1111745E-08  0.1056954E-08  0.5000000E-15
  1.000000000000000E-004
  CAR 
 unknown system                          
     17.89956170    -54.34400657  301      5.19673428      1.00000000
    -54.344  0.0000E+00  0.0000E+00  0.0000E+00  0.0000E+00
    -54.103  0.0000E+00  0.0000E+00  0.0000E+00  0.0000E+00
    -53.862  0.0000E+00  0.0000E+00  0.0000E+00  0.0000E+00
    -53.622  0.0000E+00  0.0000E+00  0.0000E+00  0.0000E+00
    -53.381  0.0000E+00  0.0000E+00  0.0000E+00  0.0000E+00
    -53.140  0.0000E+00  0.0000E+00  0.0000E+00  0.0000E+00
    -52.899  0.0000E+00  0.0000E+00  0.0000E+00  0.0000E+00
    -52.658  0.0000E+00  0.0000E+00  0.0000E+00  0.0000E+00
    -52.418  0.0000E+00  0.0000E+00  0.0000E+00  0.0000E+00
    -52.177  0.0000E+00  0.0000E+00  0.0000E+00  0.0000E+00
    -51.936  0.0000E+00  0.0000E+00  0.0000E+00  0.0000E+00
    -51.695  0.0000E+00  0.0000E+00  0.0000E+00  0.0000E+00
    -51.454  0.0000E+00  0.0000E+00  0.0000E+00  0.0000E+00
    -51.213  0.2476E-03  0.0000E+00  0.5962E-04  0.0000E+00
    -50.973  0.1304E+03  0.0000E+00  0.3140E+02  0.0000E+00
    -50.732  0.2472E+01  0.0000E+00  0.3200E+02  0.0000E+00
    -50.491  0.0000E+00  0.0000E+00  0.3200E+02  0.0000E+00
    -50.250  0.0000E+00  0.0000E+00  0.3200E+02  0.0000E+00
    -50.009  0.0000E+00  0.0000E+00  0.3200E+02  0.0000E+00
    -49.769  0.1543E+01  0.0000E+00  0.3237E+02  0.0000E+00
    -49.528  0.2330E+03  0.0000E+00  0.8848E+02  0.0000E+00
    -49.287  0.3122E+02  0.0000E+00  0.9600E+02  0.0000E+00
    -49.046  0.0000E+00  0.0000E+00  0.9600E+02  0.0000E+00
    -48.805  0.0000E+00  0.0000E+00  0.9600E+02  0.0000E+00
    -48.565  0.0000E+00  0.0000E+00  0.9600E+02  0.0000E+00
    -48.324  0.0000E+00  0.0000E+00  0.9600E+02  0.0000E+00
    -48.083  0.0000E+00  0.0000E+00  0.9600E+02  0.0000E+00
    -47.842  0.0000E+00  0.0000E+00  0.9600E+02  0.0000E+00
    -47.601  0.0000E+00  0.0000E+00  0.9600E+02  0.0000E+00
    -47.360  0.0000E+00  0.0000E+00  0.9600E+02  0.0000E+00
    -47.120  0.0000E+00  0.0000E+00  0.9600E+02  0.0000E+00
    -46.879  0.0000E+00  0.0000E+00  0.9600E+02  0.0000E+00
    -46.638  0.0000E+00  0.0000E+00  0.9600E+02  0.0000E+00
    -46.397  0.0000E+00  0.2780E+00  0.9600E+02  0.6693E-01
    -46.156  0.0000E+00  0.1325E+03  0.9600E+02  0.3199E+02
    -45.916  0.0000E+00  0.5574E+02  0.9600E+02  0.4541E+02
    -45.675  0.0000E+00  0.2101E+03  0.9600E+02  0.9600E+02
    -45.434  0.0000E+00  0.0000E+00  0.9600E+02  0.9600E+02
    -45.193  0.0000E+00  0.0000E+00  0.9600E+02  0.9600E+02
    -44.952  0.0000E+00  0.0000E+00  0.9600E+02  0.9600E+02
    -44.712  0.0000E+00  0.0000E+00  0.9600E+02  0.9600E+02
    -44.471  0.0000E+00  0.0000E+00  0.9600E+02  0.9600E+02
    -44.230  0.0000E+00  0.0000E+00  0.9600E+02  0.9600E+02
    -43.989  0.0000E+00  0.0000E+00  0.9600E+02  0.9600E+02
    -43.748  0.0000E+00  0.0000E+00  0.9600E+02  0.9600E+02
    -43.507  0.0000E+00  0.0000E+00  0.9600E+02  0.9600E+02
    -43.267  0.0000E+00  0.0000E+00  0.9600E+02  0.9600E+02
    -43.026  0.0000E+00  0.0000E+00  0.9600E+02  0.9600E+02
    -42.785  0.0000E+00  0.0000E+00  0.9600E+02  0.9600E+02
    -42.544  0.0000E+00  0.0000E+00  0.9600E+02  0.9600E+02
    -42.303  0.0000E+00  0.0000E+00  0.9600E+02  0.9600E+02
    -42.063  0.0000E+00  0.0000E+00  0.9600E+02  0.9600E+02
    -41.822  0.0000E+00  0.0000E+00  0.9600E+02  0.9600E+02
    -41.581  0.0000E+00  0.0000E+00  0.9600E+02  0.9600E+02
    -41.340  0.0000E+00  0.0000E+00  0.9600E+02  0.9600E+02
    -41.099  0.0000E+00  0.0000E+00  0.9600E+02  0.9600E+02
    -40.859  0.0000E+00  0.0000E+00  0.9600E+02  0.9600E+02
    -40.618  0.0000E+00  0.0000E+00  0.9600E+02  0.9600E+02
    -40.377  0.0000E+00  0.0000E+00  0.9600E+02  0.9600E+02
    -40.136  0.5873E-12  0.3719E-12  0.9600E+02  0.9600E+02
    -39.895  0.1297E+02  0.1192E+02  0.9912E+02  0.9887E+02
    -39.654  0.5347E+02  0.5452E+02  0.1120E+03  0.1120E+03
    -39.414  0.0000E+00  0.0000E+00  0.1120E+03  0.1120E+03
    -39.173  0.0000E+00  0.0000E+00  0.1120E+03  0.1120E+03
    -38.932  0.0000E+00  0.0000E+00  0.1120E+03  0.1120E+03
    -38.691  0.0000E+00  0.0000E+00  0.1120E+03  0.1120E+03
    -38.450  0.0000E+00  0.0000E+00  0.1120E+03  0.1120E+03
    -38.210  0.0000E+00  0.0000E+00  0.1120E+03  0.1120E+03
    -37.969  0.0000E+00  0.0000E+00  0.1120E+03  0.1120E+03
    -37.728  0.0000E+00  0.0000E+00  0.1120E+03  0.1120E+03
    -37.487  0.0000E+00  0.0000E+00  0.1120E+03  0.1120E+03
    -37.246  0.0000E+00  0.0000E+00  0.1120E+03  0.1120E+03
    -37.006  0.0000E+00  0.0000E+00  0.1120E+03  0.1120E+03
    -36.765  0.0000E+00  0.0000E+00  0.1120E+03  0.1120E+03
    -36.524  0.0000E+00  0.0000E+00  0.1120E+03  0.1120E+03
    -36.283  0.0000E+00  0.0000E+00  0.1120E+03  0.1120E+03
    -36.042  0.0000E+00  0.0000E+00  0.1120E+03  0.1120E+03
    -35.801  0.0000E+00  0.0000E+00  0.1120E+03  0.1120E+03
    -35.561  0.0000E+00  0.0000E+00  0.1120E+03  0.1120E+03
    -35.320  0.0000E+00  0.0000E+00  0.1120E+03  0.1120E+03
    -35.079  0.0000E+00  0.0000E+00  0.1120E+03  0.1120E+03
    -34.838  0.0000E+00  0.0000E+00  0.1120E+03  0.1120E+03
    -34.597  0.0000E+00  0.0000E+00  0.1120E+03  0.1120E+03
    -34.357  0.0000E+00  0.0000E+00  0.1120E+03  0.1120E+03
    -34.116  0.0000E+00  0.0000E+00  0.1120E+03  0.1120E+03
    -33.875  0.0000E+00  0.0000E+00  0.1120E+03  0.1120E+03
    -33.634  0.0000E+00  0.0000E+00  0.1120E+03  0.1120E+03
    -33.393  0.0000E+00  0.0000E+00  0.1120E+03  0.1120E+03
    -33.153  0.0000E+00  0.0000E+00  0.1120E+03  0.1120E+03
    -32.912  0.0000E+00  0.0000E+00  0.1120E+03  0.1120E+03
    -32.671  0.0000E+00  0.0000E+00  0.1120E+03  0.1120E+03
    -32.430  0.0000E+00  0.0000E+00  0.1120E+03  0.1120E+03
    -32.189  0.0000E+00  0.0000E+00  0.1120E+03  0.1120E+03
    -31.949  0.0000E+00  0.0000E+00  0.1120E+03  0.1120E+03
    -31.708  0.0000E+00  0.0000E+00  0.1120E+03  0.1120E+03
    -31.467  0.0000E+00  0.0000E+00  0.1120E+03  0.1120E+03
    -31.226  0.0000E+00  0.0000E+00  0.1120E+03  0.1120E+03
    -30.985  0.0000E+00  0.0000E+00  0.1120E+03  0.1120E+03
    -30.744  0.0000E+00  0.0000E+00  0.1120E+03  0.1120E+03
    -30.504  0.0000E+00  0.0000E+00  0.1120E+03  0.1120E+03
    -30.263  0.0000E+00  0.0000E+00  0.1120E+03  0.1120E+03
    -30.022  0.0000E+00  0.0000E+00  0.1120E+03  0.1120E+03
    -29.781  0.0000E+00  0.0000E+00  0.1120E+03  0.1120E+03
    -29.540  0.0000E+00  0.0000E+00  0.1120E+03  0.1120E+03
    -29.300  0.0000E+00  0.0000E+00  0.1120E+03  0.1120E+03
    -29.059  0.0000E+00  0.0000E+00  0.1120E+03  0.1120E+03
    -28.818  0.0000E+00  0.0000E+00  0.1120E+03  0.1120E+03
    -28.577  0.0000E+00  0.0000E+00  0.1120E+03  0.1120E+03
    -28.336  0.0000E+00  0.0000E+00  0.1120E+03  0.1120E+03
    -28.096  0.0000E+00  0.0000E+00  0.1120E+03  0.1120E+03
    -27.855  0.0000E+00  0.0000E+00  0.1120E+03  0.1120E+03
    -27.614  0.0000E+00  0.0000E+00  0.1120E+03  0.1120E+03
    -27.373  0.0000E+00  0.0000E+00  0.1120E+03  0.1120E+03
    -27.132  0.0000E+00  0.0000E+00  0.1120E+03  0.1120E+03
    -26.891  0.0000E+00  0.0000E+00  0.1120E+03  0.1120E+03
    -26.651  0.0000E+00  0.0000E+00  0.1120E+03  0.1120E+03
    -26.410  0.0000E+00  0.0000E+00  0.1120E+03  0.1120E+03
    -26.169  0.0000E+00  0.0000E+00  0.1120E+03  0.1120E+03
    -25.928  0.0000E+00  0.0000E+00  0.1120E+03  0.1120E+03
    -25.687  0.0000E+00  0.0000E+00  0.1120E+03  0.1120E+03
    -25.447  0.0000E+00  0.0000E+00  0.1120E+03  0.1120E+03
    -25.206  0.0000E+00  0.0000E+00  0.1120E+03  0.1120E+03
    -24.965  0.0000E+00  0.0000E+00  0.1120E+03  0.1120E+03
    -24.724  0.0000E+00  0.0000E+00  0.1120E+03  0.1120E+03
    -24.483  0.0000E+00  0.0000E+00  0.1120E+03  0.1120E+03
    -24.243  0.0000E+00  0.0000E+00  0.1120E+03  0.1120E+03
    -24.002  0.0000E+00  0.0000E+00  0.1120E+03  0.1120E+03
    -23.761  0.0000E+00  0.0000E+00  0.1120E+03  0.1120E+03
    -23.520  0.0000E+00  0.0000E+00  0.1120E+03  0.1120E+03
    -23.279  0.0000E+00  0.0000E+00  0.1120E+03  0.1120E+03
    -23.038  0.0000E+00  0.0000E+00  0.1120E+03  0.1120E+03
    -22.798  0.0000E+00  0.0000E+00  0.1120E+03  0.1120E+03
    -22.557  0.0000E+00  0.0000E+00  0.1120E+03  0.1120E+03
    -22.316  0.0000E+00  0.0000E+00  0.1120E+03  0.1120E+03
    -22.075  0.0000E+00  0.0000E+00  0.1120E+03  0.1120E+03
    -21.834  0.0000E+00  0.0000E+00  0.1120E+03  0.1120E+03
    -21.594  0.0000E+00  0.0000E+00  0.1120E+03  0.1120E+03
    -21.353  0.0000E+00  0.0000E+00  0.1120E+03  0.1120E+03
    -21.112  0.0000E+00  0.0000E+00  0.1120E+03  0.1120E+03
    -20.871  0.0000E+00  0.0000E+00  0.1120E+03  0.1120E+03
    -20.630  0.0000E+00  0.0000E+00  0.1120E+03  0.1120E+03
    -20.390  0.0000E+00  0.0000E+00  0.1120E+03  0.1120E+03
    -20.149  0.0000E+00  0.0000E+00  0.1120E+03  0.1120E+03
    -19.908  0.0000E+00  0.0000E+00  0.1120E+03  0.1120E+03
    -19.667  0.0000E+00  0.0000E+00  0.1120E+03  0.1120E+03
    -19.426  0.0000E+00  0.0000E+00  0.1120E+03  0.1120E+03
    -19.185  0.0000E+00  0.0000E+00  0.1120E+03  0.1120E+03
    -18.945  0.0000E+00  0.0000E+00  0.1120E+03  0.1120E+03
    -18.704  0.0000E+00  0.0000E+00  0.1120E+03  0.1120E+03
    -18.463  0.0000E+00  0.0000E+00  0.1120E+03  0.1120E+03
    -18.222  0.0000E+00  0.0000E+00  0.1120E+03  0.1120E+03
    -17.981  0.0000E+00  0.0000E+00  0.1120E+03  0.1120E+03
    -17.741  0.0000E+00  0.0000E+00  0.1120E+03  0.1120E+03
    -17.500  0.0000E+00  0.0000E+00  0.1120E+03  0.1120E+03
    -17.259  0.0000E+00  0.0000E+00  0.1120E+03  0.1120E+03
    -17.018  0.0000E+00  0.0000E+00  0.1120E+03  0.1120E+03
    -16.777  0.0000E+00  0.0000E+00  0.1120E+03  0.1120E+03
    -16.537  0.0000E+00  0.0000E+00  0.1120E+03  0.1120E+03
    -16.296  0.0000E+00  0.0000E+00  0.1120E+03  0.1120E+03
    -16.055  0.0000E+00  0.0000E+00  0.1120E+03  0.1120E+03
    -15.814  0.0000E+00  0.0000E+00  0.1120E+03  0.1120E+03
    -15.573  0.0000E+00  0.0000E+00  0.1120E+03  0.1120E+03
    -15.332  0.0000E+00  0.0000E+00  0.1120E+03  0.1120E+03
    -15.092  0.0000E+00  0.0000E+00  0.1120E+03  0.1120E+03
    -14.851  0.0000E+00  0.0000E+00  0.1120E+03  0.1120E+03
    -14.610  0.0000E+00  0.0000E+00  0.1120E+03  0.1120E+03
    -14.369  0.0000E+00  0.0000E+00  0.1120E+03  0.1120E+03
    -14.128  0.0000E+00  0.0000E+00  0.1120E+03  0.1120E+03
    -13.888  0.0000E+00  0.0000E+00  0.1120E+03  0.1120E+03
    -13.647  0.0000E+00  0.0000E+00  0.1120E+03  0.1120E+03
    -13.406  0.2966E-06  0.0000E+00  0.1120E+03  0.1120E+03
    -13.165  0.1785E+02  0.0000E+00  0.1163E+03  0.1120E+03
    -12.924  0.4684E+02  0.4766E-02  0.1276E+03  0.1120E+03
    -12.684  0.1757E+01  0.4102E+02  0.1280E+03  0.1219E+03
    -12.443  0.0000E+00  0.2541E+02  0.1280E+03  0.1280E+03
    -12.202  0.0000E+00  0.4800E-05  0.1280E+03  0.1280E+03
    -11.961  0.0000E+00  0.0000E+00  0.1280E+03  0.1280E+03
    -11.720  0.0000E+00  0.0000E+00  0.1280E+03  0.1280E+03
    -11.479  0.0000E+00  0.0000E+00  0.1280E+03  0.1280E+03
    -11.239  0.0000E+00  0.0000E+00  0.1280E+03  0.1280E+03
    -10.998  0.0000E+00  0.0000E+00  0.1280E+03  0.1280E+03
    -10.757  0.0000E+00  0.0000E+00  0.1280E+03  0.1280E+03
    -10.516  0.0000E+00  0.0000E+00  0.1280E+03  0.1280E+03
    -10.275  0.0000E+00  0.0000E+00  0.1280E+03  0.1280E+03
    -10.035  0.0000E+00  0.0000E+00  0.1280E+03  0.1280E+03
     -9.794  0.0000E+00  0.0000E+00  0.1280E+03  0.1280E+03
     -9.553  0.0000E+00  0.0000E+00  0.1280E+03  0.1280E+03
     -9.312  0.0000E+00  0.0000E+00  0.1280E+03  0.1280E+03
     -9.071  0.0000E+00  0.0000E+00  0.1280E+03  0.1280E+03
     -8.831  0.0000E+00  0.0000E+00  0.1280E+03  0.1280E+03
     -8.590  0.0000E+00  0.0000E+00  0.1280E+03  0.1280E+03
     -8.349  0.0000E+00  0.0000E+00  0.1280E+03  0.1280E+03
     -8.108  0.0000E+00  0.0000E+00  0.1280E+03  0.1280E+03
     -7.867  0.2673E-10  0.0000E+00  0.1280E+03  0.1280E+03
     -7.626  0.4803E+00  0.4553E-11  0.1281E+03  0.1280E+03
     -7.386  0.1213E+02  0.4172E+00  0.1310E+03  0.1281E+03
     -7.145  0.3024E+02  0.1333E+02  0.1383E+03  0.1313E+03
     -6.904  0.3321E+02  0.2953E+02  0.1463E+03  0.1384E+03
     -6.663  0.2360E+02  0.2551E+02  0.1520E+03  0.1446E+03
     -6.422  0.5081E-04  0.3080E+02  0.1520E+03  0.1520E+03
     -6.182  0.0000E+00  0.7975E-01  0.1520E+03  0.1520E+03
     -5.941  0.0000E+00  0.0000E+00  0.1520E+03  0.1520E+03
     -5.700  0.0000E+00  0.0000E+00  0.1520E+03  0.1520E+03
     -5.459  0.0000E+00  0.0000E+00  0.1520E+03  0.1520E+03
     -5.218  0.0000E+00  0.0000E+00  0.1520E+03  0.1520E+03
     -4.978  0.0000E+00  0.0000E+00  0.1520E+03  0.1520E+03
     -4.737  0.0000E+00  0.0000E+00  0.1520E+03  0.1520E+03
     -4.496  0.0000E+00  0.0000E+00  0.1520E+03  0.1520E+03
     -4.255  0.0000E+00  0.0000E+00  0.1520E+03  0.1520E+03
     -4.014  0.0000E+00  0.0000E+00  0.1520E+03  0.1520E+03
     -3.774  0.0000E+00  0.0000E+00  0.1520E+03  0.1520E+03
     -3.533  0.0000E+00  0.0000E+00  0.1520E+03  0.1520E+03
     -3.292  0.0000E+00  0.0000E+00  0.1520E+03  0.1520E+03
     -3.051  0.0000E+00  0.0000E+00  0.1520E+03  0.1520E+03
     -2.810  0.0000E+00  0.0000E+00  0.1520E+03  0.1520E+03
     -2.569  0.0000E+00  0.0000E+00  0.1520E+03  0.1520E+03
     -2.329  0.0000E+00  0.0000E+00  0.1520E+03  0.1520E+03
     -2.088  0.1145E-04  0.0000E+00  0.1520E+03  0.1520E+03
     -1.847  0.1526E+02  0.0000E+00  0.1557E+03  0.1520E+03
     -1.606  0.1981E+02  0.0000E+00  0.1604E+03  0.1520E+03
     -1.365  0.1501E+02  0.0000E+00  0.1641E+03  0.1520E+03
     -1.125  0.1697E+02  0.0000E+00  0.1681E+03  0.1520E+03
     -0.884  0.4503E+02  0.0000E+00  0.1790E+03  0.1520E+03
     -0.643  0.5885E+02  0.3868E-06  0.1932E+03  0.1520E+03
     -0.402  0.3874E+02  0.3732E+01  0.2025E+03  0.1529E+03
     -0.161  0.6727E+02  0.2035E+02  0.2187E+03  0.1578E+03
      0.079  0.7404E+02  0.1225E+02  0.2365E+03  0.1607E+03
      0.320  0.7749E+02  0.1825E+02  0.2552E+03  0.1651E+03
      0.561  0.6963E+02  0.2939E+02  0.2719E+03  0.1722E+03
      0.802  0.5670E+02  0.3904E+02  0.2856E+03  0.1816E+03
      1.043  0.3653E+02  0.3733E+02  0.2944E+03  0.1906E+03
      1.284  0.3042E+02  0.3162E+02  0.3017E+03  0.1982E+03
      1.524  0.4505E+02  0.2064E+02  0.3126E+03  0.2032E+03
      1.765  0.4157E+02  0.2914E+02  0.3226E+03  0.2102E+03
      2.006  0.6860E+02  0.3641E+02  0.3391E+03  0.2190E+03
      2.247  0.5921E+02  0.2822E+02  0.3534E+03  0.2258E+03
      2.488  0.2660E+02  0.2692E+02  0.3598E+03  0.2323E+03
      2.728  0.4246E+02  0.3009E+02  0.3700E+03  0.2395E+03
      2.969  0.3113E+02  0.4408E+02  0.3775E+03  0.2501E+03
      3.210  0.8610E+01  0.4561E+02  0.3796E+03  0.2611E+03
      3.451  0.2717E+02  0.3307E+02  0.3861E+03  0.2691E+03
      3.692  0.2768E+02  0.1276E+02  0.3928E+03  0.2721E+03
      3.932  0.3065E+02  0.1702E+02  0.4001E+03  0.2762E+03
      4.173  0.3593E+02  0.5290E+02  0.4088E+03  0.2890E+03
      4.414  0.3632E+02  0.4427E+02  0.4175E+03  0.2996E+03
      4.655  0.3051E+02  0.1809E+02  0.4249E+03  0.3040E+03
      4.896  0.2592E+02  0.8729E-02  0.4311E+03  0.3040E+03
      5.137  0.3601E+01  0.0000E+00  0.4320E+03  0.3040E+03
      5.377  0.0000E+00  0.0000E+00  0.4320E+03  0.3040E+03
      5.618  0.0000E+00  0.0000E+00  0.4320E+03  0.3040E+03
      5.859  0.0000E+00  0.0000E+00  0.4320E+03  0.3040E+03
      6.100  0.0000E+00  0.1141E-09  0.4320E+03  0.3040E+03
      6.341  0.0000E+00  0.3577E+00  0.4320E+03  0.3041E+03
      6.581  0.0000E+00  0.4176E+01  0.4320E+03  0.3051E+03
      6.822  0.0000E+00  0.7686E+01  0.4320E+03  0.3069E+03
      7.063  0.1622E-15  0.1866E+02  0.4320E+03  0.3114E+03
      7.304  0.2008E-01  0.4372E+02  0.4320E+03  0.3220E+03
      7.545  0.1337E+00  0.5289E+02  0.4320E+03  0.3347E+03
      7.785  0.2079E+00  0.6363E+02  0.4321E+03  0.3500E+03
      8.026  0.7551E+00  0.6542E+02  0.4323E+03  0.3658E+03
      8.267  0.2008E+01  0.6978E+02  0.4328E+03  0.3826E+03
      8.508  0.2635E+01  0.5994E+02  0.4334E+03  0.3970E+03
      8.749  0.8801E+01  0.5848E+02  0.4355E+03  0.4111E+03
      8.990  0.1229E+02  0.4860E+02  0.4385E+03  0.4228E+03
      9.230  0.1308E+02  0.3058E+02  0.4416E+03  0.4302E+03
      9.471  0.1799E+02  0.9209E+01  0.4460E+03  0.4324E+03
      9.712  0.1639E+02  0.2894E+01  0.4499E+03  0.4331E+03
      9.953  0.1565E+02  0.8248E+01  0.4537E+03  0.4351E+03
     10.194  0.2248E+02  0.1845E+02  0.4591E+03  0.4395E+03
     10.434  0.1483E+02  0.1799E+02  0.4626E+03  0.4438E+03
     10.675  0.1543E+02  0.1709E+02  0.4664E+03  0.4480E+03
     10.916  0.1307E+02  0.2757E+02  0.4695E+03  0.4546E+03
     11.157  0.2052E+02  0.1902E+02  0.4745E+03  0.4592E+03
     11.398  0.2448E+02  0.2383E+02  0.4803E+03  0.4649E+03
     11.638  0.2751E+02  0.1520E+02  0.4870E+03  0.4686E+03
     11.879  0.2429E+02  0.1370E+02  0.4928E+03  0.4719E+03
     12.120  0.3383E+02  0.1580E+02  0.5010E+03  0.4757E+03
     12.361  0.1998E+02  0.3624E+02  0.5058E+03  0.4844E+03
     12.602  0.2299E+02  0.3284E+02  0.5113E+03  0.4923E+03
     12.843  0.2136E+02  0.3031E+02  0.5165E+03  0.4996E+03
     13.083  0.2054E+02  0.2035E+02  0.5214E+03  0.5045E+03
     13.324  0.2345E+02  0.2185E+02  0.5271E+03  0.5098E+03
     13.565  0.2473E+02  0.2723E+02  0.5330E+03  0.5163E+03
     13.806  0.1367E+02  0.2371E+02  0.5363E+03  0.5220E+03
     14.047  0.7040E+01  0.2641E+02  0.5380E+03  0.5284E+03
     14.287  0.4685E-02  0.1940E+02  0.5380E+03  0.5331E+03
     14.528  0.0000E+00  0.1703E+02  0.5380E+03  0.5372E+03
     14.769  0.0000E+00  0.3420E+01  0.5380E+03  0.5380E+03
     15.010  0.0000E+00  0.2248E-05  0.5380E+03  0.5380E+03
     15.251  0.0000E+00  0.0000E+00  0.5380E+03  0.5380E+03
     15.491  0.0000E+00  0.0000E+00  0.5380E+03  0.5380E+03
     15.732  0.0000E+00  0.0000E+00  0.5380E+03  0.5380E+03
     15.973  0.0000E+00  0.0000E+00  0.5380E+03  0.5380E+03
     16.214  0.0000E+00  0.0000E+00  0.5380E+03  0.5380E+03
     16.455  0.0000E+00  0.0000E+00  0.5380E+03  0.5380E+03
     16.696  0.0000E+00  0.0000E+00  0.5380E+03  0.5380E+03
     16.936  0.0000E+00  0.0000E+00  0.5380E+03  0.5380E+03
     17.177  0.0000E+00  0.0000E+00  0.5380E+03  0.5380E+03
     17.418  0.0000E+00  0.0000E+00  0.5380E+03  0.5380E+03
     17.659  0.0000E+00  0.0000E+00  0.5380E+03  0.5380E+03
     17.900  0.0000E+00  0.0000E+00  0.5380E+03  0.5380E+03
