 126 126   0   0
  0.1357194E+02  0.1157659E-08  0.1157660E-08  0.1387803E-08  0.5000000E-15
  1.000000000000000E-004
  CAR 
 unknown system                          
     17.62383619    -54.41712286  301      5.40689022      1.00000000
    -54.417  0.0000E+00  0.0000E+00  0.0000E+00  0.0000E+00
    -54.177  0.0000E+00  0.0000E+00  0.0000E+00  0.0000E+00
    -53.937  0.0000E+00  0.0000E+00  0.0000E+00  0.0000E+00
    -53.697  0.0000E+00  0.0000E+00  0.0000E+00  0.0000E+00
    -53.457  0.0000E+00  0.0000E+00  0.0000E+00  0.0000E+00
    -53.216  0.0000E+00  0.0000E+00  0.0000E+00  0.0000E+00
    -52.976  0.0000E+00  0.0000E+00  0.0000E+00  0.0000E+00
    -52.736  0.0000E+00  0.0000E+00  0.0000E+00  0.0000E+00
    -52.496  0.0000E+00  0.0000E+00  0.0000E+00  0.0000E+00
    -52.256  0.0000E+00  0.0000E+00  0.0000E+00  0.0000E+00
    -52.016  0.0000E+00  0.0000E+00  0.0000E+00  0.0000E+00
    -51.776  0.0000E+00  0.0000E+00  0.0000E+00  0.0000E+00
    -51.535  0.0000E+00  0.0000E+00  0.0000E+00  0.0000E+00
    -51.295  0.7835E-03  0.0000E+00  0.1882E-03  0.0000E+00
    -51.055  0.1486E+03  0.0000E+00  0.3569E+02  0.0000E+00
    -50.815  0.1293E+01  0.0000E+00  0.3600E+02  0.0000E+00
    -50.575  0.0000E+00  0.0000E+00  0.3600E+02  0.0000E+00
    -50.335  0.0000E+00  0.0000E+00  0.3600E+02  0.0000E+00
    -50.095  0.0000E+00  0.0000E+00  0.3600E+02  0.0000E+00
    -49.855  0.1915E-05  0.0000E+00  0.3600E+02  0.0000E+00
    -49.614  0.2590E+03  0.0000E+00  0.9820E+02  0.0000E+00
    -49.374  0.4082E+02  0.0000E+00  0.1080E+03  0.0000E+00
    -49.134  0.0000E+00  0.0000E+00  0.1080E+03  0.0000E+00
    -48.894  0.0000E+00  0.0000E+00  0.1080E+03  0.0000E+00
    -48.654  0.0000E+00  0.0000E+00  0.1080E+03  0.0000E+00
    -48.414  0.0000E+00  0.0000E+00  0.1080E+03  0.0000E+00
    -48.174  0.0000E+00  0.0000E+00  0.1080E+03  0.0000E+00
    -47.933  0.0000E+00  0.0000E+00  0.1080E+03  0.0000E+00
    -47.693  0.0000E+00  0.0000E+00  0.1080E+03  0.0000E+00
    -47.453  0.0000E+00  0.0000E+00  0.1080E+03  0.0000E+00
    -47.213  0.0000E+00  0.0000E+00  0.1080E+03  0.0000E+00
    -46.973  0.0000E+00  0.0000E+00  0.1080E+03  0.0000E+00
    -46.733  0.0000E+00  0.0000E+00  0.1080E+03  0.0000E+00
    -46.493  0.0000E+00  0.3550E+00  0.1080E+03  0.8526E-01
    -46.252  0.0000E+00  0.1496E+03  0.1080E+03  0.3600E+02
    -46.012  0.0000E+00  0.4788E+01  0.1080E+03  0.3715E+02
    -45.772  0.0000E+00  0.2950E+03  0.1080E+03  0.1080E+03
    -45.532  0.0000E+00  0.0000E+00  0.1080E+03  0.1080E+03
    -45.292  0.0000E+00  0.0000E+00  0.1080E+03  0.1080E+03
    -45.052  0.0000E+00  0.0000E+00  0.1080E+03  0.1080E+03
    -44.812  0.0000E+00  0.0000E+00  0.1080E+03  0.1080E+03
    -44.572  0.0000E+00  0.0000E+00  0.1080E+03  0.1080E+03
    -44.331  0.0000E+00  0.0000E+00  0.1080E+03  0.1080E+03
    -44.091  0.0000E+00  0.0000E+00  0.1080E+03  0.1080E+03
    -43.851  0.0000E+00  0.0000E+00  0.1080E+03  0.1080E+03
    -43.611  0.0000E+00  0.0000E+00  0.1080E+03  0.1080E+03
    -43.371  0.0000E+00  0.0000E+00  0.1080E+03  0.1080E+03
    -43.131  0.0000E+00  0.0000E+00  0.1080E+03  0.1080E+03
    -42.891  0.0000E+00  0.0000E+00  0.1080E+03  0.1080E+03
    -42.650  0.0000E+00  0.0000E+00  0.1080E+03  0.1080E+03
    -42.410  0.0000E+00  0.0000E+00  0.1080E+03  0.1080E+03
    -42.170  0.0000E+00  0.0000E+00  0.1080E+03  0.1080E+03
    -41.930  0.0000E+00  0.0000E+00  0.1080E+03  0.1080E+03
    -41.690  0.0000E+00  0.0000E+00  0.1080E+03  0.1080E+03
    -41.450  0.0000E+00  0.0000E+00  0.1080E+03  0.1080E+03
    -41.210  0.0000E+00  0.0000E+00  0.1080E+03  0.1080E+03
    -40.969  0.0000E+00  0.0000E+00  0.1080E+03  0.1080E+03
    -40.729  0.0000E+00  0.0000E+00  0.1080E+03  0.1080E+03
    -40.489  0.0000E+00  0.0000E+00  0.1080E+03  0.1080E+03
    -40.249  0.0000E+00  0.0000E+00  0.1080E+03  0.1080E+03
    -40.009  0.0000E+00  0.0000E+00  0.1080E+03  0.1080E+03
    -39.769  0.1986E-02  0.1835E-02  0.1080E+03  0.1080E+03
    -39.529  0.1478E+03  0.1477E+03  0.1435E+03  0.1435E+03
    -39.289  0.2107E+01  0.2184E+01  0.1440E+03  0.1440E+03
    -39.048  0.0000E+00  0.0000E+00  0.1440E+03  0.1440E+03
    -38.808  0.0000E+00  0.0000E+00  0.1440E+03  0.1440E+03
    -38.568  0.0000E+00  0.0000E+00  0.1440E+03  0.1440E+03
    -38.328  0.0000E+00  0.0000E+00  0.1440E+03  0.1440E+03
    -38.088  0.0000E+00  0.0000E+00  0.1440E+03  0.1440E+03
    -37.848  0.0000E+00  0.0000E+00  0.1440E+03  0.1440E+03
    -37.608  0.0000E+00  0.0000E+00  0.1440E+03  0.1440E+03
    -37.367  0.0000E+00  0.0000E+00  0.1440E+03  0.1440E+03
    -37.127  0.0000E+00  0.0000E+00  0.1440E+03  0.1440E+03
    -36.887  0.0000E+00  0.0000E+00  0.1440E+03  0.1440E+03
    -36.647  0.0000E+00  0.0000E+00  0.1440E+03  0.1440E+03
    -36.407  0.0000E+00  0.0000E+00  0.1440E+03  0.1440E+03
    -36.167  0.0000E+00  0.0000E+00  0.1440E+03  0.1440E+03
    -35.927  0.0000E+00  0.0000E+00  0.1440E+03  0.1440E+03
    -35.686  0.0000E+00  0.0000E+00  0.1440E+03  0.1440E+03
    -35.446  0.0000E+00  0.0000E+00  0.1440E+03  0.1440E+03
    -35.206  0.0000E+00  0.0000E+00  0.1440E+03  0.1440E+03
    -34.966  0.0000E+00  0.0000E+00  0.1440E+03  0.1440E+03
    -34.726  0.0000E+00  0.0000E+00  0.1440E+03  0.1440E+03
    -34.486  0.0000E+00  0.0000E+00  0.1440E+03  0.1440E+03
    -34.246  0.0000E+00  0.0000E+00  0.1440E+03  0.1440E+03
    -34.006  0.0000E+00  0.0000E+00  0.1440E+03  0.1440E+03
    -33.765  0.0000E+00  0.0000E+00  0.1440E+03  0.1440E+03
    -33.525  0.0000E+00  0.0000E+00  0.1440E+03  0.1440E+03
    -33.285  0.0000E+00  0.0000E+00  0.1440E+03  0.1440E+03
    -33.045  0.0000E+00  0.0000E+00  0.1440E+03  0.1440E+03
    -32.805  0.0000E+00  0.0000E+00  0.1440E+03  0.1440E+03
    -32.565  0.0000E+00  0.0000E+00  0.1440E+03  0.1440E+03
    -32.325  0.0000E+00  0.0000E+00  0.1440E+03  0.1440E+03
    -32.084  0.0000E+00  0.0000E+00  0.1440E+03  0.1440E+03
    -31.844  0.0000E+00  0.0000E+00  0.1440E+03  0.1440E+03
    -31.604  0.0000E+00  0.0000E+00  0.1440E+03  0.1440E+03
    -31.364  0.0000E+00  0.0000E+00  0.1440E+03  0.1440E+03
    -31.124  0.0000E+00  0.0000E+00  0.1440E+03  0.1440E+03
    -30.884  0.0000E+00  0.0000E+00  0.1440E+03  0.1440E+03
    -30.644  0.0000E+00  0.0000E+00  0.1440E+03  0.1440E+03
    -30.403  0.0000E+00  0.0000E+00  0.1440E+03  0.1440E+03
    -30.163  0.0000E+00  0.0000E+00  0.1440E+03  0.1440E+03
    -29.923  0.0000E+00  0.0000E+00  0.1440E+03  0.1440E+03
    -29.683  0.0000E+00  0.0000E+00  0.1440E+03  0.1440E+03
    -29.443  0.0000E+00  0.0000E+00  0.1440E+03  0.1440E+03
    -29.203  0.0000E+00  0.0000E+00  0.1440E+03  0.1440E+03
    -28.963  0.0000E+00  0.0000E+00  0.1440E+03  0.1440E+03
    -28.723  0.0000E+00  0.0000E+00  0.1440E+03  0.1440E+03
    -28.482  0.0000E+00  0.0000E+00  0.1440E+03  0.1440E+03
    -28.242  0.0000E+00  0.0000E+00  0.1440E+03  0.1440E+03
    -28.002  0.0000E+00  0.0000E+00  0.1440E+03  0.1440E+03
    -27.762  0.0000E+00  0.0000E+00  0.1440E+03  0.1440E+03
    -27.522  0.0000E+00  0.0000E+00  0.1440E+03  0.1440E+03
    -27.282  0.0000E+00  0.0000E+00  0.1440E+03  0.1440E+03
    -27.042  0.0000E+00  0.0000E+00  0.1440E+03  0.1440E+03
    -26.801  0.0000E+00  0.0000E+00  0.1440E+03  0.1440E+03
    -26.561  0.0000E+00  0.0000E+00  0.1440E+03  0.1440E+03
    -26.321  0.0000E+00  0.0000E+00  0.1440E+03  0.1440E+03
    -26.081  0.0000E+00  0.0000E+00  0.1440E+03  0.1440E+03
    -25.841  0.0000E+00  0.0000E+00  0.1440E+03  0.1440E+03
    -25.601  0.0000E+00  0.0000E+00  0.1440E+03  0.1440E+03
    -25.361  0.0000E+00  0.0000E+00  0.1440E+03  0.1440E+03
    -25.120  0.0000E+00  0.0000E+00  0.1440E+03  0.1440E+03
    -24.880  0.0000E+00  0.0000E+00  0.1440E+03  0.1440E+03
    -24.640  0.0000E+00  0.0000E+00  0.1440E+03  0.1440E+03
    -24.400  0.0000E+00  0.0000E+00  0.1440E+03  0.1440E+03
    -24.160  0.0000E+00  0.0000E+00  0.1440E+03  0.1440E+03
    -23.920  0.0000E+00  0.0000E+00  0.1440E+03  0.1440E+03
    -23.680  0.0000E+00  0.0000E+00  0.1440E+03  0.1440E+03
    -23.440  0.0000E+00  0.0000E+00  0.1440E+03  0.1440E+03
    -23.199  0.0000E+00  0.0000E+00  0.1440E+03  0.1440E+03
    -22.959  0.0000E+00  0.0000E+00  0.1440E+03  0.1440E+03
    -22.719  0.0000E+00  0.0000E+00  0.1440E+03  0.1440E+03
    -22.479  0.0000E+00  0.0000E+00  0.1440E+03  0.1440E+03
    -22.239  0.0000E+00  0.0000E+00  0.1440E+03  0.1440E+03
    -21.999  0.0000E+00  0.0000E+00  0.1440E+03  0.1440E+03
    -21.759  0.0000E+00  0.0000E+00  0.1440E+03  0.1440E+03
    -21.518  0.0000E+00  0.0000E+00  0.1440E+03  0.1440E+03
    -21.278  0.0000E+00  0.0000E+00  0.1440E+03  0.1440E+03
    -21.038  0.0000E+00  0.0000E+00  0.1440E+03  0.1440E+03
    -20.798  0.0000E+00  0.0000E+00  0.1440E+03  0.1440E+03
    -20.558  0.0000E+00  0.0000E+00  0.1440E+03  0.1440E+03
    -20.318  0.0000E+00  0.0000E+00  0.1440E+03  0.1440E+03
    -20.078  0.0000E+00  0.0000E+00  0.1440E+03  0.1440E+03
    -19.837  0.0000E+00  0.0000E+00  0.1440E+03  0.1440E+03
    -19.597  0.0000E+00  0.0000E+00  0.1440E+03  0.1440E+03
    -19.357  0.0000E+00  0.0000E+00  0.1440E+03  0.1440E+03
    -19.117  0.0000E+00  0.0000E+00  0.1440E+03  0.1440E+03
    -18.877  0.0000E+00  0.0000E+00  0.1440E+03  0.1440E+03
    -18.637  0.0000E+00  0.0000E+00  0.1440E+03  0.1440E+03
    -18.397  0.0000E+00  0.0000E+00  0.1440E+03  0.1440E+03
    -18.157  0.0000E+00  0.0000E+00  0.1440E+03  0.1440E+03
    -17.916  0.0000E+00  0.0000E+00  0.1440E+03  0.1440E+03
    -17.676  0.0000E+00  0.0000E+00  0.1440E+03  0.1440E+03
    -17.436  0.0000E+00  0.0000E+00  0.1440E+03  0.1440E+03
    -17.196  0.0000E+00  0.0000E+00  0.1440E+03  0.1440E+03
    -16.956  0.0000E+00  0.0000E+00  0.1440E+03  0.1440E+03
    -16.716  0.0000E+00  0.0000E+00  0.1440E+03  0.1440E+03
    -16.476  0.0000E+00  0.0000E+00  0.1440E+03  0.1440E+03
    -16.235  0.0000E+00  0.0000E+00  0.1440E+03  0.1440E+03
    -15.995  0.0000E+00  0.0000E+00  0.1440E+03  0.1440E+03
    -15.755  0.0000E+00  0.0000E+00  0.1440E+03  0.1440E+03
    -15.515  0.0000E+00  0.0000E+00  0.1440E+03  0.1440E+03
    -15.275  0.0000E+00  0.0000E+00  0.1440E+03  0.1440E+03
    -15.035  0.0000E+00  0.0000E+00  0.1440E+03  0.1440E+03
    -14.795  0.0000E+00  0.0000E+00  0.1440E+03  0.1440E+03
    -14.554  0.0000E+00  0.0000E+00  0.1440E+03  0.1440E+03
    -14.314  0.0000E+00  0.0000E+00  0.1440E+03  0.1440E+03
    -14.074  0.0000E+00  0.0000E+00  0.1440E+03  0.1440E+03
    -13.834  0.0000E+00  0.0000E+00  0.1440E+03  0.1440E+03
    -13.594  0.0000E+00  0.0000E+00  0.1440E+03  0.1440E+03
    -13.354  0.0000E+00  0.0000E+00  0.1440E+03  0.1440E+03
    -13.114  0.0000E+00  0.0000E+00  0.1440E+03  0.1440E+03
    -12.874  0.3140E-01  0.0000E+00  0.1440E+03  0.1440E+03
    -12.633  0.7313E+02  0.6025E-03  0.1616E+03  0.1440E+03
    -12.393  0.1792E+01  0.6449E+02  0.1620E+03  0.1595E+03
    -12.153  0.0000E+00  0.1047E+02  0.1620E+03  0.1620E+03
    -11.913  0.0000E+00  0.0000E+00  0.1620E+03  0.1620E+03
    -11.673  0.0000E+00  0.0000E+00  0.1620E+03  0.1620E+03
    -11.433  0.0000E+00  0.0000E+00  0.1620E+03  0.1620E+03
    -11.193  0.0000E+00  0.0000E+00  0.1620E+03  0.1620E+03
    -10.952  0.0000E+00  0.0000E+00  0.1620E+03  0.1620E+03
    -10.712  0.0000E+00  0.0000E+00  0.1620E+03  0.1620E+03
    -10.472  0.0000E+00  0.0000E+00  0.1620E+03  0.1620E+03
    -10.232  0.0000E+00  0.0000E+00  0.1620E+03  0.1620E+03
     -9.992  0.0000E+00  0.0000E+00  0.1620E+03  0.1620E+03
     -9.752  0.0000E+00  0.0000E+00  0.1620E+03  0.1620E+03
     -9.512  0.0000E+00  0.0000E+00  0.1620E+03  0.1620E+03
     -9.271  0.0000E+00  0.0000E+00  0.1620E+03  0.1620E+03
     -9.031  0.0000E+00  0.0000E+00  0.1620E+03  0.1620E+03
     -8.791  0.0000E+00  0.0000E+00  0.1620E+03  0.1620E+03
     -8.551  0.0000E+00  0.0000E+00  0.1620E+03  0.1620E+03
     -8.311  0.0000E+00  0.0000E+00  0.1620E+03  0.1620E+03
     -8.071  0.0000E+00  0.0000E+00  0.1620E+03  0.1620E+03
     -7.831  0.8005E-02  0.1631E-14  0.1620E+03  0.1620E+03
     -7.590  0.7920E+01  0.8902E-01  0.1639E+03  0.1620E+03
     -7.350  0.1442E+02  0.9741E+01  0.1674E+03  0.1644E+03
     -7.110  0.2465E+02  0.1722E+02  0.1733E+03  0.1685E+03
     -6.870  0.7405E+02  0.2412E+02  0.1911E+03  0.1743E+03
     -6.630  0.2888E+02  0.7022E+02  0.1980E+03  0.1912E+03
     -6.390  0.1320E-03  0.2850E+02  0.1980E+03  0.1980E+03
     -6.150  0.0000E+00  0.1114E-01  0.1980E+03  0.1980E+03
     -5.910  0.0000E+00  0.0000E+00  0.1980E+03  0.1980E+03
     -5.669  0.0000E+00  0.0000E+00  0.1980E+03  0.1980E+03
     -5.429  0.0000E+00  0.0000E+00  0.1980E+03  0.1980E+03
     -5.189  0.0000E+00  0.0000E+00  0.1980E+03  0.1980E+03
     -4.949  0.0000E+00  0.0000E+00  0.1980E+03  0.1980E+03
     -4.709  0.0000E+00  0.0000E+00  0.1980E+03  0.1980E+03
     -4.469  0.0000E+00  0.0000E+00  0.1980E+03  0.1980E+03
     -4.229  0.0000E+00  0.0000E+00  0.1980E+03  0.1980E+03
     -3.988  0.0000E+00  0.0000E+00  0.1980E+03  0.1980E+03
     -3.748  0.0000E+00  0.0000E+00  0.1980E+03  0.1980E+03
     -3.508  0.0000E+00  0.0000E+00  0.1980E+03  0.1980E+03
     -3.268  0.0000E+00  0.0000E+00  0.1980E+03  0.1980E+03
     -3.028  0.0000E+00  0.0000E+00  0.1980E+03  0.1980E+03
     -2.788  0.0000E+00  0.0000E+00  0.1980E+03  0.1980E+03
     -2.548  0.0000E+00  0.0000E+00  0.1980E+03  0.1980E+03
     -2.307  0.0000E+00  0.0000E+00  0.1980E+03  0.1980E+03
     -2.067  0.0000E+00  0.0000E+00  0.1980E+03  0.1980E+03
     -1.827  0.4623E-15  0.0000E+00  0.1980E+03  0.1980E+03
     -1.587  0.1481E+00  0.0000E+00  0.1980E+03  0.1980E+03
     -1.347  0.4656E+02  0.0000E+00  0.2092E+03  0.1980E+03
     -1.107  0.2825E+02  0.0000E+00  0.2160E+03  0.1980E+03
     -0.867  0.3131E+01  0.0000E+00  0.2168E+03  0.1980E+03
     -0.627  0.4039E+02  0.5907E-10  0.2265E+03  0.1980E+03
     -0.386  0.1096E+03  0.1328E+01  0.2528E+03  0.1983E+03
     -0.146  0.1158E+03  0.1263E+02  0.2806E+03  0.2014E+03
      0.094  0.1051E+03  0.2003E+02  0.3058E+03  0.2062E+03
      0.334  0.8738E+02  0.2749E+02  0.3268E+03  0.2128E+03
      0.574  0.7690E+02  0.3085E+02  0.3452E+03  0.2202E+03
      0.814  0.3480E+02  0.3757E+02  0.3536E+03  0.2292E+03
      1.054  0.3026E+02  0.3594E+02  0.3609E+03  0.2378E+03
      1.295  0.5000E+02  0.4693E+02  0.3729E+03  0.2491E+03
      1.535  0.3209E+02  0.3088E+02  0.3806E+03  0.2565E+03
      1.775  0.5667E+02  0.6164E+02  0.3942E+03  0.2713E+03
      2.015  0.1238E+03  0.4711E+02  0.4239E+03  0.2826E+03
      2.255  0.7829E+02  0.1852E+02  0.4427E+03  0.2871E+03
      2.495  0.5325E+02  0.3030E+02  0.4555E+03  0.2943E+03
      2.735  0.3976E+02  0.5975E+02  0.4651E+03  0.3087E+03
      2.976  0.2531E+02  0.4973E+02  0.4711E+03  0.3206E+03
      3.216  0.1590E+02  0.5645E+02  0.4750E+03  0.3342E+03
      3.456  0.2754E+02  0.7522E+02  0.4816E+03  0.3523E+03
      3.696  0.4040E+02  0.2646E+02  0.4913E+03  0.3586E+03
      3.936  0.4254E+02  0.1953E+02  0.5015E+03  0.3633E+03
      4.176  0.4503E+02  0.9374E+02  0.5123E+03  0.3858E+03
      4.416  0.4519E+02  0.4077E+02  0.5231E+03  0.3956E+03
      4.656  0.2499E+02  0.1678E+01  0.5291E+03  0.3960E+03
      4.897  0.2765E+02  0.0000E+00  0.5358E+03  0.3960E+03
      5.137  0.1750E+02  0.0000E+00  0.5400E+03  0.3960E+03
      5.377  0.3692E-01  0.0000E+00  0.5400E+03  0.3960E+03
      5.617  0.0000E+00  0.0000E+00  0.5400E+03  0.3960E+03
      5.857  0.0000E+00  0.0000E+00  0.5400E+03  0.3960E+03
      6.097  0.0000E+00  0.3771E-13  0.5400E+03  0.3960E+03
      6.337  0.0000E+00  0.1754E+00  0.5400E+03  0.3960E+03
      6.578  0.0000E+00  0.4445E+01  0.5400E+03  0.3971E+03
      6.818  0.0000E+00  0.1381E+02  0.5400E+03  0.4004E+03
      7.058  0.0000E+00  0.2994E+02  0.5400E+03  0.4076E+03
      7.298  0.6776E-05  0.5677E+02  0.5400E+03  0.4212E+03
      7.538  0.5322E+00  0.7989E+02  0.5401E+03  0.4404E+03
      7.778  0.2314E+01  0.6735E+02  0.5407E+03  0.4566E+03
      8.018  0.1670E+01  0.8331E+02  0.5411E+03  0.4766E+03
      8.259  0.7096E+01  0.9903E+02  0.5428E+03  0.5004E+03
      8.499  0.7689E+01  0.3874E+02  0.5446E+03  0.5097E+03
      8.739  0.4748E+01  0.4434E+02  0.5458E+03  0.5203E+03
      8.979  0.1132E+02  0.4032E+02  0.5485E+03  0.5300E+03
      9.219  0.2026E+02  0.3936E+02  0.5534E+03  0.5395E+03
      9.459  0.2079E+02  0.1498E+02  0.5584E+03  0.5431E+03
      9.699  0.3074E+02  0.1566E+02  0.5657E+03  0.5468E+03
      9.939  0.2758E+02  0.1311E+02  0.5724E+03  0.5500E+03
     10.180  0.1732E+02  0.2566E+02  0.5765E+03  0.5561E+03
     10.420  0.1459E+02  0.2224E+02  0.5800E+03  0.5615E+03
     10.660  0.1892E+02  0.2766E+02  0.5846E+03  0.5681E+03
     10.900  0.2371E+02  0.2488E+02  0.5903E+03  0.5741E+03
     11.140  0.2879E+02  0.2498E+02  0.5972E+03  0.5801E+03
     11.380  0.2916E+02  0.2036E+02  0.6042E+03  0.5850E+03
     11.620  0.3031E+02  0.2437E+02  0.6114E+03  0.5908E+03
     11.861  0.3003E+02  0.2681E+02  0.6187E+03  0.5973E+03
     12.101  0.4165E+02  0.2657E+02  0.6287E+03  0.6037E+03
     12.341  0.5020E+02  0.3627E+02  0.6407E+03  0.6124E+03
     12.581  0.2540E+02  0.3816E+02  0.6468E+03  0.6215E+03
     12.821  0.2734E+02  0.4654E+02  0.6534E+03  0.6327E+03
     13.061  0.3286E+02  0.3544E+02  0.6613E+03  0.6412E+03
     13.301  0.3674E+02  0.2998E+02  0.6701E+03  0.6484E+03
     13.542  0.2435E+02  0.4823E+02  0.6759E+03  0.6600E+03
     13.782  0.1261E+02  0.3849E+02  0.6790E+03  0.6692E+03
     14.022  0.4288E+01  0.2090E+02  0.6800E+03  0.6743E+03
     14.262  0.4149E-02  0.1808E+02  0.6800E+03  0.6786E+03
     14.502  0.0000E+00  0.5788E+01  0.6800E+03  0.6800E+03
     14.742  0.0000E+00  0.7587E-05  0.6800E+03  0.6800E+03
     14.982  0.0000E+00  0.0000E+00  0.6800E+03  0.6800E+03
     15.222  0.0000E+00  0.0000E+00  0.6800E+03  0.6800E+03
     15.463  0.0000E+00  0.0000E+00  0.6800E+03  0.6800E+03
     15.703  0.0000E+00  0.0000E+00  0.6800E+03  0.6800E+03
     15.943  0.0000E+00  0.0000E+00  0.6800E+03  0.6800E+03
     16.183  0.0000E+00  0.0000E+00  0.6800E+03  0.6800E+03
     16.423  0.0000E+00  0.0000E+00  0.6800E+03  0.6800E+03
     16.663  0.0000E+00  0.0000E+00  0.6800E+03  0.6800E+03
     16.903  0.0000E+00  0.0000E+00  0.6800E+03  0.6800E+03
     17.144  0.0000E+00  0.0000E+00  0.6800E+03  0.6800E+03
     17.384  0.0000E+00  0.0000E+00  0.6800E+03  0.6800E+03
     17.624  0.0000E+00  0.0000E+00  0.6800E+03  0.6800E+03
