 224 224   0   0
  0.1357572E+02  0.1537960E-08  0.1537962E-08  0.1395899E-08  0.5000000E-15
  1.000000000000000E-004
  CAR 
 unknown system                          
     17.69743248    -54.42035910  301      5.25711343      1.00000000
    -54.420  0.0000E+00  0.0000E+00  0.0000E+00  0.0000E+00
    -54.180  0.0000E+00  0.0000E+00  0.0000E+00  0.0000E+00
    -53.940  0.0000E+00  0.0000E+00  0.0000E+00  0.0000E+00
    -53.699  0.0000E+00  0.0000E+00  0.0000E+00  0.0000E+00
    -53.459  0.0000E+00  0.0000E+00  0.0000E+00  0.0000E+00
    -53.218  0.0000E+00  0.0000E+00  0.0000E+00  0.0000E+00
    -52.978  0.0000E+00  0.0000E+00  0.0000E+00  0.0000E+00
    -52.738  0.0000E+00  0.0000E+00  0.0000E+00  0.0000E+00
    -52.497  0.0000E+00  0.0000E+00  0.0000E+00  0.0000E+00
    -52.257  0.0000E+00  0.0000E+00  0.0000E+00  0.0000E+00
    -52.016  0.0000E+00  0.0000E+00  0.0000E+00  0.0000E+00
    -51.776  0.0000E+00  0.0000E+00  0.0000E+00  0.0000E+00
    -51.536  0.0000E+00  0.0000E+00  0.0000E+00  0.0000E+00
    -51.295  0.1575E-02  0.0000E+00  0.3787E-03  0.0000E+00
    -51.055  0.2641E+03  0.0000E+00  0.6350E+02  0.0000E+00
    -50.814  0.2081E+01  0.0000E+00  0.6400E+02  0.0000E+00
    -50.574  0.0000E+00  0.0000E+00  0.6400E+02  0.0000E+00
    -50.334  0.0000E+00  0.0000E+00  0.6400E+02  0.0000E+00
    -50.093  0.0000E+00  0.0000E+00  0.6400E+02  0.0000E+00
    -49.853  0.1241E-05  0.0000E+00  0.6400E+02  0.0000E+00
    -49.613  0.4395E+03  0.0000E+00  0.1697E+03  0.0000E+00
    -49.372  0.9293E+02  0.0000E+00  0.1920E+03  0.0000E+00
    -49.132  0.0000E+00  0.0000E+00  0.1920E+03  0.0000E+00
    -48.891  0.0000E+00  0.0000E+00  0.1920E+03  0.0000E+00
    -48.651  0.0000E+00  0.0000E+00  0.1920E+03  0.0000E+00
    -48.411  0.0000E+00  0.0000E+00  0.1920E+03  0.0000E+00
    -48.170  0.0000E+00  0.0000E+00  0.1920E+03  0.0000E+00
    -47.930  0.0000E+00  0.0000E+00  0.1920E+03  0.0000E+00
    -47.689  0.0000E+00  0.0000E+00  0.1920E+03  0.0000E+00
    -47.449  0.0000E+00  0.0000E+00  0.1920E+03  0.0000E+00
    -47.209  0.0000E+00  0.0000E+00  0.1920E+03  0.0000E+00
    -46.968  0.0000E+00  0.0000E+00  0.1920E+03  0.0000E+00
    -46.728  0.0000E+00  0.0000E+00  0.1920E+03  0.0000E+00
    -46.487  0.0000E+00  0.7339E+00  0.1920E+03  0.1764E+00
    -46.247  0.0000E+00  0.2655E+03  0.1920E+03  0.6400E+02
    -46.007  0.0000E+00  0.6608E+01  0.1920E+03  0.6559E+02
    -45.766  0.0000E+00  0.5259E+03  0.1920E+03  0.1920E+03
    -45.526  0.0000E+00  0.1596E-03  0.1920E+03  0.1920E+03
    -45.285  0.0000E+00  0.0000E+00  0.1920E+03  0.1920E+03
    -45.045  0.0000E+00  0.0000E+00  0.1920E+03  0.1920E+03
    -44.805  0.0000E+00  0.0000E+00  0.1920E+03  0.1920E+03
    -44.564  0.0000E+00  0.0000E+00  0.1920E+03  0.1920E+03
    -44.324  0.0000E+00  0.0000E+00  0.1920E+03  0.1920E+03
    -44.083  0.0000E+00  0.0000E+00  0.1920E+03  0.1920E+03
    -43.843  0.0000E+00  0.0000E+00  0.1920E+03  0.1920E+03
    -43.603  0.0000E+00  0.0000E+00  0.1920E+03  0.1920E+03
    -43.362  0.0000E+00  0.0000E+00  0.1920E+03  0.1920E+03
    -43.122  0.0000E+00  0.0000E+00  0.1920E+03  0.1920E+03
    -42.882  0.0000E+00  0.0000E+00  0.1920E+03  0.1920E+03
    -42.641  0.0000E+00  0.0000E+00  0.1920E+03  0.1920E+03
    -42.401  0.0000E+00  0.0000E+00  0.1920E+03  0.1920E+03
    -42.160  0.0000E+00  0.0000E+00  0.1920E+03  0.1920E+03
    -41.920  0.0000E+00  0.0000E+00  0.1920E+03  0.1920E+03
    -41.680  0.0000E+00  0.0000E+00  0.1920E+03  0.1920E+03
    -41.439  0.0000E+00  0.0000E+00  0.1920E+03  0.1920E+03
    -41.199  0.0000E+00  0.0000E+00  0.1920E+03  0.1920E+03
    -40.958  0.0000E+00  0.0000E+00  0.1920E+03  0.1920E+03
    -40.718  0.0000E+00  0.0000E+00  0.1920E+03  0.1920E+03
    -40.478  0.0000E+00  0.0000E+00  0.1920E+03  0.1920E+03
    -40.237  0.0000E+00  0.0000E+00  0.1920E+03  0.1920E+03
    -39.997  0.0000E+00  0.0000E+00  0.1920E+03  0.1920E+03
    -39.756  0.2172E-01  0.1980E-01  0.1920E+03  0.1920E+03
    -39.516  0.2652E+03  0.2652E+03  0.2558E+03  0.2558E+03
    -39.276  0.9771E+00  0.1037E+01  0.2560E+03  0.2560E+03
    -39.035  0.0000E+00  0.0000E+00  0.2560E+03  0.2560E+03
    -38.795  0.0000E+00  0.0000E+00  0.2560E+03  0.2560E+03
    -38.554  0.0000E+00  0.0000E+00  0.2560E+03  0.2560E+03
    -38.314  0.0000E+00  0.0000E+00  0.2560E+03  0.2560E+03
    -38.074  0.0000E+00  0.0000E+00  0.2560E+03  0.2560E+03
    -37.833  0.0000E+00  0.0000E+00  0.2560E+03  0.2560E+03
    -37.593  0.0000E+00  0.0000E+00  0.2560E+03  0.2560E+03
    -37.352  0.0000E+00  0.0000E+00  0.2560E+03  0.2560E+03
    -37.112  0.0000E+00  0.0000E+00  0.2560E+03  0.2560E+03
    -36.872  0.0000E+00  0.0000E+00  0.2560E+03  0.2560E+03
    -36.631  0.0000E+00  0.0000E+00  0.2560E+03  0.2560E+03
    -36.391  0.0000E+00  0.0000E+00  0.2560E+03  0.2560E+03
    -36.151  0.0000E+00  0.0000E+00  0.2560E+03  0.2560E+03
    -35.910  0.0000E+00  0.0000E+00  0.2560E+03  0.2560E+03
    -35.670  0.0000E+00  0.0000E+00  0.2560E+03  0.2560E+03
    -35.429  0.0000E+00  0.0000E+00  0.2560E+03  0.2560E+03
    -35.189  0.0000E+00  0.0000E+00  0.2560E+03  0.2560E+03
    -34.949  0.0000E+00  0.0000E+00  0.2560E+03  0.2560E+03
    -34.708  0.0000E+00  0.0000E+00  0.2560E+03  0.2560E+03
    -34.468  0.0000E+00  0.0000E+00  0.2560E+03  0.2560E+03
    -34.227  0.0000E+00  0.0000E+00  0.2560E+03  0.2560E+03
    -33.987  0.0000E+00  0.0000E+00  0.2560E+03  0.2560E+03
    -33.747  0.0000E+00  0.0000E+00  0.2560E+03  0.2560E+03
    -33.506  0.0000E+00  0.0000E+00  0.2560E+03  0.2560E+03
    -33.266  0.0000E+00  0.0000E+00  0.2560E+03  0.2560E+03
    -33.025  0.0000E+00  0.0000E+00  0.2560E+03  0.2560E+03
    -32.785  0.0000E+00  0.0000E+00  0.2560E+03  0.2560E+03
    -32.545  0.0000E+00  0.0000E+00  0.2560E+03  0.2560E+03
    -32.304  0.0000E+00  0.0000E+00  0.2560E+03  0.2560E+03
    -32.064  0.0000E+00  0.0000E+00  0.2560E+03  0.2560E+03
    -31.823  0.0000E+00  0.0000E+00  0.2560E+03  0.2560E+03
    -31.583  0.0000E+00  0.0000E+00  0.2560E+03  0.2560E+03
    -31.343  0.0000E+00  0.0000E+00  0.2560E+03  0.2560E+03
    -31.102  0.0000E+00  0.0000E+00  0.2560E+03  0.2560E+03
    -30.862  0.0000E+00  0.0000E+00  0.2560E+03  0.2560E+03
    -30.621  0.0000E+00  0.0000E+00  0.2560E+03  0.2560E+03
    -30.381  0.0000E+00  0.0000E+00  0.2560E+03  0.2560E+03
    -30.141  0.0000E+00  0.0000E+00  0.2560E+03  0.2560E+03
    -29.900  0.0000E+00  0.0000E+00  0.2560E+03  0.2560E+03
    -29.660  0.0000E+00  0.0000E+00  0.2560E+03  0.2560E+03
    -29.420  0.0000E+00  0.0000E+00  0.2560E+03  0.2560E+03
    -29.179  0.0000E+00  0.0000E+00  0.2560E+03  0.2560E+03
    -28.939  0.0000E+00  0.0000E+00  0.2560E+03  0.2560E+03
    -28.698  0.0000E+00  0.0000E+00  0.2560E+03  0.2560E+03
    -28.458  0.0000E+00  0.0000E+00  0.2560E+03  0.2560E+03
    -28.218  0.0000E+00  0.0000E+00  0.2560E+03  0.2560E+03
    -27.977  0.0000E+00  0.0000E+00  0.2560E+03  0.2560E+03
    -27.737  0.0000E+00  0.0000E+00  0.2560E+03  0.2560E+03
    -27.496  0.0000E+00  0.0000E+00  0.2560E+03  0.2560E+03
    -27.256  0.0000E+00  0.0000E+00  0.2560E+03  0.2560E+03
    -27.016  0.0000E+00  0.0000E+00  0.2560E+03  0.2560E+03
    -26.775  0.0000E+00  0.0000E+00  0.2560E+03  0.2560E+03
    -26.535  0.0000E+00  0.0000E+00  0.2560E+03  0.2560E+03
    -26.294  0.0000E+00  0.0000E+00  0.2560E+03  0.2560E+03
    -26.054  0.0000E+00  0.0000E+00  0.2560E+03  0.2560E+03
    -25.814  0.0000E+00  0.0000E+00  0.2560E+03  0.2560E+03
    -25.573  0.0000E+00  0.0000E+00  0.2560E+03  0.2560E+03
    -25.333  0.0000E+00  0.0000E+00  0.2560E+03  0.2560E+03
    -25.092  0.0000E+00  0.0000E+00  0.2560E+03  0.2560E+03
    -24.852  0.0000E+00  0.0000E+00  0.2560E+03  0.2560E+03
    -24.612  0.0000E+00  0.0000E+00  0.2560E+03  0.2560E+03
    -24.371  0.0000E+00  0.0000E+00  0.2560E+03  0.2560E+03
    -24.131  0.0000E+00  0.0000E+00  0.2560E+03  0.2560E+03
    -23.890  0.0000E+00  0.0000E+00  0.2560E+03  0.2560E+03
    -23.650  0.0000E+00  0.0000E+00  0.2560E+03  0.2560E+03
    -23.410  0.0000E+00  0.0000E+00  0.2560E+03  0.2560E+03
    -23.169  0.0000E+00  0.0000E+00  0.2560E+03  0.2560E+03
    -22.929  0.0000E+00  0.0000E+00  0.2560E+03  0.2560E+03
    -22.689  0.0000E+00  0.0000E+00  0.2560E+03  0.2560E+03
    -22.448  0.0000E+00  0.0000E+00  0.2560E+03  0.2560E+03
    -22.208  0.0000E+00  0.0000E+00  0.2560E+03  0.2560E+03
    -21.967  0.0000E+00  0.0000E+00  0.2560E+03  0.2560E+03
    -21.727  0.0000E+00  0.0000E+00  0.2560E+03  0.2560E+03
    -21.487  0.0000E+00  0.0000E+00  0.2560E+03  0.2560E+03
    -21.246  0.0000E+00  0.0000E+00  0.2560E+03  0.2560E+03
    -21.006  0.0000E+00  0.0000E+00  0.2560E+03  0.2560E+03
    -20.765  0.0000E+00  0.0000E+00  0.2560E+03  0.2560E+03
    -20.525  0.0000E+00  0.0000E+00  0.2560E+03  0.2560E+03
    -20.285  0.0000E+00  0.0000E+00  0.2560E+03  0.2560E+03
    -20.044  0.0000E+00  0.0000E+00  0.2560E+03  0.2560E+03
    -19.804  0.0000E+00  0.0000E+00  0.2560E+03  0.2560E+03
    -19.563  0.0000E+00  0.0000E+00  0.2560E+03  0.2560E+03
    -19.323  0.0000E+00  0.0000E+00  0.2560E+03  0.2560E+03
    -19.083  0.0000E+00  0.0000E+00  0.2560E+03  0.2560E+03
    -18.842  0.0000E+00  0.0000E+00  0.2560E+03  0.2560E+03
    -18.602  0.0000E+00  0.0000E+00  0.2560E+03  0.2560E+03
    -18.361  0.0000E+00  0.0000E+00  0.2560E+03  0.2560E+03
    -18.121  0.0000E+00  0.0000E+00  0.2560E+03  0.2560E+03
    -17.881  0.0000E+00  0.0000E+00  0.2560E+03  0.2560E+03
    -17.640  0.0000E+00  0.0000E+00  0.2560E+03  0.2560E+03
    -17.400  0.0000E+00  0.0000E+00  0.2560E+03  0.2560E+03
    -17.160  0.0000E+00  0.0000E+00  0.2560E+03  0.2560E+03
    -16.919  0.0000E+00  0.0000E+00  0.2560E+03  0.2560E+03
    -16.679  0.0000E+00  0.0000E+00  0.2560E+03  0.2560E+03
    -16.438  0.0000E+00  0.0000E+00  0.2560E+03  0.2560E+03
    -16.198  0.0000E+00  0.0000E+00  0.2560E+03  0.2560E+03
    -15.958  0.0000E+00  0.0000E+00  0.2560E+03  0.2560E+03
    -15.717  0.0000E+00  0.0000E+00  0.2560E+03  0.2560E+03
    -15.477  0.0000E+00  0.0000E+00  0.2560E+03  0.2560E+03
    -15.236  0.0000E+00  0.0000E+00  0.2560E+03  0.2560E+03
    -14.996  0.0000E+00  0.0000E+00  0.2560E+03  0.2560E+03
    -14.756  0.0000E+00  0.0000E+00  0.2560E+03  0.2560E+03
    -14.515  0.0000E+00  0.0000E+00  0.2560E+03  0.2560E+03
    -14.275  0.0000E+00  0.0000E+00  0.2560E+03  0.2560E+03
    -14.034  0.0000E+00  0.0000E+00  0.2560E+03  0.2560E+03
    -13.794  0.0000E+00  0.0000E+00  0.2560E+03  0.2560E+03
    -13.554  0.0000E+00  0.0000E+00  0.2560E+03  0.2560E+03
    -13.313  0.0000E+00  0.0000E+00  0.2560E+03  0.2560E+03
    -13.073  0.0000E+00  0.0000E+00  0.2560E+03  0.2560E+03
    -12.832  0.8129E-01  0.0000E+00  0.2560E+03  0.2560E+03
    -12.592  0.1320E+03  0.1607E-02  0.2878E+03  0.2560E+03
    -12.352  0.9978E+00  0.1239E+03  0.2880E+03  0.2858E+03
    -12.111  0.0000E+00  0.9207E+01  0.2880E+03  0.2880E+03
    -11.871  0.0000E+00  0.0000E+00  0.2880E+03  0.2880E+03
    -11.630  0.0000E+00  0.0000E+00  0.2880E+03  0.2880E+03
    -11.390  0.0000E+00  0.0000E+00  0.2880E+03  0.2880E+03
    -11.150  0.0000E+00  0.0000E+00  0.2880E+03  0.2880E+03
    -10.909  0.0000E+00  0.0000E+00  0.2880E+03  0.2880E+03
    -10.669  0.0000E+00  0.0000E+00  0.2880E+03  0.2880E+03
    -10.429  0.0000E+00  0.0000E+00  0.2880E+03  0.2880E+03
    -10.188  0.0000E+00  0.0000E+00  0.2880E+03  0.2880E+03
     -9.948  0.0000E+00  0.0000E+00  0.2880E+03  0.2880E+03
     -9.707  0.0000E+00  0.0000E+00  0.2880E+03  0.2880E+03
     -9.467  0.0000E+00  0.0000E+00  0.2880E+03  0.2880E+03
     -9.227  0.0000E+00  0.0000E+00  0.2880E+03  0.2880E+03
     -8.986  0.0000E+00  0.0000E+00  0.2880E+03  0.2880E+03
     -8.746  0.0000E+00  0.0000E+00  0.2880E+03  0.2880E+03
     -8.505  0.0000E+00  0.0000E+00  0.2880E+03  0.2880E+03
     -8.265  0.0000E+00  0.0000E+00  0.2880E+03  0.2880E+03
     -8.025  0.5651E-10  0.0000E+00  0.2880E+03  0.2880E+03
     -7.784  0.9483E+00  0.4443E-07  0.2882E+03  0.2880E+03
     -7.544  0.1881E+02  0.2894E+01  0.2928E+03  0.2887E+03
     -7.303  0.2821E+02  0.2240E+02  0.2995E+03  0.2941E+03
     -7.063  0.5391E+02  0.3108E+02  0.3125E+03  0.3015E+03
     -6.823  0.1469E+03  0.4890E+02  0.3478E+03  0.3133E+03
     -6.582  0.1743E+02  0.1390E+03  0.3520E+03  0.3467E+03
     -6.342  0.0000E+00  0.2200E+02  0.3520E+03  0.3520E+03
     -6.101  0.0000E+00  0.1068E-04  0.3520E+03  0.3520E+03
     -5.861  0.0000E+00  0.0000E+00  0.3520E+03  0.3520E+03
     -5.621  0.0000E+00  0.0000E+00  0.3520E+03  0.3520E+03
     -5.380  0.0000E+00  0.0000E+00  0.3520E+03  0.3520E+03
     -5.140  0.0000E+00  0.0000E+00  0.3520E+03  0.3520E+03
     -4.899  0.0000E+00  0.0000E+00  0.3520E+03  0.3520E+03
     -4.659  0.0000E+00  0.0000E+00  0.3520E+03  0.3520E+03
     -4.419  0.0000E+00  0.0000E+00  0.3520E+03  0.3520E+03
     -4.178  0.0000E+00  0.0000E+00  0.3520E+03  0.3520E+03
     -3.938  0.0000E+00  0.0000E+00  0.3520E+03  0.3520E+03
     -3.698  0.0000E+00  0.0000E+00  0.3520E+03  0.3520E+03
     -3.457  0.0000E+00  0.0000E+00  0.3520E+03  0.3520E+03
     -3.217  0.0000E+00  0.0000E+00  0.3520E+03  0.3520E+03
     -2.976  0.0000E+00  0.0000E+00  0.3520E+03  0.3520E+03
     -2.736  0.0000E+00  0.0000E+00  0.3520E+03  0.3520E+03
     -2.496  0.0000E+00  0.0000E+00  0.3520E+03  0.3520E+03
     -2.255  0.0000E+00  0.0000E+00  0.3520E+03  0.3520E+03
     -2.015  0.0000E+00  0.0000E+00  0.3520E+03  0.3520E+03
     -1.774  0.5422E-12  0.0000E+00  0.3520E+03  0.3520E+03
     -1.534  0.1269E+01  0.0000E+00  0.3523E+03  0.3520E+03
     -1.294  0.1002E+03  0.0000E+00  0.3764E+03  0.3520E+03
     -1.053  0.3168E+02  0.0000E+00  0.3840E+03  0.3520E+03
     -0.813  0.1252E+02  0.0000E+00  0.3870E+03  0.3520E+03
     -0.572  0.8960E+02  0.8268E-05  0.4085E+03  0.3520E+03
     -0.332  0.2240E+03  0.4094E+01  0.4624E+03  0.3530E+03
     -0.092  0.2016E+03  0.2466E+02  0.5109E+03  0.3589E+03
      0.149  0.1767E+03  0.4109E+02  0.5533E+03  0.3688E+03
      0.389  0.1517E+03  0.4240E+02  0.5898E+03  0.3790E+03
      0.630  0.1196E+03  0.7199E+02  0.6186E+03  0.3963E+03
      0.870  0.5435E+02  0.6040E+02  0.6316E+03  0.4108E+03
      1.110  0.6977E+02  0.6539E+02  0.6484E+03  0.4265E+03
      1.351  0.7337E+02  0.6773E+02  0.6660E+03  0.4428E+03
      1.591  0.6802E+02  0.7761E+02  0.6824E+03  0.4615E+03
      1.832  0.1107E+03  0.1111E+03  0.7090E+03  0.4882E+03
      2.072  0.2135E+03  0.6201E+02  0.7603E+03  0.5031E+03
      2.312  0.1398E+03  0.3789E+02  0.7939E+03  0.5122E+03
      2.553  0.8449E+02  0.7752E+02  0.8143E+03  0.5308E+03
      2.793  0.6866E+02  0.1040E+03  0.8308E+03  0.5558E+03
      3.033  0.3527E+02  0.7077E+02  0.8392E+03  0.5728E+03
      3.274  0.4046E+02  0.1314E+03  0.8490E+03  0.6044E+03
      3.514  0.5191E+02  0.1172E+03  0.8614E+03  0.6326E+03
      3.755  0.6738E+02  0.2513E+02  0.8776E+03  0.6386E+03
      3.995  0.7983E+02  0.4399E+02  0.8968E+03  0.6492E+03
      4.235  0.8005E+02  0.1786E+03  0.9161E+03  0.6921E+03
      4.476  0.7575E+02  0.4778E+02  0.9343E+03  0.7036E+03
      4.716  0.2869E+02  0.1660E+01  0.9412E+03  0.7040E+03
      4.957  0.6460E+02  0.0000E+00  0.9567E+03  0.7040E+03
      5.197  0.1367E+02  0.0000E+00  0.9600E+03  0.7040E+03
      5.437  0.0000E+00  0.0000E+00  0.9600E+03  0.7040E+03
      5.678  0.0000E+00  0.0000E+00  0.9600E+03  0.7040E+03
      5.918  0.0000E+00  0.0000E+00  0.9600E+03  0.7040E+03
      6.159  0.0000E+00  0.8963E-07  0.9600E+03  0.7040E+03
      6.399  0.0000E+00  0.1032E+01  0.9600E+03  0.7042E+03
      6.639  0.0000E+00  0.1013E+02  0.9600E+03  0.7067E+03
      6.880  0.0000E+00  0.2655E+02  0.9600E+03  0.7131E+03
      7.120  0.2886E-16  0.6587E+02  0.9600E+03  0.7289E+03
      7.361  0.5886E-01  0.1114E+03  0.9600E+03  0.7557E+03
      7.601  0.1501E+01  0.1393E+03  0.9604E+03  0.7892E+03
      7.841  0.5139E+01  0.1182E+03  0.9616E+03  0.8176E+03
      8.082  0.7085E+01  0.1786E+03  0.9633E+03  0.8605E+03
      8.322  0.9299E+01  0.1458E+03  0.9655E+03  0.8956E+03
      8.563  0.1252E+02  0.6198E+02  0.9686E+03  0.9105E+03
      8.803  0.1447E+02  0.8255E+02  0.9720E+03  0.9303E+03
      9.043  0.2715E+02  0.7297E+02  0.9786E+03  0.9479E+03
      9.284  0.3345E+02  0.5734E+02  0.9866E+03  0.9616E+03
      9.524  0.3535E+02  0.2317E+02  0.9951E+03  0.9672E+03
      9.764  0.5324E+02  0.3405E+02  0.1008E+04  0.9754E+03
     10.005  0.5113E+02  0.2268E+02  0.1020E+04  0.9808E+03
     10.245  0.3390E+02  0.3875E+02  0.1028E+04  0.9902E+03
     10.486  0.2155E+02  0.4342E+02  0.1034E+04  0.1001E+04
     10.726  0.4557E+02  0.6108E+02  0.1044E+04  0.1015E+04
     10.966  0.3308E+02  0.4349E+02  0.1052E+04  0.1026E+04
     11.207  0.4356E+02  0.4020E+02  0.1063E+04  0.1035E+04
     11.447  0.7797E+02  0.3450E+02  0.1082E+04  0.1044E+04
     11.688  0.4285E+02  0.4376E+02  0.1092E+04  0.1054E+04
     11.928  0.6449E+02  0.5188E+02  0.1107E+04  0.1067E+04
     12.168  0.6670E+02  0.5750E+02  0.1123E+04  0.1080E+04
     12.409  0.6931E+02  0.5324E+02  0.1140E+04  0.1093E+04
     12.649  0.6092E+02  0.6693E+02  0.1155E+04  0.1109E+04
     12.890  0.5275E+02  0.7974E+02  0.1167E+04  0.1129E+04
     13.130  0.5859E+02  0.6464E+02  0.1182E+04  0.1144E+04
     13.370  0.4846E+02  0.6626E+02  0.1193E+04  0.1160E+04
     13.611  0.4028E+02  0.6463E+02  0.1203E+04  0.1176E+04
     13.851  0.1874E+02  0.5732E+02  0.1207E+04  0.1189E+04
     14.092  0.2521E+01  0.5308E+02  0.1208E+04  0.1202E+04
     14.332  0.0000E+00  0.2148E+02  0.1208E+04  0.1207E+04
     14.572  0.0000E+00  0.3069E+01  0.1208E+04  0.1208E+04
     14.813  0.0000E+00  0.3933E-05  0.1208E+04  0.1208E+04
     15.053  0.0000E+00  0.0000E+00  0.1208E+04  0.1208E+04
     15.294  0.0000E+00  0.0000E+00  0.1208E+04  0.1208E+04
     15.534  0.0000E+00  0.0000E+00  0.1208E+04  0.1208E+04
     15.774  0.0000E+00  0.0000E+00  0.1208E+04  0.1208E+04
     16.015  0.0000E+00  0.0000E+00  0.1208E+04  0.1208E+04
     16.255  0.0000E+00  0.0000E+00  0.1208E+04  0.1208E+04
     16.495  0.0000E+00  0.0000E+00  0.1208E+04  0.1208E+04
     16.736  0.0000E+00  0.0000E+00  0.1208E+04  0.1208E+04
     16.976  0.0000E+00  0.0000E+00  0.1208E+04  0.1208E+04
     17.217  0.0000E+00  0.0000E+00  0.1208E+04  0.1208E+04
     17.457  0.0000E+00  0.0000E+00  0.1208E+04  0.1208E+04
     17.697  0.0000E+00  0.0000E+00  0.1208E+04  0.1208E+04
