  224  224    1    2
  0.1357572E+02  0.1537960E-08  0.1537962E-08  0.1395899E-08  0.5000000E-15
  1.000000000000000E-004
  CAR 
 unknown system                          
   1664      8   1208
 
  0.0000000E+00  0.0000000E+00  0.0000000E+00  0.1250000E+00
    1      -51.142278    -46.391538   1.000000   1.000000
    2      -51.142064    -46.391134   1.000000   1.000000
    3      -51.141638    -46.390937   1.000000   1.000000
    4      -51.141534    -46.390791   1.000000   1.000000
    5      -51.141408    -46.390653   1.000000   1.000000
    6      -51.141339    -46.390579   1.000000   1.000000
    7      -51.141219    -46.390420   1.000000   1.000000
    8      -51.141206    -46.390377   1.000000   1.000000
    9      -51.141182    -46.390337   1.000000   1.000000
   10      -51.141131    -46.390272   1.000000   1.000000
   11      -51.141029    -46.390191   1.000000   1.000000
   12      -51.141008    -46.390143   1.000000   1.000000
   13      -51.140972    -46.390099   1.000000   1.000000
   14      -51.140933    -46.390056   1.000000   1.000000
   15      -51.140910    -46.390019   1.000000   1.000000
   16      -51.140824    -46.389918   1.000000   1.000000
   17      -51.140795    -46.389878   1.000000   1.000000
   18      -51.140772    -46.389837   1.000000   1.000000
   19      -51.140753    -46.389768   1.000000   1.000000
   20      -51.140631    -46.389664   1.000000   1.000000
   21      -51.140624    -46.389626   1.000000   1.000000
   22      -51.140588    -46.389595   1.000000   1.000000
   23      -51.140572    -46.389590   1.000000   1.000000
   24      -51.140556    -46.389571   1.000000   1.000000
   25      -51.140537    -46.389554   1.000000   1.000000
   26      -51.140526    -46.389526   1.000000   1.000000
   27      -51.140502    -46.389519   1.000000   1.000000
   28      -51.140495    -46.389467   1.000000   1.000000
   29      -51.140469    -46.389411   1.000000   1.000000
   30      -51.140429    -46.389378   1.000000   1.000000
   31      -51.140404    -46.389294   1.000000   1.000000
   32      -51.140351    -46.389254   1.000000   1.000000
   33      -51.140280    -46.389206   1.000000   1.000000
   34      -51.140222    -46.389133   1.000000   1.000000
   35      -51.140186    -46.389003   1.000000   1.000000
   36      -51.140152    -46.388981   1.000000   1.000000
   37      -51.140122    -46.388924   1.000000   1.000000
   38      -51.140112    -46.388873   1.000000   1.000000
   39      -51.140102    -46.388841   1.000000   1.000000
   40      -51.140069    -46.388833   1.000000   1.000000
   41      -51.140061    -46.388806   1.000000   1.000000
   42      -51.140045    -46.388790   1.000000   1.000000
   43      -51.140029    -46.388778   1.000000   1.000000
   44      -51.139975    -46.388752   1.000000   1.000000
   45      -51.139933    -46.388694   1.000000   1.000000
   46      -51.139930    -46.388672   1.000000   1.000000
   47      -51.139882    -46.388626   1.000000   1.000000
   48      -51.139845    -46.388537   1.000000   1.000000
   49      -51.139805    -46.388534   1.000000   1.000000
   50      -51.139774    -46.388482   1.000000   1.000000
   51      -51.139753    -46.388465   1.000000   1.000000
   52      -51.139723    -46.388405   1.000000   1.000000
   53      -51.139684    -46.388383   1.000000   1.000000
   54      -51.139650    -46.388319   1.000000   1.000000
   55      -51.139563    -46.388232   1.000000   1.000000
   56      -51.139561    -46.388220   1.000000   1.000000
   57      -51.139516    -46.388152   1.000000   1.000000
   58      -51.139506    -46.388109   1.000000   1.000000
   59      -51.139435    -46.388024   1.000000   1.000000
   60      -51.139339    -46.387923   1.000000   1.000000
   61      -51.139252    -46.387809   1.000000   1.000000
   62      -51.139186    -46.387730   1.000000   1.000000
   63      -51.138892    -46.387600   1.000000   1.000000
   64      -51.138716    -46.387223   1.000000   1.000000
   65      -49.648411    -45.929534   1.000000   1.000000
   66      -49.648242    -45.929437   1.000000   1.000000
   67      -49.647827    -45.929379   1.000000   1.000000
   68      -49.647769    -45.929305   1.000000   1.000000
   69      -49.647574    -45.928941   1.000000   1.000000
   70      -49.647540    -45.928912   1.000000   1.000000
   71      -49.647525    -45.928875   1.000000   1.000000
   72      -49.647487    -45.928853   1.000000   1.000000
   73      -49.647457    -45.928792   1.000000   1.000000
   74      -49.647387    -45.928760   1.000000   1.000000
   75      -49.647358    -45.928740   1.000000   1.000000
   76      -49.647350    -45.928723   1.000000   1.000000
   77      -49.647326    -45.928677   1.000000   1.000000
   78      -49.647299    -45.928658   1.000000   1.000000
   79      -49.647280    -45.928628   1.000000   1.000000
   80      -49.647231    -45.928614   1.000000   1.000000
   81      -49.647218    -45.928599   1.000000   1.000000
   82      -49.647180    -45.928578   1.000000   1.000000
   83      -49.647142    -45.928542   1.000000   1.000000
   84      -49.647118    -45.928495   1.000000   1.000000
   85      -49.647094    -45.928428   1.000000   1.000000
   86      -49.647075    -45.928397   1.000000   1.000000
   87      -49.647061    -45.928382   1.000000   1.000000
   88      -49.646996    -45.928340   1.000000   1.000000
   89      -49.646983    -45.928327   1.000000   1.000000
   90      -49.646975    -45.928305   1.000000   1.000000
   91      -49.646899    -45.928256   1.000000   1.000000
   92      -49.646833    -45.928241   1.000000   1.000000
   93      -49.646822    -45.928212   1.000000   1.000000
   94      -49.646764    -45.928189   1.000000   1.000000
   95      -49.646719    -45.928143   1.000000   1.000000
   96      -49.646697    -45.928137   1.000000   1.000000
   97      -49.646655    -45.928109   1.000000   1.000000
   98      -49.646623    -45.928068   1.000000   1.000000
   99      -49.646572    -45.928039   1.000000   1.000000
  100      -49.646548    -45.928028   1.000000   1.000000
  101      -49.646500    -45.927960   1.000000   1.000000
  102      -49.646486    -45.927941   1.000000   1.000000
  103      -49.646461    -45.927932   1.000000   1.000000
  104      -49.646399    -45.927909   1.000000   1.000000
  105      -49.646329    -45.927861   1.000000   1.000000
  106      -49.646310    -45.927825   1.000000   1.000000
  107      -49.646217    -45.927778   1.000000   1.000000
  108      -49.646190    -45.927742   1.000000   1.000000
  109      -49.646161    -45.927677   1.000000   1.000000
  110      -49.646135    -45.927653   1.000000   1.000000
  111      -49.646074    -45.927612   1.000000   1.000000
  112      -49.646052    -45.927569   1.000000   1.000000
  113      -49.646010    -45.927496   1.000000   1.000000
  114      -49.646005    -45.927469   1.000000   1.000000
  115      -49.645986    -45.927448   1.000000   1.000000
  116      -49.645952    -45.927408   1.000000   1.000000
  117      -49.645930    -45.927396   1.000000   1.000000
  118      -49.645904    -45.927384   1.000000   1.000000
  119      -49.645873    -45.927380   1.000000   1.000000
  120      -49.645837    -45.927369   1.000000   1.000000
  121      -49.645766    -45.927272   1.000000   1.000000
  122      -49.645721    -45.927244   1.000000   1.000000
  123      -49.645677    -45.927200   1.000000   1.000000
  124      -49.645644    -45.927190   1.000000   1.000000
  125      -49.645608    -45.927183   1.000000   1.000000
  126      -49.645573    -45.927143   1.000000   1.000000
  127      -49.645558    -45.927138   1.000000   1.000000
  128      -49.645533    -45.927127   1.000000   1.000000
  129      -49.645519    -45.927106   1.000000   1.000000
  130      -49.645476    -45.927087   1.000000   1.000000
  131      -49.645468    -45.927068   1.000000   1.000000
  132      -49.645446    -45.927057   1.000000   1.000000
  133      -49.645360    -45.927003   1.000000   1.000000
  134      -49.645332    -45.926991   1.000000   1.000000
  135      -49.645329    -45.926966   1.000000   1.000000
  136      -49.645314    -45.926945   1.000000   1.000000
  137      -49.645290    -45.926936   1.000000   1.000000
  138      -49.645257    -45.926909   1.000000   1.000000
  139      -49.645247    -45.926884   1.000000   1.000000
  140      -49.645227    -45.926867   1.000000   1.000000
  141      -49.645204    -45.926846   1.000000   1.000000
  142      -49.645193    -45.926807   1.000000   1.000000
  143      -49.645184    -45.926802   1.000000   1.000000
  144      -49.645155    -45.926781   1.000000   1.000000
  145      -49.645151    -45.926748   1.000000   1.000000
  146      -49.645126    -45.926743   1.000000   1.000000
  147      -49.645119    -45.926668   1.000000   1.000000
  148      -49.645111    -45.926641   1.000000   1.000000
  149      -49.645050    -45.926633   1.000000   1.000000
  150      -49.645036    -45.926612   1.000000   1.000000
  151      -49.644983    -45.926606   1.000000   1.000000
  152      -49.644962    -45.926569   1.000000   1.000000
  153      -49.644883    -45.926546   1.000000   1.000000
  154      -49.644833    -45.926518   1.000000   1.000000
  155      -49.644819    -45.926497   1.000000   1.000000
  156      -49.644800    -45.926490   1.000000   1.000000
  157      -49.644784    -45.926470   1.000000   1.000000
  158      -49.644735    -45.926444   1.000000   1.000000
  159      -49.644711    -45.926424   1.000000   1.000000
  160      -49.644691    -45.926406   1.000000   1.000000
  161      -49.644641    -45.926367   1.000000   1.000000
  162      -49.644629    -45.926366   1.000000   1.000000
  163      -49.644610    -45.926349   1.000000   1.000000
  164      -49.644573    -45.926339   1.000000   1.000000
  165      -49.644538    -45.926329   1.000000   1.000000
  166      -49.644493    -45.926303   1.000000   1.000000
  167      -49.644445    -45.926294   1.000000   1.000000
  168      -49.644435    -45.926275   1.000000   1.000000
  169      -49.644367    -45.926208   1.000000   1.000000
  170      -49.644342    -45.926160   1.000000   1.000000
  171      -49.644336    -45.926137   1.000000   1.000000
  172      -49.644279    -45.926120   1.000000   1.000000
  173      -49.644256    -45.926065   1.000000   1.000000
  174      -49.644209    -45.926039   1.000000   1.000000
  175      -49.644180    -45.926028   1.000000   1.000000
  176      -49.644149    -45.925993   1.000000   1.000000
  177      -49.644074    -45.925952   1.000000   1.000000
  178      -49.644057    -45.925933   1.000000   1.000000
  179      -49.644021    -45.925906   1.000000   1.000000
  180      -49.643990    -45.925881   1.000000   1.000000
  181      -49.643982    -45.925859   1.000000   1.000000
  182      -49.643971    -45.925834   1.000000   1.000000
  183      -49.643916    -45.925750   1.000000   1.000000
  184      -49.643880    -45.925706   1.000000   1.000000
  185      -49.643792    -45.925564   1.000000   1.000000
  186      -49.643748    -45.925534   1.000000   1.000000
  187      -49.643640    -45.925497   1.000000   1.000000
  188      -49.643605    -45.925472   1.000000   1.000000
  189      -49.643542    -45.925403   1.000000   1.000000
  190      -49.643485    -45.925358   1.000000   1.000000
  191      -49.643179    -45.925177   1.000000   1.000000
  192      -49.643139    -45.925139   1.000000   1.000000
  193      -39.641073    -39.640156   1.000000   1.000000
  194      -39.641039    -39.640121   1.000000   1.000000
  195      -39.633906    -39.633032   1.000000   1.000000
  196      -39.633477    -39.632604   1.000000   1.000000
  197      -39.633473    -39.632600   1.000000   1.000000
  198      -39.633389    -39.632516   1.000000   1.000000
  199      -39.633378    -39.632505   1.000000   1.000000
  200      -39.633367    -39.632495   1.000000   1.000000
  201      -39.633365    -39.632493   1.000000   1.000000
  202      -39.632808    -39.631934   1.000000   1.000000
  203      -39.627976    -39.627138   1.000000   1.000000
  204      -39.627923    -39.627084   1.000000   1.000000
  205      -39.627827    -39.626989   1.000000   1.000000
  206      -39.627791    -39.626953   1.000000   1.000000
  207      -39.627786    -39.626948   1.000000   1.000000
  208      -39.627721    -39.626883   1.000000   1.000000
  209      -39.627480    -39.626642   1.000000   1.000000
  210      -39.627363    -39.626523   1.000000   1.000000
  211      -39.616269    -39.615495   1.000000   1.000000
  212      -39.616225    -39.615451   1.000000   1.000000
  213      -39.616075    -39.615298   1.000000   1.000000
  214      -39.616014    -39.615237   1.000000   1.000000
  215      -39.615936    -39.615160   1.000000   1.000000
  216      -39.615656    -39.614876   1.000000   1.000000
  217      -39.615546    -39.614766   1.000000   1.000000
  218      -39.615488    -39.614706   1.000000   1.000000
  219      -39.615423    -39.614652   1.000000   1.000000
  220      -39.615320    -39.614550   1.000000   1.000000
  221      -39.615264    -39.614497   1.000000   1.000000
  222      -39.615261    -39.614494   1.000000   1.000000
  223      -39.615185    -39.614418   1.000000   1.000000
  224      -39.615181    -39.614415   1.000000   1.000000
  225      -39.615117    -39.614349   1.000000   1.000000
  226      -39.615045    -39.614277   1.000000   1.000000
  227      -39.615031    -39.614262   1.000000   1.000000
  228      -39.614980    -39.614211   1.000000   1.000000
  229      -39.614932    -39.614163   1.000000   1.000000
  230      -39.614931    -39.614162   1.000000   1.000000
  231      -39.614918    -39.614148   1.000000   1.000000
  232      -39.614872    -39.614103   1.000000   1.000000
  233      -39.614774    -39.614004   1.000000   1.000000
  234      -39.614642    -39.613878   1.000000   1.000000
  235      -39.614379    -39.613621   1.000000   1.000000
  236      -39.614314    -39.613557   1.000000   1.000000
  237      -39.614130    -39.613369   1.000000   1.000000
  238      -39.613310    -39.612546   1.000000   1.000000
  239      -39.604051    -39.603331   1.000000   1.000000
  240      -39.603928    -39.603208   1.000000   1.000000
  241      -39.603902    -39.603184   1.000000   1.000000
  242      -39.603829    -39.603110   1.000000   1.000000
  243      -39.603821    -39.603102   1.000000   1.000000
  244      -39.603798    -39.603079   1.000000   1.000000
  245      -39.603567    -39.602846   1.000000   1.000000
  246      -39.603462    -39.602743   1.000000   1.000000
  247      -39.599943    -39.599236   1.000000   1.000000
  248      -39.599636    -39.598930   1.000000   1.000000
  249      -39.599634    -39.598928   1.000000   1.000000
  250      -39.599534    -39.598828   1.000000   1.000000
  251      -39.599530    -39.598824   1.000000   1.000000
  252      -39.599512    -39.598806   1.000000   1.000000
  253      -39.599354    -39.598649   1.000000   1.000000
  254      -39.598963    -39.598255   1.000000   1.000000
  255      -39.593320    -39.592637   1.000000   1.000000
  256      -39.593148    -39.592464   1.000000   1.000000
  257      -12.747207    -12.467736   1.000000   1.000000
  258      -12.747016    -12.467538   1.000000   1.000000
  259      -12.719590    -12.439840   1.000000   1.000000
  260      -12.719421    -12.439660   1.000000   1.000000
  261      -12.719413    -12.439653   1.000000   1.000000
  262      -12.719275    -12.439530   1.000000   1.000000
  263      -12.719247    -12.439502   1.000000   1.000000
  264      -12.719201    -12.439442   1.000000   1.000000
  265      -12.719134    -12.439380   1.000000   1.000000
  266      -12.718702    -12.438927   1.000000   1.000000
  267      -12.697167    -12.416989   1.000000   1.000000
  268      -12.697068    -12.416897   1.000000   1.000000
  269      -12.694843    -12.415226   1.000000   1.000000
  270      -12.694697    -12.415096   1.000000   1.000000
  271      -12.694644    -12.415028   1.000000   1.000000
  272      -12.694578    -12.414962   1.000000   1.000000
  273      -12.692362    -12.413284   1.000000   1.000000
  274      -12.692222    -12.413169   1.000000   1.000000
  275      -12.691333    -12.411292   1.000000   1.000000
  276      -12.691190    -12.411163   1.000000   1.000000
  277      -12.691079    -12.411049   1.000000   1.000000
  278      -12.690998    -12.410968   1.000000   1.000000
  279      -12.672847    -12.392828   1.000000   1.000000
  280      -12.672610    -12.392588   1.000000   1.000000
  281      -12.672552    -12.392538   1.000000   1.000000
  282      -12.672422    -12.392405   1.000000   1.000000
  283      -12.667775    -12.388881   1.000000   1.000000
  284      -12.667533    -12.388634   1.000000   1.000000
  285      -12.667482    -12.388592   1.000000   1.000000
  286      -12.667335    -12.388435   1.000000   1.000000
  287      -12.654475    -12.374518   1.000000   1.000000
  288      -12.643694    -12.365966   1.000000   1.000000
  289       -7.800052     -7.599055   1.000000   1.000000
  290       -7.748256     -7.551536   1.000000   1.000000
  291       -7.505802     -7.319551   1.000000   1.000000
  292       -7.505435     -7.319182   1.000000   1.000000
  293       -7.505307     -7.319051   1.000000   1.000000
  294       -7.505010     -7.318747   1.000000   1.000000
  295       -7.501350     -7.309227   1.000000   1.000000
  296       -7.501019     -7.308880   1.000000   1.000000
  297       -7.500867     -7.308730   1.000000   1.000000
  298       -7.500600     -7.308452   1.000000   1.000000
  299       -7.315369     -7.117923   1.000000   1.000000
  300       -7.314989     -7.117531   1.000000   1.000000
  301       -7.297077     -7.093796   1.000000   1.000000
  302       -7.296993     -7.093720   1.000000   1.000000
  303       -7.296691     -7.093401   1.000000   1.000000
  304       -7.296593     -7.093312   1.000000   1.000000
  305       -7.269453     -7.062162   1.000000   1.000000
  306       -7.269073     -7.061771   1.000000   1.000000
  307       -7.088681     -6.894284   1.000000   1.000000
  308       -7.085062     -6.893871   1.000000   1.000000
  309       -7.084680     -6.893856   1.000000   1.000000
  310       -7.084653     -6.893461   1.000000   1.000000
  311       -7.084269     -6.796763   1.000000   1.000000
  312       -7.046602     -6.783836   1.000000   1.000000
  313       -7.000736     -6.768366   1.000000   1.000000
  314       -6.999877     -6.767933   1.000000   1.000000
  315       -6.999866     -6.767922   1.000000   1.000000
  316       -6.999765     -6.767535   1.000000   1.000000
  317       -6.999751     -6.767027   1.000000   1.000000
  318       -6.999710     -6.766194   1.000000   1.000000
  319       -6.999696     -6.766184   1.000000   1.000000
  320       -6.999059     -6.766082   1.000000   1.000000
  321       -6.994531     -6.766068   1.000000   1.000000
  322       -6.994262     -6.766021   1.000000   1.000000
  323       -6.994105     -6.766017   1.000000   1.000000
  324       -6.993756     -6.765303   1.000000   1.000000
  325       -6.956220     -6.745303   1.000000   1.000000
  326       -6.955791     -6.744967   1.000000   1.000000
  327       -6.955762     -6.744811   1.000000   1.000000
  328       -6.955405     -6.744493   1.000000   1.000000
  329       -6.948542     -6.697687   1.000000   1.000000
  330       -6.948142     -6.697269   1.000000   1.000000
  331       -6.929088     -6.689563   1.000000   1.000000
  332       -6.928682     -6.689143   1.000000   1.000000
  333       -6.928554     -6.689009   1.000000   1.000000
  334       -6.928250     -6.688702   1.000000   1.000000
  335       -6.911341     -6.640208   1.000000   1.000000
  336       -6.911320     -6.639145   1.000000   1.000000
  337       -6.885964     -6.639136   1.000000   1.000000
  338       -6.885824     -6.639035   1.000000   1.000000
  339       -6.885494     -6.639016   1.000000   1.000000
  340       -6.885446     -6.638971   1.000000   1.000000
  341       -6.877693     -6.638962   1.000000   1.000000
  342       -6.876921     -6.638675   1.000000   1.000000
  343       -6.876911     -6.638572   1.000000   1.000000
  344       -6.876811     -6.638442   1.000000   1.000000
  345       -6.876797     -6.638225   1.000000   1.000000
  346       -6.876753     -6.637708   1.000000   1.000000
  347       -6.876739     -6.628100   1.000000   1.000000
  348       -6.876033     -6.628080   1.000000   1.000000
  349       -6.832827     -6.586876   1.000000   1.000000
  350       -6.832426     -6.586456   1.000000   1.000000
  351       -6.794304     -6.499131   1.000000   1.000000
  352       -6.794284     -6.499105   1.000000   1.000000
  353       -1.525490     -0.414667   1.000000   1.000000
  354       -1.467877     -0.414533   1.000000   1.000000
  355       -1.467700     -0.414402   1.000000   1.000000
  356       -1.467544     -0.414366   1.000000   1.000000
  357       -1.467443      0.026206   1.000000   1.000000
  358       -1.460450      0.026325   1.000000   1.000000
  359       -1.460251      0.026515   1.000000   1.000000
  360       -1.460133      0.026565   1.000000   1.000000
  361       -1.460091      0.037761   1.000000   1.000000
  362       -1.421407      0.037903   1.000000   1.000000
  363       -1.421270      0.037961   1.000000   1.000000
  364       -1.382962      0.038068   1.000000   1.000000
  365       -1.382713      0.038109   1.000000   1.000000
  366       -1.382690      0.038241   1.000000   1.000000
  367       -1.382636      0.038287   1.000000   1.000000
  368       -1.332719      0.038324   1.000000   1.000000
  369       -1.332704      0.102917   1.000000   1.000000
  370       -1.332668      0.102965   1.000000   1.000000
  371       -1.332452      0.207408   1.000000   1.000000
  372       -1.332393      0.207570   1.000000   1.000000
  373       -1.332351      0.207653   1.000000   1.000000
  374       -1.332340      0.207710   1.000000   1.000000
  375       -1.332195      0.304217   1.000000   1.000000
  376       -1.292674      0.392440   1.000000   1.000000
  377       -1.292516      0.392560   1.000000   1.000000
  378       -1.292343      0.392742   1.000000   1.000000
  379       -1.292282      0.392826   1.000000   1.000000
  380       -1.256831      0.490931   1.000000   1.000000
  381       -1.256715      0.490955   1.000000   1.000000
  382       -1.232204      0.497411   1.000000   1.000000
  383       -1.232094      0.497643   1.000000   1.000000
  384       -1.220364      0.497722   1.000000   1.000000
  385       -0.822800      0.498038   1.000000   1.000000
  386       -0.822741      0.510592   1.000000   1.000000
  387       -0.822646      0.510718   1.000000   1.000000
  388       -0.822593      0.531094   1.000000   1.000000
  389       -0.722710      0.531244   1.000000   1.000000
  390       -0.722567      0.531267   1.000000   1.000000
  391       -0.699142      0.531328   1.000000   1.000000
  392       -0.699074      0.574016   1.000000   1.000000
  393       -0.699005      0.574270   1.000000   1.000000
  394       -0.698943      0.574309   1.000000   1.000000
  395       -0.688489      0.574390   1.000000   1.000000
  396       -0.688447      0.574428   1.000000   1.000000
  397       -0.688189      0.574461   1.000000   1.000000
  398       -0.688140      0.574491   1.000000   1.000000
  399       -0.666724      0.574623   1.000000   1.000000
  400       -0.666701      0.638664   1.000000   1.000000
  401       -0.666415      0.666150   1.000000   1.000000
  402       -0.666333      0.666495   1.000000   1.000000
  403       -0.651891      0.733069   1.000000   1.000000
  404       -0.651859      0.733229   1.000000   1.000000
  405       -0.651831      0.931309   1.000000   1.000000
  406       -0.651793      0.932505   1.000000   1.000000
  407       -0.589424      0.935504   1.000000   1.000000
  408       -0.589375      0.935776   1.000000   1.000000
  409       -0.576677      0.948787   1.000000   1.000000
  410       -0.576599      0.948899   1.000000   1.000000
  411       -0.576441      0.948977   1.000000   1.000000
  412       -0.576415      0.949124   1.000000   1.000000
  413       -0.553428      0.986128   1.000000   1.000000
  414       -0.553348      0.986173   1.000000   1.000000
  415       -0.552995      0.986215   1.000000   1.000000
  416       -0.552984      0.986309   1.000000   1.000000
  417       -0.497646      0.992767   1.000000   1.000000
  418       -0.496889      0.992963   1.000000   1.000000
  419       -0.472920      1.008750   1.000000   1.000000
  420       -0.472682      1.008956   1.000000   1.000000
  421       -0.461652      1.008972   1.000000   1.000000
  422       -0.461535      1.009231   1.000000   1.000000
  423       -0.461164      1.018424   1.000000   1.000000
  424       -0.461150      1.049072   1.000000   1.000000
  425       -0.459855      1.049219   1.000000   1.000000
  426       -0.459751      1.051600   1.000000   1.000000
  427       -0.459381      1.051675   1.000000   1.000000
  428       -0.459328      1.051810   1.000000   1.000000
  429       -0.410089      1.051892   1.000000   1.000000
  430       -0.409910      1.078710   1.000000   1.000000
  431       -0.407664      1.078763   1.000000   1.000000
  432       -0.407551      1.078871   1.000000   1.000000
  433       -0.407510      1.078982   1.000000   1.000000
  434       -0.407455      1.079814   1.000000   1.000000
  435       -0.407324      1.079884   1.000000   1.000000
  436       -0.407228      1.079953   1.000000   1.000000
  437       -0.383295      1.080103   1.000000   1.000000
  438       -0.383250      1.192729   1.000000   1.000000
  439       -0.378181      1.193081   1.000000   1.000000
  440       -0.368828      1.376586   1.000000   1.000000
  441       -0.368797      1.390506   1.000000   1.000000
  442       -0.368772      1.391150   1.000000   1.000000
  443       -0.368699      1.391211   1.000000   1.000000
  444       -0.368678      1.391317   1.000000   1.000000
  445       -0.368647      1.391355   1.000000   1.000000
  446       -0.368624      1.437470   1.000000   1.000000
  447       -0.368549      1.450369   1.000000   1.000000
  448       -0.353588      1.526275   1.000000   1.000000
  449       -0.353518      1.526408   1.000000   1.000000
  450       -0.349017      1.526478   1.000000   1.000000
  451       -0.341737      1.526760   1.000000   1.000000
  452       -0.335816      1.528836   1.000000   1.000000
  453       -0.335781      1.528969   1.000000   1.000000
  454       -0.335402      1.529034   1.000000   1.000000
  455       -0.335268      1.529459   1.000000   1.000000
  456       -0.334165      1.558216   1.000000   1.000000
  457       -0.334152      1.558251   1.000000   1.000000
  458       -0.334123      1.558377   1.000000   1.000000
  459       -0.334041      1.558450   1.000000   1.000000
  460       -0.324280      1.566683   1.000000   1.000000
  461       -0.324250      1.566685   1.000000   1.000000
  462       -0.323872      1.566945   1.000000   1.000000
  463       -0.323707      1.567071   1.000000   1.000000
  464       -0.321677      1.568180   1.000000   1.000000
  465       -0.321652      1.568225   1.000000   1.000000
  466       -0.321209      1.568511   1.000000   1.000000
  467       -0.321028      1.568648   1.000000   1.000000
  468       -0.303798      1.586438   1.000000   1.000000
  469       -0.295858      1.586764   1.000000   1.000000
  470       -0.288048      1.695532   1.000000   1.000000
  471       -0.287937      1.695821   1.000000   1.000000
  472       -0.287739      1.740777   1.000000   1.000000
  473       -0.287702      1.741092   1.000000   1.000000
  474       -0.280424      1.741208   1.000000   1.000000
  475       -0.280353      1.741376   1.000000   1.000000
  476       -0.275173      1.746653   1.000000   1.000000
  477       -0.275071      1.746843   1.000000   1.000000
  478       -0.274822      1.746882   1.000000   1.000000
  479       -0.274736      1.747595   1.000000   1.000000
  480       -0.241684      1.778987   1.000000   1.000000
  481       -0.241632      1.780598   1.000000   1.000000
  482       -0.241616      1.780670   1.000000   1.000000
  483       -0.241564      1.836854   1.000000   1.000000
  484       -0.241388      1.836956   1.000000   1.000000
  485       -0.241351      1.837355   1.000000   1.000000
  486       -0.241318      1.837388   1.000000   1.000000
  487       -0.241275      1.837735   1.000000   1.000000
  488       -0.207403      1.837864   1.000000   1.000000
  489       -0.207397      1.838415   1.000000   1.000000
  490       -0.199703      1.838497   1.000000   1.000000
  491       -0.199590      1.866183   1.000000   1.000000
  492       -0.199545      1.866387   1.000000   1.000000
  493       -0.199437      1.913327   1.000000   1.000000
  494       -0.194021      1.913440   1.000000   1.000000
  495       -0.193999      1.913522   1.000000   1.000000
  496       -0.163974      1.913566   1.000000   1.000000
  497       -0.163940      1.913597   1.000000   1.000000
  498       -0.163766      1.913608   1.000000   1.000000
  499       -0.163745      1.913713   1.000000   1.000000
  500       -0.156730      1.914173   1.000000   1.000000
  501       -0.156623      1.926766   1.000000   1.000000
  502       -0.156174      1.926953   1.000000   1.000000
  503       -0.156166      1.927125   1.000000   1.000000
  504       -0.139068      1.927288   1.000000   1.000000
  505       -0.139020      2.133204   1.000000   1.000000
  506       -0.138838      2.133361   1.000000   1.000000
  507       -0.138806      2.191246   1.000000   1.000000
  508       -0.091025      2.193180   1.000000   1.000000
  509       -0.090896      2.300591   1.000000   1.000000
  510       -0.082549      2.300768   1.000000   1.000000
  511       -0.082486      2.301108   1.000000   1.000000
  512       -0.082422      2.301136   1.000000   1.000000