 108 108   0   0
  0.1367340E+02  0.1151037E-08  0.1132740E-08  0.1132740E-08  0.5000000E-15
  1.000000000000000E-004
  CAR 
 unknown system                          
     17.82350811    -54.65727991  301      5.29037185      1.00000000
    -54.657  0.0000E+00  0.0000E+00  0.0000E+00  0.0000E+00
    -54.416  0.0000E+00  0.0000E+00  0.0000E+00  0.0000E+00
    -54.174  0.0000E+00  0.0000E+00  0.0000E+00  0.0000E+00
    -53.932  0.0000E+00  0.0000E+00  0.0000E+00  0.0000E+00
    -53.691  0.0000E+00  0.0000E+00  0.0000E+00  0.0000E+00
    -53.449  0.0000E+00  0.0000E+00  0.0000E+00  0.0000E+00
    -53.208  0.0000E+00  0.0000E+00  0.0000E+00  0.0000E+00
    -52.966  0.0000E+00  0.0000E+00  0.0000E+00  0.0000E+00
    -52.724  0.0000E+00  0.0000E+00  0.0000E+00  0.0000E+00
    -52.483  0.0000E+00  0.0000E+00  0.0000E+00  0.0000E+00
    -52.241  0.0000E+00  0.0000E+00  0.0000E+00  0.0000E+00
    -52.000  0.0000E+00  0.0000E+00  0.0000E+00  0.0000E+00
    -51.758  0.0000E+00  0.0000E+00  0.0000E+00  0.0000E+00
    -51.516  0.4035E-03  0.0000E+00  0.9749E-04  0.0000E+00
    -51.275  0.9843E+02  0.0000E+00  0.2378E+02  0.0000E+00
    -51.033  0.4331E+02  0.0000E+00  0.3424E+02  0.0000E+00
    -50.792  0.7272E+01  0.0000E+00  0.3600E+02  0.0000E+00
    -50.550  0.0000E+00  0.0000E+00  0.3600E+02  0.0000E+00
    -50.308  0.1907E-03  0.0000E+00  0.3600E+02  0.0000E+00
    -50.067  0.9796E+02  0.0000E+00  0.5967E+02  0.0000E+00
    -49.825  0.5083E+02  0.0000E+00  0.7195E+02  0.0000E+00
    -49.584  0.1236E+03  0.0000E+00  0.1018E+03  0.0000E+00
    -49.342  0.2558E+02  0.0000E+00  0.1080E+03  0.0000E+00
    -49.100  0.0000E+00  0.0000E+00  0.1080E+03  0.0000E+00
    -48.859  0.0000E+00  0.0000E+00  0.1080E+03  0.0000E+00
    -48.617  0.0000E+00  0.0000E+00  0.1080E+03  0.0000E+00
    -48.376  0.0000E+00  0.0000E+00  0.1080E+03  0.0000E+00
    -48.134  0.0000E+00  0.0000E+00  0.1080E+03  0.0000E+00
    -47.892  0.0000E+00  0.0000E+00  0.1080E+03  0.0000E+00
    -47.651  0.0000E+00  0.0000E+00  0.1080E+03  0.0000E+00
    -47.409  0.0000E+00  0.0000E+00  0.1080E+03  0.0000E+00
    -47.168  0.0000E+00  0.0000E+00  0.1080E+03  0.0000E+00
    -46.926  0.0000E+00  0.0000E+00  0.1080E+03  0.0000E+00
    -46.684  0.0000E+00  0.1416E+01  0.1080E+03  0.3421E+00
    -46.443  0.0000E+00  0.9795E+02  0.1080E+03  0.2401E+02
    -46.201  0.0000E+00  0.1757E+03  0.1080E+03  0.6647E+02
    -45.960  0.0000E+00  0.8333E+02  0.1080E+03  0.8660E+02
    -45.718  0.0000E+00  0.8858E+02  0.1080E+03  0.1080E+03
    -45.476  0.0000E+00  0.3690E-03  0.1080E+03  0.1080E+03
    -45.235  0.0000E+00  0.0000E+00  0.1080E+03  0.1080E+03
    -44.993  0.0000E+00  0.0000E+00  0.1080E+03  0.1080E+03
    -44.752  0.0000E+00  0.0000E+00  0.1080E+03  0.1080E+03
    -44.510  0.0000E+00  0.0000E+00  0.1080E+03  0.1080E+03
    -44.268  0.0000E+00  0.0000E+00  0.1080E+03  0.1080E+03
    -44.027  0.0000E+00  0.0000E+00  0.1080E+03  0.1080E+03
    -43.785  0.0000E+00  0.0000E+00  0.1080E+03  0.1080E+03
    -43.544  0.0000E+00  0.0000E+00  0.1080E+03  0.1080E+03
    -43.302  0.0000E+00  0.0000E+00  0.1080E+03  0.1080E+03
    -43.060  0.0000E+00  0.0000E+00  0.1080E+03  0.1080E+03
    -42.819  0.0000E+00  0.0000E+00  0.1080E+03  0.1080E+03
    -42.577  0.0000E+00  0.0000E+00  0.1080E+03  0.1080E+03
    -42.336  0.0000E+00  0.0000E+00  0.1080E+03  0.1080E+03
    -42.094  0.0000E+00  0.0000E+00  0.1080E+03  0.1080E+03
    -41.852  0.0000E+00  0.0000E+00  0.1080E+03  0.1080E+03
    -41.611  0.0000E+00  0.0000E+00  0.1080E+03  0.1080E+03
    -41.369  0.0000E+00  0.0000E+00  0.1080E+03  0.1080E+03
    -41.128  0.0000E+00  0.0000E+00  0.1080E+03  0.1080E+03
    -40.886  0.0000E+00  0.0000E+00  0.1080E+03  0.1080E+03
    -40.644  0.0000E+00  0.0000E+00  0.1080E+03  0.1080E+03
    -40.403  0.3754E-12  0.7323E-12  0.1080E+03  0.1080E+03
    -40.161  0.1698E+02  0.1920E+02  0.1121E+03  0.1126E+03
    -39.920  0.8236E+02  0.8013E+02  0.1320E+03  0.1320E+03
    -39.678  0.0000E+00  0.0000E+00  0.1320E+03  0.1320E+03
    -39.436  0.0000E+00  0.0000E+00  0.1320E+03  0.1320E+03
    -39.195  0.0000E+00  0.0000E+00  0.1320E+03  0.1320E+03
    -38.953  0.0000E+00  0.0000E+00  0.1320E+03  0.1320E+03
    -38.712  0.0000E+00  0.0000E+00  0.1320E+03  0.1320E+03
    -38.470  0.0000E+00  0.0000E+00  0.1320E+03  0.1320E+03
    -38.228  0.0000E+00  0.0000E+00  0.1320E+03  0.1320E+03
    -37.987  0.0000E+00  0.0000E+00  0.1320E+03  0.1320E+03
    -37.745  0.0000E+00  0.0000E+00  0.1320E+03  0.1320E+03
    -37.503  0.0000E+00  0.0000E+00  0.1320E+03  0.1320E+03
    -37.262  0.0000E+00  0.0000E+00  0.1320E+03  0.1320E+03
    -37.020  0.0000E+00  0.0000E+00  0.1320E+03  0.1320E+03
    -36.779  0.0000E+00  0.0000E+00  0.1320E+03  0.1320E+03
    -36.537  0.0000E+00  0.0000E+00  0.1320E+03  0.1320E+03
    -36.295  0.0000E+00  0.0000E+00  0.1320E+03  0.1320E+03
    -36.054  0.0000E+00  0.0000E+00  0.1320E+03  0.1320E+03
    -35.812  0.0000E+00  0.0000E+00  0.1320E+03  0.1320E+03
    -35.571  0.0000E+00  0.0000E+00  0.1320E+03  0.1320E+03
    -35.329  0.0000E+00  0.0000E+00  0.1320E+03  0.1320E+03
    -35.087  0.0000E+00  0.0000E+00  0.1320E+03  0.1320E+03
    -34.846  0.0000E+00  0.0000E+00  0.1320E+03  0.1320E+03
    -34.604  0.0000E+00  0.0000E+00  0.1320E+03  0.1320E+03
    -34.363  0.0000E+00  0.0000E+00  0.1320E+03  0.1320E+03
    -34.121  0.0000E+00  0.0000E+00  0.1320E+03  0.1320E+03
    -33.879  0.0000E+00  0.0000E+00  0.1320E+03  0.1320E+03
    -33.638  0.0000E+00  0.0000E+00  0.1320E+03  0.1320E+03
    -33.396  0.0000E+00  0.0000E+00  0.1320E+03  0.1320E+03
    -33.155  0.0000E+00  0.0000E+00  0.1320E+03  0.1320E+03
    -32.913  0.0000E+00  0.0000E+00  0.1320E+03  0.1320E+03
    -32.671  0.0000E+00  0.0000E+00  0.1320E+03  0.1320E+03
    -32.430  0.0000E+00  0.0000E+00  0.1320E+03  0.1320E+03
    -32.188  0.0000E+00  0.0000E+00  0.1320E+03  0.1320E+03
    -31.947  0.0000E+00  0.0000E+00  0.1320E+03  0.1320E+03
    -31.705  0.0000E+00  0.0000E+00  0.1320E+03  0.1320E+03
    -31.463  0.0000E+00  0.0000E+00  0.1320E+03  0.1320E+03
    -31.222  0.0000E+00  0.0000E+00  0.1320E+03  0.1320E+03
    -30.980  0.0000E+00  0.0000E+00  0.1320E+03  0.1320E+03
    -30.739  0.0000E+00  0.0000E+00  0.1320E+03  0.1320E+03
    -30.497  0.0000E+00  0.0000E+00  0.1320E+03  0.1320E+03
    -30.255  0.0000E+00  0.0000E+00  0.1320E+03  0.1320E+03
    -30.014  0.0000E+00  0.0000E+00  0.1320E+03  0.1320E+03
    -29.772  0.0000E+00  0.0000E+00  0.1320E+03  0.1320E+03
    -29.531  0.0000E+00  0.0000E+00  0.1320E+03  0.1320E+03
    -29.289  0.0000E+00  0.0000E+00  0.1320E+03  0.1320E+03
    -29.047  0.0000E+00  0.0000E+00  0.1320E+03  0.1320E+03
    -28.806  0.0000E+00  0.0000E+00  0.1320E+03  0.1320E+03
    -28.564  0.0000E+00  0.0000E+00  0.1320E+03  0.1320E+03
    -28.323  0.0000E+00  0.0000E+00  0.1320E+03  0.1320E+03
    -28.081  0.0000E+00  0.0000E+00  0.1320E+03  0.1320E+03
    -27.839  0.0000E+00  0.0000E+00  0.1320E+03  0.1320E+03
    -27.598  0.0000E+00  0.0000E+00  0.1320E+03  0.1320E+03
    -27.356  0.0000E+00  0.0000E+00  0.1320E+03  0.1320E+03
    -27.115  0.0000E+00  0.0000E+00  0.1320E+03  0.1320E+03
    -26.873  0.0000E+00  0.0000E+00  0.1320E+03  0.1320E+03
    -26.631  0.0000E+00  0.0000E+00  0.1320E+03  0.1320E+03
    -26.390  0.0000E+00  0.0000E+00  0.1320E+03  0.1320E+03
    -26.148  0.0000E+00  0.0000E+00  0.1320E+03  0.1320E+03
    -25.907  0.0000E+00  0.0000E+00  0.1320E+03  0.1320E+03
    -25.665  0.0000E+00  0.0000E+00  0.1320E+03  0.1320E+03
    -25.423  0.0000E+00  0.0000E+00  0.1320E+03  0.1320E+03
    -25.182  0.0000E+00  0.0000E+00  0.1320E+03  0.1320E+03
    -24.940  0.0000E+00  0.0000E+00  0.1320E+03  0.1320E+03
    -24.699  0.0000E+00  0.0000E+00  0.1320E+03  0.1320E+03
    -24.457  0.0000E+00  0.0000E+00  0.1320E+03  0.1320E+03
    -24.215  0.0000E+00  0.0000E+00  0.1320E+03  0.1320E+03
    -23.974  0.0000E+00  0.0000E+00  0.1320E+03  0.1320E+03
    -23.732  0.0000E+00  0.0000E+00  0.1320E+03  0.1320E+03
    -23.491  0.0000E+00  0.0000E+00  0.1320E+03  0.1320E+03
    -23.249  0.0000E+00  0.0000E+00  0.1320E+03  0.1320E+03
    -23.007  0.0000E+00  0.0000E+00  0.1320E+03  0.1320E+03
    -22.766  0.0000E+00  0.0000E+00  0.1320E+03  0.1320E+03
    -22.524  0.0000E+00  0.0000E+00  0.1320E+03  0.1320E+03
    -22.283  0.0000E+00  0.0000E+00  0.1320E+03  0.1320E+03
    -22.041  0.0000E+00  0.0000E+00  0.1320E+03  0.1320E+03
    -21.799  0.0000E+00  0.0000E+00  0.1320E+03  0.1320E+03
    -21.558  0.0000E+00  0.0000E+00  0.1320E+03  0.1320E+03
    -21.316  0.0000E+00  0.0000E+00  0.1320E+03  0.1320E+03
    -21.075  0.0000E+00  0.0000E+00  0.1320E+03  0.1320E+03
    -20.833  0.0000E+00  0.0000E+00  0.1320E+03  0.1320E+03
    -20.591  0.0000E+00  0.0000E+00  0.1320E+03  0.1320E+03
    -20.350  0.0000E+00  0.0000E+00  0.1320E+03  0.1320E+03
    -20.108  0.0000E+00  0.0000E+00  0.1320E+03  0.1320E+03
    -19.867  0.0000E+00  0.0000E+00  0.1320E+03  0.1320E+03
    -19.625  0.0000E+00  0.0000E+00  0.1320E+03  0.1320E+03
    -19.383  0.0000E+00  0.0000E+00  0.1320E+03  0.1320E+03
    -19.142  0.0000E+00  0.0000E+00  0.1320E+03  0.1320E+03
    -18.900  0.0000E+00  0.0000E+00  0.1320E+03  0.1320E+03
    -18.658  0.0000E+00  0.0000E+00  0.1320E+03  0.1320E+03
    -18.417  0.0000E+00  0.0000E+00  0.1320E+03  0.1320E+03
    -18.175  0.0000E+00  0.0000E+00  0.1320E+03  0.1320E+03
    -17.934  0.0000E+00  0.0000E+00  0.1320E+03  0.1320E+03
    -17.692  0.0000E+00  0.0000E+00  0.1320E+03  0.1320E+03
    -17.450  0.0000E+00  0.0000E+00  0.1320E+03  0.1320E+03
    -17.209  0.0000E+00  0.0000E+00  0.1320E+03  0.1320E+03
    -16.967  0.0000E+00  0.0000E+00  0.1320E+03  0.1320E+03
    -16.726  0.0000E+00  0.0000E+00  0.1320E+03  0.1320E+03
    -16.484  0.0000E+00  0.0000E+00  0.1320E+03  0.1320E+03
    -16.242  0.0000E+00  0.0000E+00  0.1320E+03  0.1320E+03
    -16.001  0.0000E+00  0.0000E+00  0.1320E+03  0.1320E+03
    -15.759  0.0000E+00  0.0000E+00  0.1320E+03  0.1320E+03
    -15.518  0.0000E+00  0.0000E+00  0.1320E+03  0.1320E+03
    -15.276  0.0000E+00  0.0000E+00  0.1320E+03  0.1320E+03
    -15.034  0.0000E+00  0.0000E+00  0.1320E+03  0.1320E+03
    -14.793  0.0000E+00  0.0000E+00  0.1320E+03  0.1320E+03
    -14.551  0.0000E+00  0.0000E+00  0.1320E+03  0.1320E+03
    -14.310  0.0000E+00  0.0000E+00  0.1320E+03  0.1320E+03
    -14.068  0.0000E+00  0.0000E+00  0.1320E+03  0.1320E+03
    -13.826  0.1347E-11  0.0000E+00  0.1320E+03  0.1320E+03
    -13.585  0.2282E+01  0.0000E+00  0.1326E+03  0.1320E+03
    -13.343  0.5777E+02  0.1577E-05  0.1465E+03  0.1320E+03
    -13.102  0.3914E+02  0.1888E+02  0.1560E+03  0.1366E+03
    -12.860  0.1452E+00  0.7630E+02  0.1560E+03  0.1550E+03
    -12.618  0.0000E+00  0.4150E+01  0.1560E+03  0.1560E+03
    -12.377  0.0000E+00  0.0000E+00  0.1560E+03  0.1560E+03
    -12.135  0.0000E+00  0.0000E+00  0.1560E+03  0.1560E+03
    -11.894  0.0000E+00  0.0000E+00  0.1560E+03  0.1560E+03
    -11.652  0.0000E+00  0.0000E+00  0.1560E+03  0.1560E+03
    -11.410  0.0000E+00  0.0000E+00  0.1560E+03  0.1560E+03
    -11.169  0.0000E+00  0.0000E+00  0.1560E+03  0.1560E+03
    -10.927  0.0000E+00  0.0000E+00  0.1560E+03  0.1560E+03
    -10.686  0.0000E+00  0.0000E+00  0.1560E+03  0.1560E+03
    -10.444  0.0000E+00  0.0000E+00  0.1560E+03  0.1560E+03
    -10.202  0.0000E+00  0.0000E+00  0.1560E+03  0.1560E+03
     -9.961  0.0000E+00  0.0000E+00  0.1560E+03  0.1560E+03
     -9.719  0.0000E+00  0.0000E+00  0.1560E+03  0.1560E+03
     -9.478  0.0000E+00  0.0000E+00  0.1560E+03  0.1560E+03
     -9.236  0.0000E+00  0.0000E+00  0.1560E+03  0.1560E+03
     -8.994  0.0000E+00  0.0000E+00  0.1560E+03  0.1560E+03
     -8.753  0.0000E+00  0.0000E+00  0.1560E+03  0.1560E+03
     -8.511  0.0000E+00  0.0000E+00  0.1560E+03  0.1560E+03
     -8.270  0.0000E+00  0.0000E+00  0.1560E+03  0.1560E+03
     -8.028  0.0000E+00  0.0000E+00  0.1560E+03  0.1560E+03
     -7.786  0.2864E-13  0.0000E+00  0.1560E+03  0.1560E+03
     -7.545  0.2161E+00  0.3404E-16  0.1561E+03  0.1560E+03
     -7.303  0.2230E+02  0.6448E-01  0.1614E+03  0.1560E+03
     -7.062  0.4714E+02  0.2441E+02  0.1728E+03  0.1619E+03
     -6.820  0.2943E+02  0.4654E+02  0.1799E+03  0.1732E+03
     -6.578  0.2543E+00  0.2680E+02  0.1800E+03  0.1796E+03
     -6.337  0.0000E+00  0.1520E+01  0.1800E+03  0.1800E+03
     -6.095  0.0000E+00  0.0000E+00  0.1800E+03  0.1800E+03
     -5.854  0.0000E+00  0.0000E+00  0.1800E+03  0.1800E+03
     -5.612  0.0000E+00  0.0000E+00  0.1800E+03  0.1800E+03
     -5.370  0.0000E+00  0.0000E+00  0.1800E+03  0.1800E+03
     -5.129  0.0000E+00  0.0000E+00  0.1800E+03  0.1800E+03
     -4.887  0.0000E+00  0.0000E+00  0.1800E+03  0.1800E+03
     -4.646  0.0000E+00  0.0000E+00  0.1800E+03  0.1800E+03
     -4.404  0.0000E+00  0.0000E+00  0.1800E+03  0.1800E+03
     -4.162  0.0000E+00  0.0000E+00  0.1800E+03  0.1800E+03
     -3.921  0.0000E+00  0.0000E+00  0.1800E+03  0.1800E+03
     -3.679  0.0000E+00  0.0000E+00  0.1800E+03  0.1800E+03
     -3.438  0.0000E+00  0.0000E+00  0.1800E+03  0.1800E+03
     -3.196  0.0000E+00  0.0000E+00  0.1800E+03  0.1800E+03
     -2.954  0.0000E+00  0.0000E+00  0.1800E+03  0.1800E+03
     -2.713  0.0000E+00  0.0000E+00  0.1800E+03  0.1800E+03
     -2.471  0.0000E+00  0.0000E+00  0.1800E+03  0.1800E+03
     -2.230  0.1365E-01  0.0000E+00  0.1800E+03  0.1800E+03
     -1.988  0.2707E+02  0.0000E+00  0.1865E+03  0.1800E+03
     -1.746  0.5022E+02  0.0000E+00  0.1987E+03  0.1800E+03
     -1.505  0.1588E+02  0.0000E+00  0.2025E+03  0.1800E+03
     -1.263  0.1896E+02  0.0000E+00  0.2071E+03  0.1800E+03
     -1.021  0.5895E+02  0.1471E-03  0.2213E+03  0.1800E+03
     -0.780  0.7343E+02  0.1892E+01  0.2391E+03  0.1805E+03
     -0.538  0.6474E+02  0.9978E+01  0.2547E+03  0.1829E+03
     -0.297  0.6336E+02  0.2036E+02  0.2700E+03  0.1878E+03
     -0.055  0.6203E+02  0.3414E+02  0.2850E+03  0.1960E+03
      0.187  0.5481E+02  0.2516E+02  0.2983E+03  0.2021E+03
      0.428  0.1066E+03  0.3703E+02  0.3240E+03  0.2111E+03
      0.670  0.5270E+02  0.3616E+02  0.3367E+03  0.2198E+03
      0.911  0.4685E+02  0.5710E+02  0.3481E+03  0.2336E+03
      1.153  0.5307E+02  0.5603E+02  0.3609E+03  0.2471E+03
      1.395  0.6420E+02  0.1982E+02  0.3764E+03  0.2519E+03
      1.636  0.5402E+02  0.2516E+02  0.3894E+03  0.2580E+03
      1.878  0.5841E+02  0.4736E+02  0.4036E+03  0.2694E+03
      2.119  0.4845E+02  0.3573E+02  0.4153E+03  0.2781E+03
      2.361  0.2759E+02  0.3016E+02  0.4219E+03  0.2854E+03
      2.603  0.3520E+02  0.3335E+02  0.4304E+03  0.2934E+03
      2.844  0.3382E+02  0.4468E+02  0.4386E+03  0.3042E+03
      3.086  0.3659E+02  0.3816E+02  0.4474E+03  0.3134E+03
      3.327  0.3371E+02  0.5951E+02  0.4556E+03  0.3278E+03
      3.569  0.2568E+02  0.2810E+02  0.4618E+03  0.3346E+03
      3.811  0.4116E+02  0.9277E+01  0.4717E+03  0.3368E+03
      4.052  0.4599E+02  0.1082E+02  0.4829E+03  0.3395E+03
      4.294  0.3578E+02  0.4082E+02  0.4915E+03  0.3493E+03
      4.535  0.3620E+02  0.2263E+02  0.5002E+03  0.3548E+03
      4.777  0.1555E+02  0.2000E+02  0.5040E+03  0.3596E+03
      5.019  0.1330E-01  0.1605E+01  0.5040E+03  0.3600E+03
      5.260  0.0000E+00  0.2019E-04  0.5040E+03  0.3600E+03
      5.502  0.0000E+00  0.0000E+00  0.5040E+03  0.3600E+03
      5.743  0.0000E+00  0.0000E+00  0.5040E+03  0.3600E+03
      5.985  0.0000E+00  0.1972E-07  0.5040E+03  0.3600E+03
      6.227  0.0000E+00  0.3137E+00  0.5040E+03  0.3601E+03
      6.468  0.0000E+00  0.3664E+01  0.5040E+03  0.3610E+03
      6.710  0.4438E-02  0.9721E+01  0.5040E+03  0.3633E+03
      6.951  0.1489E+00  0.3262E+02  0.5040E+03  0.3712E+03
      7.193  0.3139E+00  0.7766E+02  0.5041E+03  0.3900E+03
      7.435  0.7616E+00  0.6514E+02  0.5043E+03  0.4057E+03
      7.676  0.2524E+01  0.5159E+02  0.5049E+03  0.4182E+03
      7.918  0.2199E+01  0.8543E+02  0.5054E+03  0.4388E+03
      8.159  0.2117E+01  0.7842E+02  0.5059E+03  0.4577E+03
      8.401  0.5338E+01  0.5285E+02  0.5072E+03  0.4705E+03
      8.643  0.7887E+01  0.7285E+02  0.5091E+03  0.4881E+03
      8.884  0.1649E+02  0.4516E+02  0.5131E+03  0.4990E+03
      9.126  0.1349E+02  0.2223E+02  0.5164E+03  0.5044E+03
      9.367  0.1854E+02  0.4853E+01  0.5209E+03  0.5056E+03
      9.609  0.1987E+02  0.6605E+01  0.5257E+03  0.5072E+03
      9.851  0.1783E+02  0.1157E+02  0.5300E+03  0.5100E+03
     10.092  0.1799E+02  0.1440E+02  0.5343E+03  0.5134E+03
     10.334  0.1978E+02  0.1811E+02  0.5391E+03  0.5178E+03
     10.575  0.2426E+02  0.3197E+02  0.5450E+03  0.5255E+03
     10.817  0.2128E+02  0.2820E+02  0.5501E+03  0.5323E+03
     11.059  0.2849E+02  0.2196E+02  0.5570E+03  0.5377E+03
     11.300  0.2881E+02  0.2482E+02  0.5640E+03  0.5436E+03
     11.542  0.2218E+02  0.2209E+02  0.5693E+03  0.5490E+03
     11.783  0.2722E+02  0.2152E+02  0.5759E+03  0.5542E+03
     12.025  0.3937E+02  0.1860E+02  0.5854E+03  0.5587E+03
     12.267  0.3441E+02  0.3057E+02  0.5937E+03  0.5661E+03
     12.508  0.2812E+02  0.4277E+02  0.6005E+03  0.5764E+03
     12.750  0.2532E+02  0.3532E+02  0.6066E+03  0.5849E+03
     12.991  0.2864E+02  0.2849E+02  0.6135E+03  0.5918E+03
     13.233  0.2539E+02  0.2739E+02  0.6197E+03  0.5984E+03
     13.475  0.2164E+02  0.3665E+02  0.6249E+03  0.6073E+03
     13.716  0.1794E+02  0.2947E+02  0.6292E+03  0.6144E+03
     13.958  0.2971E+01  0.2309E+02  0.6300E+03  0.6200E+03
     14.199  0.1823E+00  0.2361E+02  0.6300E+03  0.6257E+03
     14.441  0.0000E+00  0.1648E+02  0.6300E+03  0.6297E+03
     14.683  0.0000E+00  0.1378E+01  0.6300E+03  0.6300E+03
     14.924  0.0000E+00  0.2100E-05  0.6300E+03  0.6300E+03
     15.166  0.0000E+00  0.0000E+00  0.6300E+03  0.6300E+03
     15.407  0.0000E+00  0.0000E+00  0.6300E+03  0.6300E+03
     15.649  0.0000E+00  0.0000E+00  0.6300E+03  0.6300E+03
     15.891  0.0000E+00  0.0000E+00  0.6300E+03  0.6300E+03
     16.132  0.0000E+00  0.0000E+00  0.6300E+03  0.6300E+03
     16.374  0.0000E+00  0.0000E+00  0.6300E+03  0.6300E+03
     16.615  0.0000E+00  0.0000E+00  0.6300E+03  0.6300E+03
     16.857  0.0000E+00  0.0000E+00  0.6300E+03  0.6300E+03
     17.099  0.0000E+00  0.0000E+00  0.6300E+03  0.6300E+03
     17.340  0.0000E+00  0.0000E+00  0.6300E+03  0.6300E+03
     17.582  0.0000E+00  0.0000E+00  0.6300E+03  0.6300E+03
     17.824  0.0000E+00  0.0000E+00  0.6300E+03  0.6300E+03
