 126 126   0   0
  0.1357194E+02  0.1157659E-08  0.1157660E-08  0.1387803E-08  0.5000000E-15
  1.000000000000000E-004
  CAR 
 unknown system                          
     17.62146122    -54.42061109  301      5.43434398      1.00000000
    -54.421  0.0000E+00  0.0000E+00  0.0000E+00  0.0000E+00
    -54.180  0.0000E+00  0.0000E+00  0.0000E+00  0.0000E+00
    -53.940  0.0000E+00  0.0000E+00  0.0000E+00  0.0000E+00
    -53.700  0.0000E+00  0.0000E+00  0.0000E+00  0.0000E+00
    -53.460  0.0000E+00  0.0000E+00  0.0000E+00  0.0000E+00
    -53.220  0.0000E+00  0.0000E+00  0.0000E+00  0.0000E+00
    -52.980  0.0000E+00  0.0000E+00  0.0000E+00  0.0000E+00
    -52.740  0.0000E+00  0.0000E+00  0.0000E+00  0.0000E+00
    -52.499  0.0000E+00  0.0000E+00  0.0000E+00  0.0000E+00
    -52.259  0.0000E+00  0.0000E+00  0.0000E+00  0.0000E+00
    -52.019  0.0000E+00  0.0000E+00  0.0000E+00  0.0000E+00
    -51.779  0.0000E+00  0.0000E+00  0.0000E+00  0.0000E+00
    -51.539  0.0000E+00  0.0000E+00  0.0000E+00  0.0000E+00
    -51.299  0.4966E-03  0.0000E+00  0.1193E-03  0.0000E+00
    -51.059  0.1482E+03  0.0000E+00  0.3559E+02  0.0000E+00
    -50.819  0.1697E+01  0.0000E+00  0.3600E+02  0.0000E+00
    -50.578  0.0000E+00  0.0000E+00  0.3600E+02  0.0000E+00
    -50.338  0.0000E+00  0.0000E+00  0.3600E+02  0.0000E+00
    -50.098  0.0000E+00  0.0000E+00  0.3600E+02  0.0000E+00
    -49.858  0.1079E-05  0.0000E+00  0.3600E+02  0.0000E+00
    -49.618  0.2520E+03  0.0000E+00  0.9652E+02  0.0000E+00
    -49.378  0.4779E+02  0.0000E+00  0.1080E+03  0.0000E+00
    -49.138  0.0000E+00  0.0000E+00  0.1080E+03  0.0000E+00
    -48.897  0.0000E+00  0.0000E+00  0.1080E+03  0.0000E+00
    -48.657  0.0000E+00  0.0000E+00  0.1080E+03  0.0000E+00
    -48.417  0.0000E+00  0.0000E+00  0.1080E+03  0.0000E+00
    -48.177  0.0000E+00  0.0000E+00  0.1080E+03  0.0000E+00
    -47.937  0.0000E+00  0.0000E+00  0.1080E+03  0.0000E+00
    -47.697  0.0000E+00  0.0000E+00  0.1080E+03  0.0000E+00
    -47.457  0.0000E+00  0.0000E+00  0.1080E+03  0.0000E+00
    -47.216  0.0000E+00  0.0000E+00  0.1080E+03  0.0000E+00
    -46.976  0.0000E+00  0.0000E+00  0.1080E+03  0.0000E+00
    -46.736  0.0000E+00  0.0000E+00  0.1080E+03  0.0000E+00
    -46.496  0.0000E+00  0.2605E+00  0.1080E+03  0.6257E-01
    -46.256  0.0000E+00  0.1496E+03  0.1080E+03  0.3600E+02
    -46.016  0.0000E+00  0.3734E+01  0.1080E+03  0.3689E+02
    -45.776  0.0000E+00  0.2961E+03  0.1080E+03  0.1080E+03
    -45.535  0.0000E+00  0.2990E-03  0.1080E+03  0.1080E+03
    -45.295  0.0000E+00  0.0000E+00  0.1080E+03  0.1080E+03
    -45.055  0.0000E+00  0.0000E+00  0.1080E+03  0.1080E+03
    -44.815  0.0000E+00  0.0000E+00  0.1080E+03  0.1080E+03
    -44.575  0.0000E+00  0.0000E+00  0.1080E+03  0.1080E+03
    -44.335  0.0000E+00  0.0000E+00  0.1080E+03  0.1080E+03
    -44.095  0.0000E+00  0.0000E+00  0.1080E+03  0.1080E+03
    -43.854  0.0000E+00  0.0000E+00  0.1080E+03  0.1080E+03
    -43.614  0.0000E+00  0.0000E+00  0.1080E+03  0.1080E+03
    -43.374  0.0000E+00  0.0000E+00  0.1080E+03  0.1080E+03
    -43.134  0.0000E+00  0.0000E+00  0.1080E+03  0.1080E+03
    -42.894  0.0000E+00  0.0000E+00  0.1080E+03  0.1080E+03
    -42.654  0.0000E+00  0.0000E+00  0.1080E+03  0.1080E+03
    -42.414  0.0000E+00  0.0000E+00  0.1080E+03  0.1080E+03
    -42.173  0.0000E+00  0.0000E+00  0.1080E+03  0.1080E+03
    -41.933  0.0000E+00  0.0000E+00  0.1080E+03  0.1080E+03
    -41.693  0.0000E+00  0.0000E+00  0.1080E+03  0.1080E+03
    -41.453  0.0000E+00  0.0000E+00  0.1080E+03  0.1080E+03
    -41.213  0.0000E+00  0.0000E+00  0.1080E+03  0.1080E+03
    -40.973  0.0000E+00  0.0000E+00  0.1080E+03  0.1080E+03
    -40.733  0.0000E+00  0.0000E+00  0.1080E+03  0.1080E+03
    -40.492  0.0000E+00  0.0000E+00  0.1080E+03  0.1080E+03
    -40.252  0.0000E+00  0.0000E+00  0.1080E+03  0.1080E+03
    -40.012  0.0000E+00  0.0000E+00  0.1080E+03  0.1080E+03
    -39.772  0.1475E-02  0.1362E-02  0.1080E+03  0.1080E+03
    -39.532  0.1473E+03  0.1473E+03  0.1434E+03  0.1434E+03
    -39.292  0.2563E+01  0.2654E+01  0.1440E+03  0.1440E+03
    -39.052  0.0000E+00  0.0000E+00  0.1440E+03  0.1440E+03
    -38.811  0.0000E+00  0.0000E+00  0.1440E+03  0.1440E+03
    -38.571  0.0000E+00  0.0000E+00  0.1440E+03  0.1440E+03
    -38.331  0.0000E+00  0.0000E+00  0.1440E+03  0.1440E+03
    -38.091  0.0000E+00  0.0000E+00  0.1440E+03  0.1440E+03
    -37.851  0.0000E+00  0.0000E+00  0.1440E+03  0.1440E+03
    -37.611  0.0000E+00  0.0000E+00  0.1440E+03  0.1440E+03
    -37.371  0.0000E+00  0.0000E+00  0.1440E+03  0.1440E+03
    -37.131  0.0000E+00  0.0000E+00  0.1440E+03  0.1440E+03
    -36.890  0.0000E+00  0.0000E+00  0.1440E+03  0.1440E+03
    -36.650  0.0000E+00  0.0000E+00  0.1440E+03  0.1440E+03
    -36.410  0.0000E+00  0.0000E+00  0.1440E+03  0.1440E+03
    -36.170  0.0000E+00  0.0000E+00  0.1440E+03  0.1440E+03
    -35.930  0.0000E+00  0.0000E+00  0.1440E+03  0.1440E+03
    -35.690  0.0000E+00  0.0000E+00  0.1440E+03  0.1440E+03
    -35.450  0.0000E+00  0.0000E+00  0.1440E+03  0.1440E+03
    -35.209  0.0000E+00  0.0000E+00  0.1440E+03  0.1440E+03
    -34.969  0.0000E+00  0.0000E+00  0.1440E+03  0.1440E+03
    -34.729  0.0000E+00  0.0000E+00  0.1440E+03  0.1440E+03
    -34.489  0.0000E+00  0.0000E+00  0.1440E+03  0.1440E+03
    -34.249  0.0000E+00  0.0000E+00  0.1440E+03  0.1440E+03
    -34.009  0.0000E+00  0.0000E+00  0.1440E+03  0.1440E+03
    -33.769  0.0000E+00  0.0000E+00  0.1440E+03  0.1440E+03
    -33.528  0.0000E+00  0.0000E+00  0.1440E+03  0.1440E+03
    -33.288  0.0000E+00  0.0000E+00  0.1440E+03  0.1440E+03
    -33.048  0.0000E+00  0.0000E+00  0.1440E+03  0.1440E+03
    -32.808  0.0000E+00  0.0000E+00  0.1440E+03  0.1440E+03
    -32.568  0.0000E+00  0.0000E+00  0.1440E+03  0.1440E+03
    -32.328  0.0000E+00  0.0000E+00  0.1440E+03  0.1440E+03
    -32.088  0.0000E+00  0.0000E+00  0.1440E+03  0.1440E+03
    -31.847  0.0000E+00  0.0000E+00  0.1440E+03  0.1440E+03
    -31.607  0.0000E+00  0.0000E+00  0.1440E+03  0.1440E+03
    -31.367  0.0000E+00  0.0000E+00  0.1440E+03  0.1440E+03
    -31.127  0.0000E+00  0.0000E+00  0.1440E+03  0.1440E+03
    -30.887  0.0000E+00  0.0000E+00  0.1440E+03  0.1440E+03
    -30.647  0.0000E+00  0.0000E+00  0.1440E+03  0.1440E+03
    -30.407  0.0000E+00  0.0000E+00  0.1440E+03  0.1440E+03
    -30.166  0.0000E+00  0.0000E+00  0.1440E+03  0.1440E+03
    -29.926  0.0000E+00  0.0000E+00  0.1440E+03  0.1440E+03
    -29.686  0.0000E+00  0.0000E+00  0.1440E+03  0.1440E+03
    -29.446  0.0000E+00  0.0000E+00  0.1440E+03  0.1440E+03
    -29.206  0.0000E+00  0.0000E+00  0.1440E+03  0.1440E+03
    -28.966  0.0000E+00  0.0000E+00  0.1440E+03  0.1440E+03
    -28.726  0.0000E+00  0.0000E+00  0.1440E+03  0.1440E+03
    -28.485  0.0000E+00  0.0000E+00  0.1440E+03  0.1440E+03
    -28.245  0.0000E+00  0.0000E+00  0.1440E+03  0.1440E+03
    -28.005  0.0000E+00  0.0000E+00  0.1440E+03  0.1440E+03
    -27.765  0.0000E+00  0.0000E+00  0.1440E+03  0.1440E+03
    -27.525  0.0000E+00  0.0000E+00  0.1440E+03  0.1440E+03
    -27.285  0.0000E+00  0.0000E+00  0.1440E+03  0.1440E+03
    -27.045  0.0000E+00  0.0000E+00  0.1440E+03  0.1440E+03
    -26.804  0.0000E+00  0.0000E+00  0.1440E+03  0.1440E+03
    -26.564  0.0000E+00  0.0000E+00  0.1440E+03  0.1440E+03
    -26.324  0.0000E+00  0.0000E+00  0.1440E+03  0.1440E+03
    -26.084  0.0000E+00  0.0000E+00  0.1440E+03  0.1440E+03
    -25.844  0.0000E+00  0.0000E+00  0.1440E+03  0.1440E+03
    -25.604  0.0000E+00  0.0000E+00  0.1440E+03  0.1440E+03
    -25.364  0.0000E+00  0.0000E+00  0.1440E+03  0.1440E+03
    -25.124  0.0000E+00  0.0000E+00  0.1440E+03  0.1440E+03
    -24.883  0.0000E+00  0.0000E+00  0.1440E+03  0.1440E+03
    -24.643  0.0000E+00  0.0000E+00  0.1440E+03  0.1440E+03
    -24.403  0.0000E+00  0.0000E+00  0.1440E+03  0.1440E+03
    -24.163  0.0000E+00  0.0000E+00  0.1440E+03  0.1440E+03
    -23.923  0.0000E+00  0.0000E+00  0.1440E+03  0.1440E+03
    -23.683  0.0000E+00  0.0000E+00  0.1440E+03  0.1440E+03
    -23.443  0.0000E+00  0.0000E+00  0.1440E+03  0.1440E+03
    -23.202  0.0000E+00  0.0000E+00  0.1440E+03  0.1440E+03
    -22.962  0.0000E+00  0.0000E+00  0.1440E+03  0.1440E+03
    -22.722  0.0000E+00  0.0000E+00  0.1440E+03  0.1440E+03
    -22.482  0.0000E+00  0.0000E+00  0.1440E+03  0.1440E+03
    -22.242  0.0000E+00  0.0000E+00  0.1440E+03  0.1440E+03
    -22.002  0.0000E+00  0.0000E+00  0.1440E+03  0.1440E+03
    -21.762  0.0000E+00  0.0000E+00  0.1440E+03  0.1440E+03
    -21.521  0.0000E+00  0.0000E+00  0.1440E+03  0.1440E+03
    -21.281  0.0000E+00  0.0000E+00  0.1440E+03  0.1440E+03
    -21.041  0.0000E+00  0.0000E+00  0.1440E+03  0.1440E+03
    -20.801  0.0000E+00  0.0000E+00  0.1440E+03  0.1440E+03
    -20.561  0.0000E+00  0.0000E+00  0.1440E+03  0.1440E+03
    -20.321  0.0000E+00  0.0000E+00  0.1440E+03  0.1440E+03
    -20.081  0.0000E+00  0.0000E+00  0.1440E+03  0.1440E+03
    -19.840  0.0000E+00  0.0000E+00  0.1440E+03  0.1440E+03
    -19.600  0.0000E+00  0.0000E+00  0.1440E+03  0.1440E+03
    -19.360  0.0000E+00  0.0000E+00  0.1440E+03  0.1440E+03
    -19.120  0.0000E+00  0.0000E+00  0.1440E+03  0.1440E+03
    -18.880  0.0000E+00  0.0000E+00  0.1440E+03  0.1440E+03
    -18.640  0.0000E+00  0.0000E+00  0.1440E+03  0.1440E+03
    -18.400  0.0000E+00  0.0000E+00  0.1440E+03  0.1440E+03
    -18.159  0.0000E+00  0.0000E+00  0.1440E+03  0.1440E+03
    -17.919  0.0000E+00  0.0000E+00  0.1440E+03  0.1440E+03
    -17.679  0.0000E+00  0.0000E+00  0.1440E+03  0.1440E+03
    -17.439  0.0000E+00  0.0000E+00  0.1440E+03  0.1440E+03
    -17.199  0.0000E+00  0.0000E+00  0.1440E+03  0.1440E+03
    -16.959  0.0000E+00  0.0000E+00  0.1440E+03  0.1440E+03
    -16.719  0.0000E+00  0.0000E+00  0.1440E+03  0.1440E+03
    -16.478  0.0000E+00  0.0000E+00  0.1440E+03  0.1440E+03
    -16.238  0.0000E+00  0.0000E+00  0.1440E+03  0.1440E+03
    -15.998  0.0000E+00  0.0000E+00  0.1440E+03  0.1440E+03
    -15.758  0.0000E+00  0.0000E+00  0.1440E+03  0.1440E+03
    -15.518  0.0000E+00  0.0000E+00  0.1440E+03  0.1440E+03
    -15.278  0.0000E+00  0.0000E+00  0.1440E+03  0.1440E+03
    -15.038  0.0000E+00  0.0000E+00  0.1440E+03  0.1440E+03
    -14.797  0.0000E+00  0.0000E+00  0.1440E+03  0.1440E+03
    -14.557  0.0000E+00  0.0000E+00  0.1440E+03  0.1440E+03
    -14.317  0.0000E+00  0.0000E+00  0.1440E+03  0.1440E+03
    -14.077  0.0000E+00  0.0000E+00  0.1440E+03  0.1440E+03
    -13.837  0.0000E+00  0.0000E+00  0.1440E+03  0.1440E+03
    -13.597  0.0000E+00  0.0000E+00  0.1440E+03  0.1440E+03
    -13.357  0.0000E+00  0.0000E+00  0.1440E+03  0.1440E+03
    -13.116  0.0000E+00  0.0000E+00  0.1440E+03  0.1440E+03
    -12.876  0.3152E-01  0.0000E+00  0.1440E+03  0.1440E+03
    -12.636  0.7294E+02  0.5833E-03  0.1615E+03  0.1440E+03
    -12.396  0.1983E+01  0.6379E+02  0.1620E+03  0.1593E+03
    -12.156  0.0000E+00  0.1116E+02  0.1620E+03  0.1620E+03
    -11.916  0.0000E+00  0.0000E+00  0.1620E+03  0.1620E+03
    -11.676  0.0000E+00  0.0000E+00  0.1620E+03  0.1620E+03
    -11.436  0.0000E+00  0.0000E+00  0.1620E+03  0.1620E+03
    -11.195  0.0000E+00  0.0000E+00  0.1620E+03  0.1620E+03
    -10.955  0.0000E+00  0.0000E+00  0.1620E+03  0.1620E+03
    -10.715  0.0000E+00  0.0000E+00  0.1620E+03  0.1620E+03
    -10.475  0.0000E+00  0.0000E+00  0.1620E+03  0.1620E+03
    -10.235  0.0000E+00  0.0000E+00  0.1620E+03  0.1620E+03
     -9.995  0.0000E+00  0.0000E+00  0.1620E+03  0.1620E+03
     -9.755  0.0000E+00  0.0000E+00  0.1620E+03  0.1620E+03
     -9.514  0.0000E+00  0.0000E+00  0.1620E+03  0.1620E+03
     -9.274  0.0000E+00  0.0000E+00  0.1620E+03  0.1620E+03
     -9.034  0.0000E+00  0.0000E+00  0.1620E+03  0.1620E+03
     -8.794  0.0000E+00  0.0000E+00  0.1620E+03  0.1620E+03
     -8.554  0.0000E+00  0.0000E+00  0.1620E+03  0.1620E+03
     -8.314  0.0000E+00  0.0000E+00  0.1620E+03  0.1620E+03
     -8.074  0.0000E+00  0.0000E+00  0.1620E+03  0.1620E+03
     -7.833  0.6380E-02  0.8219E-15  0.1620E+03  0.1620E+03
     -7.593  0.7815E+01  0.7586E-01  0.1639E+03  0.1620E+03
     -7.353  0.1429E+02  0.9579E+01  0.1673E+03  0.1643E+03
     -7.113  0.2440E+02  0.1706E+02  0.1732E+03  0.1684E+03
     -6.873  0.7346E+02  0.2407E+02  0.1908E+03  0.1742E+03
     -6.633  0.2994E+02  0.6961E+02  0.1980E+03  0.1909E+03
     -6.393  0.1997E-03  0.2949E+02  0.1980E+03  0.1980E+03
     -6.152  0.0000E+00  0.1455E-01  0.1980E+03  0.1980E+03
     -5.912  0.0000E+00  0.0000E+00  0.1980E+03  0.1980E+03
     -5.672  0.0000E+00  0.0000E+00  0.1980E+03  0.1980E+03
     -5.432  0.0000E+00  0.0000E+00  0.1980E+03  0.1980E+03
     -5.192  0.0000E+00  0.0000E+00  0.1980E+03  0.1980E+03
     -4.952  0.0000E+00  0.0000E+00  0.1980E+03  0.1980E+03
     -4.712  0.0000E+00  0.0000E+00  0.1980E+03  0.1980E+03
     -4.471  0.0000E+00  0.0000E+00  0.1980E+03  0.1980E+03
     -4.231  0.0000E+00  0.0000E+00  0.1980E+03  0.1980E+03
     -3.991  0.0000E+00  0.0000E+00  0.1980E+03  0.1980E+03
     -3.751  0.0000E+00  0.0000E+00  0.1980E+03  0.1980E+03
     -3.511  0.0000E+00  0.0000E+00  0.1980E+03  0.1980E+03
     -3.271  0.0000E+00  0.0000E+00  0.1980E+03  0.1980E+03
     -3.031  0.0000E+00  0.0000E+00  0.1980E+03  0.1980E+03
     -2.790  0.0000E+00  0.0000E+00  0.1980E+03  0.1980E+03
     -2.550  0.0000E+00  0.0000E+00  0.1980E+03  0.1980E+03
     -2.310  0.0000E+00  0.0000E+00  0.1980E+03  0.1980E+03
     -2.070  0.0000E+00  0.0000E+00  0.1980E+03  0.1980E+03
     -1.830  0.3211E-15  0.0000E+00  0.1980E+03  0.1980E+03
     -1.590  0.1340E+00  0.0000E+00  0.1980E+03  0.1980E+03
     -1.350  0.4602E+02  0.0000E+00  0.2091E+03  0.1980E+03
     -1.109  0.2880E+02  0.0000E+00  0.2160E+03  0.1980E+03
     -0.869  0.2985E+01  0.0000E+00  0.2167E+03  0.1980E+03
     -0.629  0.3979E+02  0.3890E-10  0.2263E+03  0.1980E+03
     -0.389  0.1081E+03  0.1254E+01  0.2522E+03  0.1983E+03
     -0.149  0.1166E+03  0.1257E+02  0.2802E+03  0.2013E+03
      0.091  0.1055E+03  0.1995E+02  0.3056E+03  0.2061E+03
      0.331  0.8741E+02  0.2741E+02  0.3266E+03  0.2127E+03
      0.572  0.7723E+02  0.3062E+02  0.3451E+03  0.2200E+03
      0.812  0.3501E+02  0.3784E+02  0.3535E+03  0.2291E+03
      1.052  0.3011E+02  0.3573E+02  0.3608E+03  0.2377E+03
      1.292  0.5003E+02  0.4702E+02  0.3728E+03  0.2490E+03
      1.532  0.3194E+02  0.3079E+02  0.3804E+03  0.2564E+03
      1.772  0.5633E+02  0.6139E+02  0.3940E+03  0.2711E+03
      2.012  0.1236E+03  0.4745E+02  0.4236E+03  0.2825E+03
      2.252  0.7893E+02  0.1852E+02  0.4426E+03  0.2870E+03
      2.493  0.5339E+02  0.3007E+02  0.4554E+03  0.2942E+03
      2.733  0.3973E+02  0.5975E+02  0.4650E+03  0.3086E+03
      2.973  0.2547E+02  0.4996E+02  0.4711E+03  0.3205E+03
      3.213  0.1587E+02  0.5604E+02  0.4749E+03  0.3340E+03
      3.453  0.2736E+02  0.7528E+02  0.4815E+03  0.3521E+03
      3.693  0.4047E+02  0.2697E+02  0.4912E+03  0.3586E+03
      3.933  0.4245E+02  0.1933E+02  0.5014E+03  0.3632E+03
      4.174  0.4500E+02  0.9285E+02  0.5122E+03  0.3855E+03
      4.414  0.4532E+02  0.4196E+02  0.5231E+03  0.3956E+03
      4.654  0.2502E+02  0.1772E+01  0.5291E+03  0.3960E+03
      4.894  0.2762E+02  0.1747E-05  0.5357E+03  0.3960E+03
      5.134  0.1786E+02  0.0000E+00  0.5400E+03  0.3960E+03
      5.374  0.4364E-01  0.0000E+00  0.5400E+03  0.3960E+03
      5.614  0.0000E+00  0.0000E+00  0.5400E+03  0.3960E+03
      5.855  0.0000E+00  0.0000E+00  0.5400E+03  0.3960E+03
      6.095  0.0000E+00  0.2078E-13  0.5400E+03  0.3960E+03
      6.335  0.0000E+00  0.1572E+00  0.5400E+03  0.3960E+03
      6.575  0.0000E+00  0.4375E+01  0.5400E+03  0.3971E+03
      6.815  0.0000E+00  0.1365E+02  0.5400E+03  0.4004E+03
      7.055  0.0000E+00  0.2973E+02  0.5400E+03  0.4075E+03
      7.295  0.4936E-05  0.5631E+02  0.5400E+03  0.4210E+03
      7.536  0.5121E+00  0.7982E+02  0.5401E+03  0.4402E+03
      7.776  0.2308E+01  0.6774E+02  0.5407E+03  0.4565E+03
      8.016  0.1624E+01  0.8268E+02  0.5411E+03  0.4763E+03
      8.256  0.7094E+01  0.9940E+02  0.5428E+03  0.5002E+03
      8.496  0.7708E+01  0.3918E+02  0.5446E+03  0.5096E+03
      8.736  0.4746E+01  0.4410E+02  0.5458E+03  0.5202E+03
      8.976  0.1120E+02  0.4054E+02  0.5485E+03  0.5299E+03
      9.217  0.2025E+02  0.3950E+02  0.5533E+03  0.5394E+03
      9.457  0.2068E+02  0.1501E+02  0.5583E+03  0.5430E+03
      9.697  0.3067E+02  0.1583E+02  0.5656E+03  0.5468E+03
      9.937  0.2768E+02  0.1310E+02  0.5723E+03  0.5500E+03
     10.177  0.1742E+02  0.2531E+02  0.5765E+03  0.5560E+03
     10.417  0.1458E+02  0.2252E+02  0.5800E+03  0.5614E+03
     10.657  0.1885E+02  0.2744E+02  0.5845E+03  0.5680E+03
     10.898  0.2365E+02  0.2501E+02  0.5902E+03  0.5740E+03
     11.138  0.2864E+02  0.2509E+02  0.5971E+03  0.5801E+03
     11.378  0.2930E+02  0.2020E+02  0.6041E+03  0.5849E+03
     11.618  0.3032E+02  0.2440E+02  0.6114E+03  0.5908E+03
     11.858  0.2991E+02  0.2672E+02  0.6186E+03  0.5972E+03
     12.098  0.4156E+02  0.2667E+02  0.6285E+03  0.6036E+03
     12.338  0.5031E+02  0.3629E+02  0.6406E+03  0.6123E+03
     12.579  0.2564E+02  0.3800E+02  0.6468E+03  0.6214E+03
     12.819  0.2729E+02  0.4663E+02  0.6533E+03  0.6326E+03
     13.059  0.3297E+02  0.3556E+02  0.6612E+03  0.6412E+03
     13.299  0.3682E+02  0.2983E+02  0.6701E+03  0.6483E+03
     13.539  0.2457E+02  0.4839E+02  0.6760E+03  0.6600E+03
     13.779  0.1258E+02  0.3873E+02  0.6790E+03  0.6693E+03
     14.019  0.4130E+01  0.2095E+02  0.6800E+03  0.6743E+03
     14.259  0.2896E-02  0.1798E+02  0.6800E+03  0.6786E+03
     14.500  0.0000E+00  0.5804E+01  0.6800E+03  0.6800E+03
     14.740  0.0000E+00  0.5224E-05  0.6800E+03  0.6800E+03
     14.980  0.0000E+00  0.0000E+00  0.6800E+03  0.6800E+03
     15.220  0.0000E+00  0.0000E+00  0.6800E+03  0.6800E+03
     15.460  0.0000E+00  0.0000E+00  0.6800E+03  0.6800E+03
     15.700  0.0000E+00  0.0000E+00  0.6800E+03  0.6800E+03
     15.940  0.0000E+00  0.0000E+00  0.6800E+03  0.6800E+03
     16.181  0.0000E+00  0.0000E+00  0.6800E+03  0.6800E+03
     16.421  0.0000E+00  0.0000E+00  0.6800E+03  0.6800E+03
     16.661  0.0000E+00  0.0000E+00  0.6800E+03  0.6800E+03
     16.901  0.0000E+00  0.0000E+00  0.6800E+03  0.6800E+03
     17.141  0.0000E+00  0.0000E+00  0.6800E+03  0.6800E+03
     17.381  0.0000E+00  0.0000E+00  0.6800E+03  0.6800E+03
     17.621  0.0000E+00  0.0000E+00  0.6800E+03  0.6800E+03
