 vasp.5.4.4.18Apr17-6-g9f103f2a35 (build Oct 25 2017 14:42:18) complex          
  
 executed on             LinuxIFC date 2021.04.17  04:36:39
 running on   48 total cores
 distrk:  each k-point on   24 cores,    2 groups
 distr:  one band on NCORES_PER_BAND=   6 cores,    4 groups


--------------------------------------------------------------------------------------------------------


 INCAR:
 POTCAR:    PAW_PBE Li_sv 10Sep2004               
 POTCAR:    PAW_PBE O 08Apr2002                   
 POTCAR:    PAW_PBE S 06Sep2000                   
 POTCAR:    PAW_PBE Fe_pv 02Aug2007               

 ----------------------------------------------------------------------------- 
|                                                                             |
|           W    W    AA    RRRRR   N    N  II  N    N   GGGG   !!!           |
|           W    W   A  A   R    R  NN   N  II  NN   N  G    G  !!!           |
|           W    W  A    A  R    R  N N  N  II  N N  N  G       !!!           |
|           W WW W  AAAAAA  RRRRR   N  N N  II  N  N N  G  GGG   !            |
|           WW  WW  A    A  R   R   N   NN  II  N   NN  G    G                |
|           W    W  A    A  R    R  N    N  II  N    N   GGGG   !!!           |
|                                                                             |
|      You have enabled k-point parallelism (KPAR>1).                         |
|      This developmental code was originally  written by Paul Kent at ORNL,  |
|      and carefully double checked in Vienna.                                |
|      GW as well as linear response parallelism added by Martijn Marsman     |
|      and Georg Kresse.                                                      |
|      Carefully verify results versus KPAR=1.                                |
|      Report problems to Paul Kent and Vienna.                               |
|                                                                             |
 ----------------------------------------------------------------------------- 

 POTCAR:    PAW_PBE Li_sv 10Sep2004               
  local pseudopotential read in
  atomic valenz-charges read in
  non local Contribution for L=           0  read in
    real space projection operators read in
  non local Contribution for L=           0  read in
    real space projection operators read in
  non local Contribution for L=           1  read in
    real space projection operators read in
    PAW grid and wavefunctions read in
 
   number of l-projection  operators is LMAX  =           3
   number of lm-projection operators is LMMAX =           5
 
 POTCAR:    PAW_PBE O 08Apr2002                   
  local pseudopotential read in
  partial core-charges read in
  partial kinetic energy density read in
  kinetic energy density of atom read in
  atomic valenz-charges read in
  non local Contribution for L=           0  read in
    real space projection operators read in
  non local Contribution for L=           0  read in
    real space projection operators read in
  non local Contribution for L=           1  read in
    real space projection operators read in
  non local Contribution for L=           1  read in
    real space projection operators read in
    PAW grid and wavefunctions read in
 
   number of l-projection  operators is LMAX  =           4
   number of lm-projection operators is LMMAX =           8
 
 POTCAR:    PAW_PBE S 06Sep2000                   
  local pseudopotential read in
  partial core-charges read in
  partial kinetic energy density read in
  atomic valenz-charges read in
  non local Contribution for L=           0  read in
    real space projection operators read in
  non local Contribution for L=           0  read in
    real space projection operators read in
  non local Contribution for L=           1  read in
    real space projection operators read in
  non local Contribution for L=           1  read in
    real space projection operators read in
    PAW grid and wavefunctions read in
 
   number of l-projection  operators is LMAX  =           4
   number of lm-projection operators is LMMAX =           8
 
 POTCAR:    PAW_PBE Fe_pv 02Aug2007               
  local pseudopotential read in
  partial core-charges read in
  partial kinetic energy density read in
  atomic valenz-charges read in
  non local Contribution for L=           1  read in
    real space projection operators read in
  non local Contribution for L=           1  read in
    real space projection operators read in
  non local Contribution for L=           2  read in
    real space projection operators read in
  non local Contribution for L=           2  read in
    real space projection operators read in
  non local Contribution for L=           0  read in
    real space projection operators read in
  non local Contribution for L=           0  read in
    real space projection operators read in
    PAW grid and wavefunctions read in
 
   number of l-projection  operators is LMAX  =           6
   number of lm-projection operators is LMMAX =          18
 

 ----------------------------------------------------------------------------- 
|                                                                             |
|  ADVICE TO THIS USER RUNNING 'VASP/VAMP'   (HEAR YOUR MASTER'S VOICE ...):  |
|                                                                             |
|      You have a (more or less) 'large supercell' and for larger cells       |
|      it might be more efficient to use real space projection opertators     |
|      So try LREAL= Auto  in the INCAR   file.                               |
|      Mind:          For very  accurate calculation you might also keep the  |
|      reciprocal projection scheme          (i.e. LREAL=.FALSE.)             |
|                                                                             |
 ----------------------------------------------------------------------------- 

  PAW_PBE Li_sv 10Sep2004               :
 energy of atom  1       EATOM= -202.7858
 kinetic energy error for atom=    0.0072 (will be added to EATOM!!)
  PAW_PBE O 08Apr2002                   :
 energy of atom  2       EATOM= -432.3788
 kinetic energy error for atom=    0.0129 (will be added to EATOM!!)
  PAW_PBE S 06Sep2000                   :
 energy of atom  3       EATOM= -276.8230
 kinetic energy error for atom=    0.0008 (will be added to EATOM!!)
  PAW_PBE Fe_pv 02Aug2007               :
 energy of atom  4       EATOM=-2457.4239
 kinetic energy error for atom=    0.0041 (will be added to EATOM!!)
 
 
 POSCAR: # Compound: Li36O18S36Fe36. Old comment:
  positions in direct lattice
  No initial velocities read in
 exchange correlation table for  LEXCH =        8
   RHO(1)=    0.500       N(1)  =     2000
   RHO(2)=  100.500       N(2)  =     4000
 


--------------------------------------------------------------------------------------------------------


 ion  position               nearest neighbor table
   1  0.149  0.017  0.000-  37 1.93  39 1.93
   2  0.483  0.017  0.000-  38 1.93  37 1.93
   3  0.816  0.017  0.000-  39 1.93  38 1.93
   4  0.149  0.351  0.000-  40 1.93  42 1.93
   5  0.483  0.351  0.000-  41 1.93  40 1.93
   6  0.816  0.351  0.000-  42 1.93  41 1.93
   7  0.149  0.684  0.000-  43 1.93  45 1.93
   8  0.483  0.684  0.000-  44 1.93  43 1.93
   9  0.816  0.684  0.000-  45 1.93  44 1.93
  10  0.149  0.017  0.500-  46 1.93  48 1.93
  11  0.483  0.017  0.500-  47 1.93  46 1.93
  12  0.816  0.017  0.500-  48 1.93  47 1.93
  13  0.149  0.351  0.500-  49 1.93  51 1.93
  14  0.483  0.351  0.500-  50 1.93  49 1.93
  15  0.816  0.351  0.500-  51 1.93  50 1.93
  16  0.149  0.684  0.500-  52 1.93  54 1.93
  17  0.483  0.684  0.500-  53 1.93  52 1.93
  18  0.816  0.684  0.500-  54 1.93  53 1.93
  19  0.316  0.184  0.500-  46 1.93  49 1.93
  20  0.649  0.184  0.500-  47 1.93  50 1.93
  21  0.983  0.184  0.500-  48 1.93  51 1.93
  22  0.316  0.517  0.500-  49 1.93  52 1.93
  23  0.649  0.517  0.500-  50 1.93  53 1.93
  24  0.983  0.517  0.500-  51 1.93  54 1.93
  25  0.316  0.851  0.500-  52 1.93  46 1.93
  26  0.649  0.851  0.500-  53 1.93  47 1.93
  27  0.983  0.851  0.500-  54 1.93  48 1.93
  28  0.316  0.184  1.000-  37 1.93  40 1.93
  29  0.649  0.184  1.000-  38 1.93  41 1.93
  30  0.983  0.184  1.000-  39 1.93  42 1.93
  31  0.316  0.517  1.000-  40 1.93  43 1.93
  32  0.649  0.517  1.000-  41 1.93  44 1.93
  33  0.983  0.517  1.000-  42 1.93  45 1.93
  34  0.316  0.851  1.000-  43 1.93  37 1.93
  35  0.649  0.851  1.000-  44 1.93  38 1.93
  36  0.983  0.851  1.000-  45 1.93  39 1.93
  37  0.316  0.017  0.000-  28 1.93   1 1.93   2 1.93  34 1.93  92 2.04 124 2.04
  38  0.649  0.017  0.000-  29 1.93   2 1.93   3 1.93  35 1.93  93 2.04 125 2.04
  39  0.983  0.017  0.000-  30 1.93   3 1.93   1 1.93  36 1.93  91 2.03 126 2.04
  40  0.316  0.351  0.000-  31 1.93   4 1.93   5 1.93  28 1.93  95 2.04 118 2.04
  41  0.649  0.351  0.000-  32 1.93   5 1.93   6 1.93  29 1.93  96 2.04 119 2.04
  42  0.983  0.351  0.000-  33 1.93   6 1.93   4 1.93  30 1.93  94 2.04 120 2.04
  43  0.316  0.684  0.000-  34 1.93   7 1.93   8 1.93  31 1.93  98 2.04 121 2.04
  44  0.649  0.684  0.000-  35 1.93   8 1.93   9 1.93  32 1.93  99 2.04 122 2.04
  45  0.983  0.684  0.000-  36 1.93   9 1.93   7 1.93  33 1.93  97 2.04 123 2.04
  46  0.316  0.017  0.500-  19 1.93  10 1.93  11 1.93  25 1.93 101 2.04 115 2.04
  47  0.649  0.017  0.500-  20 1.93  11 1.93  12 1.93  26 1.93 102 2.04 116 2.04
  48  0.983  0.017  0.500-  21 1.93  12 1.93  10 1.93  27 1.93 100 2.04 117 2.04
  49  0.316  0.351  0.500-  22 1.93  13 1.93  14 1.93  19 1.93 104 2.04 109 2.04
  50  0.649  0.351  0.500-  23 1.93  14 1.93  15 1.93  20 1.93 105 2.04 110 2.04
  51  0.983  0.351  0.500-  24 1.93  15 1.93  13 1.93  21 1.93 103 2.04 111 2.04
  52  0.316  0.684  0.500-  25 1.93  16 1.93  17 1.93  22 1.93 107 2.04 112 2.04
  53  0.649  0.684  0.500-  26 1.93  17 1.93  18 1.93  23 1.93 108 2.04 113 2.04
  54  0.983  0.684  0.500-  27 1.93  18 1.93  16 1.93  24 1.93 106 2.04 114 2.04
  55  0.199  0.234  0.150- 109 2.43  91 2.73  94 2.73  92 2.73  95 2.73
  56  0.533  0.234  0.150- 110 2.43  92 2.73  95 2.73  93 2.73  96 2.73
  57  0.866  0.234  0.150- 111 2.43  91 2.73  93 2.73  96 2.73  94 2.73
  58  0.199  0.567  0.150- 112 2.43  94 2.73  97 2.73  95 2.73  98 2.73
  59  0.533  0.567  0.150- 113 2.43  95 2.73  98 2.73  96 2.73  99 2.73
  60  0.866  0.567  0.150- 114 2.43  96 2.73  99 2.73  94 2.73  97 2.73
  61  0.199  0.901  0.150- 115 2.43  91 2.73  97 2.73  98 2.73  92 2.73
  62  0.533  0.901  0.150- 116 2.43  98 2.73  92 2.73  99 2.73  93 2.73
  63  0.866  0.901  0.150- 117 2.43  99 2.73  93 2.73  97 2.73  91 2.74
  64  0.199  0.234  0.650- 118 2.43 100 2.73 103 2.73 101 2.73 104 2.73
  65  0.533  0.234  0.650- 119 2.43 101 2.73 104 2.73 102 2.73 105 2.73
  66  0.866  0.234  0.650- 120 2.43 102 2.73 105 2.73 100 2.73 103 2.73
  67  0.199  0.567  0.650- 121 2.43 103 2.73 106 2.73 104 2.73 107 2.73
  68  0.533  0.567  0.650- 122 2.43 104 2.73 107 2.73 105 2.73 108 2.73
  69  0.866  0.567  0.650- 123 2.43 105 2.73 108 2.73 103 2.73 106 2.73
  70  0.199  0.901  0.650- 124 2.43 106 2.73 100 2.73 107 2.73 101 2.73
  71  0.533  0.901  0.650- 125 2.43 107 2.73 101 2.73 108 2.73 102 2.73
  72  0.866  0.901  0.650- 126 2.43 108 2.73 102 2.73 106 2.73 100 2.73
  73  0.099  0.134  0.350-  91 2.44 109 2.73 111 2.73 115 2.73 117 2.73
  74  0.433  0.134  0.350-  92 2.43 110 2.73 109 2.73 116 2.73 115 2.73
  75  0.766  0.134  0.350-  93 2.43 111 2.73 110 2.73 117 2.73 116 2.73
  76  0.099  0.467  0.350-  94 2.43 112 2.73 114 2.73 109 2.73 111 2.73
  77  0.433  0.467  0.350-  95 2.43 113 2.73 112 2.73 110 2.73 109 2.73
  78  0.766  0.467  0.350-  96 2.43 114 2.73 113 2.73 111 2.73 110 2.73
  79  0.099  0.801  0.350-  97 2.43 115 2.73 117 2.73 112 2.73 114 2.73
  80  0.433  0.801  0.350-  98 2.43 116 2.73 115 2.73 113 2.73 112 2.73
  81  0.766  0.801  0.350-  99 2.43 117 2.73 116 2.73 114 2.73 113 2.73
  82  0.099  0.134  0.850- 100 2.43 118 2.73 120 2.73 124 2.73 126 2.73
  83  0.433  0.134  0.850- 101 2.43 119 2.73 118 2.73 125 2.73 124 2.73
  84  0.766  0.134  0.850- 102 2.43 120 2.73 119 2.73 126 2.73 125 2.73
  85  0.099  0.467  0.850- 103 2.43 121 2.73 123 2.73 118 2.73 120 2.73
  86  0.433  0.467  0.850- 104 2.43 122 2.73 121 2.73 119 2.73 118 2.73
  87  0.766  0.467  0.850- 105 2.43 123 2.73 122 2.73 120 2.73 119 2.73
  88  0.099  0.801  0.850- 106 2.43 124 2.73 126 2.73 121 2.73 123 2.73
  89  0.433  0.801  0.850- 107 2.43 125 2.73 124 2.73 122 2.73 121 2.73
  90  0.766  0.801  0.850- 108 2.43 126 2.73 125 2.73 123 2.73 122 2.73
  91  0.036  0.071  0.159-  39 2.03  73 2.44  55 2.73  61 2.73  57 2.73  63 2.74
  92  0.369  0.071  0.160-  37 2.04  74 2.43  56 2.73  62 2.73  55 2.73  61 2.73
  93  0.703  0.071  0.160-  38 2.04  75 2.43  57 2.73  63 2.73  56 2.73  62 2.73
  94  0.036  0.404  0.160-  42 2.04  76 2.43  58 2.73  55 2.73  60 2.73  57 2.73
  95  0.369  0.404  0.160-  40 2.04  77 2.43  59 2.73  56 2.73  58 2.73  55 2.73
  96  0.703  0.404  0.160-  41 2.04  78 2.43  60 2.73  57 2.73  59 2.73  56 2.73
  97  0.036  0.737  0.160-  45 2.04  79 2.43  61 2.73  58 2.73  63 2.73  60 2.73
  98  0.369  0.737  0.160-  43 2.04  80 2.43  62 2.73  59 2.73  61 2.73  58 2.73
  99  0.703  0.737  0.160-  44 2.04  81 2.43  63 2.73  60 2.73  62 2.73  59 2.73
 100  0.036  0.071  0.660-  48 2.04  82 2.43  64 2.73  70 2.73  66 2.73  72 2.73
 101  0.369  0.071  0.660-  46 2.04  83 2.43  65 2.73  71 2.73  64 2.73  70 2.73
 102  0.703  0.071  0.660-  47 2.04  84 2.43  66 2.73  72 2.73  65 2.73  71 2.73
 103  0.036  0.404  0.660-  51 2.04  85 2.43  67 2.73  64 2.73  69 2.73  66 2.73
 104  0.369  0.404  0.660-  49 2.04  86 2.43  68 2.73  65 2.73  67 2.73  64 2.73
 105  0.703  0.404  0.660-  50 2.04  87 2.43  69 2.73  66 2.73  68 2.73  65 2.73
 106  0.036  0.737  0.660-  54 2.04  88 2.43  70 2.73  67 2.73  72 2.73  69 2.73
 107  0.369  0.737  0.660-  52 2.04  89 2.43  71 2.73  68 2.73  70 2.73  67 2.73
 108  0.703  0.737  0.660-  53 2.04  90 2.43  72 2.73  69 2.73  71 2.73  68 2.73
 109  0.263  0.297  0.340-  49 2.04  55 2.43  73 2.73  74 2.73  76 2.73  77 2.73
 110  0.596  0.297  0.340-  50 2.04  56 2.43  74 2.73  75 2.73  77 2.73  78 2.73
 111  0.929  0.297  0.340-  51 2.04  57 2.43  75 2.73  73 2.73  78 2.73  76 2.73
 112  0.263  0.631  0.340-  52 2.04  58 2.43  76 2.73  77 2.73  79 2.73  80 2.73
 113  0.596  0.631  0.340-  53 2.04  59 2.43  77 2.73  78 2.73  80 2.73  81 2.73
 114  0.929  0.631  0.340-  54 2.04  60 2.43  78 2.73  76 2.73  81 2.73  79 2.73
 115  0.263  0.964  0.340-  46 2.04  61 2.43  79 2.73  80 2.73  73 2.73  74 2.73
 116  0.596  0.964  0.340-  47 2.04  62 2.43  80 2.73  81 2.73  74 2.73  75 2.73
 117  0.929  0.964  0.340-  48 2.04  63 2.43  81 2.73  79 2.73  75 2.73  73 2.73
 118  0.263  0.297  0.840-  40 2.04  64 2.43  82 2.73  83 2.73  85 2.73  86 2.73
 119  0.596  0.297  0.840-  41 2.04  65 2.43  83 2.73  84 2.73  86 2.73  87 2.73
 120  0.929  0.297  0.840-  42 2.04  66 2.43  84 2.73  82 2.73  87 2.73  85 2.73
 121  0.263  0.631  0.840-  43 2.04  67 2.43  85 2.73  86 2.73  88 2.73  89 2.73
 122  0.596  0.631  0.840-  44 2.04  68 2.43  86 2.73  87 2.73  89 2.73  90 2.73
 123  0.929  0.631  0.840-  45 2.04  69 2.43  87 2.73  85 2.73  90 2.73  88 2.73
 124  0.263  0.964  0.840-  37 2.04  70 2.43  88 2.73  89 2.73  82 2.73  83 2.73
 125  0.596  0.964  0.840-  38 2.04  71 2.43  89 2.73  90 2.73  83 2.73  84 2.73
 126  0.929  0.964  0.840-  39 2.04  72 2.43  90 2.73  88 2.73  84 2.73  82 2.73
 

IMPORTANT INFORMATION: All symmetrisations will be switched off!
NOSYMM: (Re-)initialisation of all symmetry stuff for point group C_1.

 
 
 KPOINTS: # No comment                            

Automatic generation of k-mesh.
Space group operators:
 irot       det(A)        alpha          n_x          n_y          n_z        tau_x        tau_y        tau_z
    1     1.000000     0.000000     1.000000     0.000000     0.000000     0.000000     0.000000     0.000000
 
 Subroutine IBZKPT returns following result:
 ===========================================
 
 Found     10 irreducible k-points:
 
 Following reciprocal coordinates:
            Coordinates               Weight
  0.000000  0.000000  0.000000      1.000000
  0.333333  0.000000 -0.000000      2.000000
 -0.000000  0.333333  0.000000      2.000000
  0.333333  0.333333 -0.000000      2.000000
 -0.333333  0.333333  0.000000      2.000000
  0.000000 -0.000000  0.500000      1.000000
  0.333333 -0.000000  0.500000      2.000000
  0.000000  0.333333  0.500000      2.000000
  0.333333  0.333333  0.500000      2.000000
 -0.333333  0.333333  0.500000      2.000000
 
 Following cartesian coordinates:
            Coordinates               Weight
  0.000000  0.000000  0.000000      1.000000
  0.028801  0.000012  0.008684      2.000000
  0.000002  0.028801  0.008684      2.000000
  0.028803  0.028813  0.017368      2.000000
 -0.028799  0.028789 -0.000000      2.000000
  0.000032  0.000032  0.039185      1.000000
  0.028833  0.000044  0.047869      2.000000
  0.000034  0.028833  0.047869      2.000000
  0.028835  0.028845  0.056553      2.000000
 -0.028767  0.028821  0.039185      2.000000
 


--------------------------------------------------------------------------------------------------------




 Dimension of arrays:
   k-points           NKPTS =     10   k-points in BZ     NKDIM =     10   number of bands    NBANDS=    680
   number of dos      NEDOS =    301   number of ions     NIONS =    126
   non local maximal  LDIM  =      6   non local SUM 2l+1 LMDIM =     18
   total plane-waves  NPLWV = ******
   max r-space proj   IRMAX =      1   max aug-charges    IRDMAX= 163177
   dimension x,y,z NGX =    96 NGY =   96 NGZ =  120
   dimension x,y,z NGXF=   192 NGYF=  192 NGZF=  240
   support grid    NGXF=   384 NGYF=  384 NGZF=  480
   ions per type =              36  18  36  36
   NGX,Y,Z   is equivalent  to a cutoff of  13.79, 13.79, 14.37 a.u.
   NGXF,Y,Z  is equivalent  to a cutoff of  27.57, 27.57, 28.75 a.u.

 SYSTEM =  unknown system                          
 POSCAR =  # Compound: Li36O18S36Fe36. Old comment:

 Startparameter for this run:
   NWRITE =      1    write-flag & timer
   PREC   = accura    normal or accurate (medium, high low for compatibility)
   ISTART =      0    job   : 0-new  1-cont  2-samecut
   ICHARG =      1    charge: 1-file 2-atom 10-const
   ISPIN  =      2    spin polarized calculation?
   LNONCOLLINEAR =      F non collinear calculations
   LSORBIT =      F    spin-orbit coupling
   INIWAV =      1    electr: 0-lowe 1-rand  2-diag
   LASPH  =      T    aspherical Exc in radial PAW
   METAGGA=      F    non-selfconsistent MetaGGA calc.

 Electronic Relaxation 1
   ENCUT  =  650.0 eV  47.77 Ry    6.91 a.u.  24.07 24.07 28.85*2*pi/ulx,y,z
   ENINI  =  650.0     initial cutoff
   ENAUG  =  628.9 eV  augmentation charge cutoff
   NELM   =    200;   NELMIN=  8; NELMDL=  0     # of ELM steps 
   EDIFF  = 0.1E-05   stopping-criterion for ELM
   LREAL  =      F    real-space projection
   NLSPLINE    = F    spline interpolate recip. space projectors
   LCOMPAT=      F    compatible to vasp.4.4
   GGA_COMPAT  = T    GGA compatible to vasp.4.4-vasp.4.6
   LMAXPAW     = -100 max onsite density
   LMAXMIX     =    4 max onsite mixed and CHGCAR
   VOSKOWN=      0    Vosko Wilk Nusair interpolation
   ROPT   =    0.00000   0.00000   0.00000   0.00000
 Ionic relaxation
   EDIFFG = 0.1E-04   stopping-criterion for IOM
   NSW    =      0    number of steps for IOM
   NBLOCK =      1;   KBLOCK =      1    inner block; outer block 
   IBRION =     -1    ionic relax: 0-MD 1-quasi-New 2-CG
   NFREE  =      0    steps in history (QN), initial steepest desc. (CG)
   ISIF   =      3    stress and relaxation
   IWAVPR =     10    prediction:  0-non 1-charg 2-wave 3-comb
   ISYM   =      0    0-nonsym 1-usesym 2-fastsym
   LCORR  =      T    Harris-Foulkes like correction to forces

   POTIM  = 0.5000    time-step for ionic-motion
   TEIN   =    0.0    initial temperature
   TEBEG  =    0.0;   TEEND  =   0.0 temperature during run
   SMASS  =  -3.00    Nose mass-parameter (am)
   estimated Nose-frequenzy (Omega)   =  0.10E-29 period in steps =****** mass=  -0.306E-26a.u.
   SCALEE = 1.0000    scale energy and forces
   NPACO  =    256;   APACO  = 16.0  distance and # of slots for P.C.
   PSTRESS=    0.0 pullay stress

  Mass of Ions in am
   POMASS =   7.01 16.00 32.07 55.85
  Ionic Valenz
   ZVAL   =   3.00  6.00  6.00 14.00
  Atomic Wigner-Seitz radii
   RWIGS  =  -1.00 -1.00 -1.00 -1.00
  virtual crystal weights 
   VCA    =   1.00  1.00  1.00  1.00
   NELECT =     936.0000    total number of electrons
   NUPDOWN=      -1.0000    fix difference up-down

 DOS related values:
   EMIN   =  10.00;   EMAX   =-10.00  energy-range for DOS
   EFERMI =   0.00
   ISMEAR =     0;   SIGMA  =   0.05  broadening in eV -4-tet -1-fermi 0-gaus

 Electronic relaxation 2 (details)
   IALGO  =     58    algorithm
   LDIAG  =      T    sub-space diagonalisation (order eigenvalues)
   LSUBROT=      F    optimize rotation matrix (better conditioning)
   TURBO    =      0    0=normal 1=particle mesh
   IRESTART =      0    0=no restart 2=restart with 2 vectors
   NREBOOT  =      0    no. of reboots
   NMIN     =      0    reboot dimension
   EREF     =   0.00    reference energy to select bands
   IMIX   =      4    mixing-type and parameters
     AMIX     =   0.40;   BMIX     =  1.00
     AMIX_MAG =   1.60;   BMIX_MAG =  1.00
     AMIN     =   0.10
     WC   =   100.;   INIMIX=   1;  MIXPRE=   1;  MAXMIX= -45

 Intra band minimization:
   WEIMIN = 0.0000     energy-eigenvalue tresh-hold
   EBREAK =  0.37E-09  absolut break condition
   DEPER  =   0.30     relativ break condition  

   TIME   =   0.40     timestep for ELM

  volume/ion in A,a.u.               =      13.57        91.59
  Fermi-wavevector in a.u.,A,eV,Ry     =   1.339150  2.530627 24.399639  1.793323
  Thomas-Fermi vector in A             =   2.467565
 
 Write flags
   LWAVE        =      F    write WAVECAR
   LDOWNSAMPLE  =      F    k-point downsampling of WAVECAR
   LCHARG       =      T    write CHGCAR
   LVTOT        =      F    write LOCPOT, total local potential
   LVHAR        =      F    write LOCPOT, Hartree potential only
   LELF         =      F    write electronic localiz. function (ELF)
   LORBIT       =      0    0 simple, 1 ext, 2 COOP (PROOUT), +10 PAW based schemes


 Dipole corrections
   LMONO  =      F    monopole corrections only (constant potential shift)
   LDIPOL =      F    correct potential (dipole corrections)
   IDIPOL =      0    1-x, 2-y, 3-z, 4-all directions 
   EPSILON=  1.0000000 bulk dielectric constant

 LDA+U is selected, type is set to LDAUTYPE =  2
   angular momentum for each species LDAUL =    -1   -1   -1    2
   U (eV)           for each species LDAUU =   0.0  0.0  0.0  4.0
   J (eV)           for each species LDAUJ =   0.0  0.0  0.0  0.0
 Exchange correlation treatment:
   GGA     =    PE    GGA type
   LEXCH   =     8    internal setting for exchange type
   VOSKOWN=      0    Vosko Wilk Nusair interpolation
   LHFCALC =     F    Hartree Fock is set to
   LHFONE  =     F    Hartree Fock one center treatment
   AEXX    =    0.0000 exact exchange contribution

 Linear response parameters
   LEPSILON=     F    determine dielectric tensor
   LRPA    =     F    only Hartree local field effects (RPA)
   LNABLA  =     F    use nabla operator in PAW spheres
   LVEL    =     F    velocity operator in full k-point grid
   LINTERFAST=   F  fast interpolation
   KINTER  =     0    interpolate to denser k-point grid
   CSHIFT  =0.1000    complex shift for real part using Kramers Kronig
   OMEGAMAX=  -1.0    maximum frequency
   DEG_THRESHOLD= 0.2000000E-02 threshold for treating states as degnerate
   RTIME   =   -0.100 relaxation time in fs
  (WPLASMAI=    0.000 imaginary part of plasma frequency in eV, 0.658/RTIME)
   DFIELD  = 0.0000000 0.0000000 0.0000000 field for delta impulse in time
 
 Orbital magnetization related:
   ORBITALMAG=     F  switch on orbital magnetization
   LCHIMAG   =     F  perturbation theory with respect to B field
   DQ        =  0.001000  dq finite difference perturbation B field
   LLRAUG    =     F  two centre corrections for induced B field



--------------------------------------------------------------------------------------------------------


 Static calculation
 charge density and potential will be updated during run
 spin polarized calculation
 Conjugate gradient for all bands (Freysoldt, et al. PRB 79, 241103 (2009))
 preconditioned conjugated gradient                                        
 perform sub-space diagonalisation
    before iterative eigenvector-optimisation
 modified Broyden-mixing scheme, WC =      100.0
 initial mixing is a Kerker type mixing with AMIX =  0.4000 and BMIX =      1.0000
 Hartree-type preconditioning will be used
 using additional bands          212
 reciprocal scheme for non local part
 use partial core corrections
 no Harris-corrections to forces 
 use gradient corrections 
 use of overlap-Matrix (Vanderbilt PP)
 Gauss-broadening in eV      SIGMA  =   0.05


--------------------------------------------------------------------------------------------------------


  energy-cutoff  :      650.00
  volume of cell :     1710.06
      direct lattice vectors                 reciprocal lattice vectors
    11.576583240  0.002066280 -0.009542910     0.086402742  0.000036295  0.026052044
    -0.001985520 11.576599830 -0.009542940     0.000006054  0.086402626  0.026052036
    -3.847679420 -3.849030720 12.766359180     0.000064591  0.000064614  0.078369816

  length of vectors
    11.576587358 11.576603934 13.878025836     0.090244912  0.090244792  0.078369870


 
 k-points in units of 2pi/SCALE and weight: # No comment                            
   0.00000000  0.00000000  0.00000000       0.056
   0.02880091  0.00001210  0.00868401       0.111
   0.00000202  0.02880088  0.00868401       0.111
   0.02880293  0.02881297  0.01736803       0.111
  -0.02879890  0.02878878 -0.00000000       0.111
   0.00003230  0.00003231  0.03918491       0.056
   0.02883321  0.00004441  0.04786892       0.111
   0.00003431  0.02883318  0.04786892       0.111
   0.02883523  0.02884528  0.05655294       0.111
  -0.02876660  0.02882108  0.03918491       0.111
 
 k-points in reciprocal lattice and weights: # No comment                            
   0.00000000  0.00000000  0.00000000       0.056
   0.33333333  0.00000000 -0.00000000       0.111
  -0.00000000  0.33333333  0.00000000       0.111
   0.33333333  0.33333333 -0.00000000       0.111
  -0.33333333  0.33333333  0.00000000       0.111
   0.00000000 -0.00000000  0.50000000       0.056
   0.33333333 -0.00000000  0.50000000       0.111
   0.00000000  0.33333333  0.50000000       0.111
   0.33333333  0.33333333  0.50000000       0.111
  -0.33333333  0.33333333  0.50000000       0.111
 
 position of ions in fractional coordinates (direct lattice) 
   0.14940024  0.01727802  0.00000711
   0.48273357  0.01727802  0.00000711
   0.81606690  0.01727802  0.00000711
   0.14940024  0.35061135  0.00000711
   0.48273357  0.35061135  0.00000711
   0.81606690  0.35061135  0.00000711
   0.14940024  0.68394468  0.00000711
   0.48273357  0.68394468  0.00000711
   0.81606690  0.68394468  0.00000711
   0.14940024  0.01727802  0.50000711
   0.48273357  0.01727802  0.50000711
   0.81606690  0.01727802  0.50000711
   0.14940024  0.35061135  0.50000711
   0.48273357  0.35061135  0.50000711
   0.81606690  0.35061135  0.50000711
   0.14940024  0.68394468  0.50000711
   0.48273357  0.68394468  0.50000711
   0.81606690  0.68394468  0.50000711
   0.31605532  0.18393310  0.49999289
   0.64938865  0.18393310  0.49999289
   0.98272198  0.18393310  0.49999289
   0.31605532  0.51726643  0.49999289
   0.64938865  0.51726643  0.49999289
   0.98272198  0.51726643  0.49999289
   0.31605532  0.85059976  0.49999289
   0.64938865  0.85059976  0.49999289
   0.98272198  0.85059976  0.49999289
   0.31605532  0.18393310  0.99999289
   0.64938865  0.18393310  0.99999289
   0.98272198  0.18393310  0.99999289
   0.31605532  0.51726643  0.99999289
   0.64938865  0.51726643  0.99999289
   0.98272198  0.51726643  0.99999289
   0.31605532  0.85059976  0.99999289
   0.64938865  0.85059976  0.99999289
   0.98272198  0.85059976  0.99999289
   0.31606288  0.01727079  0.00000000
   0.64939621  0.01727079  0.00000000
   0.98272954  0.01727079  0.00000000
   0.31606288  0.35060413  0.00000000
   0.64939621  0.35060413  0.00000000
   0.98272954  0.35060413  0.00000000
   0.31606288  0.68393746  0.00000000
   0.64939621  0.68393746  0.00000000
   0.98272954  0.68393746  0.00000000
   0.31606288  0.01727079  0.50000000
   0.64939621  0.01727079  0.50000000
   0.98272954  0.01727079  0.50000000
   0.31606288  0.35060413  0.50000000
   0.64939621  0.35060413  0.50000000
   0.98272954  0.35060413  0.50000000
   0.31606288  0.68393746  0.50000000
   0.64939621  0.68393746  0.50000000
   0.98272954  0.68393746  0.50000000
   0.19934057  0.23388678  0.14983771
   0.53267391  0.23388678  0.14983771
   0.86600724  0.23388678  0.14983771
   0.19934057  0.56722011  0.14983771
   0.53267391  0.56722011  0.14983771
   0.86600724  0.56722011  0.14983771
   0.19934057  0.90055344  0.14983771
   0.53267391  0.90055344  0.14983771
   0.86600724  0.90055344  0.14983771
   0.19934057  0.23388678  0.64983771
   0.53267391  0.23388678  0.64983771
   0.86600724  0.23388678  0.64983771
   0.19934057  0.56722011  0.64983771
   0.53267391  0.56722011  0.64983771
   0.86600724  0.56722011  0.64983771
   0.19934057  0.90055344  0.64983771
   0.53267391  0.90055344  0.64983771
   0.86600724  0.90055344  0.64983771
   0.09944656  0.13399276  0.35016229
   0.43277989  0.13399276  0.35016229
   0.76611322  0.13399276  0.35016229
   0.09944656  0.46732609  0.35016229
   0.43277989  0.46732609  0.35016229
   0.76611322  0.46732609  0.35016229
   0.09944656  0.80065943  0.35016229
   0.43277989  0.80065943  0.35016229
   0.76611322  0.80065943  0.35016229
   0.09944656  0.13399276  0.85016229
   0.43277989  0.13399276  0.85016229
   0.76611322  0.13399276  0.85016229
   0.09944656  0.46732609  0.85016229
   0.43277989  0.46732609  0.85016229
   0.76611322  0.46732609  0.85016229
   0.09944656  0.80065943  0.85016229
   0.43277989  0.80065943  0.85016229
   0.76611322  0.80065943  0.85016229
   0.03603208  0.07057630  0.15917981
   0.36936541  0.07057630  0.15990037
   0.70269875  0.07057630  0.15990037
   0.03603208  0.40390964  0.15990037
   0.36936541  0.40390964  0.15990037
   0.70269875  0.40390964  0.15990037
   0.03603208  0.73724297  0.15990037
   0.36936541  0.73724297  0.15990037
   0.70269875  0.73724297  0.15990037
   0.03603208  0.07057630  0.65990037
   0.36936541  0.07057630  0.65990037
   0.70269875  0.07057630  0.65990037
   0.03603208  0.40390964  0.65990037
   0.36936541  0.40390964  0.65990037
   0.70269875  0.40390964  0.65990037
   0.03603208  0.73724297  0.65990037
   0.36936541  0.73724297  0.65990037
   0.70269875  0.73724297  0.65990037
   0.26275703  0.29730125  0.34009963
   0.59609036  0.29730125  0.34009963
   0.92942370  0.29730125  0.34009963
   0.26275703  0.63063459  0.34009963
   0.59609036  0.63063459  0.34009963
   0.92942370  0.63063459  0.34009963
   0.26275703  0.96396792  0.34009963
   0.59609036  0.96396792  0.34009963
   0.92942370  0.96396792  0.34009963
   0.26275703  0.29730125  0.84009963
   0.59609036  0.29730125  0.84009963
   0.92942370  0.29730125  0.84009963
   0.26275703  0.63063459  0.84009963
   0.59609036  0.63063459  0.84009963
   0.92942370  0.63063459  0.84009963
   0.26275703  0.96396792  0.84009963
   0.59609036  0.96396792  0.84009963
   0.92942370  0.96396792  0.84009963
 
 position of ions in cartesian coordinates  (Angst):
   1.72948263  0.20030204 -0.00149989
   5.58834371  0.20099080 -0.00468086
   9.44720479  0.20167956 -0.00786183
   1.72882079  4.05916865 -0.00468087
   5.58768187  4.05985741 -0.00786184
   9.44654295  4.06054617 -0.01104281
   1.72815895  7.91803526 -0.00786185
   5.58702003  7.91872402 -0.01104282
   9.44588111  7.91941278 -0.01422379
  -0.19435708 -1.72421332  6.38167970
   3.66450400 -1.72352456  6.37849873
   7.52336508 -1.72283580  6.37531776
  -0.19501892  2.13465329  6.37849872
   3.66384216  2.13534205  6.37531775
   7.52270324  2.13603081  6.37213678
  -0.19568076  5.99351990  6.37531774
   3.66318032  5.99420866  6.37213677
   7.52204140  5.99489742  6.36895580
   1.73466311  0.20548490  6.37831754
   5.59352419  0.20617366  6.37513657
   9.45238527  0.20686242  6.37195560
   1.73400127  4.06435151  6.37513656
   5.59286235  4.06504027  6.37195559
   9.45172343  4.06572903  6.36877462
   1.73333943  7.92321812  6.37195558
   5.59220051  7.92390688  6.36877461
   9.45106159  7.92459564  6.36559364
  -0.18917660 -1.71903046 12.76149713
   3.66968448 -1.71834170 12.75831616
   7.52854556 -1.71765294 12.75513519
  -0.18983844  2.13983615 12.75831615
   3.66902264  2.14052491 12.75513518
   7.52788372  2.14121367 12.75195421
  -0.19050028  5.99870276 12.75513517
   3.66836080  5.99939152 12.75195420
   7.52722188  6.00008028 12.74877323
   3.65889391  0.20059014 -0.00318097
   7.51775499  0.20127890 -0.00636194
  11.37661607  0.20196766 -0.00954291
   3.65823207  4.05945675 -0.00636195
   7.51709315  4.06014551 -0.00954292
  11.37595423  4.06083427 -0.01272389
   3.65757023  7.91832336 -0.00954293
   7.51643131  7.91901212 -0.01272390
  11.37529239  7.91970088 -0.01590487
   1.73505420 -1.72392522  6.37999862
   5.59391528 -1.72323646  6.37681765
   9.45277636 -1.72254770  6.37363668
   1.73439236  2.13494139  6.37681764
   5.59325344  2.13563015  6.37363667
   9.45211452  2.13631891  6.37045570
   1.73373052  5.99380800  6.37363666
   5.59259160  5.99449676  6.37045569
   9.45145268  5.99518552  6.36727472
   1.73069086  2.13129554  1.90874783
   5.58955194  2.13198430  1.90556686
   9.44841302  2.13267306  1.90238589
   1.73002902  5.99016215  1.90556685
   5.58889010  5.99085091  1.90238588
   9.44775118  5.99153967  1.89920491
   1.72936718  9.84902876  1.90238587
   5.58822826  9.84971752  1.89920490
   9.44708934  9.85040628  1.89602393
  -0.19314885  0.20678018  8.29192742
   3.66571223  0.20746894  8.28874645
   7.52457331  0.20815770  8.28556548
  -0.19381069  4.06564679  8.28874644
   3.66505039  4.06633555  8.28556547
   7.52391147  4.06702431  8.28238450
  -0.19447253  7.92451340  8.28556546
   3.66438855  7.92520216  8.28238449
   7.52324963  7.92589092  8.27920352
  -0.19632692  0.20360066  4.46806981
   3.66253416  0.20428942  4.46488884
   7.52139524  0.20497818  4.46170787
  -0.19698876  4.06246726  4.46488883
   3.66187232  4.06315602  4.46170786
   7.52073340  4.06384478  4.45852689
  -0.19765060  7.92133388  4.46170785
   3.66121048  7.92202264  4.45852688
   7.52007156  7.92271140  4.45534591
  -2.12016663 -1.72091470 10.85124940
   1.73869445 -1.72022594 10.84806843
   5.59755553 -1.71953718 10.84488746
  -2.12082847  2.13795190 10.84806842
   1.73803261  2.13864066 10.84488745
   5.59689369  2.13932942 10.84170648
  -2.12149031  5.99681852 10.84488744
   1.73737077  5.99750728 10.84170647
   5.59623185  5.99819604 10.83852550
  -0.19548464  0.20442009  2.03112929
   3.66060394  0.20233538  2.03714729
   7.51946502  0.20302414  2.03396632
  -0.19891898  4.06051323  2.03714728
   3.65994210  4.06120199  2.03396631
   7.51880318  4.06189075  2.03078534
  -0.19958082  7.91937984  2.03396630
   3.65928026  7.92006860  2.03078533
   7.51814134  7.92075736  2.02760436
  -2.12209685 -1.72286874  8.42350785
   1.73676423 -1.72217998  8.42032688
   5.59562531 -1.72149122  8.41714591
  -2.12275869  2.13599787  8.42032687
   1.73610239  2.13668663  8.41714590
   5.59496347  2.13737539  8.41396493
  -2.12342053  5.99486448  8.41714589
   1.73544055  5.99555324  8.41396492
   5.59430163  5.99624200  8.41078395
   1.73264400  2.13322666  4.33648938
   5.59150508  2.13391542  4.33330841
   9.45036616  2.13460418  4.33012744
   1.73198216  5.99209327  4.33330840
   5.59084324  5.99278203  4.33012743
   9.44970432  5.99347079  4.32694646
   1.73132032  9.85095988  4.33012742
   5.59018140  9.85164864  4.32694645
   9.44904248  9.85233740  4.32376548
  -0.19119571  0.20871130 10.71966897
   3.66766537  0.20940006 10.71648800
   7.52652645  0.21008882 10.71330703
  -0.19185755  4.06757791 10.71648799
   3.66700353  4.06826667 10.71330702
   7.52586461  4.06895543 10.71012605
  -0.19251939  7.92644452 10.71330701
   3.66634169  7.92713328 10.71012604
   7.52520277  7.92782204 10.70694507
 


--------------------------------------------------------------------------------------------------------


 k-point  1 :   0.0000 0.0000 0.0000  plane waves:   64263
 k-point  2 :   0.3333 0.0000-0.0000  plane waves:   64335
 k-point  3 :  -0.0000 0.3333 0.0000  plane waves:   64335
 k-point  4 :   0.3333 0.3333-0.0000  plane waves:   64357
 k-point  5 :  -0.3333 0.3333 0.0000  plane waves:   64358
 k-point  6 :   0.0000-0.0000 0.5000  plane waves:   64288
 k-point  7 :   0.3333-0.0000 0.5000  plane waves:   64351
 k-point  8 :   0.0000 0.3333 0.5000  plane waves:   64351
 k-point  9 :   0.3333 0.3333 0.5000  plane waves:   64367
 k-point 10 :  -0.3333 0.3333 0.5000  plane waves:   64380

 maximum and minimum number of plane-waves per node :     10768    10677

 maximum number of plane-waves:     64380
 maximum index in each direction: 
   IXMAX=   24   IYMAX=   24   IZMAX=   28
   IXMIN=  -24   IYMIN=  -24   IZMIN=  -29


 parallel 3D FFT for wavefunctions:
    minimum data exchange during FFTs selected (reduces bandwidth)
 parallel 3D FFT for charge:
    minimum data exchange during FFTs selected (reduces bandwidth)


 total amount of memory used by VASP MPI-rank0  2010615. kBytes
=======================================================================

   base      :      30000. kBytes
   nonl-proj :      83483. kBytes
   fftplans  :      59337. kBytes
   grid      :      50429. kBytes
   one-center:        653. kBytes
   wavefun   :    1786713. kBytes
 
     INWAV:  cpu time    0.0000: real time    0.0002
 Broyden mixing: mesh for mixing (old mesh)
   NGX = 49   NGY = 49   NGZ = 57
  (NGX  =192   NGY  =192   NGZ  =240)
  gives a total of 136857 points

 initial charge density was supplied:
 number of electron     936.0000012 magnetization     144.0000005
 charge density for first step will be calculated from the start-wavefunctions


--------------------------------------------------------------------------------------------------------


 Maximum index for augmentation-charges         6958 (set IRDMAX)


--------------------------------------------------------------------------------------------------------


 First call to EWALD:  gamma=   0.148
 Maximum number of real-space cells 3x 3x 3
 Maximum number of reciprocal cells 3x 3x 3

    FEWALD:  cpu time    0.0173: real time    0.0173


--------------------------------------- Iteration      1(   1)  ---------------------------------------


    POTLOK:  cpu time    0.6138: real time    0.6190
    SETDIJ:  cpu time    1.5732: real time    1.5797
    TRIAL :  cpu time  253.9918: real time  256.5880
    CORREC:  cpu time    0.0041: real time    0.0044
    --------------------------------------------
      LOOP:  cpu time  256.7217: real time  259.3709

 eigenvalue-minimisations  : 28328
 total energy-change (2. order) : 0.1264843E+05  (-0.5394385E+05)
 number of electron     936.0000012 magnetization     144.0000005
 augmentation part      936.0000012 magnetization     144.0000005

 Free energy of the ion-electron system (eV)
  ---------------------------------------------------
  alpha Z        PSCENC =      2639.27042227
  Ewald energy   TEWEN  =    -69234.53707085
  -Hartree energ DENC   =    -34828.15187367
  -exchange      EXHF   =         0.00000000
  -V(xc)+E(xc)   XCENC  =      3975.73820360
  PAW double counting   =    109952.41695739  -113408.94482908
  entropy T*S    EENTRO =        -0.02329076
  eigenvalues    EBANDS =        37.32741272
  atomic energy  EATOM  =    113515.32941094
  ---------------------------------------------------
  free energy    TOTEN  =     12648.42534256 eV

  energy without entropy =    12648.44863332  energy(sigma->0) =    12648.43698794


--------------------------------------------------------------------------------------------------------




--------------------------------------- Iteration      1(   2)  ---------------------------------------


    TRIAL :  cpu time  246.8709: real time  249.3736
    CORREC:  cpu time    0.0041: real time    0.0042
    --------------------------------------------
      LOOP:  cpu time  246.8785: real time  249.3821

 eigenvalue-minimisations  : 27200
 total energy-change (2. order) :-0.1127350E+05  (-0.1054568E+05)
 number of electron     936.0000012 magnetization     144.0000005
 augmentation part      936.0000012 magnetization     144.0000005

 Free energy of the ion-electron system (eV)
  ---------------------------------------------------
  alpha Z        PSCENC =      2639.27042227
  Ewald energy   TEWEN  =    -69234.53707085
  -Hartree energ DENC   =    -34828.15187367
  -exchange      EXHF   =         0.00000000
  -V(xc)+E(xc)   XCENC  =      3975.73820360
  PAW double counting   =    109952.41695739  -113408.94482908
  entropy T*S    EENTRO =        -0.08251428
  eigenvalues    EBANDS =    -11236.11438462
  atomic energy  EATOM  =    113515.32941094
  ---------------------------------------------------
  free energy    TOTEN  =      1374.92432170 eV

  energy without entropy =     1375.00683598  energy(sigma->0) =     1374.96557884


--------------------------------------------------------------------------------------------------------




--------------------------------------- Iteration      1(   3)  ---------------------------------------


    TRIAL :  cpu time  264.6715: real time  267.4529
    CORREC:  cpu time    0.0013: real time    0.0013
    --------------------------------------------
      LOOP:  cpu time  264.6793: real time  267.4637

 eigenvalue-minimisations  : 29872
 total energy-change (2. order) :-0.1785613E+04  (-0.1558381E+04)
 number of electron     936.0000012 magnetization     144.0000005
 augmentation part      936.0000012 magnetization     144.0000005

 Free energy of the ion-electron system (eV)
  ---------------------------------------------------
  alpha Z        PSCENC =      2639.27042227
  Ewald energy   TEWEN  =    -69234.53707085
  -Hartree energ DENC   =    -34828.15187367
  -exchange      EXHF   =         0.00000000
  -V(xc)+E(xc)   XCENC  =      3975.73820360
  PAW double counting   =    109952.41695739  -113408.94482908
  entropy T*S    EENTRO =        -0.00000000
  eigenvalues    EBANDS =    -13021.81003265
  atomic energy  EATOM  =    113515.32941094
  ---------------------------------------------------
  free energy    TOTEN  =      -410.68881205 eV

  energy without entropy =     -410.68881205  energy(sigma->0) =     -410.68881205


--------------------------------------------------------------------------------------------------------




--------------------------------------- Iteration      1(   4)  ---------------------------------------


    TRIAL :  cpu time  288.5119: real time  291.5815
    CORREC:  cpu time    0.0012: real time    0.0014
    --------------------------------------------
      LOOP:  cpu time  288.5179: real time  291.5886

 eigenvalue-minimisations  : 33264
 total energy-change (2. order) :-0.2221326E+03  (-0.2191964E+03)
 number of electron     936.0000012 magnetization     144.0000005
 augmentation part      936.0000012 magnetization     144.0000005

 Free energy of the ion-electron system (eV)
  ---------------------------------------------------
  alpha Z        PSCENC =      2639.27042227
  Ewald energy   TEWEN  =    -69234.53707085
  -Hartree energ DENC   =    -34828.15187367
  -exchange      EXHF   =         0.00000000
  -V(xc)+E(xc)   XCENC  =      3975.73820360
  PAW double counting   =    109952.41695739  -113408.94482908
  entropy T*S    EENTRO =        -0.00000000
  eigenvalues    EBANDS =    -13243.94265543
  atomic energy  EATOM  =    113515.32941094
  ---------------------------------------------------
  free energy    TOTEN  =      -632.82143483 eV

  energy without entropy =     -632.82143483  energy(sigma->0) =     -632.82143483


--------------------------------------------------------------------------------------------------------




--------------------------------------- Iteration      1(   5)  ---------------------------------------


    TRIAL :  cpu time  375.8495: real time  379.6133
    CORREC:  cpu time    0.0013: real time    0.0015
    CHARGE:  cpu time    7.3655: real time    7.3862
    --------------------------------------------
      LOOP:  cpu time  383.2219: real time  387.0081

 eigenvalue-minimisations  : 46040
 total energy-change (2. order) :-0.2410823E+02  (-0.2391437E+02)
 number of electron     936.0000012 magnetization     144.0000005
 augmentation part      323.4163904 magnetization      94.2652740

 Free energy of the ion-electron system (eV)
  ---------------------------------------------------
  alpha Z        PSCENC =      2639.27042227
  Ewald energy   TEWEN  =    -69234.53707085
  -Hartree energ DENC   =    -34828.15187367
  -exchange      EXHF   =         0.00000000
  -V(xc)+E(xc)   XCENC  =      3975.73820360
  PAW double counting   =    109952.41695739  -113408.94482908
  entropy T*S    EENTRO =        -0.00000000
  eigenvalues    EBANDS =    -13268.05088544
  atomic energy  EATOM  =    113515.32941094
  ---------------------------------------------------
  free energy    TOTEN  =      -656.92966484 eV

  energy without entropy =     -656.92966484  energy(sigma->0) =     -656.92966484


--------------------------------------------------------------------------------------------------------




--------------------------------------- Iteration      1(   6)  ---------------------------------------


    POTLOK:  cpu time    0.6229: real time    0.6312
    SETDIJ:  cpu time    1.5280: real time    1.5793
    TRIAL :  cpu time  126.4038: real time  127.9484
    CORREC:  cpu time   31.3668: real time   32.0538
    CHARGE:  cpu time    7.4027: real time    7.4285
    --------------------------------------------
      LOOP:  cpu time  167.3307: real time  169.6537

 eigenvalue-minimisations  :     0
 total energy-change (2. order) : 0.4581224E-01  (-0.5207672E+00)
 number of electron     936.0000012 magnetization     144.0000005
 augmentation part      323.0706839 magnetization      94.2309284

 Free energy of the ion-electron system (eV)
  ---------------------------------------------------
  alpha Z        PSCENC =      2639.27042227
  Ewald energy   TEWEN  =    -69234.53707085
  -Hartree energ DENC   =    -34814.43291484
  -exchange      EXHF   =         0.00000000
  -V(xc)+E(xc)   XCENC  =      3973.74446232
  PAW double counting   =    109391.35367116  -112838.97802809
  entropy T*S    EENTRO =        -0.00000000
  eigenvalues    EBANDS =    -13288.63380550
  atomic energy  EATOM  =    113515.32941094
  ---------------------------------------------------
  free energy    TOTEN  =      -656.88385259 eV

  energy without entropy =     -656.88385259  energy(sigma->0) =     -656.88385259


--------------------------------------------------------------------------------------------------------




--------------------------------------- Iteration      1(   7)  ---------------------------------------


    POTLOK:  cpu time    0.6114: real time    0.6117
    SETDIJ:  cpu time    1.6398: real time    1.6402
    TRIAL :  cpu time  126.6516: real time  127.7509
    CORREC:  cpu time   31.6907: real time   32.0333
    CHARGE:  cpu time    7.4269: real time    7.4314
    --------------------------------------------
      LOOP:  cpu time  168.0280: real time  169.4768

 eigenvalue-minimisations  :     0
 total energy-change (2. order) :-0.5209511E+00  (-0.3028686E+00)
 number of electron     936.0000012 magnetization     144.0000005
 augmentation part      322.6901995 magnetization      94.2103254

 Free energy of the ion-electron system (eV)
  ---------------------------------------------------
  alpha Z        PSCENC =      2639.27042227
  Ewald energy   TEWEN  =    -69234.53707085
  -Hartree energ DENC   =    -34823.42113219
  -exchange      EXHF   =         0.00000000
  -V(xc)+E(xc)   XCENC  =      3974.73977935
  PAW double counting   =    109629.88900883  -113080.42022551
  entropy T*S    EENTRO =        -0.00000000
  eigenvalues    EBANDS =    -13278.25499649
  atomic energy  EATOM  =    113515.32941094
  ---------------------------------------------------
  free energy    TOTEN  =      -657.40480365 eV

  energy without entropy =     -657.40480365  energy(sigma->0) =     -657.40480365


--------------------------------------------------------------------------------------------------------




--------------------------------------- Iteration      1(   8)  ---------------------------------------


    POTLOK:  cpu time    0.6116: real time    0.6120
    SETDIJ:  cpu time    1.5925: real time    1.6064
    TRIAL :  cpu time  126.6715: real time  128.0332
    CORREC:  cpu time   31.3726: real time   31.8981
    CHARGE:  cpu time    7.3697: real time    7.3957
    --------------------------------------------
      LOOP:  cpu time  167.6292: real time  169.5569

 eigenvalue-minimisations  :     0
 total energy-change (2. order) :-0.3029134E+00  (-0.1201752E+00)
 number of electron     936.0000012 magnetization     144.0000005
 augmentation part      322.4010999 magnetization      94.1905014

 Free energy of the ion-electron system (eV)
  ---------------------------------------------------
  alpha Z        PSCENC =      2639.27042227
  Ewald energy   TEWEN  =    -69234.53707085
  -Hartree energ DENC   =    -34827.70878652
  -exchange      EXHF   =         0.00000000
  -V(xc)+E(xc)   XCENC  =      3975.30706507
  PAW double counting   =    109906.55704511  -113360.58599351
  entropy T*S    EENTRO =        -0.00000000
  eigenvalues    EBANDS =    -13271.33980953
  atomic energy  EATOM  =    113515.32941094
  ---------------------------------------------------
  free energy    TOTEN  =      -657.70771701 eV

  energy without entropy =     -657.70771701  energy(sigma->0) =     -657.70771701


--------------------------------------------------------------------------------------------------------




--------------------------------------- Iteration      1(   9)  ---------------------------------------


    POTLOK:  cpu time    0.6041: real time    0.6138
    SETDIJ:  cpu time    1.5564: real time    1.5837
    TRIAL :  cpu time  126.3927: real time  127.6606
    CORREC:  cpu time   30.7438: real time   30.9901
    CHARGE:  cpu time    7.4316: real time    7.4412
    --------------------------------------------
      LOOP:  cpu time  166.7392: real time  168.3012

 eigenvalue-minimisations  :     0
 total energy-change (2. order) :-0.1201942E+00  (-0.4461757E-01)
 number of electron     936.0000012 magnetization     144.0000005
 augmentation part      322.2899038 magnetization      94.1802561

 Free energy of the ion-electron system (eV)
  ---------------------------------------------------
  alpha Z        PSCENC =      2639.27042227
  Ewald energy   TEWEN  =    -69234.53707085
  -Hartree energ DENC   =    -34823.96579724
  -exchange      EXHF   =         0.00000000
  -V(xc)+E(xc)   XCENC  =      3975.35976898
  PAW double counting   =    110029.15547128  -113484.31060046
  entropy T*S    EENTRO =        -0.00000000
  eigenvalues    EBANDS =    -13274.12951612
  atomic energy  EATOM  =    113515.32941094
  ---------------------------------------------------
  free energy    TOTEN  =      -657.82791120 eV

  energy without entropy =     -657.82791120  energy(sigma->0) =     -657.82791120


--------------------------------------------------------------------------------------------------------




--------------------------------------- Iteration      1(  10)  ---------------------------------------


    POTLOK:  cpu time    0.6125: real time    0.6163
    SETDIJ:  cpu time    1.5812: real time    1.5864
    TRIAL :  cpu time  126.6725: real time  128.0488
    CORREC:  cpu time   31.3616: real time   31.8366
    CHARGE:  cpu time    7.2789: real time    7.3342
    --------------------------------------------
      LOOP:  cpu time  167.5100: real time  169.4295

 eigenvalue-minimisations  :     0
 total energy-change (2. order) :-0.4461610E-01  (-0.1731143E-01)
 number of electron     936.0000012 magnetization     144.0000005
 augmentation part      322.2220452 magnetization      94.1690239

 Free energy of the ion-electron system (eV)
  ---------------------------------------------------
  alpha Z        PSCENC =      2639.27042227
  Ewald energy   TEWEN  =    -69234.53707085
  -Hartree energ DENC   =    -34828.66145952
  -exchange      EXHF   =         0.00000000
  -V(xc)+E(xc)   XCENC  =      3975.72923113
  PAW double counting   =    110049.98324562  -113506.42371287
  entropy T*S    EENTRO =        -0.00000000
  eigenvalues    EBANDS =    -13268.56259403
  atomic energy  EATOM  =    113515.32941094
  ---------------------------------------------------
  free energy    TOTEN  =      -657.87252730 eV

  energy without entropy =     -657.87252730  energy(sigma->0) =     -657.87252730


--------------------------------------------------------------------------------------------------------




--------------------------------------- Iteration      1(  11)  ---------------------------------------


    POTLOK:  cpu time    0.6139: real time    0.6155
    SETDIJ:  cpu time    1.5871: real time    1.5985
    TRIAL :  cpu time  126.2343: real time  127.6029
    CORREC:  cpu time   31.2446: real time   31.5951
    CHARGE:  cpu time    7.3350: real time    7.3609
    --------------------------------------------
      LOOP:  cpu time  167.0339: real time  168.7950

 eigenvalue-minimisations  :     0
 total energy-change (2. order) :-0.1731576E-01  (-0.5404962E-02)
 number of electron     936.0000012 magnetization     144.0000005
 augmentation part      322.2039352 magnetization      94.1638505

 Free energy of the ion-electron system (eV)
  ---------------------------------------------------
  alpha Z        PSCENC =      2639.27042227
  Ewald energy   TEWEN  =    -69234.53707085
  -Hartree energ DENC   =    -34828.30168169
  -exchange      EXHF   =         0.00000000
  -V(xc)+E(xc)   XCENC  =      3975.76223827
  PAW double counting   =    110012.53192692  -113469.13406127
  entropy T*S    EENTRO =        -0.00000000
  eigenvalues    EBANDS =    -13268.81102764
  atomic energy  EATOM  =    113515.32941094
  ---------------------------------------------------
  free energy    TOTEN  =      -657.88984306 eV

  energy without entropy =     -657.88984306  energy(sigma->0) =     -657.88984306


--------------------------------------------------------------------------------------------------------




--------------------------------------- Iteration      1(  12)  ---------------------------------------


    POTLOK:  cpu time    0.6128: real time    0.6140
    SETDIJ:  cpu time    1.5730: real time    1.5806
    TRIAL :  cpu time  125.7839: real time  127.1641
    CORREC:  cpu time   31.5586: real time   31.7449
    CHARGE:  cpu time    7.3783: real time    7.4227
    --------------------------------------------
      LOOP:  cpu time  166.9173: real time  168.5381

 eigenvalue-minimisations  :     0
 total energy-change (2. order) :-0.5405125E-02  (-0.2511354E-02)
 number of electron     936.0000012 magnetization     144.0000005
 augmentation part      322.2001732 magnetization      94.1581150

 Free energy of the ion-electron system (eV)
  ---------------------------------------------------
  alpha Z        PSCENC =      2639.27042227
  Ewald energy   TEWEN  =    -69234.53707085
  -Hartree energ DENC   =    -34828.10414635
  -exchange      EXHF   =         0.00000000
  -V(xc)+E(xc)   XCENC  =      3975.74300940
  PAW double counting   =    109975.44216821  -113432.21284685
  entropy T*S    EENTRO =        -0.00000000
  eigenvalues    EBANDS =    -13268.82619495
  atomic energy  EATOM  =    113515.32941094
  ---------------------------------------------------
  free energy    TOTEN  =      -657.89524818 eV

  energy without entropy =     -657.89524818  energy(sigma->0) =     -657.89524818


--------------------------------------------------------------------------------------------------------




--------------------------------------- Iteration      1(  13)  ---------------------------------------


    POTLOK:  cpu time    0.6084: real time    0.6157
    SETDIJ:  cpu time    1.5715: real time    1.5784
    TRIAL :  cpu time  125.9888: real time  126.9569
    CORREC:  cpu time   31.6920: real time   32.0477
    CHARGE:  cpu time    7.3952: real time    7.4760
    --------------------------------------------
      LOOP:  cpu time  167.2600: real time  168.6804

 eigenvalue-minimisations  :     0
 total energy-change (2. order) :-0.2515240E-02  (-0.1450373E-02)
 number of electron     936.0000012 magnetization     144.0000005
 augmentation part      322.2053769 magnetization      94.1559733

 Free energy of the ion-electron system (eV)
  ---------------------------------------------------
  alpha Z        PSCENC =      2639.27042227
  Ewald energy   TEWEN  =    -69234.53707085
  -Hartree energ DENC   =    -34828.21084753
  -exchange      EXHF   =         0.00000000
  -V(xc)+E(xc)   XCENC  =      3975.76314629
  PAW double counting   =    109945.66814039  -113402.30774701
  entropy T*S    EENTRO =        -0.00000000
  eigenvalues    EBANDS =    -13268.87321791
  atomic energy  EATOM  =    113515.32941094
  ---------------------------------------------------
  free energy    TOTEN  =      -657.89776342 eV

  energy without entropy =     -657.89776342  energy(sigma->0) =     -657.89776342


--------------------------------------------------------------------------------------------------------




--------------------------------------- Iteration      1(  14)  ---------------------------------------


    POTLOK:  cpu time    0.6288: real time    0.6331
    SETDIJ:  cpu time    1.5764: real time    1.5868
    TRIAL :  cpu time  126.8883: real time  127.9736
    CORREC:  cpu time   31.7558: real time   32.1217
    CHARGE:  cpu time    7.3899: real time    7.3938
    --------------------------------------------
      LOOP:  cpu time  168.2494: real time  169.7197

 eigenvalue-minimisations  :     0
 total energy-change (2. order) :-0.1449639E-02  (-0.8382702E-03)
 number of electron     936.0000012 magnetization     144.0000005
 augmentation part      322.2050500 magnetization      94.1514053

 Free energy of the ion-electron system (eV)
  ---------------------------------------------------
  alpha Z        PSCENC =      2639.27042227
  Ewald energy   TEWEN  =    -69234.53707085
  -Hartree energ DENC   =    -34828.54889589
  -exchange      EXHF   =         0.00000000
  -V(xc)+E(xc)   XCENC  =      3975.75731531
  PAW double counting   =    109936.08411124  -113392.84270762
  entropy T*S    EENTRO =        -0.00000000
  eigenvalues    EBANDS =    -13268.41179847
  atomic energy  EATOM  =    113515.32941094
  ---------------------------------------------------
  free energy    TOTEN  =      -657.89921306 eV

  energy without entropy =     -657.89921306  energy(sigma->0) =     -657.89921306


--------------------------------------------------------------------------------------------------------




--------------------------------------- Iteration      1(  15)  ---------------------------------------


    POTLOK:  cpu time    0.6115: real time    0.6117
    SETDIJ:  cpu time    1.5695: real time    1.5698
    TRIAL :  cpu time  126.0350: real time  127.5742
    CORREC:  cpu time   31.6388: real time   31.9783
    CHARGE:  cpu time    7.4080: real time    7.4119
    --------------------------------------------
      LOOP:  cpu time  167.2683: real time  169.1520

 eigenvalue-minimisations  :     0
 total energy-change (2. order) :-0.8422262E-03  (-0.4653554E-03)
 number of electron     936.0000012 magnetization     144.0000005
 augmentation part      322.2194813 magnetization      94.1528812

 Free energy of the ion-electron system (eV)
  ---------------------------------------------------
  alpha Z        PSCENC =      2639.27042227
  Ewald energy   TEWEN  =    -69234.53707085
  -Hartree energ DENC   =    -34827.71212836
  -exchange      EXHF   =         0.00000000
  -V(xc)+E(xc)   XCENC  =      3975.72779684
  PAW double counting   =    109936.54252424  -113393.03327562
  entropy T*S    EENTRO =        -0.00000000
  eigenvalues    EBANDS =    -13269.48773475
  atomic energy  EATOM  =    113515.32941094
  ---------------------------------------------------
  free energy    TOTEN  =      -657.90005529 eV

  energy without entropy =     -657.90005529  energy(sigma->0) =     -657.90005529


--------------------------------------------------------------------------------------------------------




--------------------------------------- Iteration      1(  16)  ---------------------------------------


    POTLOK:  cpu time    0.6099: real time    0.6105
    SETDIJ:  cpu time    1.5809: real time    1.5813
    TRIAL :  cpu time  126.1602: real time  127.2069
    CORREC:  cpu time   31.6834: real time   31.9350
    CHARGE:  cpu time    7.2808: real time    7.3953
    --------------------------------------------
      LOOP:  cpu time  167.3357: real time  168.7512

 eigenvalue-minimisations  :     0
 total energy-change (2. order) :-0.4638460E-03  (-0.2455800E-03)
 number of electron     936.0000012 magnetization     144.0000005
 augmentation part      322.2125252 magnetization      94.1496953

 Free energy of the ion-electron system (eV)
  ---------------------------------------------------
  alpha Z        PSCENC =      2639.27042227
  Ewald energy   TEWEN  =    -69234.53707085
  -Hartree energ DENC   =    -34828.96703272
  -exchange      EXHF   =         0.00000000
  -V(xc)+E(xc)   XCENC  =      3975.76902022
  PAW double counting   =    109950.39370399  -113407.10094298
  entropy T*S    EENTRO =        -0.00000000
  eigenvalues    EBANDS =    -13268.05803000
  atomic energy  EATOM  =    113515.32941094
  ---------------------------------------------------
  free energy    TOTEN  =      -657.90051913 eV

  energy without entropy =     -657.90051913  energy(sigma->0) =     -657.90051913


--------------------------------------------------------------------------------------------------------




--------------------------------------- Iteration      1(  17)  ---------------------------------------


    POTLOK:  cpu time    0.6347: real time    0.6373
    SETDIJ:  cpu time    1.5694: real time    1.5936
    TRIAL :  cpu time  126.3149: real time  127.6303
    CORREC:  cpu time   31.5826: real time   31.9028
    CHARGE:  cpu time    7.3190: real time    7.3927
    --------------------------------------------
      LOOP:  cpu time  167.4299: real time  169.1788

 eigenvalue-minimisations  :     0
 total energy-change (2. order) :-0.2491072E-03  (-0.1761755E-03)
 number of electron     936.0000012 magnetization     144.0000005
 augmentation part      322.2219044 magnetization      94.1526742

 Free energy of the ion-electron system (eV)
  ---------------------------------------------------
  alpha Z        PSCENC =      2639.27042227
  Ewald energy   TEWEN  =    -69234.53707085
  -Hartree energ DENC   =    -34827.36908291
  -exchange      EXHF   =         0.00000000
  -V(xc)+E(xc)   XCENC  =      3975.70620168
  PAW double counting   =    109953.35272424  -113409.72376361
  entropy T*S    EENTRO =        -0.00000000
  eigenvalues    EBANDS =    -13269.92961001
  atomic energy  EATOM  =    113515.32941094
  ---------------------------------------------------
  free energy    TOTEN  =      -657.90076824 eV

  energy without entropy =     -657.90076824  energy(sigma->0) =     -657.90076824


--------------------------------------------------------------------------------------------------------




--------------------------------------- Iteration      1(  18)  ---------------------------------------


    POTLOK:  cpu time    0.6317: real time    0.6355
    SETDIJ:  cpu time    1.5633: real time    1.5781
    TRIAL :  cpu time  126.4832: real time  127.5760
    CORREC:  cpu time   31.4002: real time   31.8221
    CHARGE:  cpu time    7.2159: real time    7.3667
    --------------------------------------------
      LOOP:  cpu time  167.3030: real time  168.9883

 eigenvalue-minimisations  :     0
 total energy-change (2. order) :-0.1752779E-03  (-0.1339353E-03)
 number of electron     936.0000012 magnetization     144.0000005
 augmentation part      322.2163905 magnetization      94.1517531

 Free energy of the ion-electron system (eV)
  ---------------------------------------------------
  alpha Z        PSCENC =      2639.27042227
  Ewald energy   TEWEN  =    -69234.53707085
  -Hartree energ DENC   =    -34828.66020691
  -exchange      EXHF   =         0.00000000
  -V(xc)+E(xc)   XCENC  =      3975.75488015
  PAW double counting   =    109960.04594114  -113416.65799419
  entropy T*S    EENTRO =        -0.00000000
  eigenvalues    EBANDS =    -13268.44632607
  atomic energy  EATOM  =    113515.32941094
  ---------------------------------------------------
  free energy    TOTEN  =      -657.90094352 eV

  energy without entropy =     -657.90094352  energy(sigma->0) =     -657.90094352


--------------------------------------------------------------------------------------------------------




--------------------------------------- Iteration      1(  19)  ---------------------------------------


    POTLOK:  cpu time    0.6302: real time    0.6372
    SETDIJ:  cpu time    1.5681: real time    1.5827
    TRIAL :  cpu time  126.5412: real time  127.7741
    CORREC:  cpu time   31.4711: real time   31.9845
    CHARGE:  cpu time    7.4434: real time    7.4510
    --------------------------------------------
      LOOP:  cpu time  167.6616: real time  169.4399

 eigenvalue-minimisations  :     0
 total energy-change (2. order) :-0.1352293E-03  (-0.8785887E-04)
 number of electron     936.0000012 magnetization     144.0000005
 augmentation part      322.2184992 magnetization      94.1537741

 Free energy of the ion-electron system (eV)
  ---------------------------------------------------
  alpha Z        PSCENC =      2639.27042227
  Ewald energy   TEWEN  =    -69234.53707085
  -Hartree energ DENC   =    -34827.80859528
  -exchange      EXHF   =         0.00000000
  -V(xc)+E(xc)   XCENC  =      3975.72469125
  PAW double counting   =    109955.42944366  -113411.87491450
  entropy T*S    EENTRO =        -0.00000000
  eigenvalues    EBANDS =    -13269.43446623
  atomic energy  EATOM  =    113515.32941094
  ---------------------------------------------------
  free energy    TOTEN  =      -657.90107875 eV

  energy without entropy =     -657.90107875  energy(sigma->0) =     -657.90107875


--------------------------------------------------------------------------------------------------------




--------------------------------------- Iteration      1(  20)  ---------------------------------------


    POTLOK:  cpu time    0.6122: real time    0.6128
    SETDIJ:  cpu time    1.5914: real time    1.5919
    TRIAL :  cpu time  126.6390: real time  127.8034
    CORREC:  cpu time   31.3999: real time   31.8195
    CHARGE:  cpu time    7.4714: real time    7.4878
    --------------------------------------------
      LOOP:  cpu time  167.7191: real time  169.3212

 eigenvalue-minimisations  :     0
 total energy-change (2. order) :-0.8734781E-04  (-0.4325246E-04)
 number of electron     936.0000012 magnetization     144.0000005
 augmentation part      322.2157216 magnetization      94.1534222

 Free energy of the ion-electron system (eV)
  ---------------------------------------------------
  alpha Z        PSCENC =      2639.27042227
  Ewald energy   TEWEN  =    -69234.53707085
  -Hartree energ DENC   =    -34828.29117805
  -exchange      EXHF   =         0.00000000
  -V(xc)+E(xc)   XCENC  =      3975.74005025
  PAW double counting   =    109953.60696035  -113410.15766944
  entropy T*S    EENTRO =        -0.00000000
  eigenvalues    EBANDS =    -13268.86209157
  atomic energy  EATOM  =    113515.32941094
  ---------------------------------------------------
  free energy    TOTEN  =      -657.90116610 eV

  energy without entropy =     -657.90116610  energy(sigma->0) =     -657.90116610


--------------------------------------------------------------------------------------------------------




--------------------------------------- Iteration      1(  21)  ---------------------------------------


    POTLOK:  cpu time    0.6121: real time    0.6124
    SETDIJ:  cpu time    1.5685: real time    1.5696
    TRIAL :  cpu time  126.0053: real time  127.1027
    CORREC:  cpu time   31.6377: real time   32.0246
    CHARGE:  cpu time    7.3206: real time    7.4370
    --------------------------------------------
      LOOP:  cpu time  167.1475: real time  168.7496

 eigenvalue-minimisations  :     0
 total energy-change (2. order) :-0.4333953E-04  (-0.2604429E-04)
 number of electron     936.0000012 magnetization     144.0000005
 augmentation part      322.2163766 magnetization      94.1542822

 Free energy of the ion-electron system (eV)
  ---------------------------------------------------
  alpha Z        PSCENC =      2639.27042227
  Ewald energy   TEWEN  =    -69234.53707085
  -Hartree energ DENC   =    -34828.00415332
  -exchange      EXHF   =         0.00000000
  -V(xc)+E(xc)   XCENC  =      3975.73310810
  PAW double counting   =    109950.59301593  -113407.07421748
  entropy T*S    EENTRO =        -0.00000000
  eigenvalues    EBANDS =    -13269.21172503
  atomic energy  EATOM  =    113515.32941094
  ---------------------------------------------------
  free energy    TOTEN  =      -657.90120944 eV

  energy without entropy =     -657.90120944  energy(sigma->0) =     -657.90120944


--------------------------------------------------------------------------------------------------------




--------------------------------------- Iteration      1(  22)  ---------------------------------------


    POTLOK:  cpu time    0.6226: real time    0.6316
    SETDIJ:  cpu time    1.5709: real time    1.5844
    TRIAL :  cpu time  126.9812: real time  128.1140
    CORREC:  cpu time   31.7932: real time   32.3566
    CHARGE:  cpu time    7.4311: real time    7.4979
    --------------------------------------------
      LOOP:  cpu time  168.4067: real time  170.1927

 eigenvalue-minimisations  :     0
 total energy-change (2. order) :-0.2570367E-04  (-0.1572123E-04)
 number of electron     936.0000012 magnetization     144.0000005
 augmentation part      322.2156437 magnetization      94.1540645

 Free energy of the ion-electron system (eV)
  ---------------------------------------------------
  alpha Z        PSCENC =      2639.27042227
  Ewald energy   TEWEN  =    -69234.53707085
  -Hartree energ DENC   =    -34828.18240833
  -exchange      EXHF   =         0.00000000
  -V(xc)+E(xc)   XCENC  =      3975.73765318
  PAW double counting   =    109951.23368968  -113407.77131996
  entropy T*S    EENTRO =        -0.00000000
  eigenvalues    EBANDS =    -13268.98161206
  atomic energy  EATOM  =    113515.32941094
  ---------------------------------------------------
  free energy    TOTEN  =      -657.90123514 eV

  energy without entropy =     -657.90123514  energy(sigma->0) =     -657.90123514


--------------------------------------------------------------------------------------------------------




--------------------------------------- Iteration      1(  23)  ---------------------------------------


    POTLOK:  cpu time    0.6201: real time    0.6266
    SETDIJ:  cpu time    1.5705: real time    1.5918
    TRIAL :  cpu time  125.9007: real time  127.3776
    CORREC:  cpu time   31.0308: real time   31.2404
    CHARGE:  cpu time    7.4179: real time    7.4640
    --------------------------------------------
      LOOP:  cpu time  166.5494: real time  168.3099

 eigenvalue-minimisations  :     0
 total energy-change (2. order) :-0.1572614E-04  (-0.8970867E-05)
 number of electron     936.0000012 magnetization     144.0000005
 augmentation part      322.2155900 magnetization      94.1540948

 Free energy of the ion-electron system (eV)
  ---------------------------------------------------
  alpha Z        PSCENC =      2639.27042227
  Ewald energy   TEWEN  =    -69234.53707085
  -Hartree energ DENC   =    -34828.12087335
  -exchange      EXHF   =         0.00000000
  -V(xc)+E(xc)   XCENC  =      3975.73733656
  PAW double counting   =    109951.67639693  -113408.19495623
  entropy T*S    EENTRO =        -0.00000000
  eigenvalues    EBANDS =    -13269.06191713
  atomic energy  EATOM  =    113515.32941094
  ---------------------------------------------------
  free energy    TOTEN  =      -657.90125087 eV

  energy without entropy =     -657.90125087  energy(sigma->0) =     -657.90125087


--------------------------------------------------------------------------------------------------------




--------------------------------------- Iteration      1(  24)  ---------------------------------------


    POTLOK:  cpu time    0.6336: real time    0.6369
    SETDIJ:  cpu time    1.5444: real time    1.5780
    TRIAL :  cpu time  126.2536: real time  127.6642
    CORREC:  cpu time   31.4601: real time   31.7147
    CHARGE:  cpu time    7.4835: real time    7.4874
    --------------------------------------------
      LOOP:  cpu time  167.3880: real time  169.0941

 eigenvalue-minimisations  :     0
 total energy-change (2. order) :-0.8921314E-05  (-0.4847849E-05)
 number of electron     936.0000012 magnetization     144.0000005
 augmentation part      322.2154335 magnetization      94.1539710

 Free energy of the ion-electron system (eV)
  ---------------------------------------------------
  alpha Z        PSCENC =      2639.27042227
  Ewald energy   TEWEN  =    -69234.53707085
  -Hartree energ DENC   =    -34828.14043109
  -exchange      EXHF   =         0.00000000
  -V(xc)+E(xc)   XCENC  =      3975.73723750
  PAW double counting   =    109952.55837994  -113409.08703368
  entropy T*S    EENTRO =        -0.00000000
  eigenvalues    EBANDS =    -13269.03217482
  atomic energy  EATOM  =    113515.32941094
  ---------------------------------------------------
  free energy    TOTEN  =      -657.90125979 eV

  energy without entropy =     -657.90125979  energy(sigma->0) =     -657.90125979


--------------------------------------------------------------------------------------------------------




--------------------------------------- Iteration      1(  25)  ---------------------------------------


    POTLOK:  cpu time    0.6126: real time    0.6129
    SETDIJ:  cpu time    1.5802: real time    1.5808
    TRIAL :  cpu time  126.6402: real time  127.6672
    CORREC:  cpu time   31.6511: real time   32.0019
    CHARGE:  cpu time    7.3372: real time    7.4066
    --------------------------------------------
      LOOP:  cpu time  167.8255: real time  169.2735

 eigenvalue-minimisations  :     0
 total energy-change (2. order) :-0.4854621E-05  (-0.3622755E-05)
 number of electron     936.0000012 magnetization     144.0000005
 augmentation part      322.2152853 magnetization      94.1538806

 Free energy of the ion-electron system (eV)
  ---------------------------------------------------
  alpha Z        PSCENC =      2639.27042227
  Ewald energy   TEWEN  =    -69234.53707085
  -Hartree energ DENC   =    -34828.13799485
  -exchange      EXHF   =         0.00000000
  -V(xc)+E(xc)   XCENC  =      3975.73778147
  PAW double counting   =    109952.88481875  -113409.41187411
  entropy T*S    EENTRO =        -0.00000000
  eigenvalues    EBANDS =    -13269.03675826
  atomic energy  EATOM  =    113515.32941094
  ---------------------------------------------------
  free energy    TOTEN  =      -657.90126464 eV

  energy without entropy =     -657.90126464  energy(sigma->0) =     -657.90126464


--------------------------------------------------------------------------------------------------------




--------------------------------------- Iteration      1(  26)  ---------------------------------------


    POTLOK:  cpu time    0.6119: real time    0.6133
    SETDIJ:  cpu time    1.5849: real time    1.5854
    TRIAL :  cpu time  125.8185: real time  126.8551
    CORREC:  cpu time   30.7336: real time   31.0595
    CHARGE:  cpu time    7.2928: real time    7.3630
    --------------------------------------------
      LOOP:  cpu time  166.0512: real time  167.4858

 eigenvalue-minimisations  :     0
 total energy-change (2. order) :-0.3612804E-05  (-0.2979958E-05)
 number of electron     936.0000012 magnetization     144.0000005
 augmentation part      322.2151705 magnetization      94.1538251

 Free energy of the ion-electron system (eV)
  ---------------------------------------------------
  alpha Z        PSCENC =      2639.27042227
  Ewald energy   TEWEN  =    -69234.53707085
  -Hartree energ DENC   =    -34828.13496264
  -exchange      EXHF   =         0.00000000
  -V(xc)+E(xc)   XCENC  =      3975.73784271
  PAW double counting   =    109952.95597283  -113409.48440855
  entropy T*S    EENTRO =        -0.00000000
  eigenvalues    EBANDS =    -13269.03847495
  atomic energy  EATOM  =    113515.32941094
  ---------------------------------------------------
  free energy    TOTEN  =      -657.90126825 eV

  energy without entropy =     -657.90126825  energy(sigma->0) =     -657.90126825


--------------------------------------------------------------------------------------------------------




--------------------------------------- Iteration      1(  27)  ---------------------------------------


    POTLOK:  cpu time    0.6139: real time    0.6156
    SETDIJ:  cpu time    1.5945: real time    1.6005
    TRIAL :  cpu time  126.4151: real time  127.2446
    CORREC:  cpu time   31.2596: real time   31.6512
    CHARGE:  cpu time    7.2602: real time    7.4048
    --------------------------------------------
      LOOP:  cpu time  167.1461: real time  168.5202

 eigenvalue-minimisations  :     0
 total energy-change (2. order) :-0.2944536E-05  (-0.1934873E-05)
 number of electron     936.0000012 magnetization     144.0000005
 augmentation part      322.2150114 magnetization      94.1536943

 Free energy of the ion-electron system (eV)
  ---------------------------------------------------
  alpha Z        PSCENC =      2639.27042227
  Ewald energy   TEWEN  =    -69234.53707085
  -Hartree energ DENC   =    -34828.13867345
  -exchange      EXHF   =         0.00000000
  -V(xc)+E(xc)   XCENC  =      3975.73772423
  PAW double counting   =    109952.77838514  -113409.31098626
  entropy T*S    EENTRO =        -0.00000000
  eigenvalues    EBANDS =    -13269.03048322
  atomic energy  EATOM  =    113515.32941094
  ---------------------------------------------------
  free energy    TOTEN  =      -657.90127120 eV

  energy without entropy =     -657.90127120  energy(sigma->0) =     -657.90127120


--------------------------------------------------------------------------------------------------------




--------------------------------------- Iteration      1(  28)  ---------------------------------------


    POTLOK:  cpu time    0.6202: real time    0.6239
    SETDIJ:  cpu time    1.5727: real time    1.5732
    TRIAL :  cpu time  126.5595: real time  127.5208
    CORREC:  cpu time   31.5451: real time   31.7211
    CHARGE:  cpu time    7.3070: real time    7.3656
[...]
   -.319E+00 -.317E+00 0.889E+02   0.326E+00 0.324E+00 -.894E+02   -.722E-02 -.747E-02 0.502E+00
   0.117E-01 0.735E-01 0.893E+02   -.115E-01 -.737E-01 -.898E+02   -.848E-03 0.511E-03 0.513E+00
   0.264E+00 0.167E+00 0.889E+02   -.268E+00 -.167E+00 -.894E+02   0.536E-02 0.400E-03 0.503E+00
   0.713E-01 0.138E-01 0.893E+02   -.717E-01 -.135E-01 -.898E+02   0.764E-03 -.110E-02 0.513E+00
   0.486E-01 0.507E-01 0.894E+02   -.486E-01 -.505E-01 -.899E+02   -.469E-03 -.720E-03 0.513E+00
   0.745E-01 0.139E-01 0.893E+02   -.749E-01 -.135E-01 -.898E+02   0.500E-03 -.109E-02 0.513E+00
   0.165E+00 0.266E+00 0.889E+02   -.165E+00 -.270E+00 -.894E+02   0.645E-03 0.512E-02 0.503E+00
   0.118E-01 0.766E-01 0.893E+02   -.116E-01 -.769E-01 -.898E+02   -.844E-03 0.253E-03 0.513E+00
   -.218E+00 -.216E+00 0.889E+02   0.220E+00 0.218E+00 -.894E+02   -.255E-02 -.280E-02 0.504E+00
   0.602E-01 0.622E-01 0.895E+02   -.603E-01 -.623E-01 -.900E+02   -.185E-03 -.433E-03 0.518E+00
   0.924E-01 0.607E-01 0.895E+02   -.933E-01 -.607E-01 -.900E+02   0.142E-02 -.386E-03 0.515E+00
   0.428E-01 0.489E-01 0.895E+02   -.428E-01 -.489E-01 -.900E+02   -.303E-03 -.561E-03 0.516E+00
   0.586E-01 0.946E-01 0.895E+02   -.588E-01 -.953E-01 -.900E+02   -.147E-03 0.117E-02 0.515E+00
   0.798E-01 0.819E-01 0.894E+02   -.804E-01 -.824E-01 -.900E+02   0.114E-02 0.882E-03 0.515E+00
   0.568E-01 0.934E-01 0.895E+02   -.569E-01 -.939E-01 -.900E+02   -.361E-04 0.103E-02 0.515E+00
   0.469E-01 0.450E-01 0.895E+02   -.470E-01 -.447E-01 -.900E+02   -.320E-03 -.557E-03 0.516E+00
   0.912E-01 0.590E-01 0.895E+02   -.920E-01 -.589E-01 -.900E+02   0.129E-02 -.289E-03 0.515E+00
   0.572E-01 0.594E-01 0.895E+02   -.574E-01 -.593E-01 -.900E+02   -.961E-05 -.268E-03 0.517E+00
   0.154E+00 0.156E+00 -.878E+02   -.155E+00 -.157E+00 0.883E+02   0.264E-02 0.240E-02 -.550E+00
   0.192E-01 -.366E-01 -.895E+02   -.205E-01 0.366E-01 0.900E+02   0.223E-02 0.396E-03 -.515E+00
   -.262E+00 -.373E-01 -.894E+02   0.264E+00 0.373E-01 0.899E+02   -.358E-02 0.347E-03 -.514E+00
   -.387E-01 0.213E-01 -.895E+02   0.385E-01 -.224E-01 0.900E+02   0.642E-03 0.198E-02 -.515E+00
   -.592E-01 -.572E-01 -.894E+02   0.596E-01 0.577E-01 0.900E+02   -.524E-03 -.779E-03 -.516E+00
   -.101E+00 -.315E-01 -.894E+02   0.101E+00 0.317E-01 0.899E+02   -.477E-03 -.958E-04 -.515E+00
   -.393E-01 -.260E+00 -.894E+02   0.392E-01 0.262E+00 0.899E+02   0.600E-03 -.382E-02 -.514E+00
   -.336E-01 -.991E-01 -.894E+02   0.336E-01 0.995E-01 0.899E+02   0.150E-03 -.727E-03 -.515E+00
   -.126E+00 -.124E+00 -.894E+02   0.127E+00 0.125E+00 0.899E+02   -.111E-02 -.135E-02 -.513E+00
   -.168E+00 -.166E+00 -.892E+02   0.170E+00 0.169E+00 0.897E+02   -.387E-02 -.412E-02 -.510E+00
   -.810E-01 -.827E-01 -.894E+02   0.812E-01 0.831E-01 0.899E+02   -.933E-04 -.608E-03 -.514E+00
   0.447E-01 -.138E+00 -.893E+02   -.466E-01 0.140E+00 0.898E+02   0.390E-02 -.396E-02 -.511E+00
   -.847E-01 -.790E-01 -.894E+02   0.850E-01 0.793E-01 0.899E+02   -.365E-03 -.341E-03 -.514E+00
   -.707E-01 -.687E-01 -.894E+02   0.709E-01 0.690E-01 0.899E+02   -.116E-03 -.359E-03 -.514E+00
   -.461E-01 -.810E-01 -.894E+02   0.461E-01 0.814E-01 0.899E+02   0.264E-03 -.506E-03 -.514E+00
   -.140E+00 0.468E-01 -.893E+02   0.142E+00 -.485E-01 0.898E+02   -.372E-02 0.365E-02 -.511E+00
   -.830E-01 -.439E-01 -.894E+02   0.833E-01 0.442E-01 0.899E+02   -.257E-03 0.901E-05 -.514E+00
   0.183E-01 0.205E-01 -.893E+02   -.202E-01 -.222E-01 0.898E+02   0.390E-02 0.366E-02 -.511E+00
   0.865E+00 0.863E+00 -.723E+02   -.862E+00 -.860E+00 0.710E+02   -.113E-01 -.108E-01 0.131E+01
   -.356E+00 0.684E-01 -.661E+02   0.361E+00 -.744E-01 0.650E+02   -.389E-02 0.505E-02 0.111E+01
   -.360E+00 0.678E-01 -.661E+02   0.364E+00 -.738E-01 0.650E+02   -.324E-02 0.505E-02 0.111E+01
   0.707E-01 -.358E+00 -.661E+02   -.762E-01 0.363E+00 0.650E+02   0.452E-02 -.336E-02 0.111E+01
   -.141E+00 -.144E+00 -.658E+02   0.150E+00 0.152E+00 0.647E+02   -.730E-02 -.678E-02 0.111E+01
   -.466E-01 -.467E-01 -.658E+02   0.466E-01 0.477E-01 0.647E+02   0.113E-03 -.606E-03 0.111E+01
   0.702E-01 -.362E+00 -.661E+02   -.757E-01 0.366E+00 0.650E+02   0.452E-02 -.269E-02 0.111E+01
   -.444E-01 -.489E-01 -.658E+02   0.460E-01 0.483E-01 0.647E+02   -.115E-02 0.624E-03 0.111E+01
   -.143E+00 -.145E+00 -.658E+02   0.151E+00 0.152E+00 0.647E+02   -.605E-02 -.554E-02 0.111E+01
   -.133E+00 -.136E+00 -.654E+02   0.134E+00 0.136E+00 0.642E+02   -.785E-03 -.261E-03 0.112E+01
   -.445E-02 -.101E+00 -.655E+02   0.300E-02 0.101E+00 0.644E+02   0.118E-02 -.985E-04 0.112E+01
   -.359E-02 -.101E+00 -.655E+02   0.249E-02 0.101E+00 0.644E+02   0.894E-03 0.461E-04 0.112E+01
   -.983E-01 -.682E-02 -.655E+02   0.992E-01 0.475E-02 0.644E+02   -.647E-03 0.170E-02 0.112E+01
   -.648E-02 -.878E-02 -.655E+02   0.501E-02 0.673E-02 0.644E+02   0.117E-02 0.172E-02 0.112E+01
   -.366E-01 -.393E-01 -.656E+02   0.357E-01 0.377E-01 0.644E+02   0.787E-03 0.143E-02 0.111E+01
   -.985E-01 -.582E-02 -.655E+02   0.993E-01 0.425E-02 0.644E+02   -.503E-03 0.141E-02 0.112E+01
   -.370E-01 -.388E-01 -.656E+02   0.359E-01 0.374E-01 0.644E+02   0.902E-03 0.129E-02 0.111E+01
   -.581E-02 -.798E-02 -.655E+02   0.470E-02 0.642E-02 0.644E+02   0.919E-03 0.142E-02 0.112E+01
   0.469E+00 0.467E+00 0.655E+02   -.487E+00 -.485E+00 -.644E+02   0.137E-01 0.142E-01 -.113E+01
   -.316E-01 0.105E+00 0.656E+02   0.341E-01 -.108E+00 -.645E+02   -.216E-02 0.254E-02 -.111E+01
   -.375E+00 0.757E+00 0.659E+02   0.394E+00 -.776E+00 -.648E+02   -.145E-01 0.145E-01 -.112E+01
   0.107E+00 -.338E-01 0.656E+02   -.110E+00 0.358E-01 -.645E+02   0.203E-02 -.163E-02 -.111E+01
   0.241E-01 0.219E-01 0.657E+02   -.215E-01 -.198E-01 -.645E+02   -.229E-02 -.177E-02 -.111E+01
   0.172E-01 -.324E-01 0.657E+02   -.139E-01 0.343E-01 -.645E+02   -.275E-02 -.160E-02 -.111E+01
   0.759E+00 -.377E+00 0.659E+02   -.778E+00 0.395E+00 -.648E+02   0.139E-01 -.140E-01 -.112E+01
   -.301E-01 0.149E-01 0.657E+02   0.326E-01 -.122E-01 -.645E+02   -.213E-02 -.222E-02 -.111E+01
   -.665E+00 -.668E+00 0.662E+02   0.685E+00 0.687E+00 -.651E+02   -.147E-01 -.142E-01 -.111E+01
   -.320E-01 -.344E-01 0.658E+02   0.367E-01 0.384E-01 -.647E+02   -.394E-02 -.338E-02 -.111E+01
   0.114E+00 -.103E-01 0.658E+02   -.116E+00 0.144E-01 -.646E+02   0.193E-02 -.343E-02 -.111E+01
   0.690E-01 -.163E+00 0.659E+02   -.682E-01 0.168E+00 -.648E+02   -.826E-03 -.329E-02 -.111E+01
   -.799E-02 0.111E+00 0.658E+02   0.127E-01 -.115E+00 -.646E+02   -.396E-02 0.244E-02 -.111E+01
   0.843E-01 0.821E-01 0.657E+02   -.868E-01 -.851E-01 -.646E+02   0.193E-02 0.242E-02 -.112E+01
   0.741E-01 0.184E+00 0.658E+02   -.733E-01 -.187E+00 -.647E+02   -.795E-03 0.219E-02 -.111E+01
   -.161E+00 0.668E-01 0.659E+02   0.166E+00 -.664E-01 -.648E+02   -.386E-02 -.301E-03 -.111E+01
   0.187E+00 0.719E-01 0.658E+02   -.189E+00 -.717E-01 -.647E+02   0.168E-02 -.261E-03 -.111E+01
   0.139E+00 0.137E+00 0.665E+02   -.138E+00 -.136E+00 -.654E+02   -.134E-02 -.840E-03 -.107E+01
 -----------------------------------------------------------------------------------------------
   0.460E-01 -.105E-01 -.372E+00   -.153E-13 -.509E-12 0.867E-12   -.384E-01 0.291E-02 0.372E+00
 
 
 POSITION                                       TOTAL-FORCE (eV/Angst)
 -----------------------------------------------------------------------------------
      1.72948      0.20030     -0.00150         0.010250     -0.000857     -0.005257
      5.58834      0.20099     -0.00468         0.000204     -0.000117      0.000137
      9.44720      0.20168     -0.00786        -0.007908     -0.000882     -0.001192
      1.72882      4.05917     -0.00468         0.000175      0.000560     -0.000055
      5.58768      4.05986     -0.00786         0.000178      0.000011      0.000140
      9.44654      4.06055     -0.01104        -0.000302      0.000072      0.000645
      1.72816      7.91804     -0.00786         0.000188     -0.000138      0.000397
      5.58702      7.91872     -0.01104         0.000196     -0.000041      0.000198
      9.44588      7.91941     -0.01422        -0.000322      0.000357      0.001089
     -0.19436     -1.72421      6.38168         0.000104      0.001878     -0.001906
      3.66450     -1.72352      6.37850        -0.000336      0.000021     -0.000167
      7.52337     -1.72284      6.37532         0.000404      0.000198     -0.000465
     -0.19502      2.13465      6.37850         0.000036     -0.002272     -0.002004
      3.66384      2.13534      6.37532        -0.000256     -0.000198     -0.000227
      7.52270      2.13603      6.37214         0.000391     -0.000227     -0.000386
     -0.19568      5.99352      6.37532         0.000087      0.000053     -0.000457
      3.66318      5.99421      6.37214        -0.000077      0.000042     -0.000118
      7.52204      5.99490      6.36896         0.000103     -0.000118     -0.000385
      1.73466      0.20548      6.37832        -0.002167     -0.000050     -0.001993
      5.59352      0.20617      6.37514         0.000155      0.000016     -0.000442
      9.45239      0.20686      6.37196         0.001986      0.000035     -0.001897
      1.73400      4.06435      6.37514        -0.000104     -0.000322     -0.000183
      5.59286      4.06504      6.37196         0.000134     -0.000136     -0.000122
      9.45172      4.06573      6.36877         0.000136     -0.000406     -0.000212
      1.73334      7.92322      6.37196        -0.000126      0.000317     -0.000348
      5.59220      7.92391      6.36877        -0.000014      0.000038     -0.000362
      9.45106      7.92460      6.36559         0.000314      0.000343     -0.000467
     -0.18918     -1.71903     12.76150         0.000665      0.000091     -0.000046
      3.66968     -1.71834     12.75832        -0.000033      0.000114      0.000379
      7.52855     -1.71765     12.75514        -0.000772      0.010165     -0.005227
     -0.18984      2.13984     12.75832         0.000117      0.000113      0.000144
      3.66902      2.14052     12.75514         0.000059      0.000124      0.000199
      7.52788      2.14121     12.75195        -0.000014      0.000135      0.000155
     -0.19050      5.99870     12.75514         0.000178     -0.000358      0.000645
      3.66836      5.99939     12.75195         0.000466     -0.000391      0.001081
      7.52722      6.00008     12.74877        -0.000774     -0.007975     -0.001156
      3.65889      0.20059     -0.00318        -0.001269      0.000402     -0.000340
      7.51775      0.20128     -0.00636         0.000459      0.000384     -0.001399
     11.37662      0.20197     -0.00954         0.001932      0.001921     -0.034848
      3.65823      4.05946     -0.00636        -0.000477     -0.000546      0.000555
      7.51709      4.06015     -0.00954        -0.000167     -0.000071     -0.000799
     11.37595      4.06083     -0.01272         0.000450     -0.001347     -0.000203
      3.65757      7.91832     -0.00954        -0.000001     -0.000174     -0.000745
      7.51643      7.91901     -0.01272        -0.000633     -0.000641     -0.001794
     11.37529      7.91970     -0.01590         0.000440      0.000405     -0.001227
      1.73505     -1.72393      6.38000         0.001710     -0.001636      0.002664
      5.59392     -1.72324      6.37682        -0.000003     -0.000327      0.001187
      9.45278     -1.72255      6.37364        -0.001560     -0.001614      0.003402
      1.73439      2.13494      6.37682         0.001801      0.001763      0.002176
      5.59325      2.13563      6.37364        -0.000122      0.000258      0.000418
      9.45211      2.13632      6.37046        -0.001559      0.001646      0.002480
      1.73373      5.99381      6.37364         0.000298     -0.000147      0.000546
      5.59259      5.99450      6.37046        -0.000056     -0.000066      0.000535
      9.45145      5.99519      6.36727        -0.000265     -0.000044      0.001011
      1.73069      2.13130      1.90875        -0.000091     -0.000039     -0.004742
      5.58955      2.13198      1.90557        -0.000674      0.000386     -0.000242
      9.44841      2.13267      1.90239         0.000517      0.000715     -0.004030
      1.73003      5.99016      1.90557         0.000320     -0.000683     -0.000265
      5.58889      5.99085      1.90239        -0.000510     -0.000523     -0.000011
      9.44775      5.99154      1.89920         0.000040     -0.000630     -0.000192
      1.72937      9.84903      1.90239         0.000645      0.000542     -0.004064
      5.58823      9.84972      1.89920        -0.000621      0.000044     -0.000242
      9.44709      9.85041      1.89602        -0.000332     -0.000310     -0.003299
     -0.19315      0.20678      8.29193        -0.000341     -0.000389      0.002228
      3.66571      0.20747      8.28875         0.000495     -0.000399      0.000746
      7.52457      0.20816      8.28557        -0.000301     -0.000466      0.000861
     -0.19381      4.06565      8.28875        -0.000322      0.000554      0.000682
      3.66505      4.06634      8.28557         0.000385      0.000448      0.000510
      7.52391      4.06702      8.28238        -0.000193      0.000509      0.000576
     -0.19447      7.92451      8.28557        -0.000399     -0.000242      0.000886
      3.66439      7.92520      8.28238         0.000458     -0.000123      0.000678
      7.52325      7.92589      8.27920        -0.000202     -0.000119      0.001758
     -0.19633      0.20360      4.46807         0.001027      0.001078     -0.033821
      3.66253      0.20429      4.46489         0.000885      0.000484     -0.000722
      7.52140      0.20498      4.46171        -0.001434      0.000465     -0.000127
     -0.19699      4.06247      4.46489         0.000415      0.000902     -0.000756
      3.66187      4.06316      4.46171        -0.000223     -0.000228     -0.001082
      7.52073      4.06384      4.45853        -0.000227      0.000147     -0.000430
     -0.19765      7.92133      4.46171         0.000392     -0.001432     -0.000115
      3.66121      7.92202      4.45853         0.000127     -0.000233     -0.000374
      7.52007      7.92271      4.45535        -0.000559     -0.000573      0.000334
     -2.12017     -1.72091     10.85125        -0.001755     -0.001763      0.001950
      1.73869     -1.72023     10.84807         0.000042     -0.000172      0.000115
      5.59756     -1.71954     10.84489         0.001844     -0.001709      0.001429
     -2.12083      2.13795     10.84807        -0.000161      0.000009      0.000182
      1.73803      2.13864     10.84489         0.000024      0.000004      0.000035
      5.59689      2.13933     10.84171         0.000197     -0.000071     -0.000028
     -2.12149      5.99682     10.84489        -0.001698      0.001948      0.001503
      1.73737      5.99751     10.84171        -0.000032      0.000319     -0.000067
      5.59623      5.99820     10.83853         0.001874      0.001996      0.001138
     -0.19548      0.20442      2.03113        -0.007747     -0.007662      0.105394
      3.66060      0.20234      2.03715         0.001314     -0.000891      0.001315
      7.51947      0.20302      2.03397         0.001123     -0.000945      0.001284
     -0.19892      4.06051      2.03715        -0.001012      0.001405      0.001350
      3.65994      4.06120      2.03397         0.001610      0.001675     -0.000009
      7.51880      4.06189      2.03079         0.000083      0.000469     -0.000097
     -0.19958      7.91938      2.03397        -0.001054      0.001224      0.001201
      3.65928      7.92007      2.03079         0.000379      0.000137     -0.000159
      7.51814      7.92076      2.02760         0.001343      0.001395     -0.000293
     -2.12210     -1.72287      8.42351         0.000296      0.000354     -0.002516
      1.73676     -1.72218      8.42033        -0.000328      0.000274     -0.001394
      5.59563     -1.72149      8.41715        -0.000258      0.000233     -0.001368
     -2.12276      2.13600      8.42033         0.000225     -0.000293     -0.001451
      1.73610      2.13669      8.41715        -0.000354     -0.000261     -0.001150
      5.59496      2.13738      8.41396        -0.000130     -0.000158     -0.000422
     -2.12342      5.99486      8.41715         0.000188     -0.000096     -0.001430
      1.73544      5.99555      8.41396        -0.000199      0.000036     -0.000435
      5.59430      5.99624      8.41078        -0.000251     -0.000073     -0.001022
      1.73264      2.13323      4.33649        -0.004276     -0.004199      0.003076
      5.59151      2.13392      4.33331         0.000277     -0.000601      0.000181
      9.45037      2.13460      4.33013         0.004384     -0.004761      0.000327
      1.73198      5.99209      4.33331        -0.000708      0.000349      0.000181
      5.59084      5.99278      4.33013         0.000284      0.000329     -0.000320
      9.44970      5.99347      4.32695         0.000477      0.000365     -0.000271
      1.73132      9.85096      4.33013        -0.004918      0.004452      0.000343
      5.59018      9.85165      4.32695         0.000275      0.000541     -0.000282
      9.44904      9.85234      4.32377         0.004973      0.005042     -0.002595
     -0.19120      0.20871     10.71967         0.000691      0.000729     -0.000884
      3.66767      0.20940     10.71649        -0.000680      0.000683      0.000149
      7.52653      0.21009     10.71331        -0.000029      0.000850     -0.000578
     -0.19186      4.06758     10.71649         0.000669     -0.000560      0.000214
      3.66700      4.06827     10.71331        -0.000615     -0.000518      0.000734
      7.52586      4.06896     10.71013        -0.000046     -0.000644      0.000101
     -0.19252      7.92644     10.71331         0.000812      0.000100     -0.000568
      3.66634      7.92713     10.71013        -0.000735      0.000077     -0.000007
      7.52520      7.92782     10.70695         0.000028      0.000139     -0.013351
 -----------------------------------------------------------------------------------
    total drift:                                0.007625     -0.007593      0.000038


--------------------------------------------------------------------------------------------------------



  FREE ENERGIE OF THE ION-ELECTRON SYSTEM (eV)
  ---------------------------------------------------
  free  energy   TOTEN  =      -657.90127761 eV

  energy  without entropy=     -657.90127761  energy(sigma->0) =     -657.90127761
 


--------------------------------------------------------------------------------------------------------


    POTLOK:  cpu time    2.3456: real time    2.3475


--------------------------------------------------------------------------------------------------------


     LOOP+:  cpu time 6417.2848: real time 6480.4182
    4ORBIT:  cpu time    0.0000: real time    0.0000

 total amount of memory used by VASP MPI-rank0  2010615. kBytes
=======================================================================

   base      :      30000. kBytes
   nonl-proj :      83483. kBytes
   fftplans  :      59337. kBytes
   grid      :      50429. kBytes
   one-center:        653. kBytes
   wavefun   :    1786713. kBytes
 
  
  
 General timing and accounting informations for this job:
 ========================================================
  
                  Total CPU time used (sec):     6526.000
                            User time (sec):     6449.840
                          System time (sec):       76.159
                         Elapsed time (sec):     6591.250
  
                   Maximum memory used (kb):     2455904.
                   Average memory used (kb):           0.
  
                          Minor page faults:      1140170
                          Major page faults:           24
                 Voluntary context switches:        55750
