  99  99   0   0
  0.1430410E+02  0.1177748E-08  0.1177748E-08  0.1058004E-08  0.5000000E-15
  1.000000000000000E-004
  CAR 
 unknown system                          
     17.94243402    -54.33709606  301      5.23328332      1.00000000
    -54.337  0.0000E+00  0.0000E+00  0.0000E+00  0.0000E+00
    -54.096  0.0000E+00  0.0000E+00  0.0000E+00  0.0000E+00
    -53.855  0.0000E+00  0.0000E+00  0.0000E+00  0.0000E+00
    -53.614  0.0000E+00  0.0000E+00  0.0000E+00  0.0000E+00
    -53.373  0.0000E+00  0.0000E+00  0.0000E+00  0.0000E+00
    -53.132  0.0000E+00  0.0000E+00  0.0000E+00  0.0000E+00
    -52.892  0.0000E+00  0.0000E+00  0.0000E+00  0.0000E+00
    -52.651  0.0000E+00  0.0000E+00  0.0000E+00  0.0000E+00
    -52.410  0.0000E+00  0.0000E+00  0.0000E+00  0.0000E+00
    -52.169  0.0000E+00  0.0000E+00  0.0000E+00  0.0000E+00
    -51.928  0.0000E+00  0.0000E+00  0.0000E+00  0.0000E+00
    -51.687  0.0000E+00  0.0000E+00  0.0000E+00  0.0000E+00
    -51.446  0.0000E+00  0.0000E+00  0.0000E+00  0.0000E+00
    -51.205  0.4556E-03  0.0000E+00  0.1098E-03  0.0000E+00
    -50.964  0.1473E+03  0.0000E+00  0.3548E+02  0.0000E+00
    -50.723  0.2151E+01  0.0000E+00  0.3600E+02  0.0000E+00
    -50.482  0.0000E+00  0.0000E+00  0.3600E+02  0.0000E+00
    -50.241  0.0000E+00  0.0000E+00  0.3600E+02  0.0000E+00
    -50.000  0.0000E+00  0.0000E+00  0.3600E+02  0.0000E+00
    -49.759  0.1764E+01  0.0000E+00  0.3642E+02  0.0000E+00
    -49.518  0.2708E+03  0.0000E+00  0.1017E+03  0.0000E+00
    -49.278  0.2624E+02  0.0000E+00  0.1080E+03  0.0000E+00
    -49.037  0.0000E+00  0.0000E+00  0.1080E+03  0.0000E+00
    -48.796  0.0000E+00  0.0000E+00  0.1080E+03  0.0000E+00
    -48.555  0.0000E+00  0.0000E+00  0.1080E+03  0.0000E+00
    -48.314  0.0000E+00  0.0000E+00  0.1080E+03  0.0000E+00
    -48.073  0.0000E+00  0.0000E+00  0.1080E+03  0.0000E+00
    -47.832  0.0000E+00  0.0000E+00  0.1080E+03  0.0000E+00
    -47.591  0.0000E+00  0.0000E+00  0.1080E+03  0.0000E+00
    -47.350  0.0000E+00  0.0000E+00  0.1080E+03  0.0000E+00
    -47.109  0.0000E+00  0.0000E+00  0.1080E+03  0.0000E+00
    -46.868  0.0000E+00  0.0000E+00  0.1080E+03  0.0000E+00
    -46.627  0.0000E+00  0.0000E+00  0.1080E+03  0.0000E+00
    -46.386  0.0000E+00  0.3604E+00  0.1080E+03  0.8683E-01
    -46.145  0.0000E+00  0.1490E+03  0.1080E+03  0.3599E+02
    -45.904  0.0000E+00  0.6942E+02  0.1080E+03  0.5272E+02
    -45.664  0.0000E+00  0.2294E+03  0.1080E+03  0.1080E+03
    -45.423  0.0000E+00  0.0000E+00  0.1080E+03  0.1080E+03
    -45.182  0.0000E+00  0.0000E+00  0.1080E+03  0.1080E+03
    -44.941  0.0000E+00  0.0000E+00  0.1080E+03  0.1080E+03
    -44.700  0.0000E+00  0.0000E+00  0.1080E+03  0.1080E+03
    -44.459  0.0000E+00  0.0000E+00  0.1080E+03  0.1080E+03
    -44.218  0.0000E+00  0.0000E+00  0.1080E+03  0.1080E+03
    -43.977  0.0000E+00  0.0000E+00  0.1080E+03  0.1080E+03
    -43.736  0.0000E+00  0.0000E+00  0.1080E+03  0.1080E+03
    -43.495  0.0000E+00  0.0000E+00  0.1080E+03  0.1080E+03
    -43.254  0.0000E+00  0.0000E+00  0.1080E+03  0.1080E+03
    -43.013  0.0000E+00  0.0000E+00  0.1080E+03  0.1080E+03
    -42.772  0.0000E+00  0.0000E+00  0.1080E+03  0.1080E+03
    -42.531  0.0000E+00  0.0000E+00  0.1080E+03  0.1080E+03
    -42.291  0.0000E+00  0.0000E+00  0.1080E+03  0.1080E+03
    -42.050  0.0000E+00  0.0000E+00  0.1080E+03  0.1080E+03
    -41.809  0.0000E+00  0.0000E+00  0.1080E+03  0.1080E+03
    -41.568  0.0000E+00  0.0000E+00  0.1080E+03  0.1080E+03
    -41.327  0.0000E+00  0.0000E+00  0.1080E+03  0.1080E+03
    -41.086  0.0000E+00  0.0000E+00  0.1080E+03  0.1080E+03
    -40.845  0.0000E+00  0.0000E+00  0.1080E+03  0.1080E+03
    -40.604  0.0000E+00  0.0000E+00  0.1080E+03  0.1080E+03
    -40.363  0.0000E+00  0.0000E+00  0.1080E+03  0.1080E+03
    -40.122  0.8571E-11  0.5535E-11  0.1080E+03  0.1080E+03
    -39.881  0.2230E+02  0.2081E+02  0.1134E+03  0.1130E+03
    -39.640  0.5241E+02  0.5390E+02  0.1260E+03  0.1260E+03
    -39.399  0.0000E+00  0.0000E+00  0.1260E+03  0.1260E+03
    -39.158  0.0000E+00  0.0000E+00  0.1260E+03  0.1260E+03
    -38.917  0.0000E+00  0.0000E+00  0.1260E+03  0.1260E+03
    -38.677  0.0000E+00  0.0000E+00  0.1260E+03  0.1260E+03
    -38.436  0.0000E+00  0.0000E+00  0.1260E+03  0.1260E+03
    -38.195  0.0000E+00  0.0000E+00  0.1260E+03  0.1260E+03
    -37.954  0.0000E+00  0.0000E+00  0.1260E+03  0.1260E+03
    -37.713  0.0000E+00  0.0000E+00  0.1260E+03  0.1260E+03
    -37.472  0.0000E+00  0.0000E+00  0.1260E+03  0.1260E+03
    -37.231  0.0000E+00  0.0000E+00  0.1260E+03  0.1260E+03
    -36.990  0.0000E+00  0.0000E+00  0.1260E+03  0.1260E+03
    -36.749  0.0000E+00  0.0000E+00  0.1260E+03  0.1260E+03
    -36.508  0.0000E+00  0.0000E+00  0.1260E+03  0.1260E+03
    -36.267  0.0000E+00  0.0000E+00  0.1260E+03  0.1260E+03
    -36.026  0.0000E+00  0.0000E+00  0.1260E+03  0.1260E+03
    -35.785  0.0000E+00  0.0000E+00  0.1260E+03  0.1260E+03
    -35.544  0.0000E+00  0.0000E+00  0.1260E+03  0.1260E+03
    -35.303  0.0000E+00  0.0000E+00  0.1260E+03  0.1260E+03
    -35.063  0.0000E+00  0.0000E+00  0.1260E+03  0.1260E+03
    -34.822  0.0000E+00  0.0000E+00  0.1260E+03  0.1260E+03
    -34.581  0.0000E+00  0.0000E+00  0.1260E+03  0.1260E+03
    -34.340  0.0000E+00  0.0000E+00  0.1260E+03  0.1260E+03
    -34.099  0.0000E+00  0.0000E+00  0.1260E+03  0.1260E+03
    -33.858  0.0000E+00  0.0000E+00  0.1260E+03  0.1260E+03
    -33.617  0.0000E+00  0.0000E+00  0.1260E+03  0.1260E+03
    -33.376  0.0000E+00  0.0000E+00  0.1260E+03  0.1260E+03
    -33.135  0.0000E+00  0.0000E+00  0.1260E+03  0.1260E+03
    -32.894  0.0000E+00  0.0000E+00  0.1260E+03  0.1260E+03
    -32.653  0.0000E+00  0.0000E+00  0.1260E+03  0.1260E+03
    -32.412  0.0000E+00  0.0000E+00  0.1260E+03  0.1260E+03
    -32.171  0.0000E+00  0.0000E+00  0.1260E+03  0.1260E+03
    -31.930  0.0000E+00  0.0000E+00  0.1260E+03  0.1260E+03
    -31.690  0.0000E+00  0.0000E+00  0.1260E+03  0.1260E+03
    -31.449  0.0000E+00  0.0000E+00  0.1260E+03  0.1260E+03
    -31.208  0.0000E+00  0.0000E+00  0.1260E+03  0.1260E+03
    -30.967  0.0000E+00  0.0000E+00  0.1260E+03  0.1260E+03
    -30.726  0.0000E+00  0.0000E+00  0.1260E+03  0.1260E+03
    -30.485  0.0000E+00  0.0000E+00  0.1260E+03  0.1260E+03
    -30.244  0.0000E+00  0.0000E+00  0.1260E+03  0.1260E+03
    -30.003  0.0000E+00  0.0000E+00  0.1260E+03  0.1260E+03
    -29.762  0.0000E+00  0.0000E+00  0.1260E+03  0.1260E+03
    -29.521  0.0000E+00  0.0000E+00  0.1260E+03  0.1260E+03
    -29.280  0.0000E+00  0.0000E+00  0.1260E+03  0.1260E+03
    -29.039  0.0000E+00  0.0000E+00  0.1260E+03  0.1260E+03
    -28.798  0.0000E+00  0.0000E+00  0.1260E+03  0.1260E+03
    -28.557  0.0000E+00  0.0000E+00  0.1260E+03  0.1260E+03
    -28.316  0.0000E+00  0.0000E+00  0.1260E+03  0.1260E+03
    -28.076  0.0000E+00  0.0000E+00  0.1260E+03  0.1260E+03
    -27.835  0.0000E+00  0.0000E+00  0.1260E+03  0.1260E+03
    -27.594  0.0000E+00  0.0000E+00  0.1260E+03  0.1260E+03
    -27.353  0.0000E+00  0.0000E+00  0.1260E+03  0.1260E+03
    -27.112  0.0000E+00  0.0000E+00  0.1260E+03  0.1260E+03
    -26.871  0.0000E+00  0.0000E+00  0.1260E+03  0.1260E+03
    -26.630  0.0000E+00  0.0000E+00  0.1260E+03  0.1260E+03
    -26.389  0.0000E+00  0.0000E+00  0.1260E+03  0.1260E+03
    -26.148  0.0000E+00  0.0000E+00  0.1260E+03  0.1260E+03
    -25.907  0.0000E+00  0.0000E+00  0.1260E+03  0.1260E+03
    -25.666  0.0000E+00  0.0000E+00  0.1260E+03  0.1260E+03
    -25.425  0.0000E+00  0.0000E+00  0.1260E+03  0.1260E+03
    -25.184  0.0000E+00  0.0000E+00  0.1260E+03  0.1260E+03
    -24.943  0.0000E+00  0.0000E+00  0.1260E+03  0.1260E+03
    -24.702  0.0000E+00  0.0000E+00  0.1260E+03  0.1260E+03
    -24.462  0.0000E+00  0.0000E+00  0.1260E+03  0.1260E+03
    -24.221  0.0000E+00  0.0000E+00  0.1260E+03  0.1260E+03
    -23.980  0.0000E+00  0.0000E+00  0.1260E+03  0.1260E+03
    -23.739  0.0000E+00  0.0000E+00  0.1260E+03  0.1260E+03
    -23.498  0.0000E+00  0.0000E+00  0.1260E+03  0.1260E+03
    -23.257  0.0000E+00  0.0000E+00  0.1260E+03  0.1260E+03
    -23.016  0.0000E+00  0.0000E+00  0.1260E+03  0.1260E+03
    -22.775  0.0000E+00  0.0000E+00  0.1260E+03  0.1260E+03
    -22.534  0.0000E+00  0.0000E+00  0.1260E+03  0.1260E+03
    -22.293  0.0000E+00  0.0000E+00  0.1260E+03  0.1260E+03
    -22.052  0.0000E+00  0.0000E+00  0.1260E+03  0.1260E+03
    -21.811  0.0000E+00  0.0000E+00  0.1260E+03  0.1260E+03
    -21.570  0.0000E+00  0.0000E+00  0.1260E+03  0.1260E+03
    -21.329  0.0000E+00  0.0000E+00  0.1260E+03  0.1260E+03
    -21.089  0.0000E+00  0.0000E+00  0.1260E+03  0.1260E+03
    -20.848  0.0000E+00  0.0000E+00  0.1260E+03  0.1260E+03
    -20.607  0.0000E+00  0.0000E+00  0.1260E+03  0.1260E+03
    -20.366  0.0000E+00  0.0000E+00  0.1260E+03  0.1260E+03
    -20.125  0.0000E+00  0.0000E+00  0.1260E+03  0.1260E+03
    -19.884  0.0000E+00  0.0000E+00  0.1260E+03  0.1260E+03
    -19.643  0.0000E+00  0.0000E+00  0.1260E+03  0.1260E+03
    -19.402  0.0000E+00  0.0000E+00  0.1260E+03  0.1260E+03
    -19.161  0.0000E+00  0.0000E+00  0.1260E+03  0.1260E+03
    -18.920  0.0000E+00  0.0000E+00  0.1260E+03  0.1260E+03
    -18.679  0.0000E+00  0.0000E+00  0.1260E+03  0.1260E+03
    -18.438  0.0000E+00  0.0000E+00  0.1260E+03  0.1260E+03
    -18.197  0.0000E+00  0.0000E+00  0.1260E+03  0.1260E+03
    -17.956  0.0000E+00  0.0000E+00  0.1260E+03  0.1260E+03
    -17.715  0.0000E+00  0.0000E+00  0.1260E+03  0.1260E+03
    -17.475  0.0000E+00  0.0000E+00  0.1260E+03  0.1260E+03
    -17.234  0.0000E+00  0.0000E+00  0.1260E+03  0.1260E+03
    -16.993  0.0000E+00  0.0000E+00  0.1260E+03  0.1260E+03
    -16.752  0.0000E+00  0.0000E+00  0.1260E+03  0.1260E+03
    -16.511  0.0000E+00  0.0000E+00  0.1260E+03  0.1260E+03
    -16.270  0.0000E+00  0.0000E+00  0.1260E+03  0.1260E+03
    -16.029  0.0000E+00  0.0000E+00  0.1260E+03  0.1260E+03
    -15.788  0.0000E+00  0.0000E+00  0.1260E+03  0.1260E+03
    -15.547  0.0000E+00  0.0000E+00  0.1260E+03  0.1260E+03
    -15.306  0.0000E+00  0.0000E+00  0.1260E+03  0.1260E+03
    -15.065  0.0000E+00  0.0000E+00  0.1260E+03  0.1260E+03
    -14.824  0.0000E+00  0.0000E+00  0.1260E+03  0.1260E+03
    -14.583  0.0000E+00  0.0000E+00  0.1260E+03  0.1260E+03
    -14.342  0.0000E+00  0.0000E+00  0.1260E+03  0.1260E+03
    -14.101  0.0000E+00  0.0000E+00  0.1260E+03  0.1260E+03
    -13.861  0.0000E+00  0.0000E+00  0.1260E+03  0.1260E+03
    -13.620  0.0000E+00  0.0000E+00  0.1260E+03  0.1260E+03
    -13.379  0.1666E-03  0.0000E+00  0.1260E+03  0.1260E+03
    -13.138  0.3010E+02  0.0000E+00  0.1333E+03  0.1260E+03
    -12.897  0.4437E+02  0.2118E+00  0.1439E+03  0.1261E+03
    -12.656  0.2445E+00  0.5814E+02  0.1440E+03  0.1401E+03
    -12.415  0.0000E+00  0.1636E+02  0.1440E+03  0.1440E+03
    -12.174  0.0000E+00  0.0000E+00  0.1440E+03  0.1440E+03
    -11.933  0.0000E+00  0.0000E+00  0.1440E+03  0.1440E+03
    -11.692  0.0000E+00  0.0000E+00  0.1440E+03  0.1440E+03
    -11.451  0.0000E+00  0.0000E+00  0.1440E+03  0.1440E+03
    -11.210  0.0000E+00  0.0000E+00  0.1440E+03  0.1440E+03
    -10.969  0.0000E+00  0.0000E+00  0.1440E+03  0.1440E+03
    -10.728  0.0000E+00  0.0000E+00  0.1440E+03  0.1440E+03
    -10.488  0.0000E+00  0.0000E+00  0.1440E+03  0.1440E+03
    -10.247  0.0000E+00  0.0000E+00  0.1440E+03  0.1440E+03
    -10.006  0.0000E+00  0.0000E+00  0.1440E+03  0.1440E+03
     -9.765  0.0000E+00  0.0000E+00  0.1440E+03  0.1440E+03
     -9.524  0.0000E+00  0.0000E+00  0.1440E+03  0.1440E+03
     -9.283  0.0000E+00  0.0000E+00  0.1440E+03  0.1440E+03
     -9.042  0.0000E+00  0.0000E+00  0.1440E+03  0.1440E+03
     -8.801  0.0000E+00  0.0000E+00  0.1440E+03  0.1440E+03
     -8.560  0.0000E+00  0.0000E+00  0.1440E+03  0.1440E+03
     -8.319  0.0000E+00  0.0000E+00  0.1440E+03  0.1440E+03
     -8.078  0.0000E+00  0.0000E+00  0.1440E+03  0.1440E+03
     -7.837  0.2456E-10  0.0000E+00  0.1440E+03  0.1440E+03
     -7.596  0.5339E+00  0.3020E-11  0.1441E+03  0.1440E+03
     -7.355  0.1690E+02  0.4425E+00  0.1482E+03  0.1441E+03
     -7.114  0.3243E+02  0.1875E+02  0.1560E+03  0.1486E+03
     -6.874  0.3338E+02  0.3113E+02  0.1641E+03  0.1561E+03
     -6.633  0.2882E+02  0.2475E+02  0.1710E+03  0.1621E+03
     -6.392  0.1246E-03  0.3687E+02  0.1710E+03  0.1710E+03
     -6.151  0.0000E+00  0.1271E+00  0.1710E+03  0.1710E+03
     -5.910  0.0000E+00  0.0000E+00  0.1710E+03  0.1710E+03
     -5.669  0.0000E+00  0.0000E+00  0.1710E+03  0.1710E+03
     -5.428  0.0000E+00  0.0000E+00  0.1710E+03  0.1710E+03
     -5.187  0.0000E+00  0.0000E+00  0.1710E+03  0.1710E+03
     -4.946  0.0000E+00  0.0000E+00  0.1710E+03  0.1710E+03
     -4.705  0.0000E+00  0.0000E+00  0.1710E+03  0.1710E+03
     -4.464  0.0000E+00  0.0000E+00  0.1710E+03  0.1710E+03
     -4.223  0.0000E+00  0.0000E+00  0.1710E+03  0.1710E+03
     -3.982  0.0000E+00  0.0000E+00  0.1710E+03  0.1710E+03
     -3.741  0.0000E+00  0.0000E+00  0.1710E+03  0.1710E+03
     -3.500  0.0000E+00  0.0000E+00  0.1710E+03  0.1710E+03
     -3.260  0.0000E+00  0.0000E+00  0.1710E+03  0.1710E+03
     -3.019  0.0000E+00  0.0000E+00  0.1710E+03  0.1710E+03
     -2.778  0.0000E+00  0.0000E+00  0.1710E+03  0.1710E+03
     -2.537  0.0000E+00  0.0000E+00  0.1710E+03  0.1710E+03
     -2.296  0.0000E+00  0.0000E+00  0.1710E+03  0.1710E+03
     -2.055  0.5581E-02  0.0000E+00  0.1710E+03  0.1710E+03
     -1.814  0.2333E+02  0.0000E+00  0.1766E+03  0.1710E+03
     -1.573  0.1887E+02  0.0000E+00  0.1812E+03  0.1710E+03
     -1.332  0.1464E+02  0.0000E+00  0.1847E+03  0.1710E+03
     -1.091  0.2320E+02  0.0000E+00  0.1903E+03  0.1710E+03
     -0.850  0.5603E+02  0.0000E+00  0.2038E+03  0.1710E+03
     -0.609  0.6253E+02  0.1361E-03  0.2189E+03  0.1710E+03
     -0.368  0.3936E+02  0.8585E+01  0.2283E+03  0.1731E+03
     -0.127  0.8175E+02  0.2177E+02  0.2480E+03  0.1783E+03
      0.113  0.8863E+02  0.1296E+02  0.2694E+03  0.1814E+03
      0.354  0.8384E+02  0.2347E+02  0.2896E+03  0.1871E+03
      0.595  0.7264E+02  0.3050E+02  0.3071E+03  0.1944E+03
      0.836  0.6248E+02  0.4807E+02  0.3221E+03  0.2060E+03
      1.077  0.3983E+02  0.4074E+02  0.3317E+03  0.2158E+03
      1.318  0.3478E+02  0.3379E+02  0.3401E+03  0.2240E+03
      1.559  0.5098E+02  0.2396E+02  0.3524E+03  0.2297E+03
      1.800  0.5163E+02  0.3299E+02  0.3648E+03  0.2377E+03
      2.041  0.7516E+02  0.4081E+02  0.3829E+03  0.2475E+03
      2.282  0.6642E+02  0.2882E+02  0.3989E+03  0.2545E+03
      2.523  0.3119E+02  0.2922E+02  0.4065E+03  0.2615E+03
      2.764  0.5057E+02  0.3814E+02  0.4186E+03  0.2707E+03
      3.005  0.2588E+02  0.4579E+02  0.4249E+03  0.2817E+03
      3.246  0.9291E+01  0.4884E+02  0.4271E+03  0.2935E+03
      3.487  0.3853E+02  0.4230E+02  0.4364E+03  0.3037E+03
      3.727  0.2588E+02  0.7556E+01  0.4426E+03  0.3055E+03
      3.968  0.3637E+02  0.2101E+02  0.4514E+03  0.3106E+03
      4.209  0.3949E+02  0.7223E+02  0.4609E+03  0.3280E+03
      4.450  0.3807E+02  0.4655E+02  0.4701E+03  0.3392E+03
      4.691  0.3637E+02  0.1165E+02  0.4789E+03  0.3420E+03
      4.932  0.2571E+02  0.1140E-04  0.4850E+03  0.3420E+03
      5.173  0.3955E+01  0.0000E+00  0.4860E+03  0.3420E+03
      5.414  0.0000E+00  0.0000E+00  0.4860E+03  0.3420E+03
      5.655  0.0000E+00  0.0000E+00  0.4860E+03  0.3420E+03
      5.896  0.0000E+00  0.0000E+00  0.4860E+03  0.3420E+03
      6.137  0.0000E+00  0.2061E-09  0.4860E+03  0.3420E+03
      6.378  0.0000E+00  0.1168E+01  0.4860E+03  0.3423E+03
      6.619  0.0000E+00  0.5092E+01  0.4860E+03  0.3435E+03
      6.860  0.0000E+00  0.9470E+01  0.4860E+03  0.3458E+03
      7.101  0.6264E-14  0.2001E+02  0.4860E+03  0.3506E+03
      7.341  0.3947E-01  0.5966E+02  0.4860E+03  0.3650E+03
      7.582  0.1143E+00  0.6055E+02  0.4860E+03  0.3796E+03
      7.823  0.5675E+00  0.6314E+02  0.4862E+03  0.3948E+03
      8.064  0.5430E+00  0.7457E+02  0.4863E+03  0.4128E+03
      8.305  0.2391E+01  0.7906E+02  0.4869E+03  0.4318E+03
      8.546  0.4518E+01  0.7023E+02  0.4880E+03  0.4487E+03
      8.787  0.9428E+01  0.6664E+02  0.4902E+03  0.4648E+03
      9.028  0.1504E+02  0.4741E+02  0.4939E+03  0.4762E+03
      9.269  0.1586E+02  0.3335E+02  0.4977E+03  0.4842E+03
      9.510  0.1966E+02  0.9126E+01  0.5024E+03  0.4864E+03
      9.751  0.1563E+02  0.5544E+01  0.5062E+03  0.4878E+03
      9.992  0.2401E+02  0.1136E+02  0.5120E+03  0.4905E+03
     10.233  0.1696E+02  0.1609E+02  0.5161E+03  0.4944E+03
     10.474  0.2173E+02  0.2430E+02  0.5213E+03  0.5002E+03
     10.714  0.1477E+02  0.2169E+02  0.5248E+03  0.5055E+03
     10.955  0.1500E+02  0.2185E+02  0.5285E+03  0.5107E+03
     11.196  0.2182E+02  0.3198E+02  0.5337E+03  0.5184E+03
     11.437  0.3218E+02  0.2017E+02  0.5415E+03  0.5233E+03
     11.678  0.2896E+02  0.1860E+02  0.5485E+03  0.5278E+03
     11.919  0.3274E+02  0.1184E+02  0.5563E+03  0.5306E+03
     12.160  0.3655E+02  0.2395E+02  0.5651E+03  0.5364E+03
     12.401  0.2212E+02  0.4460E+02  0.5705E+03  0.5471E+03
     12.642  0.1998E+02  0.3561E+02  0.5753E+03  0.5557E+03
     12.883  0.2562E+02  0.3329E+02  0.5815E+03  0.5637E+03
     13.124  0.2533E+02  0.2049E+02  0.5876E+03  0.5687E+03
     13.365  0.2836E+02  0.2359E+02  0.5944E+03  0.5744E+03
     13.606  0.2531E+02  0.3312E+02  0.6005E+03  0.5823E+03
     13.847  0.1859E+02  0.2652E+02  0.6050E+03  0.5887E+03
     14.088  0.4274E+01  0.2667E+02  0.6060E+03  0.5952E+03
     14.328  0.8041E-03  0.2241E+02  0.6060E+03  0.6006E+03
     14.569  0.0000E+00  0.1992E+02  0.6060E+03  0.6054E+03
     14.810  0.0000E+00  0.2674E+01  0.6060E+03  0.6060E+03
     15.051  0.0000E+00  0.2225E-05  0.6060E+03  0.6060E+03
     15.292  0.0000E+00  0.0000E+00  0.6060E+03  0.6060E+03
     15.533  0.0000E+00  0.0000E+00  0.6060E+03  0.6060E+03
     15.774  0.0000E+00  0.0000E+00  0.6060E+03  0.6060E+03
     16.015  0.0000E+00  0.0000E+00  0.6060E+03  0.6060E+03
     16.256  0.0000E+00  0.0000E+00  0.6060E+03  0.6060E+03
     16.497  0.0000E+00  0.0000E+00  0.6060E+03  0.6060E+03
     16.738  0.0000E+00  0.0000E+00  0.6060E+03  0.6060E+03
     16.979  0.0000E+00  0.0000E+00  0.6060E+03  0.6060E+03
     17.220  0.0000E+00  0.0000E+00  0.6060E+03  0.6060E+03
     17.461  0.0000E+00  0.0000E+00  0.6060E+03  0.6060E+03
     17.702  0.0000E+00  0.0000E+00  0.6060E+03  0.6060E+03
     17.942  0.0000E+00  0.0000E+00  0.6060E+03  0.6060E+03
