<?xml version="1.0" encoding="ISO-8859-1"?>
<modeling>
 <generator>
  <i name="program" type="string">vasp </i>
  <i name="version" type="string">5.4.4.18Apr17-6-g9f103f2a35  </i>
  <i name="subversion" type="string">(build Oct 25 2017 14:42:18) complex            parallel </i>
  <i name="platform" type="string">LinuxIFC </i>
  <i name="date" type="string">2021 05 28 </i>
  <i name="time" type="string">04:56:26 </i>
 </generator>
 <incar>
  <i type="string" name="PREC">accurate</i>
  <i type="string" name="ALGO"> normal</i>
  <i type="logical" name="ADDGRID"> T  </i>
  <i type="int" name="ISPIN">     2</i>
  <i type="int" name="ICHARG">     1</i>
  <i type="int" name="NELM">   200</i>
  <i type="int" name="NELMIN">     8</i>
  <i name="EDIFF">      0.00000100</i>
  <i type="int" name="ISYM">     0</i>
  <i name="ENCUT">    650.00000000</i>
  <v name="MAGMOM">      0.60000000      0.60000000      0.60000000      0.60000000      0.60000000      0.60000000      0.60000000      0.60000000      0.60000000      0.60000000      0.60000000      0.60000000      0.60000000      0.60000000      0.60000000      0.60000000      0.60000000      0.60000000      0.60000000      0.60000000
      0.60000000      0.60000000      0.60000000      0.60000000      0.60000000      0.60000000      0.60000000      0.60000000      0.60000000      0.60000000      0.60000000      0.60000000      0.60000000      0.60000000      0.60000000      0.60000000      0.60000000      0.60000000      0.60000000      0.60000000
      0.60000000      0.60000000      0.60000000      0.60000000      0.60000000      0.60000000      0.60000000      0.60000000      0.60000000      0.60000000      0.60000000      0.60000000      0.60000000      0.60000000      0.60000000      0.60000000      0.60000000      0.60000000      0.60000000      0.60000000
      0.60000000      0.60000000      0.60000000      5.00000000      5.00000000      5.00000000      5.00000000      5.00000000      5.00000000      5.00000000      5.00000000      5.00000000      5.00000000      5.00000000      5.00000000      5.00000000      5.00000000      5.00000000      5.00000000      5.00000000
      5.00000000      5.00000000      5.00000000      5.00000000      5.00000000      5.00000000      5.00000000      5.00000000      5.00000000      5.00000000      5.00000000      5.00000000      5.00000000      5.00000000      5.00000000      5.00000000      5.00000000      5.00000000      5.00000000</v>
  <i type="logical" name="LREAL"> F  </i>
  <i type="int" name="ISMEAR">     0</i>
  <i name="SIGMA">      0.05000000</i>
  <i type="int" name="NWRITE">     1</i>
  <i type="int" name="LMAXMIX">     4</i>
  <i type="logical" name="LWAVE"> F  </i>
  <i type="logical" name="LASPH"> T  </i>
  <v type="int" name="KPOINT_BSE">    -1     0     0     0</v>
  <i type="int" name="NELM">   200</i>
  <i type="string" name="GGA"> pe</i>
  <i type="logical" name="LDAU"> T  </i>
  <v type="int" name="LDAUTYPE">     2</v>
  <v type="int" name="LDAUL">    -1    -1    -1     2</v>
  <v name="LDAUU">      0.00000000      0.00000000      0.00000000      4.00000000</v>
  <v name="LDAUJ">      0.00000000      0.00000000      0.00000000      0.00000000</v>
  <i type="logical" name="LASPH"> T  </i>
 </incar>
 <structure name="primitive_cell" >
  <crystal>
   <varray name="basis" >
    <v>      11.77726974       0.00848871       0.06923316 </v>
    <v>      -0.03028248      11.77723386       0.06923316 </v>
    <v>      -2.02000231      -2.02666320      10.18574622 </v>
   </varray>
   <i name="volume">   1416.10551572 </i>
   <varray name="rec_basis" >
    <v>       0.08481023       0.00011906       0.01684296 </v>
    <v>      -0.00016014       0.08481016       0.01684296 </v>
    <v>      -0.00057537      -0.00057727       0.09794744 </v>
   </varray>
  </crystal>
  <varray name="positions" >
   <v>       0.20224939       0.24206952      -0.16816581 </v>
   <v>       0.19734517       0.40355659      -0.19686089 </v>
   <v>       0.19734517       0.07022326      -0.19686089 </v>
   <v>       0.39684232       0.26982435       0.00000000 </v>
   <v>       0.06350899       0.26982435       0.00000000 </v>
   <v>       0.37094724       0.41064640      -0.15457223 </v>
   <v>       0.03761391       0.41064640      -0.15457223 </v>
   <v>       0.37094724       0.07731307      -0.15457223 </v>
   <v>       0.03761391       0.07646399      -0.15457223 </v>
   <v>       0.00253935       0.20657296      -0.37079665 </v>
   <v>       0.33587268       0.20657296      -0.37079665 </v>
   <v>       0.16118393       0.04306059      -0.39352170 </v>
   <v>       0.16118393       0.37639393      -0.39352170 </v>
   <v>       0.25602027       0.29571943       0.15457223 </v>
   <v>       0.20224939      -0.42459715      -0.16816581 </v>
   <v>       0.20224939      -0.09126381      -0.16816581 </v>
   <v>      -0.13108394       0.24206952      -0.16816581 </v>
   <v>      -0.46441728       0.24206952      -0.16816581 </v>
   <v>       0.26311007       0.46932149       0.19686089 </v>
   <v>       0.26311007       0.13598816       0.19686089 </v>
   <v>      -0.46932149       0.40355659      -0.19686089 </v>
   <v>      -0.13598816       0.07022326      -0.19686089 </v>
   <v>      -0.13598816       0.40355659      -0.19686089 </v>
   <v>      -0.46932149       0.07022326      -0.19686089 </v>
   <v>       0.42459715       0.46441728       0.16816581 </v>
   <v>       0.42459715       0.13108394       0.16816581 </v>
   <v>       0.09126381       0.46441728       0.16816581 </v>
   <v>       0.09126381       0.13108394       0.16816581 </v>
   <v>       0.39684232      -0.39684232       0.00000000 </v>
   <v>       0.06350899      -0.39684232       0.00000000 </v>
   <v>       0.06350899      -0.06350899       0.00000000 </v>
   <v>       0.39684232      -0.06350899       0.00000000 </v>
   <v>       0.00253935      -0.46009370      -0.37079665 </v>
   <v>       0.33587268      -0.46009370      -0.37079665 </v>
   <v>       0.29027274       0.17214940       0.39352170 </v>
   <v>       0.00253935      -0.12676037      -0.37079665 </v>
   <v>       0.33587268      -0.12676037      -0.37079665 </v>
   <v>       0.49451727       0.04306059      -0.39352170 </v>
   <v>      -0.04306059       0.17214940       0.39352170 </v>
   <v>       0.49451727       0.37639393      -0.39352170 </v>
   <v>      -0.17214940       0.04306059      -0.39352170 </v>
   <v>      -0.17214940       0.37639393      -0.39352170 </v>
   <v>       0.12676037       0.33079399       0.37079665 </v>
   <v>       0.12676037      -0.00253935       0.37079665 </v>
   <v>       0.25602027      -0.37094724       0.15457223 </v>
   <v>      -0.41064640       0.29571943       0.15457223 </v>
   <v>      -0.07731307       0.29571943       0.15457223 </v>
   <v>       0.25602027      -0.03761391       0.15457223 </v>
   <v>      -0.46441728      -0.42459715      -0.16816581 </v>
   <v>      -0.13108394      -0.09126381      -0.16816581 </v>
   <v>      -0.13108394      -0.42459715      -0.16816581 </v>
   <v>      -0.46441728      -0.09126381      -0.16816581 </v>
   <v>      -0.40355659       0.46932149       0.19686089 </v>
   <v>      -0.07022326       0.13598816       0.19686089 </v>
   <v>      -0.07022326       0.46932149       0.19686089 </v>
   <v>      -0.40355659       0.13598816       0.19686089 </v>
   <v>       0.46009370       0.33079399       0.37079665 </v>
   <v>       0.19734517      -0.26311007      -0.19686089 </v>
   <v>       0.29027274      -0.49451727       0.39352170 </v>
   <v>      -0.26982435       0.26982435       0.00000000 </v>
   <v>       0.37094724      -0.25602027      -0.15457223 </v>
   <v>      -0.29571943       0.41064640      -0.15457223 </v>
   <v>       0.03761391      -0.25602027      -0.15457223 </v>
   <v>      -0.29571943       0.07731307      -0.15457223 </v>
   <v>       0.29027274      -0.16118393       0.39352170 </v>
   <v>      -0.33079399       0.20657296      -0.37079665 </v>
   <v>      -0.04306059      -0.16118393       0.39352170 </v>
   <v>       0.16118393      -0.29027274      -0.39352170 </v>
   <v>      -0.04306059      -0.49451727       0.39352170 </v>
   <v>      -0.20657296       0.33079399       0.37079665 </v>
   <v>      -0.20657296      -0.00253935       0.37079665 </v>
   <v>      -0.41064640      -0.37094724       0.15457223 </v>
   <v>       0.46009370      -0.00253935       0.37079665 </v>
   <v>      -0.07731307      -0.03761391       0.15457223 </v>
   <v>      -0.07731307      -0.37094724       0.15457223 </v>
   <v>      -0.41064640      -0.03761391       0.15457223 </v>
   <v>       0.26311007      -0.19734517       0.19686089 </v>
   <v>       0.12676037      -0.33587268       0.37079665 </v>
   <v>       0.46009370      -0.33587268       0.37079665 </v>
   <v>      -0.46932149      -0.26311007      -0.19686089 </v>
   <v>      -0.13598816      -0.26311007      -0.19686089 </v>
   <v>       0.42459715      -0.20224939       0.16816581 </v>
   <v>      -0.24206952       0.46441728       0.16816581 </v>
   <v>       0.09126381      -0.20224939       0.16816581 </v>
   <v>      -0.24206952       0.13108394       0.16816581 </v>
   <v>      -0.37639393       0.17214940       0.39352170 </v>
   <v>      -0.37639393      -0.49451727       0.39352170 </v>
   <v>      -0.26982435      -0.39684232       0.00000000 </v>
   <v>      -0.26982435      -0.06350899       0.00000000 </v>
   <v>      -0.33079399      -0.46009370      -0.37079665 </v>
   <v>      -0.33079399      -0.12676037      -0.37079665 </v>
   <v>       0.49451727      -0.29027274      -0.39352170 </v>
   <v>      -0.17214940      -0.29027274      -0.39352170 </v>
   <v>      -0.07022326      -0.19734517       0.19686089 </v>
   <v>      -0.40355659      -0.19734517       0.19686089 </v>
   <v>      -0.37639393      -0.16118393       0.39352170 </v>
   <v>      -0.29571943      -0.25602027      -0.15457223 </v>
   <v>      -0.20657296      -0.33587268       0.37079665 </v>
   <v>      -0.24206952      -0.20224939       0.16816581 </v>
  </varray>
 </structure>
 <varray name="primitive_index" >
  <v type="int" >        1 </v>
  <v type="int" >       31 </v>
  <v type="int" >       28 </v>
  <v type="int" >       56 </v>
  <v type="int" >       55 </v>
  <v type="int" >       86 </v>
  <v type="int" >       85 </v>
  <v type="int" >       83 </v>
  <v type="int" >       82 </v>
  <v type="int" >       37 </v>
  <v type="int" >       38 </v>
  <v type="int" >       73 </v>
  <v type="int" >       76 </v>
  <v type="int" >       91 </v>
  <v type="int" >        4 </v>
  <v type="int" >        7 </v>
  <v type="int" >        3 </v>
  <v type="int" >        2 </v>
  <v type="int" >       22 </v>
  <v type="int" >       19 </v>
  <v type="int" >       32 </v>
  <v type="int" >       30 </v>
  <v type="int" >       33 </v>
  <v type="int" >       29 </v>
  <v type="int" >       14 </v>
  <v type="int" >       11 </v>
  <v type="int" >       13 </v>
  <v type="int" >       10 </v>
  <v type="int" >       59 </v>
  <v type="int" >       58 </v>
  <v type="int" >       61 </v>
  <v type="int" >       62 </v>
  <v type="int" >       40 </v>
  <v type="int" >       41 </v>
  <v type="int" >       64 </v>
  <v type="int" >       43 </v>
  <v type="int" >       44 </v>
  <v type="int" >       74 </v>
  <v type="int" >       66 </v>
  <v type="int" >       77 </v>
  <v type="int" >       75 </v>
  <v type="int" >       78 </v>
  <v type="int" >       46 </v>
  <v type="int" >       52 </v>
  <v type="int" >       94 </v>
  <v type="int" >       92 </v>
  <v type="int" >       93 </v>
  <v type="int" >       97 </v>
  <v type="int" >        5 </v>
  <v type="int" >        9 </v>
  <v type="int" >        6 </v>
  <v type="int" >        8 </v>
  <v type="int" >       23 </v>
  <v type="int" >       21 </v>
  <v type="int" >       24 </v>
  <v type="int" >       20 </v>
  <v type="int" >       47 </v>
  <v type="int" >       34 </v>
  <v type="int" >       67 </v>
  <v type="int" >       57 </v>
  <v type="int" >       89 </v>
  <v type="int" >       87 </v>
  <v type="int" >       88 </v>
  <v type="int" >       84 </v>
  <v type="int" >       70 </v>
  <v type="int" >       39 </v>
  <v type="int" >       72 </v>
  <v type="int" >       79 </v>
  <v type="int" >       69 </v>
  <v type="int" >       48 </v>
  <v type="int" >       54 </v>
  <v type="int" >       95 </v>
  <v type="int" >       53 </v>
  <v type="int" >       99 </v>
  <v type="int" >       96 </v>
  <v type="int" >       98 </v>
  <v type="int" >       25 </v>
  <v type="int" >       49 </v>
  <v type="int" >       50 </v>
  <v type="int" >       35 </v>
  <v type="int" >       36 </v>
  <v type="int" >       17 </v>
  <v type="int" >       15 </v>
  <v type="int" >       16 </v>
  <v type="int" >       12 </v>
  <v type="int" >       65 </v>
  <v type="int" >       68 </v>
  <v type="int" >       60 </v>
  <v type="int" >       63 </v>
  <v type="int" >       42 </v>
  <v type="int" >       45 </v>
  <v type="int" >       80 </v>
  <v type="int" >       81 </v>
  <v type="int" >       27 </v>
  <v type="int" >       26 </v>
  <v type="int" >       71 </v>
  <v type="int" >       90 </v>
  <v type="int" >       51 </v>
  <v type="int" >       18 </v>
 </varray>
 <kpoints>
  <generation param="Gamma">
   <v type="int" name="divisions">       3        3        3 </v>
   <v name="usershift">      0.00000000       0.00000000       0.00000000 </v>
   <v name="genvec1">      0.33333333       0.00000000       0.00000000 </v>
   <v name="genvec2">      0.00000000       0.33333333       0.00000000 </v>
   <v name="genvec3">      0.00000000       0.00000000       0.33333333 </v>
   <v name="shift">      0.00000000       0.00000000       0.00000000 </v>
  </generation>
  <varray name="kpointlist" >
   <v>       0.00000000       0.00000000       0.00000000 </v>
   <v>       0.33333333      -0.00000000      -0.00000000 </v>
   <v>       0.00000000       0.33333333       0.00000000 </v>
   <v>       0.33333333       0.33333333       0.00000000 </v>
   <v>      -0.33333333       0.33333333       0.00000000 </v>
   <v>      -0.00000000      -0.00000000       0.33333333 </v>
   <v>       0.33333333      -0.00000000       0.33333333 </v>
   <v>      -0.33333333      -0.00000000       0.33333333 </v>
   <v>      -0.00000000       0.33333333       0.33333333 </v>
   <v>       0.33333333       0.33333333       0.33333333 </v>
   <v>      -0.33333333       0.33333333       0.33333333 </v>
   <v>      -0.00000000      -0.33333333       0.33333333 </v>
   <v>       0.33333333      -0.33333333       0.33333333 </v>
   <v>      -0.33333333      -0.33333333       0.33333333 </v>
  </varray>
  <varray name="weights" >
   <v>       0.03703704 </v>
   <v>       0.07407407 </v>
   <v>       0.07407407 </v>
   <v>       0.07407407 </v>
   <v>       0.07407407 </v>
   <v>       0.07407407 </v>
   <v>       0.07407407 </v>
   <v>       0.07407407 </v>
   <v>       0.07407407 </v>
   <v>       0.07407407 </v>
   <v>       0.07407407 </v>
   <v>       0.07407407 </v>
   <v>       0.07407407 </v>
   <v>       0.07407407 </v>
  </varray>
 </kpoints>
 <parameters>
  <separator name="general" >
   <i type="string" name="SYSTEM">unknown system</i>
   <i type="logical" name="LCOMPAT"> F  </i>
  </separator>
  <separator name="electronic" >
   <i type="string" name="PREC">accura</i>
   <i name="ENMAX">    650.00000000</i>
   <i name="ENAUG">    628.94500000</i>
   <i name="EDIFF">      0.00000100</i>
   <i type="int" name="IALGO">    38</i>
   <i type="int" name="IWAVPR">    10</i>
   <i type="int" name="NBANDS">   606</i>
   <i name="NELECT">    828.00000000</i>
   <i type="int" name="TURBO">     0</i>
   <i type="int" name="IRESTART">     0</i>
   <i type="int" name="NREBOOT">     0</i>
   <i type="int" name="NMIN">     0</i>
   <i name="EREF">      0.00000000</i>
   <separator name="electronic smearing" >
    <i type="int" name="ISMEAR">     0</i>
    <i name="SIGMA">      0.05000000</i>
    <i name="KSPACING">      0.50000000</i>
    <i type="logical" name="KGAMMA"> T  </i>
   </separator>
   <separator name="electronic projectors" >
    <i type="logical" name="LREAL"> F  </i>
    <v name="ROPT">      0.00000000      0.00000000      0.00000000      0.00000000</v>
    <i type="int" name="LMAXPAW">  -100</i>
    <i type="int" name="LMAXMIX">     4</i>
    <i type="logical" name="NLSPLINE"> F  </i>
   </separator>
   <separator name="electronic startup" >
    <i type="int" name="ISTART">     0</i>
    <i type="int" name="ICHARG">     1</i>
    <i type="int" name="INIWAV">     1</i>
   </separator>
   <separator name="electronic spin" >
    <i type="int" name="ISPIN">     2</i>
    <i type="logical" name="LNONCOLLINEAR"> F  </i>
    <v name="MAGMOM">      0.60000000      0.60000000      0.60000000      0.60000000      0.60000000      0.60000000      0.60000000      0.60000000      0.60000000      0.60000000      0.60000000      0.60000000      0.60000000      0.60000000      0.60000000      0.60000000      0.60000000      0.60000000      0.60000000      0.60000000
      0.60000000      0.60000000      0.60000000      0.60000000      0.60000000      0.60000000      0.60000000      0.60000000      0.60000000      0.60000000      0.60000000      0.60000000      0.60000000      0.60000000      0.60000000      0.60000000      0.60000000      0.60000000      0.60000000      0.60000000
      0.60000000      0.60000000      0.60000000      0.60000000      0.60000000      0.60000000      0.60000000      0.60000000      0.60000000      0.60000000      0.60000000      0.60000000      0.60000000      0.60000000      0.60000000      0.60000000      0.60000000      0.60000000      0.60000000      0.60000000
      0.60000000      0.60000000      0.60000000      5.00000000      5.00000000      5.00000000      5.00000000      5.00000000      5.00000000      5.00000000      5.00000000      5.00000000      5.00000000      5.00000000      5.00000000      5.00000000      5.00000000      5.00000000      5.00000000      5.00000000
      5.00000000      5.00000000      5.00000000      5.00000000      5.00000000      5.00000000      5.00000000      5.00000000      5.00000000      5.00000000      5.00000000      5.00000000      5.00000000      5.00000000      5.00000000      5.00000000      5.00000000      5.00000000      5.00000000</v>
    <i name="NUPDOWN">     -1.00000000</i>
    <i type="logical" name="LSORBIT"> F  </i>
    <v name="SAXIS">      0.00000000      0.00000000      1.00000000</v>
    <i type="logical" name="LSPIRAL"> F  </i>
    <v name="QSPIRAL">      0.00000000      0.00000000      0.00000000</v>
    <i type="logical" name="LZEROZ"> F  </i>
   </separator>
   <separator name="electronic exchange-correlation" >
    <i type="logical" name="LASPH"> T  </i>
    <i type="logical" name="LMETAGGA"> F  </i>
   </separator>
   <separator name="electronic convergence" >
    <i type="int" name="NELM">   200</i>
    <i type="int" name="NELMDL">     0</i>
    <i type="int" name="NELMIN">     8</i>
    <i name="ENINI">    650.00000000</i>
    <separator name="electronic convergence detail" >
     <i type="logical" name="LDIAG"> T  </i>
     <i type="logical" name="LSUBROT"> F  </i>
     <i name="WEIMIN">      0.00000000</i>
     <i name="EBREAK">      0.00000000</i>
     <i name="DEPER">      0.30000000</i>
     <i type="int" name="NRMM">     4</i>
     <i name="TIME">      0.40000000</i>
    </separator>
   </separator>
   <separator name="electronic mixer" >
    <i name="AMIX">      0.40000000</i>
    <i name="BMIX">      1.00000000</i>
    <i name="AMIN">      0.10000000</i>
    <i name="AMIX_MAG">      1.60000000</i>
    <i name="BMIX_MAG">      1.00000000</i>
    <separator name="electronic mixer details" >
     <i type="int" name="IMIX">     4</i>
     <i type="logical" name="MIXFIRST"> F  </i>
     <i type="int" name="MAXMIX">   -45</i>
     <i name="WC">    100.00000000</i>
     <i type="int" name="INIMIX">     1</i>
     <i type="int" name="MIXPRE">     1</i>
     <i type="int" name="MREMOVE">     5</i>
    </separator>
   </separator>
   <separator name="electronic dipolcorrection" >
    <i type="logical" name="LDIPOL"> F  </i>
    <i type="logical" name="LMONO"> F  </i>
    <i type="int" name="IDIPOL">     0</i>
    <i name="EPSILON">      1.00000000</i>
    <v name="DIPOL">   -100.00000000   -100.00000000   -100.00000000</v>
    <i name="EFIELD">      0.00000000</i>
   </separator>
  </separator>
  <separator name="grids" >
   <i type="int" name="NGX">    98</i>
   <i type="int" name="NGY">    98</i>
   <i type="int" name="NGZ">    90</i>
   <i type="int" name="NGXF">   196</i>
   <i type="int" name="NGYF">   196</i>
   <i type="int" name="NGZF">   180</i>
   <i type="logical" name="ADDGRID"> T  </i>
  </separator>
  <separator name="ionic" >
   <i type="int" name="NSW">     0</i>
   <i type="int" name="IBRION">    -1</i>
   <i type="int" name="MDALGO">     0</i>
   <i type="int" name="ISIF">     2</i>
   <i name="PSTRESS">      0.00000000</i>
   <i name="EDIFFG">      0.00001000</i>
   <i type="int" name="NFREE">     0</i>
   <i name="POTIM">      0.50000000</i>
   <i name="SMASS">     -3.00000000</i>
   <i name="SCALEE">      1.00000000</i>
  </separator>
  <separator name="ionic md" >
   <i name="TEBEG">      0.00010000</i>
   <i name="TEEND">      0.00010000</i>
   <i type="int" name="NBLOCK">     1</i>
   <i type="int" name="KBLOCK">     1</i>
   <i type="int" name="NPACO">   256</i>
   <i name="APACO">     16.00000000</i>
  </separator>
  <separator name="symmetry" >
   <i type="int" name="ISYM">     0</i>
   <i name="SYMPREC">      0.00001000</i>
  </separator>
  <separator name="dos" >
   <i type="int" name="LORBIT">     0</i>
   <v name="RWIGS">     -1.00000000     -1.00000000     -1.00000000     -1.00000000</v>
   <i type="int" name="NEDOS">   301</i>
   <i name="EMIN">     10.00000000</i>
   <i name="EMAX">    -10.00000000</i>
   <i name="EFERMI">      0.00000000</i>
  </separator>
  <separator name="writing" >
   <i type="int" name="NWRITE">     1</i>
   <i type="logical" name="LWAVE"> F  </i>
   <i type="logical" name="LDOWNSAMPLE"> F  </i>
   <i type="logical" name="LCHARG"> T  </i>
   <i type="logical" name="LPARD"> F  </i>
   <i type="logical" name="LVTOT"> F  </i>
   <i type="logical" name="LVHAR"> F  </i>
   <i type="logical" name="LELF"> F  </i>
   <i type="logical" name="LOPTICS"> F  </i>
   <v name="STM">      0.00000000      0.00000000      0.00000000      0.00000000      0.00000000      0.00000000      0.00000000</v>
  </separator>
  <separator name="performance" >
   <i type="int" name="NPAR">     2</i>
   <i type="int" name="NSIM">     4</i>
   <i type="int" name="NBLK">    -1</i>
   <i type="logical" name="LPLANE"> T  </i>
   <i type="logical" name="LSCALAPACK"> T  </i>
   <i type="logical" name="LSCAAWARE"> F  </i>
   <i type="logical" name="LSCALU"> F  </i>
   <i type="logical" name="LASYNC"> F  </i>
   <i type="logical" name="LORBITALREAL"> F  </i>
  </separator>
  <separator name="miscellaneous" >
   <i type="int" name="IDIOT">     3</i>
   <i type="int" name="ISPECIAL">     0</i>
   <i type="logical" name="LMUSIC"> F  </i>
   <v name="POMASS">      7.01000000     16.00000000     32.06600000     55.84700000</v>
   <v name="DARWINR">      0.00000000      0.00000000      0.00000000      0.00000000</v>
   <v name="DARWINV">      1.00000000      1.00000000      1.00000000      1.00000000</v>
   <i type="logical" name="LCORR"> T  </i>
  </separator>
  <i type="logical" name="GGA_COMPAT"> T  </i>
  <i type="logical" name="LBERRY"> F  </i>
  <i type="int" name="ICORELEVEL">     0</i>
  <i type="logical" name="LDAU"> T  </i>
  <v type="int" name="LDAUTYPE">     2</v>
  <v type="int" name="LDAUL">    -1</v>
  <v name="LDAUU">      0.00000000</v>
  <v name="LDAUJ">      0.00000000</v>
  <i type="int" name="LDAUPRINT">     0</i>
  <i type="int" name="I_CONSTRAINED_M">     0</i>
  <separator name="electronic exchange-correlation" >
   <i type="string" name="GGA">PE</i>
   <i type="int" name="VOSKOWN">     0</i>
   <i type="logical" name="LHFCALC"> F  </i>
   <i type="string" name="PRECFOCK"></i>
   <i type="logical" name="LSYMGRAD"> F  </i>
   <i type="logical" name="LHFONE"> F  </i>
   <i type="logical" name="LRHFCALC"> F  </i>
   <i type="logical" name="LTHOMAS"> F  </i>
   <i type="logical" name="LMODELHF"> F  </i>
   <i name="ENCUT4O">     -1.00000000</i>
   <i type="int" name="EXXOEP">     0</i>
   <i type="int" name="FOURORBIT">     0</i>
   <i name="AEXX">      0.00000000</i>
   <i name="HFALPHA">      0.00000000</i>
   <i name="MCALPHA">      0.00000000</i>
   <i name="ALDAX">      1.00000000</i>
   <i name="AGGAX">      1.00000000</i>
   <i name="ALDAC">      1.00000000</i>
   <i name="AGGAC">      1.00000000</i>
   <i type="int" name="NKREDX">     1</i>
   <i type="int" name="NKREDY">     1</i>
   <i type="int" name="NKREDZ">     1</i>
   <i type="logical" name="SHIFTRED"> F  </i>
   <i type="logical" name="ODDONLY"> F  </i>
   <i type="logical" name="EVENONLY"> F  </i>
   <i type="int" name="LMAXFOCK">     0</i>
   <i type="int" name="NMAXFOCKAE">     0</i>
   <i type="logical" name="LFOCKAEDFT"> F  </i>
   <i name="HFSCREEN">      0.00000000</i>
   <i name="HFSCREENC">      0.00000000</i>
   <i type="int" name="NBANDSGWLOW">     0</i>
  </separator>
  <separator name="vdW DFT" >
   <i type="logical" name="LUSE_VDW"> F  </i>
   <i name="Zab_VDW">     -0.84910000</i>
   <i name="PARAM1">      0.12340000</i>
   <i name="PARAM2">      1.00000000</i>
   <i name="PARAM3">      0.00000000</i>
  </separator>
  <separator name="model GW" >
   <i type="int" name="MODEL_GW">     0</i>
   <i name="MODEL_EPS0">      8.58245767</i>
   <i name="MODEL_ALPHA">      1.00000000</i>
  </separator>
  <separator name="linear response parameters" >
   <i type="logical" name="LEPSILON"> F  </i>
   <i type="logical" name="LRPA"> F  </i>
   <i type="logical" name="LNABLA"> F  </i>
   <i type="logical" name="LVEL"> F  </i>
   <i type="int" name="KINTER">     0</i>
   <i name="CSHIFT">      0.10000000</i>
   <i name="OMEGAMAX">     -1.00000000</i>
   <i name="DEG_THRESHOLD">      0.00200000</i>
   <i name="RTIME">     -0.10000000</i>
   <i name="WPLASMAI">      0.00000000</i>
   <v name="DFIELD">      0.00000000      0.00000000      0.00000000</v>
   <v name="WPLASMA">      0.00000000      0.00000000      0.00000000      0.00000000      0.00000000      0.00000000      0.00000000      0.00000000      0.00000000</v>
  </separator>
  <separator name="orbital magnetization" >
   <i type="logical" name="NUCIND"> F  </i>
   <v name="MAGPOS">      0.00000000      0.00000000      0.00000000</v>
   <i type="logical" name="LNICSALL"> T  </i>
   <i type="logical" name="ORBITALMAG"> F  </i>
   <i type="logical" name="LMAGBLOCH"> F  </i>
   <i type="logical" name="LCHIMAG"> F  </i>
   <i type="logical" name="LGAUGE"> T  </i>
   <i type="int" name="MAGATOM">     0</i>
   <v name="MAGDIPOL">      0.00000000      0.00000000      0.00000000</v>
   <v name="AVECCONST">      0.00000000      0.00000000      0.00000000</v>
  </separator>
  <separator name="response functions" >
   <i type="logical" name="LADDER"> F  </i>
   <i type="logical" name="LRPAFORCE"> F  </i>
   <i type="logical" name="LFXC"> F  </i>
   <i type="logical" name="LHARTREE"> T  </i>
   <i type="int" name="IBSE">     0</i>
   <v type="int" name="KPOINT">    -1     0     0     0</v>
   <i type="logical" name="LTCTE"> F  </i>
   <i type="logical" name="LTETE"> F  </i>
   <i type="logical" name="LTRIPLET"> F  </i>
   <i type="logical" name="LFXCEPS"> F  </i>
   <i type="logical" name="LFXHEG"> F  </i>
   <i type="int" name="NATURALO">     2</i>
   <i type="logical" name="L2ORDER"> F  </i>
   <i type="logical" name="LMP2LT"> F  </i>
   <i type="logical" name="LUSEW"> F  </i>
   <i name="ENCUTGW">     -2.00000000</i>
   <i name="ENCUTGWSOFT">     -2.00000000</i>
   <i name="ENCUTLF">     -1.00000000</i>
   <i type="int" name="LMAXMP2">    -1</i>
   <i name="SCISSOR">      0.00000000</i>
   <i type="int" name="NOMEGA">     0</i>
   <i type="int" name="NOMEGAR">     0</i>
   <i type="int" name="NBANDSGW">    -1</i>
   <i type="int" name="NBANDSO">    -1</i>
   <i type="int" name="NBANDSV">    -1</i>
   <i type="int" name="NELM">   200</i>
   <i type="int" name="NELMHF">     1</i>
   <i type="int" name="DIM">     3</i>
   <i type="int" name="ANTIRES">     0</i>
   <i name="OMEGAMAX">    -30.00000000</i>
   <i name="OMEGAMIN">    -30.00000000</i>
   <i name="OMEGATL">   -200.00000000</i>
   <i type="int" name="OMEGAGRID">   140</i>
   <i name="CSHIFT">     -0.10000000</i>
   <i type="logical" name="SELFENERGY"> F  </i>
   <i type="logical" name="LSPECTRAL"> F  </i>
   <i type="logical" name="LSPECTRALGW"> F  </i>
   <i type="logical" name="LSINGLES"> F  </i>
   <i type="logical" name="LFERMIGW"> F  </i>
   <i type="logical" name="ODDONLYGW"> F  </i>
   <i type="logical" name="EVENONLYGW"> F  </i>
   <i type="int" name="NKREDLFX">     1</i>
   <i type="int" name="NKREDLFY">     1</i>
   <i type="int" name="NKREDLFZ">     1</i>
   <i type="int" name="MAXMEM">  2800</i>
   <i type="int" name="TELESCOPE">     0</i>
   <i type="int" name="TAUPAR">     1</i>
   <i type="int" name="OMEGAPAR">    -1</i>
   <i name="LAMBDA">      1.00000000</i>
  </separator>
  <separator name="External order field" >
   <i name="OFIELD_KAPPA">      0.00000000</i>
   <v name="OFIELD_K">      0.00000000      0.00000000      0.00000000</v>
   <i name="OFIELD_Q6_NEAR">      0.00000000</i>
   <i name="OFIELD_Q6_FAR">      0.00000000</i>
   <i name="OFIELD_A">      0.00000000</i>
  </separator>
 </parameters>
 <atominfo>
  <atoms>      99 </atoms>
  <types>       4 </types>
  <array name="atoms" >
   <dimension dim="1">ion</dimension>
   <field type="string">element</field>
   <field type="int">atomtype</field>
   <set>
    <rc><c>Li</c><c>   1</c></rc>
    <rc><c>Li</c><c>   1</c></rc>
    <rc><c>Li</c><c>   1</c></rc>
    <rc><c>Li</c><c>   1</c></rc>
    <rc><c>Li</c><c>   1</c></rc>
    <rc><c>Li</c><c>   1</c></rc>
    <rc><c>Li</c><c>   1</c></rc>
    <rc><c>Li</c><c>   1</c></rc>
    <rc><c>Li</c><c>   1</c></rc>
    <rc><c>Li</c><c>   1</c></rc>
    <rc><c>Li</c><c>   1</c></rc>
    <rc><c>Li</c><c>   1</c></rc>
    <rc><c>Li</c><c>   1</c></rc>
    <rc><c>Li</c><c>   1</c></rc>
    <rc><c>Li</c><c>   1</c></rc>
    <rc><c>Li</c><c>   1</c></rc>
    <rc><c>Li</c><c>   1</c></rc>
    <rc><c>Li</c><c>   1</c></rc>
    <rc><c>O </c><c>   2</c></rc>
    <rc><c>O </c><c>   2</c></rc>
    <rc><c>O </c><c>   2</c></rc>
    <rc><c>O </c><c>   2</c></rc>
    <rc><c>O </c><c>   2</c></rc>
    <rc><c>O </c><c>   2</c></rc>
    <rc><c>O </c><c>   2</c></rc>
    <rc><c>O </c><c>   2</c></rc>
    <rc><c>O </c><c>   2</c></rc>
    <rc><c>O </c><c>   2</c></rc>
    <rc><c>O </c><c>   2</c></rc>
    <rc><c>O </c><c>   2</c></rc>
    <rc><c>O </c><c>   2</c></rc>
    <rc><c>O </c><c>   2</c></rc>
    <rc><c>O </c><c>   2</c></rc>
    <rc><c>O </c><c>   2</c></rc>
    <rc><c>O </c><c>   2</c></rc>
    <rc><c>O </c><c>   2</c></rc>
    <rc><c>S </c><c>   3</c></rc>
    <rc><c>S </c><c>   3</c></rc>
    <rc><c>S </c><c>   3</c></rc>
    <rc><c>S </c><c>   3</c></rc>
    <rc><c>S </c><c>   3</c></rc>
    <rc><c>S </c><c>   3</c></rc>
    <rc><c>S </c><c>   3</c></rc>
    <rc><c>S </c><c>   3</c></rc>
    <rc><c>S </c><c>   3</c></rc>
    <rc><c>S </c><c>   3</c></rc>
    <rc><c>S </c><c>   3</c></rc>
    <rc><c>S </c><c>   3</c></rc>
    <rc><c>S </c><c>   3</c></rc>
    <rc><c>S </c><c>   3</c></rc>
    <rc><c>S </c><c>   3</c></rc>
    <rc><c>S </c><c>   3</c></rc>
    <rc><c>S </c><c>   3</c></rc>
    <rc><c>S </c><c>   3</c></rc>
    <rc><c>S </c><c>   3</c></rc>
    <rc><c>S </c><c>   3</c></rc>
    <rc><c>S </c><c>   3</c></rc>
    <rc><c>S </c><c>   3</c></rc>
    <rc><c>S </c><c>   3</c></rc>
    <rc><c>S </c><c>   3</c></rc>
    <rc><c>S </c><c>   3</c></rc>
    <rc><c>S </c><c>   3</c></rc>
    <rc><c>S </c><c>   3</c></rc>
    <rc><c>Fe</c><c>   4</c></rc>
    <rc><c>Fe</c><c>   4</c></rc>
    <rc><c>Fe</c><c>   4</c></rc>
    <rc><c>Fe</c><c>   4</c></rc>
    <rc><c>Fe</c><c>   4</c></rc>
    <rc><c>Fe</c><c>   4</c></rc>
    <rc><c>Fe</c><c>   4</c></rc>
    <rc><c>Fe</c><c>   4</c></rc>
    <rc><c>Fe</c><c>   4</c></rc>
    <rc><c>Fe</c><c>   4</c></rc>
    <rc><c>Fe</c><c>   4</c></rc>
    <rc><c>Fe</c><c>   4</c></rc>
    <rc><c>Fe</c><c>   4</c></rc>
    <rc><c>Fe</c><c>   4</c></rc>
    <rc><c>Fe</c><c>   4</c></rc>
    <rc><c>Fe</c><c>   4</c></rc>
    <rc><c>Fe</c><c>   4</c></rc>
    <rc><c>Fe</c><c>   4</c></rc>
    <rc><c>Fe</c><c>   4</c></rc>
    <rc><c>Fe</c><c>   4</c></rc>
    <rc><c>Fe</c><c>   4</c></rc>
    <rc><c>Fe</c><c>   4</c></rc>
    <rc><c>Fe</c><c>   4</c></rc>
    <rc><c>Fe</c><c>   4</c></rc>
    <rc><c>Fe</c><c>   4</c></rc>
    <rc><c>Fe</c><c>   4</c></rc>
    <rc><c>Fe</c><c>   4</c></rc>
    <rc><c>Fe</c><c>   4</c></rc>
    <rc><c>Fe</c><c>   4</c></rc>
    <rc><c>Fe</c><c>   4</c></rc>
    <rc><c>Fe</c><c>   4</c></rc>
    <rc><c>Fe</c><c>   4</c></rc>
    <rc><c>Fe</c><c>   4</c></rc>
    <rc><c>Fe</c><c>   4</c></rc>
    <rc><c>Fe</c><c>   4</c></rc>
    <rc><c>Fe</c><c>   4</c></rc>
   </set>
  </array>
  <array name="atomtypes" >
   <dimension dim="1">type</dimension>
   <field type="int">atomspertype</field>
   <field type="string">element</field>
   <field>mass</field>
   <field>valence</field>
   <field type="string">pseudopotential</field>
   <set>
    <rc><c>  18</c><c>Li</c><c>      7.01000000</c><c>      3.00000000</c><c>  PAW_PBE Li_sv 10Sep2004               </c></rc>
    <rc><c>  18</c><c>O </c><c>     16.00000000</c><c>      6.00000000</c><c>  PAW_PBE O 08Apr2002                   </c></rc>
    <rc><c>  27</c><c>S </c><c>     32.06600000</c><c>      6.00000000</c><c>  PAW_PBE S 06Sep2000                   </c></rc>
    <rc><c>  36</c><c>Fe</c><c>     55.84700000</c><c>     14.00000000</c><c>  PAW_PBE Fe_pv 02Aug2007               </c></rc>
   </set>
  </array>
 </atominfo>
 <structure name="initialpos" >
  <crystal>
   <varray name="basis" >
    <v>      11.77726974       0.00848871       0.06923316 </v>
    <v>      -0.03028248      11.77723386       0.06923316 </v>
    <v>      -2.02000231      -2.02666320      10.18574622 </v>
   </varray>
   <i name="volume">   1416.10551572 </i>
   <varray name="rec_basis" >
    <v>       0.08481023       0.00011906       0.01684296 </v>
    <v>      -0.00016014       0.08481016       0.01684296 </v>
    <v>      -0.00057537      -0.00057727       0.09794744 </v>
   </varray>
  </crystal>
  <varray name="positions" >
   <v>       0.20224939       0.24206952       0.83183419 </v>
   <v>       0.53558272       0.24206952       0.83183419 </v>
   <v>       0.86891606       0.24206952       0.83183419 </v>
   <v>       0.20224939       0.57540285       0.83183419 </v>
   <v>       0.53558272       0.57540285       0.83183419 </v>
   <v>       0.86891606       0.57540285       0.83183419 </v>
   <v>       0.20224939       0.90873619       0.83183419 </v>
   <v>       0.53558272       0.90873619       0.83183419 </v>
   <v>       0.86891606       0.90873619       0.83183419 </v>
   <v>       0.09126381       0.13108394       0.16816581 </v>
   <v>       0.42459715       0.13108394       0.16816581 </v>
   <v>       0.75793048       0.13108394       0.16816581 </v>
   <v>       0.09126381       0.46441728       0.16816581 </v>
   <v>       0.42459715       0.46441728       0.16816581 </v>
   <v>       0.75793048       0.46441728       0.16816581 </v>
   <v>       0.09126381       0.79775061       0.16816581 </v>
   <v>       0.42459715       0.79775061       0.16816581 </v>
   <v>       0.75793048       0.79775061       0.16816581 </v>
   <v>       0.26311007       0.13598816       0.19686089 </v>
   <v>       0.59644341       0.13598816       0.19686089 </v>
   <v>       0.92977674       0.13598816       0.19686089 </v>
   <v>       0.26311007       0.46932149       0.19686089 </v>
   <v>       0.59644341       0.46932149       0.19686089 </v>
   <v>       0.92977674       0.46932149       0.19686089 </v>
   <v>       0.26311007       0.80265483       0.19686089 </v>
   <v>       0.59644341       0.80265483       0.19686089 </v>
   <v>       0.92977674       0.80265483       0.19686089 </v>
   <v>       0.19734517       0.07022326       0.80313911 </v>
   <v>       0.53067851       0.07022326       0.80313911 </v>
   <v>       0.86401184       0.07022326       0.80313911 </v>
   <v>       0.19734517       0.40355659       0.80313911 </v>
   <v>       0.53067851       0.40355659       0.80313911 </v>
   <v>       0.86401184       0.40355659       0.80313911 </v>
   <v>       0.19734517       0.73688993       0.80313911 </v>
   <v>       0.53067851       0.73688993       0.80313911 </v>
   <v>       0.86401184       0.73688993       0.80313911 </v>
   <v>       0.00253935       0.20657296       0.62920335 </v>
   <v>       0.33587268       0.20657296       0.62920335 </v>
   <v>       0.66920601       0.20657296       0.62920335 </v>
   <v>       0.00253935       0.53990630       0.62920335 </v>
   <v>       0.33587268       0.53990630       0.62920335 </v>
   <v>       0.66920601       0.53990630       0.62920335 </v>
   <v>       0.00253935       0.87323963       0.62920335 </v>
   <v>       0.33587268       0.87323963       0.62920335 </v>
   <v>       0.66920601       0.87323963       0.62920335 </v>
   <v>       0.12676037       0.33079399       0.37079665 </v>
   <v>       0.46009370       0.33079399       0.37079665 </v>
   <v>       0.79342704       0.33079399       0.37079665 </v>
   <v>       0.12676037       0.66412732       0.37079665 </v>
   <v>       0.46009370       0.66412732       0.37079665 </v>
   <v>       0.79342704       0.66412732       0.37079665 </v>
   <v>       0.12676037       0.99746065       0.37079665 </v>
   <v>       0.46009370       0.99746065       0.37079665 </v>
   <v>       0.79342704       0.99746065       0.37079665 </v>
   <v>       0.06350899       0.26982435       0.00000000 </v>
   <v>       0.39684232       0.26982435       0.00000000 </v>
   <v>       0.73017565       0.26982435       0.00000000 </v>
   <v>       0.06350899       0.60315768       0.00000000 </v>
   <v>       0.39684232       0.60315768       0.00000000 </v>
   <v>       0.73017565       0.60315768       0.00000000 </v>
   <v>       0.06350899       0.93649101       0.00000000 </v>
   <v>       0.39684232       0.93649101       0.00000000 </v>
   <v>       0.73017565       0.93649101       0.00000000 </v>
   <v>       0.29027274       0.17214940       0.39352170 </v>
   <v>       0.62360607       0.17214940       0.39352170 </v>
   <v>       0.95693941       0.17214940       0.39352170 </v>
   <v>       0.29027274       0.50548273       0.39352170 </v>
   <v>       0.62360607       0.50548273       0.39352170 </v>
   <v>       0.95693941       0.50548273       0.39352170 </v>
   <v>       0.29027274       0.83881607       0.39352170 </v>
   <v>       0.62360607       0.83881607       0.39352170 </v>
   <v>       0.95693941       0.83881607       0.39352170 </v>
   <v>       0.16118393       0.04306059       0.60647830 </v>
   <v>       0.49451727       0.04306059       0.60647830 </v>
   <v>       0.82785060       0.04306059       0.60647830 </v>
   <v>       0.16118393       0.37639393       0.60647830 </v>
   <v>       0.49451727       0.37639393       0.60647830 </v>
   <v>       0.82785060       0.37639393       0.60647830 </v>
   <v>       0.16118393       0.70972726       0.60647830 </v>
   <v>       0.49451727       0.70972726       0.60647830 </v>
   <v>       0.82785060       0.70972726       0.60647830 </v>
   <v>       0.03761391       0.07646399       0.84542777 </v>
   <v>       0.37094724       0.07731307       0.84542777 </v>
   <v>       0.70428057       0.07731307       0.84542777 </v>
   <v>       0.03761391       0.41064640       0.84542777 </v>
   <v>       0.37094724       0.41064640       0.84542777 </v>
   <v>       0.70428057       0.41064640       0.84542777 </v>
   <v>       0.03761391       0.74397973       0.84542777 </v>
   <v>       0.37094724       0.74397973       0.84542777 </v>
   <v>       0.70428057       0.74397973       0.84542777 </v>
   <v>       0.25602027       0.29571943       0.15457223 </v>
   <v>       0.58935360       0.29571943       0.15457223 </v>
   <v>       0.92268693       0.29571943       0.15457223 </v>
   <v>       0.25602027       0.62905276       0.15457223 </v>
   <v>       0.58935360       0.62905276       0.15457223 </v>
   <v>       0.92268693       0.62905276       0.15457223 </v>
   <v>       0.25602027       0.96238609       0.15457223 </v>
   <v>       0.58935360       0.96238609       0.15457223 </v>
   <v>       0.92268693       0.96238609       0.15457223 </v>
  </varray>
 </structure>
 <calculation>
  <scstep>
   <time name="dav">  441.80  446.50</time>
   <time name="total">  445.44  450.24</time>
   <energy>
    <i name="alphaZ">   2606.24521607 </i>
    <i name="ewald"> -65007.73770661 </i>
    <i name="hartreedc"> -34081.88275259 </i>
    <i name="XCdc">   3632.83769352 </i>
    <i name="pawpsdc"> 104149.30743192 </i>
    <i name="pawaedc">-107360.85880398 </i>
    <i name="eentropy">     -0.01762212 </i>
    <i name="bandstr">    394.18857663 </i>
    <i name="atom"> 107373.91467324 </i>
    <i name="e_fr_energy">  11705.99670609 </i>
    <i name="e_wo_entrp">  11706.01432822 </i>
    <i name="e_0_energy">  11706.00551715 </i>
   </energy>
  </scstep>
  <scstep>
   <time name="dav">  431.72  436.15</time>
   <time name="total">  431.73  436.16</time>
   <energy>
    <i name="e_fr_energy">   1328.71848380 </i>
    <i name="e_wo_entrp">   1328.78640513 </i>
    <i name="e_0_energy">   1328.75244446 </i>
   </energy>
  </scstep>
  <scstep>
   <time name="dav">  455.31  459.59</time>
   <time name="total">  455.32  459.60</time>
   <energy>
    <i name="e_fr_energy">   -345.40637740 </i>
    <i name="e_wo_entrp">   -345.40637740 </i>
    <i name="e_0_energy">   -345.40637740 </i>
   </energy>
  </scstep>
  <scstep>
   <time name="dav">  488.40  493.16</time>
   <time name="total">  488.40  493.16</time>
   <energy>
    <i name="e_fr_energy">   -535.87536392 </i>
    <i name="e_wo_entrp">   -535.87536392 </i>
    <i name="e_0_energy">   -535.87536392 </i>
   </energy>
  </scstep>
  <scstep>
   <time name="dav">  641.71  647.32</time>
   <time name="total">  653.78  659.48</time>
   <energy>
    <i name="e_fr_energy">   -549.78671091 </i>
    <i name="e_wo_entrp">   -549.78671091 </i>
    <i name="e_0_energy">   -549.78671091 </i>
   </energy>
  </scstep>
  <scstep>
   <time name="dav">  571.99  577.72</time>
   <time name="total">  587.76  593.63</time>
   <energy>
    <i name="e_fr_energy">   -550.32187278 </i>
    <i name="e_wo_entrp">   -550.32187278 </i>
    <i name="e_0_energy">   -550.32187278 </i>
   </energy>
  </scstep>
  <scstep>
   <time name="dav">  599.71  605.41</time>
   <time name="total">  615.35  621.16</time>
   <energy>
    <i name="e_fr_energy">   -550.34108123 </i>
    <i name="e_wo_entrp">   -550.34108123 </i>
    <i name="e_0_energy">   -550.34108123 </i>
   </energy>
  </scstep>
  <scstep>
   <time name="dav">  577.84  583.63</time>
   <time name="total">  593.33  599.20</time>
   <energy>
    <i name="e_fr_energy">   -550.34061720 </i>
    <i name="e_wo_entrp">   -550.34061720 </i>
    <i name="e_0_energy">   -550.34061720 </i>
   </energy>
  </scstep>
  <scstep>
   <time name="dav">  633.54  638.95</time>
   <time name="total">  649.17  654.69</time>
   <energy>
    <i name="e_fr_energy">   -550.33997179 </i>
    <i name="e_wo_entrp">   -550.33997179 </i>
    <i name="e_0_energy">   -550.33997179 </i>
   </energy>
  </scstep>
  <scstep>
   <time name="dav">  640.09  646.18</time>
   <time name="total">  655.81  662.05</time>
   <energy>
    <i name="e_fr_energy">   -550.33889201 </i>
    <i name="e_wo_entrp">   -550.33889201 </i>
    <i name="e_0_energy">   -550.33889201 </i>
   </energy>
  </scstep>
  <scstep>
   <time name="dav">  517.66  522.09</time>
   <time name="total">  533.27  537.83</time>
   <energy>
    <i name="e_fr_energy">   -550.33897076 </i>
    <i name="e_wo_entrp">   -550.33897076 </i>
    <i name="e_0_energy">   -550.33897076 </i>
   </energy>
  </scstep>
  <scstep>
   <time name="dav">  553.75  559.12</time>
   <time name="total">  569.58  575.13</time>
   <energy>
    <i name="e_fr_energy">   -550.33896654 </i>
    <i name="e_wo_entrp">   -550.33896654 </i>
    <i name="e_0_energy">   -550.33896654 </i>
   </energy>
  </scstep>
  <scstep>
   <time name="dav">  485.69  490.77</time>
   <time name="total">  501.50  506.67</time>
   <energy>
    <i name="e_fr_energy">   -550.33895039 </i>
    <i name="e_wo_entrp">   -550.33895039 </i>
    <i name="e_0_energy">   -550.33895039 </i>
   </energy>
  </scstep>
  <scstep>
   <time name="dav">  448.72  453.68</time>
   <time name="total">  464.54  469.64</time>
   <energy>
    <i name="e_fr_energy">   -550.33895698 </i>
    <i name="e_wo_entrp">   -550.33895698 </i>
    <i name="e_0_energy">   -550.33895698 </i>
   </energy>
  </scstep>
  <scstep>
   <time name="dav">  425.10  428.74</time>
   <time name="total">  440.72  444.46</time>
   <energy>
    <i name="e_fr_energy">   -550.33895459 </i>
    <i name="e_wo_entrp">   -550.33895459 </i>
    <i name="e_0_energy">   -550.33895459 </i>
   </energy>
  </scstep>
  <scstep>
   <time name="dav">  321.73  325.08</time>
   <time name="total">  325.39  328.76</time>
   <energy>
    <i name="alphaZ">   2606.24521607 </i>
    <i name="ewald"> -65007.73770661 </i>
    <i name="hartreedc"> -34081.87492744 </i>
    <i name="XCdc">   3632.83767286 </i>
    <i name="pawpsdc"> 104148.82219133 </i>
    <i name="pawaedc">-107360.37095423 </i>
    <i name="eentropy">     -0.00000000 </i>
    <i name="bandstr"> -11862.17511964 </i>
    <i name="atom"> 107373.91467324 </i>
    <i name="e_fr_energy">   -550.33895442 </i>
    <i name="e_wo_entrp">   -550.33895442 </i>
    <i name="e_0_energy">   -550.33895442 </i>
   </energy>
  </scstep>
  <structure>
   <crystal>
    <varray name="basis" >
     <v>      11.77726974       0.00848871       0.06923316 </v>
     <v>      -0.03028248      11.77723386       0.06923316 </v>
     <v>      -2.02000231      -2.02666320      10.18574622 </v>
    </varray>
    <i name="volume">   1416.10551572 </i>
    <varray name="rec_basis" >
     <v>       0.08481023       0.00011906       0.01684296 </v>
     <v>      -0.00016014       0.08481016       0.01684296 </v>
     <v>      -0.00057537      -0.00057727       0.09794744 </v>
    </varray>
   </crystal>
   <varray name="positions" >
    <v>       0.20224939       0.24206952       0.83183419 </v>
    <v>       0.53558272       0.24206952       0.83183419 </v>
    <v>       0.86891606       0.24206952       0.83183419 </v>
    <v>       0.20224939       0.57540285       0.83183419 </v>
    <v>       0.53558272       0.57540285       0.83183419 </v>
    <v>       0.86891606       0.57540285       0.83183419 </v>
    <v>       0.20224939       0.90873619       0.83183419 </v>
    <v>       0.53558272       0.90873619       0.83183419 </v>
    <v>       0.86891606       0.90873619       0.83183419 </v>
    <v>       0.09126381       0.13108394       0.16816581 </v>
    <v>       0.42459715       0.13108394       0.16816581 </v>
    <v>       0.75793048       0.13108394       0.16816581 </v>
    <v>       0.09126381       0.46441728       0.16816581 </v>
    <v>       0.42459715       0.46441728       0.16816581 </v>
    <v>       0.75793048       0.46441728       0.16816581 </v>
    <v>       0.09126381       0.79775061       0.16816581 </v>
    <v>       0.42459715       0.79775061       0.16816581 </v>
    <v>       0.75793048       0.79775061       0.16816581 </v>
    <v>       0.26311007       0.13598816       0.19686089 </v>
    <v>       0.59644341       0.13598816       0.19686089 </v>
    <v>       0.92977674       0.13598816       0.19686089 </v>
    <v>       0.26311007       0.46932149       0.19686089 </v>
    <v>       0.59644341       0.46932149       0.19686089 </v>
    <v>       0.92977674       0.46932149       0.19686089 </v>
    <v>       0.26311007       0.80265483       0.19686089 </v>
    <v>       0.59644341       0.80265483       0.19686089 </v>
    <v>       0.92977674       0.80265483       0.19686089 </v>
    <v>       0.19734517       0.07022326       0.80313911 </v>
    <v>       0.53067851       0.07022326       0.80313911 </v>
    <v>       0.86401184       0.07022326       0.80313911 </v>
    <v>       0.19734517       0.40355659       0.80313911 </v>
    <v>       0.53067851       0.40355659       0.80313911 </v>
    <v>       0.86401184       0.40355659       0.80313911 </v>
    <v>       0.19734517       0.73688993       0.80313911 </v>
    <v>       0.53067851       0.73688993       0.80313911 </v>
    <v>       0.86401184       0.73688993       0.80313911 </v>
    <v>       0.00253935       0.20657296       0.62920335 </v>
    <v>       0.33587268       0.20657296       0.62920335 </v>
    <v>       0.66920601       0.20657296       0.62920335 </v>
    <v>       0.00253935       0.53990630       0.62920335 </v>
    <v>       0.33587268       0.53990630       0.62920335 </v>
    <v>       0.66920601       0.53990630       0.62920335 </v>
    <v>       0.00253935       0.87323963       0.62920335 </v>
    <v>       0.33587268       0.87323963       0.62920335 </v>
    <v>       0.66920601       0.87323963       0.62920335 </v>
    <v>       0.12676037       0.33079399       0.37079665 </v>
    <v>       0.46009370       0.33079399       0.37079665 </v>
    <v>       0.79342704       0.33079399       0.37079665 </v>
    <v>       0.12676037       0.66412732       0.37079665 </v>
    <v>       0.46009370       0.66412732       0.37079665 </v>
    <v>       0.79342704       0.66412732       0.37079665 </v>
    <v>       0.12676037       0.99746065       0.37079665 </v>
    <v>       0.46009370       0.99746065       0.37079665 </v>
    <v>       0.79342704       0.99746065       0.37079665 </v>
    <v>       0.06350899       0.26982435       0.00000000 </v>
    <v>       0.39684232       0.26982435       0.00000000 </v>
    <v>       0.73017565       0.26982435       0.00000000 </v>
    <v>       0.06350899       0.60315768       0.00000000 </v>
    <v>       0.39684232       0.60315768       0.00000000 </v>
    <v>       0.73017565       0.60315768       0.00000000 </v>
    <v>       0.06350899       0.93649101       0.00000000 </v>
    <v>       0.39684232       0.93649101       0.00000000 </v>
    <v>       0.73017565       0.93649101       0.00000000 </v>
    <v>       0.29027274       0.17214940       0.39352170 </v>
    <v>       0.62360607       0.17214940       0.39352170 </v>
    <v>       0.95693941       0.17214940       0.39352170 </v>
    <v>       0.29027274       0.50548273       0.39352170 </v>
    <v>       0.62360607       0.50548273       0.39352170 </v>
    <v>       0.95693941       0.50548273       0.39352170 </v>
    <v>       0.29027274       0.83881607       0.39352170 </v>
    <v>       0.62360607       0.83881607       0.39352170 </v>
    <v>       0.95693941       0.83881607       0.39352170 </v>
    <v>       0.16118393       0.04306059       0.60647830 </v>
    <v>       0.49451727       0.04306059       0.60647830 </v>
    <v>       0.82785060       0.04306059       0.60647830 </v>
    <v>       0.16118393       0.37639393       0.60647830 </v>
    <v>       0.49451727       0.37639393       0.60647830 </v>
    <v>       0.82785060       0.37639393       0.60647830 </v>
    <v>       0.16118393       0.70972726       0.60647830 </v>
    <v>       0.49451727       0.70972726       0.60647830 </v>
    <v>       0.82785060       0.70972726       0.60647830 </v>
    <v>       0.03761391       0.07646399       0.84542777 </v>
    <v>       0.37094724       0.07731307       0.84542777 </v>
    <v>       0.70428057       0.07731307       0.84542777 </v>
    <v>       0.03761391       0.41064640       0.84542777 </v>
    <v>       0.37094724       0.41064640       0.84542777 </v>
    <v>       0.70428057       0.41064640       0.84542777 </v>
    <v>       0.03761391       0.74397973       0.84542777 </v>
    <v>       0.37094724       0.74397973       0.84542777 </v>
    <v>       0.70428057       0.74397973       0.84542777 </v>
    <v>       0.25602027       0.29571943       0.15457223 </v>
    <v>       0.58935360       0.29571943       0.15457223 </v>
    <v>       0.92268693       0.29571943       0.15457223 </v>
    <v>       0.25602027       0.62905276       0.15457223 </v>
    <v>       0.58935360       0.62905276       0.15457223 </v>
    <v>       0.92268693       0.62905276       0.15457223 </v>
    <v>       0.25602027       0.96238609       0.15457223 </v>
    <v>       0.58935360       0.96238609       0.15457223 </v>
    <v>       0.92268693       0.96238609       0.15457223 </v>
   </varray>
  </structure>
  <varray name="forces" >
   <v>      -0.00783131      -0.00444193       0.00110891 </v>
   <v>       0.00006097       0.00060235       0.00036520 </v>
   <v>       0.00781586      -0.00447266       0.00119849 </v>
   <v>       0.00007764      -0.00127021      -0.00010039 </v>
   <v>       0.00003142      -0.00074384      -0.00010364 </v>
   <v>      -0.00007141      -0.00125507      -0.00010873 </v>
   <v>       0.00814575      -0.00463334      -0.00086997 </v>
   <v>       0.00005959       0.00046383      -0.00010543 </v>
   <v>      -0.00828020      -0.00476154      -0.00099638 </v>
   <v>      -0.00048002       0.00290987       0.00005826 </v>
   <v>       0.00061437       0.00046528       0.00012915 </v>
   <v>      -0.00041576       0.00052698      -0.00001039 </v>
   <v>      -0.00035169      -0.00211424      -0.00127448 </v>
   <v>       0.00034450      -0.00029909       0.00005612 </v>
   <v>      -0.00026344      -0.00049285      -0.00010771 </v>
   <v>      -0.00028244      -0.00183098       0.00111574 </v>
   <v>       0.00086464      -0.00026674       0.00015898 </v>
   <v>      -0.00085854      -0.00016865      -0.00008001 </v>
   <v>      -0.00016562      -0.00332661      -0.00003734 </v>
   <v>      -0.00013920      -0.00091230      -0.00002498 </v>
   <v>      -0.00031702      -0.00333174      -0.00073229 </v>
   <v>       0.00066538       0.00212226       0.00122345 </v>
   <v>      -0.00011028       0.00075683       0.00016766 </v>
   <v>      -0.00125056       0.00215091       0.00119228 </v>
   <v>      -0.00106723       0.00151282      -0.00118374 </v>
   <v>      -0.00011634       0.00016044      -0.00015184 </v>
   <v>       0.00055660       0.00150602      -0.00056308 </v>
   <v>       0.00005018      -0.00688626      -0.00011349 </v>
   <v>       0.00002879      -0.00018810      -0.00000599 </v>
   <v>       0.00030916      -0.00685798      -0.00002207 </v>
   <v>       0.00149751       0.00153785      -0.00034770 </v>
   <v>       0.00005900       0.00042882      -0.00019187 </v>
   <v>      -0.00142948       0.00154425      -0.00044750 </v>
   <v>      -0.00144651       0.00164978       0.00043183 </v>
   <v>       0.00006072       0.00054362       0.00025306 </v>
   <v>       0.00151622       0.00164504       0.00049637 </v>
   <v>       0.00001955      -0.00034990      -0.00517385 </v>
   <v>       0.00024177      -0.00059169      -0.00001745 </v>
   <v>      -0.00023808      -0.00046952      -0.00003904 </v>
   <v>      -0.00004532       0.00156340       0.00013088 </v>
   <v>       0.00007874       0.00078299       0.00012668 </v>
   <v>       0.00001334       0.00073868       0.00003356 </v>
   <v>       0.00001825       0.00014122       0.00499711 </v>
   <v>      -0.00028631      -0.00022128      -0.00012940 </v>
   <v>       0.00023900      -0.00028426      -0.00003050 </v>
   <v>       0.00068944       0.00043184       0.00065887 </v>
   <v>       0.00015897      -0.00003772       0.00034101 </v>
   <v>      -0.00075528       0.00057620      -0.00031360 </v>
   <v>      -0.00064744       0.00120821       0.00073113 </v>
   <v>       0.00002198       0.00043139       0.00004055 </v>
   <v>       0.00067338       0.00106760       0.00074296 </v>
   <v>       0.00003302      -0.00120888      -0.00123992 </v>
   <v>      -0.00012111      -0.00026584      -0.00024308 </v>
   <v>       0.00016000      -0.00112336      -0.00027368 </v>
   <v>       0.00010628      -0.01391969      -0.00635770 </v>
   <v>       0.00080220      -0.00026043      -0.00007605 </v>
   <v>      -0.00080495      -0.00022988      -0.00017397 </v>
   <v>      -0.00001785       0.00166816       0.00013298 </v>
   <v>       0.00001390       0.00044641       0.00004137 </v>
   <v>       0.00003210       0.00045813       0.00011430 </v>
   <v>       0.00003478      -0.01474858       0.00665922 </v>
   <v>      -0.00078407      -0.00029404       0.00004015 </v>
   <v>       0.00079932      -0.00034428       0.00006423 </v>
   <v>      -0.00002788       0.00067387       0.00006407 </v>
   <v>       0.00015848       0.00040463       0.00009081 </v>
   <v>       0.00010066       0.00113294       0.00316235 </v>
   <v>       0.00003159      -0.00086273      -0.00067865 </v>
   <v>       0.00006500      -0.00070953      -0.00018404 </v>
   <v>       0.00006066      -0.00092620      -0.00072492 </v>
   <v>       0.00025041      -0.00000840       0.00034985 </v>
   <v>       0.00001087       0.00005795      -0.00011695 </v>
   <v>      -0.00026648       0.00073076      -0.00268830 </v>
   <v>      -0.00043663       0.00330844       0.00074783 </v>
   <v>      -0.00001191       0.00042232       0.00032567 </v>
   <v>       0.00026713       0.00300271       0.00050272 </v>
   <v>      -0.00121914      -0.00162187      -0.00006171 </v>
   <v>      -0.00000367      -0.00043364       0.00009481 </v>
   <v>       0.00104260      -0.00148762       0.00029279 </v>
   <v>       0.00112729      -0.00180906      -0.00026834 </v>
   <v>      -0.00000778      -0.00057766      -0.00009698 </v>
   <v>      -0.00120195      -0.00166077      -0.00030478 </v>
   <v>      -0.00016803       0.06225846      -0.00063719 </v>
   <v>       0.00014108       0.00043662      -0.00000508 </v>
   <v>       0.00028619       0.00043994       0.00003436 </v>
   <v>       0.00016449      -0.00428261       0.00038368 </v>
   <v>      -0.00061341      -0.00038874       0.00000078 </v>
   <v>       0.00091409      -0.00045232       0.00008594 </v>
   <v>       0.00011975      -0.00434803      -0.00042686 </v>
   <v>       0.00080347      -0.00045874      -0.00006382 </v>
   <v>      -0.00047136      -0.00038501      -0.00004712 </v>
   <v>      -0.00310152       0.00080021      -0.00286098 </v>
   <v>       0.00023148      -0.00010992      -0.00053708 </v>
   <v>       0.00308716       0.00053335      -0.00276980 </v>
   <v>       0.00024152      -0.00150636      -0.00025748 </v>
   <v>      -0.00011285      -0.00035337      -0.00026369 </v>
   <v>       0.00008296      -0.00181097      -0.00033407 </v>
   <v>       0.00305675       0.00098987       0.00281864 </v>
   <v>       0.00004803       0.00006666       0.00040401 </v>
   <v>      -0.00296590       0.00149718       0.00280630 </v>
  </varray>
  <varray name="stress" >
   <v>      -0.16258713      -0.00130063      -0.00746804 </v>
   <v>      -0.00082884      -0.14279620      -0.05833551 </v>
   <v>       0.00216069      -0.04829863      -0.15426601 </v>
  </varray>
  <energy>
   <i name="e_fr_energy">   -550.33895442 </i>
   <i name="e_wo_entrp">   -550.33895442 </i>
   <i name="e_0_energy">     -0.00000000 </i>
  </energy>
  <time name="totalsc"> 9162.71 9249.92</time>
  <eigenvalues>
   <array>
    <dimension dim="1">band</dimension>
    <dimension dim="2">kpoint</dimension>
    <dimension dim="3">spin</dimension>
    <field>eigene</field>
    <field>occ</field>
    <set>
     <set comment="spin 1">
      <set comment="kpoint 1">
       <r>  -51.0516    1.0000 </r>
       <r>  -51.0509    1.0000 </r>
       <r>  -51.0503    1.0000 </r>
       <r>  -51.0502    1.0000 </r>
       <r>  -51.0500    1.0000 </r>
       <r>  -51.0498    1.0000 </r>
       <r>  -51.0498    1.0000 </r>
       <r>  -51.0496    1.0000 </r>
       <r>  -51.0493    1.0000 </r>
       <r>  -51.0492    1.0000 </r>
       <r>  -51.0488    1.0000 </r>
       <r>  -51.0486    1.0000 </r>
       <r>  -51.0484    1.0000 </r>
       <r>  -51.0476    1.0000 </r>
       <r>  -51.0472    1.0000 </r>
       <r>  -51.0469    1.0000 </r>
       <r>  -51.0467    1.0000 </r>
       <r>  -51.0458    1.0000 </r>
       <r>  -51.0384    1.0000 </r>
       <r>  -51.0383    1.0000 </r>
       <r>  -51.0383    1.0000 </r>
       <r>  -51.0372    1.0000 </r>
       <r>  -51.0371    1.0000 </r>
       <r>  -51.0370    1.0000 </r>
       <r>  -51.0366    1.0000 </r>
       <r>  -51.0364    1.0000 </r>
       <r>  -51.0364    1.0000 </r>
       <r>  -51.0363    1.0000 </r>
       <r>  -51.0362    1.0000 </r>
       <r>  -51.0360    1.0000 </r>
       <r>  -51.0359    1.0000 </r>
       <r>  -51.0356    1.0000 </r>
       <r>  -51.0354    1.0000 </r>
       <r>  -51.0344    1.0000 </r>
       <r>  -51.0342    1.0000 </r>
       <r>  -51.0340    1.0000 </r>
       <r>  -49.6916    1.0000 </r>
       <r>  -49.6912    1.0000 </r>
       <r>  -49.6907    1.0000 </r>
       <r>  -49.6898    1.0000 </r>
       <r>  -49.6898    1.0000 </r>
       <r>  -49.6897    1.0000 </r>
       <r>  -49.6896    1.0000 </r>
       <r>  -49.6895    1.0000 </r>
       <r>  -49.6893    1.0000 </r>
       <r>  -49.6892    1.0000 </r>
       <r>  -49.6892    1.0000 </r>
       <r>  -49.6889    1.0000 </r>
       <r>  -49.6886    1.0000 </r>
       <r>  -49.6885    1.0000 </r>
       <r>  -49.6885    1.0000 </r>
       <r>  -49.6876    1.0000 </r>
       <r>  -49.6871    1.0000 </r>
       <r>  -49.6866    1.0000 </r>
       <r>  -49.5920    1.0000 </r>
       <r>  -49.5917    1.0000 </r>
       <r>  -49.5910    1.0000 </r>
       <r>  -49.5909    1.0000 </r>
       <r>  -49.5909    1.0000 </r>
       <r>  -49.5906    1.0000 </r>
       <r>  -49.5902    1.0000 </r>
       <r>  -49.5901    1.0000 </r>
       <r>  -49.5896    1.0000 </r>
       <r>  -49.5894    1.0000 </r>
       <r>  -49.5890    1.0000 </r>
       <r>  -49.5887    1.0000 </r>
       <r>  -49.5885    1.0000 </r>
       <r>  -49.5884    1.0000 </r>
       <r>  -49.5882    1.0000 </r>
       <r>  -49.5881    1.0000 </r>
       <r>  -49.5880    1.0000 </r>
       <r>  -49.5867    1.0000 </r>
       <r>  -49.5629    1.0000 </r>
       <r>  -49.5618    1.0000 </r>
       <r>  -49.5615    1.0000 </r>
       <r>  -49.5613    1.0000 </r>
       <r>  -49.5611    1.0000 </r>
       <r>  -49.5606    1.0000 </r>
       <r>  -49.5602    1.0000 </r>
       <r>  -49.5599    1.0000 </r>
       <r>  -49.5596    1.0000 </r>
       <r>  -49.5594    1.0000 </r>
       <r>  -49.5591    1.0000 </r>
       <r>  -49.5590    1.0000 </r>
       <r>  -49.5589    1.0000 </r>
       <r>  -49.5584    1.0000 </r>
       <r>  -49.5581    1.0000 </r>
       <r>  -49.5581    1.0000 </r>
       <r>  -49.5575    1.0000 </r>
       <r>  -49.5565    1.0000 </r>
       <r>  -49.5501    1.0000 </r>
       <r>  -49.5500    1.0000 </r>
       <r>  -49.5498    1.0000 </r>
       <r>  -49.5486    1.0000 </r>
       <r>  -49.5484    1.0000 </r>
       <r>  -49.5480    1.0000 </r>
       <r>  -49.5477    1.0000 </r>
       <r>  -49.5476    1.0000 </r>
       <r>  -49.5475    1.0000 </r>
       <r>  -49.5473    1.0000 </r>
       <r>  -49.5472    1.0000 </r>
       <r>  -49.5468    1.0000 </r>
       <r>  -49.5467    1.0000 </r>
       <r>  -49.5466    1.0000 </r>
       <r>  -49.5463    1.0000 </r>
       <r>  -49.5450    1.0000 </r>
       <r>  -49.5449    1.0000 </r>
       <r>  -49.5447    1.0000 </r>
       <r>  -39.8668    1.0000 </r>
       <r>  -39.8666    1.0000 </r>
       <r>  -39.8651    1.0000 </r>
       <r>  -39.8631    1.0000 </r>
       <r>  -39.8630    1.0000 </r>
       <r>  -39.8629    1.0000 </r>
       <r>  -39.8626    1.0000 </r>
       <r>  -39.8626    1.0000 </r>
       <r>  -39.8624    1.0000 </r>
       <r>  -39.8624    1.0000 </r>
       <r>  -39.8623    1.0000 </r>
       <r>  -39.8622    1.0000 </r>
       <r>  -39.8621    1.0000 </r>
       <r>  -39.8619    1.0000 </r>
       <r>  -39.8617    1.0000 </r>
       <r>  -39.8604    1.0000 </r>
       <r>  -39.8583    1.0000 </r>
       <r>  -39.8581    1.0000 </r>
       <r>  -13.2354    1.0000 </r>
       <r>  -13.2349    1.0000 </r>
       <r>  -13.2348    1.0000 </r>
       <r>  -13.2343    1.0000 </r>
       <r>  -13.2258    1.0000 </r>
       <r>  -13.1987    1.0000 </r>
       <r>  -13.0558    1.0000 </r>
       <r>  -13.0554    1.0000 </r>
       <r>  -13.0542    1.0000 </r>
       <r>  -13.0539    1.0000 </r>
       <r>  -13.0426    1.0000 </r>
       <r>  -13.0422    1.0000 </r>
       <r>  -13.0411    1.0000 </r>
       <r>  -13.0407    1.0000 </r>
       <r>  -13.0191    1.0000 </r>
       <r>  -13.0186    1.0000 </r>
       <r>  -13.0185    1.0000 </r>
       <r>  -13.0181    1.0000 </r>
       <r>   -7.6148    1.0000 </r>
       <r>   -7.4117    1.0000 </r>
       <r>   -7.3787    1.0000 </r>
       <r>   -7.3752    1.0000 </r>
       <r>   -7.3750    1.0000 </r>
       <r>   -7.3713    1.0000 </r>
       <r>   -7.1836    1.0000 </r>
       <r>   -7.1800    1.0000 </r>
       <r>   -7.1730    1.0000 </r>
       <r>   -7.1693    1.0000 </r>
       <r>   -7.1528    1.0000 </r>
       <r>   -7.1514    1.0000 </r>
       <r>   -7.1510    1.0000 </r>
       <r>   -7.1493    1.0000 </r>
       <r>   -6.9846    1.0000 </r>
       <r>   -6.9655    1.0000 </r>
       <r>   -6.9646    1.0000 </r>
       <r>   -6.9312    1.0000 </r>
       <r>   -6.9295    1.0000 </r>
       <r>   -6.8725    1.0000 </r>
       <r>   -6.8715    1.0000 </r>
       <r>   -6.8712    1.0000 </r>
       <r>   -6.8702    1.0000 </r>
       <r>   -6.8078    1.0000 </r>
       <r>   -6.8066    1.0000 </r>
       <r>   -6.7810    1.0000 </r>
       <r>   -6.7798    1.0000 </r>
       <r>   -1.8371    1.0000 </r>
       <r>   -1.8367    1.0000 </r>
       <r>   -1.8366    1.0000 </r>
       <r>   -1.8363    1.0000 </r>
       <r>   -1.8163    1.0000 </r>
       <r>   -1.8161    1.0000 </r>
       <r>   -1.8036    1.0000 </r>
       <r>   -1.8035    1.0000 </r>
       <r>   -1.7663    1.0000 </r>
       <r>   -1.7662    1.0000 </r>
       <r>   -1.7537    1.0000 </r>
       <r>   -1.7533    1.0000 </r>
       <r>   -1.2808    1.0000 </r>
       <r>   -1.1978    1.0000 </r>
       <r>   -1.1975    1.0000 </r>
       <r>   -1.1972    1.0000 </r>
       <r>   -1.1966    1.0000 </r>
       <r>   -1.0051    1.0000 </r>
       <r>   -1.0046    1.0000 </r>
       <r>   -0.9743    1.0000 </r>
       <r>   -0.9737    1.0000 </r>
       <r>   -0.9590    1.0000 </r>
       <r>   -0.9584    1.0000 </r>
       <r>   -0.9469    1.0000 </r>
       <r>   -0.9385    1.0000 </r>
       <r>   -0.9312    1.0000 </r>
       <r>   -0.9286    1.0000 </r>
       <r>   -0.9280    1.0000 </r>
       <r>   -0.8849    1.0000 </r>
       <r>   -0.8845    1.0000 </r>
       <r>   -0.8845    1.0000 </r>
       <r>   -0.8838    1.0000 </r>
       <r>   -0.8715    1.0000 </r>
       <r>   -0.8713    1.0000 </r>
       <r>   -0.8678    1.0000 </r>
       <r>   -0.8671    1.0000 </r>
       <r>   -0.8670    1.0000 </r>
       <r>   -0.8668    1.0000 </r>
       <r>   -0.8594    1.0000 </r>
       <r>   -0.8591    1.0000 </r>
       <r>   -0.7008    1.0000 </r>
       <r>   -0.7003    1.0000 </r>
       <r>   -0.7003    1.0000 </r>
       <r>   -0.6994    1.0000 </r>
       <r>   -0.6714    1.0000 </r>
       <r>   -0.6712    1.0000 </r>
       <r>   -0.6228    1.0000 </r>
       <r>   -0.6227    1.0000 </r>
       <r>   -0.6225    1.0000 </r>
       <r>   -0.6225    1.0000 </r>
       <r>   -0.6221    1.0000 </r>
       <r>   -0.6220    1.0000 </r>
       <r>   -0.3533    1.0000 </r>
       <r>   -0.3520    1.0000 </r>
       <r>   -0.3519    1.0000 </r>
       <r>   -0.3511    1.0000 </r>
       <r>   -0.3219    1.0000 </r>
       <r>   -0.3217    1.0000 </r>
       <r>   -0.2915    1.0000 </r>
       <r>   -0.2913    1.0000 </r>
       <r>   -0.2645    1.0000 </r>
       <r>   -0.2642    1.0000 </r>
       <r>   -0.2641    1.0000 </r>
       <r>   -0.2631    1.0000 </r>
       <r>   -0.2608    1.0000 </r>
       <r>   -0.2605    1.0000 </r>
       <r>   -0.2581    1.0000 </r>
       <r>   -0.2488    1.0000 </r>
       <r>   -0.2484    1.0000 </r>
       <r>   -0.2426    1.0000 </r>
       <r>   -0.2199    1.0000 </r>
       <r>   -0.1409    1.0000 </r>
       <r>   -0.1403    1.0000 </r>
       <r>   -0.1401    1.0000 </r>
       <r>   -0.1396    1.0000 </r>
       <r>   -0.1393    1.0000 </r>
       <r>   -0.1389    1.0000 </r>
       <r>   -0.1237    1.0000 </r>
       <r>   -0.1229    1.0000 </r>
       <r>   -0.1228    1.0000 </r>
       <r>   -0.1217    1.0000 </r>
       <r>   -0.1204    1.0000 </r>
       <r>   -0.1194    1.0000 </r>
       <r>   -0.0778    1.0000 </r>
       <r>   -0.0773    1.0000 </r>
       <r>   -0.0595    1.0000 </r>
       <r>   -0.0117    1.0000 </r>
       <r>   -0.0116    1.0000 </r>
       <r>    0.0155    1.0000 </r>
       <r>    0.0160    1.0000 </r>
       <r>    0.0261    1.0000 </r>
       <r>    0.0262    1.0000 </r>
       <r>    0.0426    1.0000 </r>
       <r>    0.0431    1.0000 </r>
       <r>    0.0432    1.0000 </r>
       <r>    0.0438    1.0000 </r>
       <r>    0.0604    1.0000 </r>
       <r>    0.0612    1.0000 </r>
       <r>    0.1495    1.0000 </r>
       <r>    0.1499    1.0000 </r>
       <r>    0.1500    1.0000 </r>
       <r>    0.1507    1.0000 </r>
       <r>    0.1583    1.0000 </r>
       <r>    0.1638    1.0000 </r>
       <r>    0.1655    1.0000 </r>
       <r>    0.1824    1.0000 </r>
       <r>    0.1829    1.0000 </r>
       <r>    0.1923    1.0000 </r>
       <r>    0.1964    1.0000 </r>
       <r>    0.1969    1.0000 </r>
       <r>    0.2077    1.0000 </r>
       <r>    0.2081    1.0000 </r>
       <r>    0.2561    1.0000 </r>
       <r>    0.2583    1.0000 </r>
       <r>    0.2584    1.0000 </r>
       <r>    0.2599    1.0000 </r>
       <r>    0.2783    1.0000 </r>
       <r>    0.2788    1.0000 </r>
       <r>    0.3391    1.0000 </r>
       <r>    0.3395    1.0000 </r>
       <r>    0.3593    1.0000 </r>
       <r>    0.3599    1.0000 </r>
       <r>    0.3600    1.0000 </r>
       <r>    0.3608    1.0000 </r>
       <r>    0.3801    1.0000 </r>
       <r>    0.3832    1.0000 </r>
       <r>    0.4895    1.0000 </r>
       <r>    0.4899    1.0000 </r>
       <r>    0.4900    1.0000 </r>
       <r>    0.4903    1.0000 </r>
       <r>    0.5168    1.0000 </r>
       <r>    0.5169    1.0000 </r>
       <r>    0.5171    1.0000 </r>
       <r>    0.5176    1.0000 </r>
       <r>    0.5589    1.0000 </r>
       <r>    0.5590    1.0000 </r>
       <r>    0.6089    1.0000 </r>
       <r>    0.6090    1.0000 </r>
       <r>    0.6148    1.0000 </r>
       <r>    0.6307    1.0000 </r>
       <r>    0.6309    1.0000 </r>
       <r>    0.6309    1.0000 </r>
       <r>    0.6317    1.0000 </r>
       <r>    0.7522    1.0000 </r>
       <r>    0.7524    1.0000 </r>
       <r>    0.7613    1.0000 </r>
       <r>    0.7614    1.0000 </r>
       <r>    0.7620    1.0000 </r>
       <r>    0.7624    1.0000 </r>
       <r>    0.7907    1.0000 </r>
       <r>    0.7908    1.0000 </r>
       <r>    0.7932    1.0000 </r>
       <r>    0.8459    1.0000 </r>
       <r>    0.8464    1.0000 </r>
       <r>    0.8547    1.0000 </r>
       <r>    0.8553    1.0000 </r>
       <r>    0.9688    1.0000 </r>
       <r>    0.9691    1.0000 </r>
       <r>    0.9691    1.0000 </r>
       <r>    0.9693    1.0000 </r>
       <r>    0.9793    1.0000 </r>
       <r>    1.2394    1.0000 </r>
       <r>    1.2400    1.0000 </r>
       <r>    1.2401    1.0000 </r>
       <r>    1.2404    1.0000 </r>
       <r>    1.2640    1.0000 </r>
       <r>    1.2924    1.0000 </r>
       <r>    1.2930    1.0000 </r>
       <r>    1.3304    1.0000 </r>
       <r>    1.3308    1.0000 </r>
       <r>    1.3585    1.0000 </r>
       <r>    1.3590    1.0000 </r>
       <r>    1.3590    1.0000 </r>
       <r>    1.3595    1.0000 </r>
       <r>    1.4364    1.0000 </r>
       <r>    1.4368    1.0000 </r>
       <r>    1.4641    1.0000 </r>
       <r>    1.4755    1.0000 </r>
       <r>    1.4873    1.0000 </r>
       <r>    1.4876    1.0000 </r>
       <r>    1.5477    1.0000 </r>
       <r>    1.6788    1.0000 </r>
       <r>    1.6801    1.0000 </r>
       <r>    1.6802    1.0000 </r>
       <r>    1.7232    1.0000 </r>
       <r>    1.7239    1.0000 </r>
       <r>    1.7240    1.0000 </r>
       <r>    1.7243    1.0000 </r>
       <r>    1.7655    1.0000 </r>
       <r>    1.7656    1.0000 </r>
       <r>    1.8143    1.0000 </r>
       <r>    1.8146    1.0000 </r>
       <r>    1.8149    1.0000 </r>
       <r>    1.8150    1.0000 </r>
       <r>    1.8266    1.0000 </r>
       <r>    1.8271    1.0000 </r>
       <r>    1.8277    1.0000 </r>
       <r>    1.8280    1.0000 </r>
       <r>    1.8393    1.0000 </r>
       <r>    1.8760    1.0000 </r>
       <r>    1.8867    1.0000 </r>
       <r>    1.9029    1.0000 </r>
       <r>    1.9032    1.0000 </r>
       <r>    1.9178    1.0000 </r>
       <r>    1.9180    1.0000 </r>
       <r>    1.9631    1.0000 </r>
       <r>    1.9634    1.0000 </r>
       <r>    1.9899    1.0000 </r>
       <r>    1.9900    1.0000 </r>
       <r>    1.9990    1.0000 </r>
       <r>    1.9993    1.0000 </r>
       <r>    1.9994    1.0000 </r>
       <r>    1.9998    1.0000 </r>
       <r>    2.0713    1.0000 </r>
       <r>    2.0716    1.0000 </r>
       <r>    2.0810    1.0000 </r>
       <r>    2.0815    1.0000 </r>
       <r>    2.0816    1.0000 </r>
       <r>    2.0822    1.0000 </r>
       <r>    2.0944    1.0000 </r>
       <r>    2.0947    1.0000 </r>
       <r>    2.1160    1.0000 </r>
       <r>    2.1164    1.0000 </r>
       <r>    2.1165    1.0000 </r>
       <r>    2.1166    1.0000 </r>
       <r>    2.1956    1.0000 </r>
       <r>    2.1957    1.0000 </r>
       <r>    2.2885    1.0000 </r>
       <r>    2.2887    1.0000 </r>
       <r>    2.4163    1.0000 </r>
       <r>    2.4164    1.0000 </r>
       <r>    2.4400    1.0000 </r>
       <r>    2.4406    1.0000 </r>
       <r>    2.4409    1.0000 </r>
       <r>    2.4416    1.0000 </r>
       <r>    2.4997    1.0000 </r>
       <r>    2.5159    1.0000 </r>
       <r>    2.5164    1.0000 </r>
       <r>    2.5168    1.0000 </r>
       <r>    2.5169    1.0000 </r>
       <r>    2.5595    1.0000 </r>
       <r>    2.5600    1.0000 </r>
       <r>    2.5653    1.0000 </r>
       <r>    2.7180    1.0000 </r>
       <r>    2.7187    1.0000 </r>
       <r>    2.7188    1.0000 </r>
       <r>    2.7192    1.0000 </r>
       <r>    2.7329    1.0000 </r>
       <r>    2.7333    1.0000 </r>
       <r>    2.8003    1.0000 </r>
       <r>    2.8004    1.0000 </r>
       <r>    3.0025    1.0000 </r>
       <r>    3.0032    1.0000 </r>
       <r>    3.0061    1.0000 </r>
       <r>    3.0072    1.0000 </r>
       <r>    3.1701    1.0000 </r>
       <r>    3.2189    1.0000 </r>
       <r>    3.2194    1.0000 </r>
       <r>    3.2216    1.0000 </r>
       <r>    3.2223    1.0000 </r>
       <r>    3.3598    1.0000 </r>
       <r>    3.3598    1.0000 </r>
       <r>    3.3600    1.0000 </r>
       <r>    3.3603    1.0000 </r>
       <r>    3.3931    1.0000 </r>
       <r>    3.4019    1.0000 </r>
       <r>    3.5018    1.0000 </r>
       <r>    3.5019    1.0000 </r>
       <r>    3.5872    1.0000 </r>
       <r>    3.5877    1.0000 </r>
       <r>    3.8158    1.0000 </r>
       <r>    3.8161    1.0000 </r>
       <r>    3.8300    1.0000 </r>
       <r>    3.8304    1.0000 </r>
       <r>    4.0024    1.0000 </r>
       <r>    4.0027    1.0000 </r>
       <r>    4.0032    1.0000 </r>
       <r>    4.0036    1.0000 </r>
       <r>    4.0310    1.0000 </r>
       <r>    4.0314    1.0000 </r>
       <r>    4.0320    1.0000 </r>
       <r>    4.0324    1.0000 </r>
       <r>    4.1063    1.0000 </r>
       <r>    4.1168    1.0000 </r>
       <r>    4.1221    1.0000 </r>
       <r>    4.1598    1.0000 </r>
       <r>    4.1603    1.0000 </r>
       <r>    4.2587    1.0000 </r>
       <r>    4.2593    1.0000 </r>
       <r>    4.2767    1.0000 </r>
       <r>    4.2772    1.0000 </r>
       <r>    4.3304    1.0000 </r>
       <r>    4.3305    1.0000 </r>
       <r>    4.3584    1.0000 </r>
       <r>    4.3587    1.0000 </r>
       <r>    4.3588    1.0000 </r>
       <r>    4.3591    1.0000 </r>
       <r>    4.4115    1.0000 </r>
       <r>    4.4117    1.0000 </r>
       <r>    4.4337    1.0000 </r>
       <r>    4.4343    1.0000 </r>
       <r>    4.5229    1.0000 </r>
       <r>    4.5234    1.0000 </r>
       <r>    4.5236    1.0000 </r>
       <r>    4.5240    1.0000 </r>
       <r>    4.5508    1.0000 </r>
       <r>    4.5511    1.0000 </r>
       <r>    4.8116    1.0000 </r>
       <r>    4.8120    1.0000 </r>
       <r>    4.8120    1.0000 </r>
       <r>    4.8123    1.0000 </r>
       <r>    4.8748    1.0000 </r>
       <r>    4.8750    1.0000 </r>
       <r>    4.8751    1.0000 </r>
       <r>    4.8754    1.0000 </r>
       <r>    7.3645    0.0000 </r>
       <r>    8.4303    0.0000 </r>
       <r>    8.6645    0.0000 </r>
       <r>    8.6661    0.0000 </r>
       <r>    8.8412    0.0000 </r>
       <r>    8.8418    0.0000 </r>
       <r>    8.8419    0.0000 </r>
       <r>    8.8423    0.0000 </r>
       <r>    8.9861    0.0000 </r>
       <r>    8.9868    0.0000 </r>
       <r>    9.3105    0.0000 </r>
       <r>    9.3112    0.0000 </r>
       <r>    9.3113    0.0000 </r>
       <r>    9.3118    0.0000 </r>
       <r>    9.3213    0.0000 </r>
       <r>    9.3220    0.0000 </r>
       <r>    9.4445    0.0000 </r>
       <r>    9.4453    0.0000 </r>
       <r>    9.5153    0.0000 </r>
       <r>    9.5158    0.0000 </r>
       <r>    9.5160    0.0000 </r>
       <r>    9.5161    0.0000 </r>
       <r>    9.8732    0.0000 </r>
       <r>    9.8786    0.0000 </r>
       <r>    9.9179    0.0000 </r>
       <r>    9.9191    0.0000 </r>
       <r>    9.9191    0.0000 </r>
       <r>    9.9203    0.0000 </r>
       <r>    9.9662    0.0000 </r>
       <r>    9.9677    0.0000 </r>
       <r>   10.0693    0.0000 </r>
       <r>   10.0695    0.0000 </r>
       <r>   10.4888    0.0000 </r>
       <r>   10.5018    0.0000 </r>
       <r>   10.5033    0.0000 </r>
       <r>   10.5194    0.0000 </r>
       <r>   10.5199    0.0000 </r>
       <r>   10.8006    0.0000 </r>
       <r>   10.8015    0.0000 </r>
       <r>   10.8019    0.0000 </r>
       <r>   10.8021    0.0000 </r>
       <r>   10.8751    0.0000 </r>
       <r>   10.8761    0.0000 </r>
       <r>   11.0178    0.0000 </r>
       <r>   11.0184    0.0000 </r>
       <r>   11.0512    0.0000 </r>
       <r>   11.2662    0.0000 </r>
       <r>   11.2668    0.0000 </r>
       <r>   11.3722    0.0000 </r>
       <r>   11.3731    0.0000 </r>
       <r>   11.3736    0.0000 </r>
       <r>   11.3745    0.0000 </r>
       <r>   11.3874    0.0000 </r>
       <r>   11.3886    0.0000 </r>
       <r>   11.3935    0.0000 </r>
       <r>   11.3941    0.0000 </r>
       <r>   11.3949    0.0000 </r>
       <r>   11.3957    0.0000 </r>
       <r>   11.4480    0.0000 </r>
       <r>   11.6176    0.0000 </r>
       <r>   11.6178    0.0000 </r>
       <r>   11.8009    0.0000 </r>
       <r>   11.8014    0.0000 </r>
[...]
       <r>   -45.9045    69.4235    52.7185 </r>
       <r>   -45.6636   229.4488   108.0000 </r>
       <r>   -45.4226     0.0000   108.0000 </r>
       <r>   -45.1817     0.0000   108.0000 </r>
       <r>   -44.9408     0.0000   108.0000 </r>
       <r>   -44.6998     0.0000   108.0000 </r>
       <r>   -44.4589     0.0000   108.0000 </r>
       <r>   -44.2180     0.0000   108.0000 </r>
       <r>   -43.9770     0.0000   108.0000 </r>
       <r>   -43.7361     0.0000   108.0000 </r>
       <r>   -43.4952     0.0000   108.0000 </r>
       <r>   -43.2542     0.0000   108.0000 </r>
       <r>   -43.0133     0.0000   108.0000 </r>
       <r>   -42.7724     0.0000   108.0000 </r>
       <r>   -42.5314     0.0000   108.0000 </r>
       <r>   -42.2905     0.0000   108.0000 </r>
       <r>   -42.0496     0.0000   108.0000 </r>
       <r>   -41.8086     0.0000   108.0000 </r>
       <r>   -41.5677     0.0000   108.0000 </r>
       <r>   -41.3268     0.0000   108.0000 </r>
       <r>   -41.0858     0.0000   108.0000 </r>
       <r>   -40.8449     0.0000   108.0000 </r>
       <r>   -40.6040     0.0000   108.0000 </r>
       <r>   -40.3631     0.0000   108.0000 </r>
       <r>   -40.1221     0.0000   108.0000 </r>
       <r>   -39.8812    20.8082   113.0133 </r>
       <r>   -39.6403    53.9018   126.0000 </r>
       <r>   -39.3993     0.0000   126.0000 </r>
       <r>   -39.1584     0.0000   126.0000 </r>
       <r>   -38.9175     0.0000   126.0000 </r>
       <r>   -38.6765     0.0000   126.0000 </r>
       <r>   -38.4356     0.0000   126.0000 </r>
       <r>   -38.1947     0.0000   126.0000 </r>
       <r>   -37.9537     0.0000   126.0000 </r>
       <r>   -37.7128     0.0000   126.0000 </r>
       <r>   -37.4719     0.0000   126.0000 </r>
       <r>   -37.2309     0.0000   126.0000 </r>
       <r>   -36.9900     0.0000   126.0000 </r>
       <r>   -36.7491     0.0000   126.0000 </r>
       <r>   -36.5081     0.0000   126.0000 </r>
       <r>   -36.2672     0.0000   126.0000 </r>
       <r>   -36.0263     0.0000   126.0000 </r>
       <r>   -35.7854     0.0000   126.0000 </r>
       <r>   -35.5444     0.0000   126.0000 </r>
       <r>   -35.3035     0.0000   126.0000 </r>
       <r>   -35.0626     0.0000   126.0000 </r>
       <r>   -34.8216     0.0000   126.0000 </r>
       <r>   -34.5807     0.0000   126.0000 </r>
       <r>   -34.3398     0.0000   126.0000 </r>
       <r>   -34.0988     0.0000   126.0000 </r>
       <r>   -33.8579     0.0000   126.0000 </r>
       <r>   -33.6170     0.0000   126.0000 </r>
       <r>   -33.3760     0.0000   126.0000 </r>
       <r>   -33.1351     0.0000   126.0000 </r>
       <r>   -32.8942     0.0000   126.0000 </r>
       <r>   -32.6532     0.0000   126.0000 </r>
       <r>   -32.4123     0.0000   126.0000 </r>
       <r>   -32.1714     0.0000   126.0000 </r>
       <r>   -31.9304     0.0000   126.0000 </r>
       <r>   -31.6895     0.0000   126.0000 </r>
       <r>   -31.4486     0.0000   126.0000 </r>
       <r>   -31.2076     0.0000   126.0000 </r>
       <r>   -30.9667     0.0000   126.0000 </r>
       <r>   -30.7258     0.0000   126.0000 </r>
       <r>   -30.4849     0.0000   126.0000 </r>
       <r>   -30.2439     0.0000   126.0000 </r>
       <r>   -30.0030     0.0000   126.0000 </r>
       <r>   -29.7621     0.0000   126.0000 </r>
       <r>   -29.5211     0.0000   126.0000 </r>
       <r>   -29.2802     0.0000   126.0000 </r>
       <r>   -29.0393     0.0000   126.0000 </r>
       <r>   -28.7983     0.0000   126.0000 </r>
       <r>   -28.5574     0.0000   126.0000 </r>
       <r>   -28.3165     0.0000   126.0000 </r>
       <r>   -28.0755     0.0000   126.0000 </r>
       <r>   -27.8346     0.0000   126.0000 </r>
       <r>   -27.5937     0.0000   126.0000 </r>
       <r>   -27.3527     0.0000   126.0000 </r>
       <r>   -27.1118     0.0000   126.0000 </r>
       <r>   -26.8709     0.0000   126.0000 </r>
       <r>   -26.6299     0.0000   126.0000 </r>
       <r>   -26.3890     0.0000   126.0000 </r>
       <r>   -26.1481     0.0000   126.0000 </r>
       <r>   -25.9071     0.0000   126.0000 </r>
       <r>   -25.6662     0.0000   126.0000 </r>
       <r>   -25.4253     0.0000   126.0000 </r>
       <r>   -25.1844     0.0000   126.0000 </r>
       <r>   -24.9434     0.0000   126.0000 </r>
       <r>   -24.7025     0.0000   126.0000 </r>
       <r>   -24.4616     0.0000   126.0000 </r>
       <r>   -24.2206     0.0000   126.0000 </r>
       <r>   -23.9797     0.0000   126.0000 </r>
       <r>   -23.7388     0.0000   126.0000 </r>
       <r>   -23.4978     0.0000   126.0000 </r>
       <r>   -23.2569     0.0000   126.0000 </r>
       <r>   -23.0160     0.0000   126.0000 </r>
       <r>   -22.7750     0.0000   126.0000 </r>
       <r>   -22.5341     0.0000   126.0000 </r>
       <r>   -22.2932     0.0000   126.0000 </r>
       <r>   -22.0522     0.0000   126.0000 </r>
       <r>   -21.8113     0.0000   126.0000 </r>
       <r>   -21.5704     0.0000   126.0000 </r>
       <r>   -21.3294     0.0000   126.0000 </r>
       <r>   -21.0885     0.0000   126.0000 </r>
       <r>   -20.8476     0.0000   126.0000 </r>
       <r>   -20.6066     0.0000   126.0000 </r>
       <r>   -20.3657     0.0000   126.0000 </r>
       <r>   -20.1248     0.0000   126.0000 </r>
       <r>   -19.8839     0.0000   126.0000 </r>
       <r>   -19.6429     0.0000   126.0000 </r>
       <r>   -19.4020     0.0000   126.0000 </r>
       <r>   -19.1611     0.0000   126.0000 </r>
       <r>   -18.9201     0.0000   126.0000 </r>
       <r>   -18.6792     0.0000   126.0000 </r>
       <r>   -18.4383     0.0000   126.0000 </r>
       <r>   -18.1973     0.0000   126.0000 </r>
       <r>   -17.9564     0.0000   126.0000 </r>
       <r>   -17.7155     0.0000   126.0000 </r>
       <r>   -17.4745     0.0000   126.0000 </r>
       <r>   -17.2336     0.0000   126.0000 </r>
       <r>   -16.9927     0.0000   126.0000 </r>
       <r>   -16.7517     0.0000   126.0000 </r>
       <r>   -16.5108     0.0000   126.0000 </r>
       <r>   -16.2699     0.0000   126.0000 </r>
       <r>   -16.0289     0.0000   126.0000 </r>
       <r>   -15.7880     0.0000   126.0000 </r>
       <r>   -15.5471     0.0000   126.0000 </r>
       <r>   -15.3061     0.0000   126.0000 </r>
       <r>   -15.0652     0.0000   126.0000 </r>
       <r>   -14.8243     0.0000   126.0000 </r>
       <r>   -14.5834     0.0000   126.0000 </r>
       <r>   -14.3424     0.0000   126.0000 </r>
       <r>   -14.1015     0.0000   126.0000 </r>
       <r>   -13.8606     0.0000   126.0000 </r>
       <r>   -13.6196     0.0000   126.0000 </r>
       <r>   -13.3787     0.0000   126.0000 </r>
       <r>   -13.1378     0.0000   126.0000 </r>
       <r>   -12.8968     0.2118   126.0510 </r>
       <r>   -12.6559    58.1356   140.0578 </r>
       <r>   -12.4150    16.3625   144.0000 </r>
       <r>   -12.1740     0.0000   144.0000 </r>
       <r>   -11.9331     0.0000   144.0000 </r>
       <r>   -11.6922     0.0000   144.0000 </r>
       <r>   -11.4512     0.0000   144.0000 </r>
       <r>   -11.2103     0.0000   144.0000 </r>
       <r>   -10.9694     0.0000   144.0000 </r>
       <r>   -10.7284     0.0000   144.0000 </r>
       <r>   -10.4875     0.0000   144.0000 </r>
       <r>   -10.2466     0.0000   144.0000 </r>
       <r>   -10.0057     0.0000   144.0000 </r>
       <r>    -9.7647     0.0000   144.0000 </r>
       <r>    -9.5238     0.0000   144.0000 </r>
       <r>    -9.2829     0.0000   144.0000 </r>
       <r>    -9.0419     0.0000   144.0000 </r>
       <r>    -8.8010     0.0000   144.0000 </r>
       <r>    -8.5601     0.0000   144.0000 </r>
       <r>    -8.3191     0.0000   144.0000 </r>
       <r>    -8.0782     0.0000   144.0000 </r>
       <r>    -7.8373     0.0000   144.0000 </r>
       <r>    -7.5963     0.0000   144.0000 </r>
       <r>    -7.3554     0.4425   144.1066 </r>
       <r>    -7.1145    18.7454   148.6230 </r>
       <r>    -6.8735    31.1270   156.1225 </r>
       <r>    -6.6326    24.7531   162.0863 </r>
       <r>    -6.3917    36.8698   170.9694 </r>
       <r>    -6.1507     0.1271   171.0000 </r>
       <r>    -5.9098     0.0000   171.0000 </r>
       <r>    -5.6689     0.0000   171.0000 </r>
       <r>    -5.4279     0.0000   171.0000 </r>
       <r>    -5.1870     0.0000   171.0000 </r>
       <r>    -4.9461     0.0000   171.0000 </r>
       <r>    -4.7052     0.0000   171.0000 </r>
       <r>    -4.4642     0.0000   171.0000 </r>
       <r>    -4.2233     0.0000   171.0000 </r>
       <r>    -3.9824     0.0000   171.0000 </r>
       <r>    -3.7414     0.0000   171.0000 </r>
       <r>    -3.5005     0.0000   171.0000 </r>
       <r>    -3.2596     0.0000   171.0000 </r>
       <r>    -3.0186     0.0000   171.0000 </r>
       <r>    -2.7777     0.0000   171.0000 </r>
       <r>    -2.5368     0.0000   171.0000 </r>
       <r>    -2.2958     0.0000   171.0000 </r>
       <r>    -2.0549     0.0000   171.0000 </r>
       <r>    -1.8140     0.0000   171.0000 </r>
       <r>    -1.5730     0.0000   171.0000 </r>
       <r>    -1.3321     0.0000   171.0000 </r>
       <r>    -1.0912     0.0000   171.0000 </r>
       <r>    -0.8502     0.0000   171.0000 </r>
       <r>    -0.6093     0.0001   171.0000 </r>
       <r>    -0.3684     8.5845   173.0683 </r>
       <r>    -0.1274    21.7688   178.3131 </r>
       <r>     0.1135    12.9557   181.4346 </r>
       <r>     0.3544    23.4749   187.0904 </r>
       <r>     0.5953    30.4974   194.4382 </r>
       <r>     0.8363    48.0670   206.0191 </r>
       <r>     1.0772    40.7366   215.8338 </r>
       <r>     1.3181    33.7909   223.9751 </r>
       <r>     1.5591    23.9589   229.7476 </r>
       <r>     1.8000    32.9911   237.6962 </r>
       <r>     2.0409    40.8105   247.5287 </r>
       <r>     2.2819    28.8190   254.4721 </r>
       <r>     2.5228    29.2199   261.5122 </r>
       <r>     2.7637    38.1439   270.7022 </r>
       <r>     3.0047    45.7936   281.7354 </r>
       <r>     3.2456    48.8405   293.5026 </r>
       <r>     3.4865    42.3010   303.6942 </r>
       <r>     3.7275     7.5563   305.5148 </r>
       <r>     3.9684    21.0128   310.5774 </r>
       <r>     4.2093    72.2261   327.9790 </r>
       <r>     4.4503    46.5498   339.1943 </r>
       <r>     4.6912    11.6451   342.0000 </r>
       <r>     4.9321     0.0000   342.0000 </r>
       <r>     5.1731     0.0000   342.0000 </r>
       <r>     5.4140     0.0000   342.0000 </r>
       <r>     5.6549     0.0000   342.0000 </r>
       <r>     5.8958     0.0000   342.0000 </r>
       <r>     6.1368     0.0000   342.0000 </r>
       <r>     6.3777     1.1682   342.2815 </r>
       <r>     6.6186     5.0916   343.5082 </r>
       <r>     6.8596     9.4703   345.7899 </r>
       <r>     7.1005    20.0115   350.6113 </r>
       <r>     7.3414    59.6635   364.9861 </r>
       <r>     7.5824    60.5541   379.5755 </r>
       <r>     7.8233    63.1386   394.7876 </r>
       <r>     8.0642    74.5722   412.7544 </r>
       <r>     8.3052    79.0593   431.8023 </r>
       <r>     8.5461    70.2274   448.7224 </r>
       <r>     8.7870    66.6426   464.7787 </r>
       <r>     9.0280    47.4054   476.2001 </r>
       <r>     9.2689    33.3542   484.2362 </r>
       <r>     9.5098     9.1259   486.4350 </r>
       <r>     9.7508     5.5436   487.7706 </r>
       <r>     9.9917    11.3627   490.5082 </r>
       <r>    10.2326    16.0871   494.3841 </r>
       <r>    10.4735    24.3028   500.2394 </r>
       <r>    10.7145    21.6866   505.4644 </r>
       <r>    10.9554    21.8536   510.7297 </r>
       <r>    11.1963    31.9784   518.4343 </r>
       <r>    11.4373    20.1735   523.2947 </r>
       <r>    11.6782    18.5999   527.7760 </r>
       <r>    11.9191    11.8393   530.6285 </r>
       <r>    12.1601    23.9470   536.3981 </r>
       <r>    12.4010    44.5960   547.1427 </r>
       <r>    12.6419    35.6078   555.7217 </r>
       <r>    12.8829    33.2909   563.7425 </r>
       <r>    13.1238    20.4858   568.6782 </r>
       <r>    13.3647    23.5920   574.3623 </r>
       <r>    13.6057    33.1204   582.3420 </r>
       <r>    13.8466    26.5211   588.7318 </r>
       <r>    14.0875    26.6747   595.1586 </r>
       <r>    14.3285    22.4083   600.5575 </r>
       <r>    14.5694    19.9150   605.3556 </r>
       <r>    14.8103     2.6744   606.0000 </r>
       <r>    15.0513     0.0000   606.0000 </r>
       <r>    15.2922     0.0000   606.0000 </r>
       <r>    15.5331     0.0000   606.0000 </r>
       <r>    15.7740     0.0000   606.0000 </r>
       <r>    16.0150     0.0000   606.0000 </r>
       <r>    16.2559     0.0000   606.0000 </r>
       <r>    16.4968     0.0000   606.0000 </r>
       <r>    16.7378     0.0000   606.0000 </r>
       <r>    16.9787     0.0000   606.0000 </r>
       <r>    17.2196     0.0000   606.0000 </r>
       <r>    17.4606     0.0000   606.0000 </r>
       <r>    17.7015     0.0000   606.0000 </r>
       <r>    17.9424     0.0000   606.0000 </r>
      </set>
     </set>
    </array>
   </total>
  </dos>
 </calculation>
 <structure name="finalpos" >
  <crystal>
   <varray name="basis" >
    <v>      11.77726974       0.00848871       0.06923316 </v>
    <v>      -0.03028248      11.77723386       0.06923316 </v>
    <v>      -2.02000231      -2.02666320      10.18574622 </v>
   </varray>
   <i name="volume">   1416.10551572 </i>
   <varray name="rec_basis" >
    <v>       0.08481023       0.00011906       0.01684296 </v>
    <v>      -0.00016014       0.08481016       0.01684296 </v>
    <v>      -0.00057537      -0.00057727       0.09794744 </v>
   </varray>
  </crystal>
  <varray name="positions" >
   <v>       0.20224939       0.24206952       0.83183419 </v>
   <v>       0.53558272       0.24206952       0.83183419 </v>
   <v>       0.86891606       0.24206952       0.83183419 </v>
   <v>       0.20224939       0.57540285       0.83183419 </v>
   <v>       0.53558272       0.57540285       0.83183419 </v>
   <v>       0.86891606       0.57540285       0.83183419 </v>
   <v>       0.20224939       0.90873619       0.83183419 </v>
   <v>       0.53558272       0.90873619       0.83183419 </v>
   <v>       0.86891606       0.90873619       0.83183419 </v>
   <v>       0.09126381       0.13108394       0.16816581 </v>
   <v>       0.42459715       0.13108394       0.16816581 </v>
   <v>       0.75793048       0.13108394       0.16816581 </v>
   <v>       0.09126381       0.46441728       0.16816581 </v>
   <v>       0.42459715       0.46441728       0.16816581 </v>
   <v>       0.75793048       0.46441728       0.16816581 </v>
   <v>       0.09126381       0.79775061       0.16816581 </v>
   <v>       0.42459715       0.79775061       0.16816581 </v>
   <v>       0.75793048       0.79775061       0.16816581 </v>
   <v>       0.26311007       0.13598816       0.19686089 </v>
   <v>       0.59644341       0.13598816       0.19686089 </v>
   <v>       0.92977674       0.13598816       0.19686089 </v>
   <v>       0.26311007       0.46932149       0.19686089 </v>
   <v>       0.59644341       0.46932149       0.19686089 </v>
   <v>       0.92977674       0.46932149       0.19686089 </v>
   <v>       0.26311007       0.80265483       0.19686089 </v>
   <v>       0.59644341       0.80265483       0.19686089 </v>
   <v>       0.92977674       0.80265483       0.19686089 </v>
   <v>       0.19734517       0.07022326       0.80313911 </v>
   <v>       0.53067851       0.07022326       0.80313911 </v>
   <v>       0.86401184       0.07022326       0.80313911 </v>
   <v>       0.19734517       0.40355659       0.80313911 </v>
   <v>       0.53067851       0.40355659       0.80313911 </v>
   <v>       0.86401184       0.40355659       0.80313911 </v>
   <v>       0.19734517       0.73688993       0.80313911 </v>
   <v>       0.53067851       0.73688993       0.80313911 </v>
   <v>       0.86401184       0.73688993       0.80313911 </v>
   <v>       0.00253935       0.20657296       0.62920335 </v>
   <v>       0.33587268       0.20657296       0.62920335 </v>
   <v>       0.66920601       0.20657296       0.62920335 </v>
   <v>       0.00253935       0.53990630       0.62920335 </v>
   <v>       0.33587268       0.53990630       0.62920335 </v>
   <v>       0.66920601       0.53990630       0.62920335 </v>
   <v>       0.00253935       0.87323963       0.62920335 </v>
   <v>       0.33587268       0.87323963       0.62920335 </v>
   <v>       0.66920601       0.87323963       0.62920335 </v>
   <v>       0.12676037       0.33079399       0.37079665 </v>
   <v>       0.46009370       0.33079399       0.37079665 </v>
   <v>       0.79342704       0.33079399       0.37079665 </v>
   <v>       0.12676037       0.66412732       0.37079665 </v>
   <v>       0.46009370       0.66412732       0.37079665 </v>
   <v>       0.79342704       0.66412732       0.37079665 </v>
   <v>       0.12676037       0.99746065       0.37079665 </v>
   <v>       0.46009370       0.99746065       0.37079665 </v>
   <v>       0.79342704       0.99746065       0.37079665 </v>
   <v>       0.06350899       0.26982435       0.00000000 </v>
   <v>       0.39684232       0.26982435       0.00000000 </v>
   <v>       0.73017565       0.26982435       0.00000000 </v>
   <v>       0.06350899       0.60315768       0.00000000 </v>
   <v>       0.39684232       0.60315768       0.00000000 </v>
   <v>       0.73017565       0.60315768       0.00000000 </v>
   <v>       0.06350899       0.93649101       0.00000000 </v>
   <v>       0.39684232       0.93649101       0.00000000 </v>
   <v>       0.73017565       0.93649101       0.00000000 </v>
   <v>       0.29027274       0.17214940       0.39352170 </v>
   <v>       0.62360607       0.17214940       0.39352170 </v>
   <v>       0.95693941       0.17214940       0.39352170 </v>
   <v>       0.29027274       0.50548273       0.39352170 </v>
   <v>       0.62360607       0.50548273       0.39352170 </v>
   <v>       0.95693941       0.50548273       0.39352170 </v>
   <v>       0.29027274       0.83881607       0.39352170 </v>
   <v>       0.62360607       0.83881607       0.39352170 </v>
   <v>       0.95693941       0.83881607       0.39352170 </v>
   <v>       0.16118393       0.04306059       0.60647830 </v>
   <v>       0.49451727       0.04306059       0.60647830 </v>
   <v>       0.82785060       0.04306059       0.60647830 </v>
   <v>       0.16118393       0.37639393       0.60647830 </v>
   <v>       0.49451727       0.37639393       0.60647830 </v>
   <v>       0.82785060       0.37639393       0.60647830 </v>
   <v>       0.16118393       0.70972726       0.60647830 </v>
   <v>       0.49451727       0.70972726       0.60647830 </v>
   <v>       0.82785060       0.70972726       0.60647830 </v>
   <v>       0.03761391       0.07646399       0.84542777 </v>
   <v>       0.37094724       0.07731307       0.84542777 </v>
   <v>       0.70428057       0.07731307       0.84542777 </v>
   <v>       0.03761391       0.41064640       0.84542777 </v>
   <v>       0.37094724       0.41064640       0.84542777 </v>
   <v>       0.70428057       0.41064640       0.84542777 </v>
   <v>       0.03761391       0.74397973       0.84542777 </v>
   <v>       0.37094724       0.74397973       0.84542777 </v>
   <v>       0.70428057       0.74397973       0.84542777 </v>
   <v>       0.25602027       0.29571943       0.15457223 </v>
   <v>       0.58935360       0.29571943       0.15457223 </v>
   <v>       0.92268693       0.29571943       0.15457223 </v>
   <v>       0.25602027       0.62905276       0.15457223 </v>
   <v>       0.58935360       0.62905276       0.15457223 </v>
   <v>       0.92268693       0.62905276       0.15457223 </v>
   <v>       0.25602027       0.96238609       0.15457223 </v>
   <v>       0.58935360       0.96238609       0.15457223 </v>
   <v>       0.92268693       0.96238609       0.15457223 </v>
  </varray>
 </structure>
</modeling>
