 144 144   0   0
  0.1325381E+02  0.1546422E-08  0.1214491E-08  0.1054520E-08  0.5000000E-15
  1.000000000000000E-004
  CAR 
 unknown system                          
     17.01203817    -54.87161830  301      5.09133181      1.00000000
    -54.872  0.0000E+00  0.0000E+00  0.0000E+00  0.0000E+00
    -54.632  0.0000E+00  0.0000E+00  0.0000E+00  0.0000E+00
    -54.392  0.0000E+00  0.0000E+00  0.0000E+00  0.0000E+00
    -54.153  0.0000E+00  0.0000E+00  0.0000E+00  0.0000E+00
    -53.913  0.0000E+00  0.0000E+00  0.0000E+00  0.0000E+00
    -53.674  0.0000E+00  0.0000E+00  0.0000E+00  0.0000E+00
    -53.434  0.0000E+00  0.0000E+00  0.0000E+00  0.0000E+00
    -53.194  0.0000E+00  0.0000E+00  0.0000E+00  0.0000E+00
    -52.955  0.0000E+00  0.0000E+00  0.0000E+00  0.0000E+00
    -52.715  0.0000E+00  0.0000E+00  0.0000E+00  0.0000E+00
    -52.475  0.0000E+00  0.0000E+00  0.0000E+00  0.0000E+00
    -52.236  0.0000E+00  0.0000E+00  0.0000E+00  0.0000E+00
    -51.996  0.0000E+00  0.0000E+00  0.0000E+00  0.0000E+00
    -51.757  0.3328E-03  0.0000E+00  0.7975E-04  0.0000E+00
    -51.517  0.4982E+02  0.0000E+00  0.1194E+02  0.0000E+00
    -51.277  0.8618E+02  0.0000E+00  0.3259E+02  0.0000E+00
    -51.038  0.1424E+02  0.0000E+00  0.3600E+02  0.0000E+00
    -50.798  0.0000E+00  0.0000E+00  0.3600E+02  0.0000E+00
    -50.559  0.0000E+00  0.0000E+00  0.3600E+02  0.0000E+00
    -50.319  0.1209E-03  0.0000E+00  0.3600E+02  0.0000E+00
    -50.079  0.6695E+02  0.0000E+00  0.5204E+02  0.0000E+00
    -49.840  0.2083E+03  0.0000E+00  0.1020E+03  0.0000E+00
    -49.600  0.2521E+02  0.0000E+00  0.1080E+03  0.0000E+00
    -49.361  0.0000E+00  0.0000E+00  0.1080E+03  0.0000E+00
    -49.121  0.0000E+00  0.0000E+00  0.1080E+03  0.0000E+00
    -48.881  0.0000E+00  0.0000E+00  0.1080E+03  0.0000E+00
    -48.642  0.0000E+00  0.0000E+00  0.1080E+03  0.0000E+00
    -48.402  0.0000E+00  0.0000E+00  0.1080E+03  0.0000E+00
    -48.162  0.0000E+00  0.0000E+00  0.1080E+03  0.0000E+00
    -47.923  0.0000E+00  0.0000E+00  0.1080E+03  0.0000E+00
    -47.683  0.0000E+00  0.0000E+00  0.1080E+03  0.0000E+00
    -47.444  0.0000E+00  0.0000E+00  0.1080E+03  0.0000E+00
    -47.204  0.0000E+00  0.0000E+00  0.1080E+03  0.0000E+00
    -46.964  0.0000E+00  0.6402E-01  0.1080E+03  0.1534E-01
    -46.725  0.0000E+00  0.5093E+02  0.1080E+03  0.1222E+02
    -46.485  0.0000E+00  0.9542E+02  0.1080E+03  0.3508E+02
    -46.246  0.0000E+00  0.1459E+03  0.1080E+03  0.7003E+02
    -46.006  0.0000E+00  0.1585E+03  0.1080E+03  0.1080E+03
    -45.766  0.0000E+00  0.4739E-02  0.1080E+03  0.1080E+03
    -45.527  0.0000E+00  0.0000E+00  0.1080E+03  0.1080E+03
    -45.287  0.0000E+00  0.0000E+00  0.1080E+03  0.1080E+03
    -45.048  0.0000E+00  0.0000E+00  0.1080E+03  0.1080E+03
    -44.808  0.0000E+00  0.0000E+00  0.1080E+03  0.1080E+03
    -44.568  0.0000E+00  0.0000E+00  0.1080E+03  0.1080E+03
    -44.329  0.0000E+00  0.0000E+00  0.1080E+03  0.1080E+03
    -44.089  0.0000E+00  0.0000E+00  0.1080E+03  0.1080E+03
    -43.849  0.0000E+00  0.0000E+00  0.1080E+03  0.1080E+03
    -43.610  0.0000E+00  0.0000E+00  0.1080E+03  0.1080E+03
    -43.370  0.0000E+00  0.0000E+00  0.1080E+03  0.1080E+03
    -43.131  0.0000E+00  0.0000E+00  0.1080E+03  0.1080E+03
    -42.891  0.0000E+00  0.0000E+00  0.1080E+03  0.1080E+03
    -42.651  0.0000E+00  0.0000E+00  0.1080E+03  0.1080E+03
    -42.412  0.0000E+00  0.0000E+00  0.1080E+03  0.1080E+03
    -42.172  0.0000E+00  0.0000E+00  0.1080E+03  0.1080E+03
    -41.933  0.0000E+00  0.0000E+00  0.1080E+03  0.1080E+03
    -41.693  0.0000E+00  0.0000E+00  0.1080E+03  0.1080E+03
    -41.453  0.0000E+00  0.0000E+00  0.1080E+03  0.1080E+03
    -41.214  0.0000E+00  0.0000E+00  0.1080E+03  0.1080E+03
    -40.974  0.0000E+00  0.0000E+00  0.1080E+03  0.1080E+03
    -40.734  0.1512E-08  0.4941E-09  0.1080E+03  0.1080E+03
    -40.495  0.2957E+02  0.2631E+02  0.1151E+03  0.1143E+03
    -40.255  0.4635E+02  0.5000E+02  0.1262E+03  0.1263E+03
    -40.016  0.1001E+03  0.1001E+03  0.1502E+03  0.1503E+03
    -39.776  0.2428E+02  0.2395E+02  0.1560E+03  0.1560E+03
    -39.536  0.0000E+00  0.0000E+00  0.1560E+03  0.1560E+03
    -39.297  0.0000E+00  0.0000E+00  0.1560E+03  0.1560E+03
    -39.057  0.0000E+00  0.0000E+00  0.1560E+03  0.1560E+03
    -38.818  0.0000E+00  0.0000E+00  0.1560E+03  0.1560E+03
    -38.578  0.0000E+00  0.0000E+00  0.1560E+03  0.1560E+03
    -38.338  0.0000E+00  0.0000E+00  0.1560E+03  0.1560E+03
    -38.099  0.0000E+00  0.0000E+00  0.1560E+03  0.1560E+03
    -37.859  0.0000E+00  0.0000E+00  0.1560E+03  0.1560E+03
    -37.620  0.0000E+00  0.0000E+00  0.1560E+03  0.1560E+03
    -37.380  0.0000E+00  0.0000E+00  0.1560E+03  0.1560E+03
    -37.140  0.0000E+00  0.0000E+00  0.1560E+03  0.1560E+03
    -36.901  0.0000E+00  0.0000E+00  0.1560E+03  0.1560E+03
    -36.661  0.0000E+00  0.0000E+00  0.1560E+03  0.1560E+03
    -36.421  0.0000E+00  0.0000E+00  0.1560E+03  0.1560E+03
    -36.182  0.0000E+00  0.0000E+00  0.1560E+03  0.1560E+03
    -35.942  0.0000E+00  0.0000E+00  0.1560E+03  0.1560E+03
    -35.703  0.0000E+00  0.0000E+00  0.1560E+03  0.1560E+03
    -35.463  0.0000E+00  0.0000E+00  0.1560E+03  0.1560E+03
    -35.223  0.0000E+00  0.0000E+00  0.1560E+03  0.1560E+03
    -34.984  0.0000E+00  0.0000E+00  0.1560E+03  0.1560E+03
    -34.744  0.0000E+00  0.0000E+00  0.1560E+03  0.1560E+03
    -34.505  0.0000E+00  0.0000E+00  0.1560E+03  0.1560E+03
    -34.265  0.0000E+00  0.0000E+00  0.1560E+03  0.1560E+03
    -34.025  0.0000E+00  0.0000E+00  0.1560E+03  0.1560E+03
    -33.786  0.0000E+00  0.0000E+00  0.1560E+03  0.1560E+03
    -33.546  0.0000E+00  0.0000E+00  0.1560E+03  0.1560E+03
    -33.307  0.0000E+00  0.0000E+00  0.1560E+03  0.1560E+03
    -33.067  0.0000E+00  0.0000E+00  0.1560E+03  0.1560E+03
    -32.827  0.0000E+00  0.0000E+00  0.1560E+03  0.1560E+03
    -32.588  0.0000E+00  0.0000E+00  0.1560E+03  0.1560E+03
    -32.348  0.0000E+00  0.0000E+00  0.1560E+03  0.1560E+03
    -32.108  0.0000E+00  0.0000E+00  0.1560E+03  0.1560E+03
    -31.869  0.0000E+00  0.0000E+00  0.1560E+03  0.1560E+03
    -31.629  0.0000E+00  0.0000E+00  0.1560E+03  0.1560E+03
    -31.390  0.0000E+00  0.0000E+00  0.1560E+03  0.1560E+03
    -31.150  0.0000E+00  0.0000E+00  0.1560E+03  0.1560E+03
    -30.910  0.0000E+00  0.0000E+00  0.1560E+03  0.1560E+03
    -30.671  0.0000E+00  0.0000E+00  0.1560E+03  0.1560E+03
    -30.431  0.0000E+00  0.0000E+00  0.1560E+03  0.1560E+03
    -30.192  0.0000E+00  0.0000E+00  0.1560E+03  0.1560E+03
    -29.952  0.0000E+00  0.0000E+00  0.1560E+03  0.1560E+03
    -29.712  0.0000E+00  0.0000E+00  0.1560E+03  0.1560E+03
    -29.473  0.0000E+00  0.0000E+00  0.1560E+03  0.1560E+03
    -29.233  0.0000E+00  0.0000E+00  0.1560E+03  0.1560E+03
    -28.994  0.0000E+00  0.0000E+00  0.1560E+03  0.1560E+03
    -28.754  0.0000E+00  0.0000E+00  0.1560E+03  0.1560E+03
    -28.514  0.0000E+00  0.0000E+00  0.1560E+03  0.1560E+03
    -28.275  0.0000E+00  0.0000E+00  0.1560E+03  0.1560E+03
    -28.035  0.0000E+00  0.0000E+00  0.1560E+03  0.1560E+03
    -27.795  0.0000E+00  0.0000E+00  0.1560E+03  0.1560E+03
    -27.556  0.0000E+00  0.0000E+00  0.1560E+03  0.1560E+03
    -27.316  0.0000E+00  0.0000E+00  0.1560E+03  0.1560E+03
    -27.077  0.0000E+00  0.0000E+00  0.1560E+03  0.1560E+03
    -26.837  0.0000E+00  0.0000E+00  0.1560E+03  0.1560E+03
    -26.597  0.0000E+00  0.0000E+00  0.1560E+03  0.1560E+03
    -26.358  0.0000E+00  0.0000E+00  0.1560E+03  0.1560E+03
    -26.118  0.0000E+00  0.0000E+00  0.1560E+03  0.1560E+03
    -25.879  0.0000E+00  0.0000E+00  0.1560E+03  0.1560E+03
    -25.639  0.0000E+00  0.0000E+00  0.1560E+03  0.1560E+03
    -25.399  0.0000E+00  0.0000E+00  0.1560E+03  0.1560E+03
    -25.160  0.0000E+00  0.0000E+00  0.1560E+03  0.1560E+03
    -24.920  0.0000E+00  0.0000E+00  0.1560E+03  0.1560E+03
    -24.680  0.0000E+00  0.0000E+00  0.1560E+03  0.1560E+03
    -24.441  0.0000E+00  0.0000E+00  0.1560E+03  0.1560E+03
    -24.201  0.0000E+00  0.0000E+00  0.1560E+03  0.1560E+03
    -23.962  0.0000E+00  0.0000E+00  0.1560E+03  0.1560E+03
    -23.722  0.0000E+00  0.0000E+00  0.1560E+03  0.1560E+03
    -23.482  0.0000E+00  0.0000E+00  0.1560E+03  0.1560E+03
    -23.243  0.0000E+00  0.0000E+00  0.1560E+03  0.1560E+03
    -23.003  0.0000E+00  0.0000E+00  0.1560E+03  0.1560E+03
    -22.764  0.0000E+00  0.0000E+00  0.1560E+03  0.1560E+03
    -22.524  0.0000E+00  0.0000E+00  0.1560E+03  0.1560E+03
    -22.284  0.0000E+00  0.0000E+00  0.1560E+03  0.1560E+03
    -22.045  0.0000E+00  0.0000E+00  0.1560E+03  0.1560E+03
    -21.805  0.0000E+00  0.0000E+00  0.1560E+03  0.1560E+03
    -21.566  0.0000E+00  0.0000E+00  0.1560E+03  0.1560E+03
    -21.326  0.0000E+00  0.0000E+00  0.1560E+03  0.1560E+03
    -21.086  0.0000E+00  0.0000E+00  0.1560E+03  0.1560E+03
    -20.847  0.0000E+00  0.0000E+00  0.1560E+03  0.1560E+03
    -20.607  0.0000E+00  0.0000E+00  0.1560E+03  0.1560E+03
    -20.367  0.0000E+00  0.0000E+00  0.1560E+03  0.1560E+03
    -20.128  0.0000E+00  0.0000E+00  0.1560E+03  0.1560E+03
    -19.888  0.0000E+00  0.0000E+00  0.1560E+03  0.1560E+03
    -19.649  0.0000E+00  0.0000E+00  0.1560E+03  0.1560E+03
    -19.409  0.0000E+00  0.0000E+00  0.1560E+03  0.1560E+03
    -19.169  0.0000E+00  0.0000E+00  0.1560E+03  0.1560E+03
    -18.930  0.0000E+00  0.0000E+00  0.1560E+03  0.1560E+03
    -18.690  0.0000E+00  0.0000E+00  0.1560E+03  0.1560E+03
    -18.451  0.0000E+00  0.0000E+00  0.1560E+03  0.1560E+03
    -18.211  0.0000E+00  0.0000E+00  0.1560E+03  0.1560E+03
    -17.971  0.0000E+00  0.0000E+00  0.1560E+03  0.1560E+03
    -17.732  0.0000E+00  0.0000E+00  0.1560E+03  0.1560E+03
    -17.492  0.0000E+00  0.0000E+00  0.1560E+03  0.1560E+03
    -17.253  0.0000E+00  0.0000E+00  0.1560E+03  0.1560E+03
    -17.013  0.0000E+00  0.0000E+00  0.1560E+03  0.1560E+03
    -16.773  0.0000E+00  0.0000E+00  0.1560E+03  0.1560E+03
    -16.534  0.0000E+00  0.0000E+00  0.1560E+03  0.1560E+03
    -16.294  0.0000E+00  0.0000E+00  0.1560E+03  0.1560E+03
    -16.054  0.0000E+00  0.0000E+00  0.1560E+03  0.1560E+03
    -15.815  0.0000E+00  0.0000E+00  0.1560E+03  0.1560E+03
    -15.575  0.0000E+00  0.0000E+00  0.1560E+03  0.1560E+03
    -15.336  0.0000E+00  0.0000E+00  0.1560E+03  0.1560E+03
    -15.096  0.0000E+00  0.0000E+00  0.1560E+03  0.1560E+03
    -14.856  0.0000E+00  0.0000E+00  0.1560E+03  0.1560E+03
    -14.617  0.0000E+00  0.0000E+00  0.1560E+03  0.1560E+03
    -14.377  0.0000E+00  0.0000E+00  0.1560E+03  0.1560E+03
    -14.138  0.0000E+00  0.0000E+00  0.1560E+03  0.1560E+03
    -13.898  0.1475E-02  0.0000E+00  0.1560E+03  0.1560E+03
    -13.658  0.2238E+02  0.8451E-13  0.1614E+03  0.1560E+03
    -13.419  0.2753E+02  0.1925E+01  0.1680E+03  0.1565E+03
    -13.179  0.9204E+01  0.4453E+02  0.1702E+03  0.1671E+03
    -12.939  0.3144E+02  0.4412E+01  0.1777E+03  0.1682E+03
    -12.700  0.9599E+01  0.4232E+02  0.1800E+03  0.1783E+03
    -12.460  0.0000E+00  0.6977E+01  0.1800E+03  0.1800E+03
    -12.221  0.0000E+00  0.0000E+00  0.1800E+03  0.1800E+03
    -11.981  0.0000E+00  0.0000E+00  0.1800E+03  0.1800E+03
    -11.741  0.0000E+00  0.0000E+00  0.1800E+03  0.1800E+03
    -11.502  0.0000E+00  0.0000E+00  0.1800E+03  0.1800E+03
    -11.262  0.0000E+00  0.0000E+00  0.1800E+03  0.1800E+03
    -11.023  0.0000E+00  0.0000E+00  0.1800E+03  0.1800E+03
    -10.783  0.0000E+00  0.0000E+00  0.1800E+03  0.1800E+03
    -10.543  0.0000E+00  0.0000E+00  0.1800E+03  0.1800E+03
    -10.304  0.0000E+00  0.0000E+00  0.1800E+03  0.1800E+03
    -10.064  0.0000E+00  0.0000E+00  0.1800E+03  0.1800E+03
     -9.825  0.0000E+00  0.0000E+00  0.1800E+03  0.1800E+03
     -9.585  0.0000E+00  0.0000E+00  0.1800E+03  0.1800E+03
     -9.345  0.0000E+00  0.0000E+00  0.1800E+03  0.1800E+03
     -9.106  0.0000E+00  0.0000E+00  0.1800E+03  0.1800E+03
     -8.866  0.0000E+00  0.0000E+00  0.1800E+03  0.1800E+03
     -8.626  0.0000E+00  0.0000E+00  0.1800E+03  0.1800E+03
     -8.387  0.0000E+00  0.0000E+00  0.1800E+03  0.1800E+03
     -8.147  0.0000E+00  0.0000E+00  0.1800E+03  0.1800E+03
     -7.908  0.2665E-02  0.0000E+00  0.1800E+03  0.1800E+03
     -7.668  0.9548E+01  0.1945E-01  0.1823E+03  0.1800E+03
     -7.428  0.2324E+02  0.1213E+02  0.1879E+03  0.1829E+03
     -7.189  0.5611E+02  0.2883E+02  0.2013E+03  0.1898E+03
     -6.949  0.5753E+02  0.6012E+02  0.2151E+03  0.2042E+03
     -6.710  0.3813E+01  0.4597E+02  0.2160E+03  0.2152E+03
     -6.470  0.0000E+00  0.3182E+01  0.2160E+03  0.2160E+03
     -6.230  0.0000E+00  0.0000E+00  0.2160E+03  0.2160E+03
     -5.991  0.0000E+00  0.0000E+00  0.2160E+03  0.2160E+03
     -5.751  0.0000E+00  0.0000E+00  0.2160E+03  0.2160E+03
     -5.512  0.0000E+00  0.0000E+00  0.2160E+03  0.2160E+03
     -5.272  0.0000E+00  0.0000E+00  0.2160E+03  0.2160E+03
     -5.032  0.0000E+00  0.0000E+00  0.2160E+03  0.2160E+03
     -4.793  0.0000E+00  0.0000E+00  0.2160E+03  0.2160E+03
     -4.553  0.0000E+00  0.0000E+00  0.2160E+03  0.2160E+03
     -4.313  0.0000E+00  0.0000E+00  0.2160E+03  0.2160E+03
     -4.074  0.0000E+00  0.0000E+00  0.2160E+03  0.2160E+03
     -3.834  0.0000E+00  0.0000E+00  0.2160E+03  0.2160E+03
     -3.595  0.0000E+00  0.0000E+00  0.2160E+03  0.2160E+03
     -3.355  0.0000E+00  0.0000E+00  0.2160E+03  0.2160E+03
     -3.115  0.0000E+00  0.0000E+00  0.2160E+03  0.2160E+03
     -2.876  0.2713E-13  0.0000E+00  0.2160E+03  0.2160E+03
     -2.636  0.9380E+00  0.0000E+00  0.2162E+03  0.2160E+03
     -2.397  0.1020E+02  0.0000E+00  0.2187E+03  0.2160E+03
     -2.157  0.2063E+02  0.0000E+00  0.2236E+03  0.2160E+03
     -1.917  0.1719E+01  0.0000E+00  0.2240E+03  0.2160E+03
     -1.678  0.3479E+02  0.0000E+00  0.2324E+03  0.2160E+03
     -1.438  0.1975E+02  0.7208E-15  0.2371E+03  0.2160E+03
     -1.198  0.4409E+02  0.9752E-01  0.2477E+03  0.2160E+03
     -0.959  0.4988E+02  0.4432E+01  0.2596E+03  0.2171E+03
     -0.719  0.7519E+02  0.1418E+02  0.2776E+03  0.2205E+03
     -0.480  0.1036E+03  0.1537E+02  0.3024E+03  0.2242E+03
     -0.240  0.8547E+02  0.1977E+02  0.3229E+03  0.2289E+03
     -0.000  0.1105E+03  0.4121E+02  0.3494E+03  0.2388E+03
      0.239  0.6929E+02  0.3393E+02  0.3660E+03  0.2469E+03
      0.479  0.3803E+02  0.4227E+02  0.3751E+03  0.2570E+03
      0.718  0.4572E+02  0.3361E+02  0.3861E+03  0.2651E+03
      0.958  0.4868E+02  0.5327E+02  0.3977E+03  0.2779E+03
      1.198  0.5569E+02  0.6023E+02  0.4111E+03  0.2923E+03
      1.437  0.6458E+02  0.4443E+02  0.4265E+03  0.3029E+03
      1.677  0.1008E+03  0.3991E+02  0.4507E+03  0.3125E+03
      1.916  0.5189E+02  0.3853E+02  0.4631E+03  0.3217E+03
      2.156  0.3901E+02  0.3733E+02  0.4725E+03  0.3307E+03
      2.396  0.4649E+02  0.3834E+02  0.4836E+03  0.3399E+03
      2.635  0.4784E+02  0.4971E+02  0.4951E+03  0.3518E+03
      2.875  0.4344E+02  0.6274E+02  0.5055E+03  0.3668E+03
      3.115  0.4010E+02  0.5877E+02  0.5151E+03  0.3809E+03
      3.354  0.4773E+02  0.4770E+02  0.5265E+03  0.3923E+03
      3.594  0.5242E+02  0.3027E+02  0.5391E+03  0.3996E+03
      3.833  0.4524E+02  0.6169E+02  0.5499E+03  0.4143E+03
      4.073  0.3204E+02  0.7238E+02  0.5576E+03  0.4317E+03
      4.313  0.4230E+02  0.1295E+01  0.5678E+03  0.4320E+03
      4.552  0.2346E+02  0.0000E+00  0.5734E+03  0.4320E+03
      4.792  0.1010E+02  0.0000E+00  0.5758E+03  0.4320E+03
      5.031  0.8337E+00  0.0000E+00  0.5760E+03  0.4320E+03
      5.271  0.0000E+00  0.0000E+00  0.5760E+03  0.4320E+03
      5.511  0.0000E+00  0.0000E+00  0.5760E+03  0.4320E+03
      5.750  0.0000E+00  0.0000E+00  0.5760E+03  0.4320E+03
      5.990  0.0000E+00  0.8369E-11  0.5760E+03  0.4320E+03
      6.229  0.0000E+00  0.1537E+00  0.5760E+03  0.4320E+03
      6.469  0.0000E+00  0.8281E+01  0.5760E+03  0.4340E+03
      6.709  0.0000E+00  0.3046E+02  0.5760E+03  0.4413E+03
      6.948  0.1253E-11  0.4372E+02  0.5760E+03  0.4518E+03
      7.188  0.1143E+00  0.7354E+02  0.5760E+03  0.4694E+03
      7.428  0.1253E+00  0.8065E+02  0.5761E+03  0.4887E+03
      7.667  0.9204E+00  0.6542E+02  0.5763E+03  0.5044E+03
      7.907  0.3527E+01  0.8787E+02  0.5771E+03  0.5255E+03
      8.146  0.4263E+01  0.7110E+02  0.5781E+03  0.5425E+03
      8.386  0.7100E+01  0.5422E+02  0.5798E+03  0.5555E+03
      8.626  0.1650E+02  0.3725E+02  0.5838E+03  0.5644E+03
      8.865  0.2520E+02  0.3892E+02  0.5898E+03  0.5738E+03
      9.105  0.1923E+02  0.1921E+02  0.5944E+03  0.5784E+03
      9.344  0.2553E+02  0.1405E+02  0.6006E+03  0.5817E+03
      9.584  0.3135E+02  0.2059E+02  0.6081E+03  0.5867E+03
      9.824  0.2651E+02  0.3007E+02  0.6144E+03  0.5939E+03
     10.063  0.2958E+02  0.2656E+02  0.6215E+03  0.6002E+03
     10.303  0.2276E+02  0.3494E+02  0.6270E+03  0.6086E+03
     10.543  0.2039E+02  0.3521E+02  0.6319E+03  0.6170E+03
     10.782  0.2874E+02  0.2801E+02  0.6387E+03  0.6237E+03
     11.022  0.3890E+02  0.2229E+02  0.6481E+03  0.6291E+03
     11.261  0.3944E+02  0.2174E+02  0.6575E+03  0.6343E+03
     11.501  0.3720E+02  0.3234E+02  0.6664E+03  0.6420E+03
     11.741  0.4498E+02  0.3871E+02  0.6772E+03  0.6513E+03
     11.980  0.3842E+02  0.4271E+02  0.6864E+03  0.6616E+03
     12.220  0.3859E+02  0.5206E+02  0.6957E+03  0.6740E+03
     12.459  0.3994E+02  0.4665E+02  0.7052E+03  0.6852E+03
     12.699  0.3640E+02  0.3595E+02  0.7140E+03  0.6938E+03
     12.939  0.3429E+02  0.4132E+02  0.7222E+03  0.7037E+03
     13.178  0.2252E+02  0.3957E+02  0.7276E+03  0.7132E+03
     13.418  0.1833E+01  0.3425E+02  0.7280E+03  0.7214E+03
     13.657  0.0000E+00  0.2363E+02  0.7280E+03  0.7271E+03
     13.897  0.0000E+00  0.3897E+01  0.7280E+03  0.7280E+03
     14.137  0.0000E+00  0.3738E-05  0.7280E+03  0.7280E+03
     14.376  0.0000E+00  0.0000E+00  0.7280E+03  0.7280E+03
     14.616  0.0000E+00  0.0000E+00  0.7280E+03  0.7280E+03
     14.856  0.0000E+00  0.0000E+00  0.7280E+03  0.7280E+03
     15.095  0.0000E+00  0.0000E+00  0.7280E+03  0.7280E+03
     15.335  0.0000E+00  0.0000E+00  0.7280E+03  0.7280E+03
     15.574  0.0000E+00  0.0000E+00  0.7280E+03  0.7280E+03
     15.814  0.0000E+00  0.0000E+00  0.7280E+03  0.7280E+03
     16.054  0.0000E+00  0.0000E+00  0.7280E+03  0.7280E+03
     16.293  0.0000E+00  0.0000E+00  0.7280E+03  0.7280E+03
     16.533  0.0000E+00  0.0000E+00  0.7280E+03  0.7280E+03
     16.772  0.0000E+00  0.0000E+00  0.7280E+03  0.7280E+03
     17.012  0.0000E+00  0.0000E+00  0.7280E+03  0.7280E+03
