  224  224    1    2
  0.1357572E+02  0.1537960E-08  0.1537962E-08  0.1395899E-08  0.5000000E-15
  1.000000000000000E-004
  CAR 
 unknown system                          
   1664      8   1208
 
  0.0000000E+00  0.0000000E+00  0.0000000E+00  0.1250000E+00
    1      -51.143288    -46.392514   1.000000   1.000000
    2      -51.142847    -46.391777   1.000000   1.000000
    3      -51.141654    -46.391105   1.000000   1.000000
    4      -51.141379    -46.390684   1.000000   1.000000
    5      -51.141336    -46.390637   1.000000   1.000000
    6      -51.141292    -46.390580   1.000000   1.000000
    7      -51.141198    -46.390480   1.000000   1.000000
    8      -51.141131    -46.390337   1.000000   1.000000
    9      -51.141119    -46.390303   1.000000   1.000000
   10      -51.141067    -46.390255   1.000000   1.000000
   11      -51.141026    -46.390143   1.000000   1.000000
   12      -51.140975    -46.390127   1.000000   1.000000
   13      -51.140936    -46.390057   1.000000   1.000000
   14      -51.140894    -46.390023   1.000000   1.000000
   15      -51.140886    -46.390005   1.000000   1.000000
   16      -51.140868    -46.389975   1.000000   1.000000
   17      -51.140794    -46.389864   1.000000   1.000000
   18      -51.140772    -46.389816   1.000000   1.000000
   19      -51.140698    -46.389738   1.000000   1.000000
   20      -51.140664    -46.389687   1.000000   1.000000
   21      -51.140658    -46.389679   1.000000   1.000000
   22      -51.140630    -46.389651   1.000000   1.000000
   23      -51.140564    -46.389613   1.000000   1.000000
   24      -51.140558    -46.389598   1.000000   1.000000
   25      -51.140524    -46.389543   1.000000   1.000000
   26      -51.140510    -46.389537   1.000000   1.000000
   27      -51.140508    -46.389527   1.000000   1.000000
   28      -51.140492    -46.389513   1.000000   1.000000
   29      -51.140476    -46.389459   1.000000   1.000000
   30      -51.140466    -46.389451   1.000000   1.000000
   31      -51.140438    -46.389447   1.000000   1.000000
   32      -51.140428    -46.389393   1.000000   1.000000
   33      -51.140270    -46.389085   1.000000   1.000000
   34      -51.140262    -46.389065   1.000000   1.000000
   35      -51.140208    -46.388999   1.000000   1.000000
   36      -51.140162    -46.388937   1.000000   1.000000
   37      -51.140151    -46.388906   1.000000   1.000000
   38      -51.140127    -46.388859   1.000000   1.000000
   39      -51.140105    -46.388846   1.000000   1.000000
   40      -51.140087    -46.388828   1.000000   1.000000
   41      -51.140082    -46.388808   1.000000   1.000000
   42      -51.140054    -46.388785   1.000000   1.000000
   43      -51.140009    -46.388761   1.000000   1.000000
   44      -51.140004    -46.388746   1.000000   1.000000
   45      -51.139987    -46.388721   1.000000   1.000000
   46      -51.139961    -46.388697   1.000000   1.000000
   47      -51.139945    -46.388684   1.000000   1.000000
   48      -51.139888    -46.388615   1.000000   1.000000
   49      -51.139866    -46.388579   1.000000   1.000000
   50      -51.139849    -46.388523   1.000000   1.000000
   51      -51.139801    -46.388498   1.000000   1.000000
   52      -51.139753    -46.388458   1.000000   1.000000
   53      -51.139738    -46.388408   1.000000   1.000000
   54      -51.139711    -46.388405   1.000000   1.000000
   55      -51.139658    -46.388328   1.000000   1.000000
   56      -51.139625    -46.388270   1.000000   1.000000
   57      -51.139587    -46.388185   1.000000   1.000000
   58      -51.139527    -46.388081   1.000000   1.000000
   59      -51.139503    -46.388035   1.000000   1.000000
   60      -51.139414    -46.387946   1.000000   1.000000
   61      -51.139404    -46.387938   1.000000   1.000000
   62      -51.139174    -46.387580   1.000000   1.000000
   63      -51.137658    -46.386556   1.000000   1.000000
   64      -51.137220    -46.385820   1.000000   1.000000
   65      -49.649380    -45.930105   1.000000   1.000000
   66      -49.649284    -45.930017   1.000000   1.000000
   67      -49.647720    -45.929843   1.000000   1.000000
   68      -49.647648    -45.929751   1.000000   1.000000
   69      -49.647601    -45.929085   1.000000   1.000000
   70      -49.647498    -45.929057   1.000000   1.000000
   71      -49.647423    -45.929018   1.000000   1.000000
   72      -49.647401    -45.928994   1.000000   1.000000
   73      -49.647354    -45.928768   1.000000   1.000000
   74      -49.647342    -45.928688   1.000000   1.000000
   75      -49.647339    -45.928653   1.000000   1.000000
   76      -49.647317    -45.928638   1.000000   1.000000
   77      -49.647314    -45.928623   1.000000   1.000000
   78      -49.647280    -45.928594   1.000000   1.000000
   79      -49.647263    -45.928588   1.000000   1.000000
   80      -49.647243    -45.928570   1.000000   1.000000
   81      -49.647218    -45.928532   1.000000   1.000000
   82      -49.647183    -45.928513   1.000000   1.000000
   83      -49.647169    -45.928489   1.000000   1.000000
   84      -49.647150    -45.928461   1.000000   1.000000
   85      -49.647127    -45.928451   1.000000   1.000000
   86      -49.647108    -45.928424   1.000000   1.000000
   87      -49.647097    -45.928402   1.000000   1.000000
   88      -49.647091    -45.928376   1.000000   1.000000
   89      -49.647053    -45.928363   1.000000   1.000000
   90      -49.647011    -45.928342   1.000000   1.000000
   91      -49.646909    -45.928291   1.000000   1.000000
   92      -49.646900    -45.928276   1.000000   1.000000
   93      -49.646873    -45.928256   1.000000   1.000000
   94      -49.646857    -45.928247   1.000000   1.000000
   95      -49.646845    -45.928225   1.000000   1.000000
   96      -49.646792    -45.928194   1.000000   1.000000
   97      -49.646604    -45.928115   1.000000   1.000000
   98      -49.646595    -45.928101   1.000000   1.000000
   99      -49.646588    -45.928074   1.000000   1.000000
  100      -49.646581    -45.928065   1.000000   1.000000
  101      -49.646557    -45.928003   1.000000   1.000000
  102      -49.646534    -45.927965   1.000000   1.000000
  103      -49.646528    -45.927953   1.000000   1.000000
  104      -49.646525    -45.927925   1.000000   1.000000
  105      -49.646443    -45.927910   1.000000   1.000000
  106      -49.646371    -45.927864   1.000000   1.000000
  107      -49.646321    -45.927835   1.000000   1.000000
  108      -49.646292    -45.927816   1.000000   1.000000
  109      -49.646210    -45.927665   1.000000   1.000000
  110      -49.646198    -45.927631   1.000000   1.000000
  111      -49.646149    -45.927571   1.000000   1.000000
  112      -49.646100    -45.927532   1.000000   1.000000
  113      -49.646073    -45.927490   1.000000   1.000000
  114      -49.646052    -45.927447   1.000000   1.000000
  115      -49.646008    -45.927444   1.000000   1.000000
  116      -49.645981    -45.927408   1.000000   1.000000
  117      -49.645895    -45.927359   1.000000   1.000000
  118      -49.645890    -45.927338   1.000000   1.000000
  119      -49.645832    -45.927323   1.000000   1.000000
  120      -49.645816    -45.927304   1.000000   1.000000
  121      -49.645802    -45.927284   1.000000   1.000000
  122      -49.645771    -45.927275   1.000000   1.000000
  123      -49.645746    -45.927241   1.000000   1.000000
  124      -49.645632    -45.927224   1.000000   1.000000
  125      -49.645538    -45.927183   1.000000   1.000000
  126      -49.645520    -45.927162   1.000000   1.000000
  127      -49.645500    -45.927132   1.000000   1.000000
  128      -49.645488    -45.927115   1.000000   1.000000
  129      -49.645448    -45.927101   1.000000   1.000000
  130      -49.645414    -45.927082   1.000000   1.000000
  131      -49.645403    -45.927073   1.000000   1.000000
  132      -49.645395    -45.927062   1.000000   1.000000
  133      -49.645392    -45.927024   1.000000   1.000000
  134      -49.645365    -45.927005   1.000000   1.000000
  135      -49.645360    -45.926996   1.000000   1.000000
  136      -49.645349    -45.926980   1.000000   1.000000
  137      -49.645318    -45.926963   1.000000   1.000000
  138      -49.645285    -45.926943   1.000000   1.000000
  139      -49.645273    -45.926935   1.000000   1.000000
  140      -49.645245    -45.926905   1.000000   1.000000
  141      -49.645238    -45.926842   1.000000   1.000000
  142      -49.645230    -45.926830   1.000000   1.000000
  143      -49.645199    -45.926802   1.000000   1.000000
  144      -49.645186    -45.926791   1.000000   1.000000
  145      -49.645170    -45.926773   1.000000   1.000000
  146      -49.645157    -45.926758   1.000000   1.000000
  147      -49.645136    -45.926743   1.000000   1.000000
  148      -49.645079    -45.926701   1.000000   1.000000
  149      -49.645048    -45.926634   1.000000   1.000000
  150      -49.645037    -45.926611   1.000000   1.000000
  151      -49.644960    -45.926583   1.000000   1.000000
  152      -49.644928    -45.926563   1.000000   1.000000
  153      -49.644914    -45.926555   1.000000   1.000000
  154      -49.644895    -45.926521   1.000000   1.000000
  155      -49.644774    -45.926512   1.000000   1.000000
  156      -49.644740    -45.926506   1.000000   1.000000
  157      -49.644713    -45.926490   1.000000   1.000000
  158      -49.644699    -45.926478   1.000000   1.000000
  159      -49.644637    -45.926435   1.000000   1.000000
  160      -49.644622    -45.926420   1.000000   1.000000
  161      -49.644604    -45.926398   1.000000   1.000000
  162      -49.644581    -45.926373   1.000000   1.000000
  163      -49.644544    -45.926361   1.000000   1.000000
  164      -49.644525    -45.926331   1.000000   1.000000
  165      -49.644477    -45.926323   1.000000   1.000000
  166      -49.644464    -45.926280   1.000000   1.000000
  167      -49.644456    -45.926253   1.000000   1.000000
  168      -49.644412    -45.926230   1.000000   1.000000
  169      -49.644386    -45.926207   1.000000   1.000000
  170      -49.644342    -45.926192   1.000000   1.000000
  171      -49.644269    -45.926181   1.000000   1.000000
  172      -49.644245    -45.926145   1.000000   1.000000
  173      -49.644191    -45.926129   1.000000   1.000000
  174      -49.644165    -45.926111   1.000000   1.000000
  175      -49.644112    -45.926091   1.000000   1.000000
  176      -49.644091    -45.926061   1.000000   1.000000
  177      -49.644051    -45.926012   1.000000   1.000000
  178      -49.644040    -45.925917   1.000000   1.000000
  179      -49.644010    -45.925845   1.000000   1.000000
  180      -49.644002    -45.925817   1.000000   1.000000
  181      -49.643988    -45.925769   1.000000   1.000000
  182      -49.643960    -45.925729   1.000000   1.000000
  183      -49.643806    -45.925709   1.000000   1.000000
  184      -49.643729    -45.925693   1.000000   1.000000
  185      -49.643606    -45.925669   1.000000   1.000000
  186      -49.643583    -45.925653   1.000000   1.000000
  187      -49.643493    -45.925529   1.000000   1.000000
  188      -49.643465    -45.925440   1.000000   1.000000
  189      -49.643379    -45.924812   1.000000   1.000000
  190      -49.643305    -45.924712   1.000000   1.000000
  191      -49.642650    -45.924085   1.000000   1.000000
  192      -49.642540    -45.923997   1.000000   1.000000
  193      -39.641201    -39.640284   1.000000   1.000000
  194      -39.641037    -39.640120   1.000000   1.000000
  195      -39.634373    -39.633500   1.000000   1.000000
  196      -39.633525    -39.632652   1.000000   1.000000
  197      -39.633425    -39.632552   1.000000   1.000000
  198      -39.633423    -39.632550   1.000000   1.000000
  199      -39.633416    -39.632543   1.000000   1.000000
  200      -39.633356    -39.632483   1.000000   1.000000
  201      -39.633353    -39.632480   1.000000   1.000000
  202      -39.632671    -39.631799   1.000000   1.000000
  203      -39.628240    -39.627402   1.000000   1.000000
  204      -39.628120    -39.627281   1.000000   1.000000
  205      -39.627795    -39.626957   1.000000   1.000000
  206      -39.627761    -39.626923   1.000000   1.000000
  207      -39.627758    -39.626920   1.000000   1.000000
  208      -39.627692    -39.626854   1.000000   1.000000
  209      -39.627434    -39.626597   1.000000   1.000000
  210      -39.627263    -39.626426   1.000000   1.000000
  211      -39.617458    -39.616684   1.000000   1.000000
  212      -39.616182    -39.615408   1.000000   1.000000
  213      -39.616031    -39.615254   1.000000   1.000000
  214      -39.615980    -39.615203   1.000000   1.000000
  215      -39.615857    -39.615081   1.000000   1.000000
  216      -39.615676    -39.614905   1.000000   1.000000
  217      -39.615608    -39.614828   1.000000   1.000000
  218      -39.615577    -39.614797   1.000000   1.000000
  219      -39.615535    -39.614755   1.000000   1.000000
  220      -39.615310    -39.614537   1.000000   1.000000
  221      -39.615212    -39.614445   1.000000   1.000000
  222      -39.615206    -39.614438   1.000000   1.000000
  223      -39.615165    -39.614398   1.000000   1.000000
  224      -39.615163    -39.614396   1.000000   1.000000
  225      -39.615150    -39.614383   1.000000   1.000000
  226      -39.615087    -39.614319   1.000000   1.000000
  227      -39.615004    -39.614235   1.000000   1.000000
  228      -39.614972    -39.614204   1.000000   1.000000
  229      -39.614971    -39.614202   1.000000   1.000000
  230      -39.614924    -39.614155   1.000000   1.000000
  231      -39.614923    -39.614154   1.000000   1.000000
  232      -39.614872    -39.614103   1.000000   1.000000
  233      -39.614658    -39.613894   1.000000   1.000000
  234      -39.614646    -39.613882   1.000000   1.000000
  235      -39.614359    -39.613602   1.000000   1.000000
  236      -39.614309    -39.613552   1.000000   1.000000
  237      -39.613878    -39.613114   1.000000   1.000000
  238      -39.613076    -39.612314   1.000000   1.000000
  239      -39.604230    -39.603510   1.000000   1.000000
  240      -39.604137    -39.603417   1.000000   1.000000
  241      -39.603869    -39.603151   1.000000   1.000000
  242      -39.603795    -39.603076   1.000000   1.000000
  243      -39.603792    -39.603073   1.000000   1.000000
  244      -39.603768    -39.603048   1.000000   1.000000
  245      -39.603540    -39.602822   1.000000   1.000000
  246      -39.603360    -39.602641   1.000000   1.000000
  247      -39.600191    -39.599485   1.000000   1.000000
  248      -39.599588    -39.598883   1.000000   1.000000
  249      -39.599586    -39.598880   1.000000   1.000000
  250      -39.599541    -39.598835   1.000000   1.000000
  251      -39.599521    -39.598815   1.000000   1.000000
  252      -39.599515    -39.598809   1.000000   1.000000
  253      -39.599409    -39.598703   1.000000   1.000000
  254      -39.598664    -39.597959   1.000000   1.000000
  255      -39.593292    -39.592609   1.000000   1.000000
  256      -39.593124    -39.592440   1.000000   1.000000
  257      -12.747494    -12.468049   1.000000   1.000000
  258      -12.747192    -12.467722   1.000000   1.000000
  259      -12.722426    -12.442847   1.000000   1.000000
  260      -12.719374    -12.439619   1.000000   1.000000
  261      -12.719359    -12.439605   1.000000   1.000000
  262      -12.719345    -12.439593   1.000000   1.000000
  263      -12.719320    -12.439568   1.000000   1.000000
  264      -12.719288    -12.439539   1.000000   1.000000
  265      -12.719274    -12.439525   1.000000   1.000000
  266      -12.717483    -12.437671   1.000000   1.000000
  267      -12.698770    -12.418936   1.000000   1.000000
  268      -12.696862    -12.416723   1.000000   1.000000
  269      -12.695984    -12.416192   1.000000   1.000000
  270      -12.694760    -12.415153   1.000000   1.000000
  271      -12.694746    -12.415139   1.000000   1.000000
  272      -12.694031    -12.414435   1.000000   1.000000
  273      -12.692959    -12.413733   1.000000   1.000000
  274      -12.692093    -12.412799   1.000000   1.000000
  275      -12.691667    -12.411817   1.000000   1.000000
  276      -12.691252    -12.411218   1.000000   1.000000
  277      -12.691247    -12.411213   1.000000   1.000000
  278      -12.688854    -12.408883   1.000000   1.000000
  279      -12.673736    -12.393802   1.000000   1.000000
  280      -12.672698    -12.392681   1.000000   1.000000
  281      -12.672651    -12.392636   1.000000   1.000000
  282      -12.671505    -12.391565   1.000000   1.000000
  283      -12.668404    -12.389483   1.000000   1.000000
  284      -12.667629    -12.388737   1.000000   1.000000
  285      -12.667581    -12.388693   1.000000   1.000000
  286      -12.665676    -12.386541   1.000000   1.000000
  287      -12.654329    -12.374362   1.000000   1.000000
  288      -12.643608    -12.365860   1.000000   1.000000
  289       -7.800024     -7.599025   1.000000   1.000000
  290       -7.748232     -7.551510   1.000000   1.000000
  291       -7.505515     -7.319259   1.000000   1.000000
  292       -7.505385     -7.319131   1.000000   1.000000
  293       -7.505325     -7.319072   1.000000   1.000000
  294       -7.505200     -7.318949   1.000000   1.000000
  295       -7.501087     -7.308942   1.000000   1.000000
  296       -7.500970     -7.308827   1.000000   1.000000
  297       -7.500901     -7.308760   1.000000   1.000000
  298       -7.500788     -7.308648   1.000000   1.000000
  299       -7.315186     -7.117732   1.000000   1.000000
  300       -7.315120     -7.117669   1.000000   1.000000
  301       -7.296869     -7.093582   1.000000   1.000000
  302       -7.296832     -7.093545   1.000000   1.000000
  303       -7.296789     -7.093510   1.000000   1.000000
  304       -7.296752     -7.093472   1.000000   1.000000
  305       -7.269267     -7.061966   1.000000   1.000000
  306       -7.269200     -7.061904   1.000000   1.000000
  307       -7.088624     -6.893890   1.000000   1.000000
  308       -7.084701     -6.893851   1.000000   1.000000
  309       -7.084662     -6.893834   1.000000   1.000000
  310       -7.084633     -6.893781   1.000000   1.000000
  311       -7.084579     -6.796722   1.000000   1.000000
  312       -7.046565     -6.783789   1.000000   1.000000
  313       -7.000000     -6.767952   1.000000   1.000000
  314       -6.999818     -6.767911   1.000000   1.000000
  315       -6.999814     -6.767894   1.000000   1.000000
  316       -6.999773     -6.767842   1.000000   1.000000
  317       -6.999763     -6.766316   1.000000   1.000000
  318       -6.999709     -6.766128   1.000000   1.000000
  319       -6.999702     -6.766124   1.000000   1.000000
  320       -6.999540     -6.766088   1.000000   1.000000
  321       -6.994321     -6.766081   1.000000   1.000000
  322       -6.994202     -6.766031   1.000000   1.000000
  323       -6.994135     -6.766026   1.000000   1.000000
  324       -6.994019     -6.765856   1.000000   1.000000
  325       -6.955810     -6.745023   1.000000   1.000000
  326       -6.955772     -6.744905   1.000000   1.000000
  327       -6.955743     -6.744841   1.000000   1.000000
  328       -6.955690     -6.744726   1.000000   1.000000
  329       -6.948351     -6.697482   1.000000   1.000000
  330       -6.948295     -6.697430   1.000000   1.000000
  331       -6.928761     -6.689214   1.000000   1.000000
  332       -6.928639     -6.689095   1.000000   1.000000
  333       -6.928578     -6.689036   1.000000   1.000000
  334       -6.928458     -6.688919   1.000000   1.000000
  335       -6.911320     -6.639268   1.000000   1.000000
  336       -6.911300     -6.639073   1.000000   1.000000
  337       -6.885677     -6.639067   1.000000   1.000000
  338       -6.885673     -6.639055   1.000000   1.000000
  339       -6.885612     -6.639025   1.000000   1.000000
  340       -6.885598     -6.638970   1.000000   1.000000
  341       -6.877039     -6.638967   1.000000   1.000000
  342       -6.876864     -6.638820   1.000000   1.000000
  343       -6.876859     -6.638416   1.000000   1.000000
  344       -6.876819     -6.638369   1.000000   1.000000
  345       -6.876802     -6.638348   1.000000   1.000000
  346       -6.876754     -6.638320   1.000000   1.000000
  347       -6.876748     -6.628083   1.000000   1.000000
  348       -6.876585     -6.628062   1.000000   1.000000
  349       -6.832627     -6.586663   1.000000   1.000000
  350       -6.832572     -6.586612   1.000000   1.000000
  351       -6.794275     -6.499095   1.000000   1.000000
  352       -6.794257     -6.499075   1.000000   1.000000
  353       -1.525534     -0.415102   1.000000   1.000000
  354       -1.468402     -0.414575   1.000000   1.000000
  355       -1.467703     -0.414451   1.000000   1.000000
  356       -1.467642     -0.413947   1.000000   1.000000
  357       -1.467081      0.025431   1.000000   1.000000
  358       -1.460810      0.026341   1.000000   1.000000
  359       -1.460328      0.026442   1.000000   1.000000
  360       -1.460190      0.026967   1.000000   1.000000
  361       -1.459629      0.036910   1.000000   1.000000
  362       -1.421728      0.037902   1.000000   1.000000
  363       -1.421012      0.037972   1.000000   1.000000
  364       -1.383435      0.038034   1.000000   1.000000
  365       -1.382790      0.038061   1.000000   1.000000
  366       -1.382760      0.038122   1.000000   1.000000
  367       -1.382136      0.038180   1.000000   1.000000
  368       -1.333696      0.039424   1.000000   1.000000
  369       -1.332582      0.102457   1.000000   1.000000
  370       -1.332547      0.103363   1.000000   1.000000
  371       -1.332519      0.206722   1.000000   1.000000
  372       -1.332470      0.207522   1.000000   1.000000
  373       -1.332450      0.207577   1.000000   1.000000
  374       -1.332439      0.208337   1.000000   1.000000
  375       -1.331314      0.304163   1.000000   1.000000
  376       -1.293057      0.391746   1.000000   1.000000
  377       -1.292514      0.392554   1.000000   1.000000
  378       -1.292449      0.392668   1.000000   1.000000
  379       -1.291852      0.393408   1.000000   1.000000
  380       -1.256801      0.490423   1.000000   1.000000
  381       -1.256773      0.491397   1.000000   1.000000
  382       -1.232484      0.497491   1.000000   1.000000
  383       -1.231836      0.497689   1.000000   1.000000
  384       -1.220363      0.497716   1.000000   1.000000
  385       -0.822870      0.497885   1.000000   1.000000
  386       -0.822744      0.510682   1.000000   1.000000
  387       -0.822654      0.510698   1.000000   1.000000
  388       -0.822521      0.531125   1.000000   1.000000
  389       -0.722785      0.531207   1.000000   1.000000
  390       -0.722521      0.531298   1.000000   1.000000
  391       -0.699195      0.531370   1.000000   1.000000
  392       -0.699120      0.574162   1.000000   1.000000
  393       -0.699069      0.574254   1.000000   1.000000
  394       -0.698788      0.574311   1.000000   1.000000
  395       -0.688509      0.574361   1.000000   1.000000
  396       -0.688442      0.574405   1.000000   1.000000
  397       -0.688181      0.574448   1.000000   1.000000
  398       -0.688112      0.574506   1.000000   1.000000
  399       -0.666916      0.574594   1.000000   1.000000
  400       -0.666513      0.638609   1.000000   1.000000
  401       -0.666394      0.666198   1.000000   1.000000
  402       -0.666374      0.666431   1.000000   1.000000
  403       -0.652089      0.733079   1.000000   1.000000
  404       -0.651875      0.733114   1.000000   1.000000
  405       -0.651791      0.931315   1.000000   1.000000
  406       -0.651685      0.932533   1.000000   1.000000
  407       -0.589577      0.935375   1.000000   1.000000
  408       -0.589248      0.935923   1.000000   1.000000
  409       -0.576887      0.948604   1.000000   1.000000
  410       -0.576635      0.948940   1.000000   1.000000
  411       -0.576455      0.949046   1.000000   1.000000
  412       -0.576207      0.949260   1.000000   1.000000
  413       -0.553397      0.985647   1.000000   1.000000
  414       -0.553390      0.986134   1.000000   1.000000
  415       -0.553205      0.986287   1.000000   1.000000
  416       -0.552836      0.986641   1.000000   1.000000
  417       -0.497637      0.992766   1.000000   1.000000
  418       -0.496868      0.992988   1.000000   1.000000
  419       -0.472910      1.008662   1.000000   1.000000
  420       -0.472681      1.008921   1.000000   1.000000
  421       -0.461577      1.008962   1.000000   1.000000
  422       -0.461542      1.009237   1.000000   1.000000
  423       -0.461305      1.018462   1.000000   1.000000
  424       -0.461090      1.048839   1.000000   1.000000
  425       -0.459783      1.049249   1.000000   1.000000
  426       -0.459780      1.051255   1.000000   1.000000
  427       -0.459474      1.051749   1.000000   1.000000
  428       -0.459261      1.051800   1.000000   1.000000
  429       -0.410281      1.052191   1.000000   1.000000
  430       -0.409780      1.078388   1.000000   1.000000
  431       -0.407885      1.078654   1.000000   1.000000
  432       -0.407600      1.078843   1.000000   1.000000
  433       -0.407562      1.079153   1.000000   1.000000
  434       -0.407392      1.079637   1.000000   1.000000
  435       -0.407278      1.079768   1.000000   1.000000
  436       -0.407024      1.079979   1.000000   1.000000
  437       -0.383293      1.080535   1.000000   1.000000
  438       -0.383247      1.192410   1.000000   1.000000
  439       -0.378170      1.193280   1.000000   1.000000
  440       -0.368845      1.376457   1.000000   1.000000
  441       -0.368827      1.390355   1.000000   1.000000
  442       -0.368727      1.391108   1.000000   1.000000
  443       -0.368709      1.391166   1.000000   1.000000
  444       -0.368674      1.391367   1.000000   1.000000
  445       -0.368652      1.391411   1.000000   1.000000
  446       -0.368587      1.437312   1.000000   1.000000
  447       -0.368550      1.450192   1.000000   1.000000
  448       -0.353557      1.525753   1.000000   1.000000
  449       -0.353516      1.526326   1.000000   1.000000
  450       -0.349037      1.526415   1.000000   1.000000
  451       -0.341789      1.526875   1.000000   1.000000
  452       -0.335806      1.528457   1.000000   1.000000
  453       -0.335768      1.528993   1.000000   1.000000
  454       -0.335403      1.529075   1.000000   1.000000
  455       -0.335356      1.529534   1.000000   1.000000
  456       -0.334216      1.558210   1.000000   1.000000
  457       -0.334164      1.558319   1.000000   1.000000
  458       -0.334087      1.558342   1.000000   1.000000
  459       -0.334034      1.558440   1.000000   1.000000
  460       -0.324495      1.566183   1.000000   1.000000
  461       -0.324046      1.566774   1.000000   1.000000
  462       -0.323853      1.566957   1.000000   1.000000
  463       -0.323847      1.567159   1.000000   1.000000
  464       -0.321867      1.567969   1.000000   1.000000
  465       -0.321388      1.568306   1.000000   1.000000
  466       -0.321187      1.568508   1.000000   1.000000
  467       -0.321185      1.568860   1.000000   1.000000
  468       -0.303844      1.586526   1.000000   1.000000
  469       -0.295896      1.586674   1.000000   1.000000
  470       -0.288103      1.695609   1.000000   1.000000
  471       -0.287888      1.695828   1.000000   1.000000
  472       -0.287787      1.740957   1.000000   1.000000
  473       -0.287630      1.741033   1.000000   1.000000
  474       -0.280381      1.741109   1.000000   1.000000
  475       -0.280377      1.741319   1.000000   1.000000
  476       -0.275133      1.746859   1.000000   1.000000
  477       -0.275069      1.746899   1.000000   1.000000
  478       -0.274816      1.746911   1.000000   1.000000
  479       -0.274746      1.746936   1.000000   1.000000
  480       -0.241701      1.779033   1.000000   1.000000
  481       -0.241611      1.780498   1.000000   1.000000
  482       -0.241585      1.780801   1.000000   1.000000
  483       -0.241559      1.836783   1.000000   1.000000
  484       -0.241385      1.836908   1.000000   1.000000
  485       -0.241372      1.837191   1.000000   1.000000
  486       -0.241353      1.837419   1.000000   1.000000
  487       -0.241226      1.837639   1.000000   1.000000
  488       -0.207406      1.837747   1.000000   1.000000
  489       -0.207393      1.838446   1.000000   1.000000
  490       -0.199698      1.838820   1.000000   1.000000
  491       -0.199659      1.866211   1.000000   1.000000
  492       -0.199485      1.866418   1.000000   1.000000
  493       -0.199426      1.912686   1.000000   1.000000
  494       -0.194115      1.913451   1.000000   1.000000
  495       -0.193901      1.913508   1.000000   1.000000
  496       -0.163965      1.913581   1.000000   1.000000
  497       -0.163954      1.913594   1.000000   1.000000
  498       -0.163841      1.913652   1.000000   1.000000
  499       -0.163659      1.913815   1.000000   1.000000
  500       -0.156672      1.914343   1.000000   1.000000
  501       -0.156651      1.926727   1.000000   1.000000
  502       -0.156308      1.926992   1.000000   1.000000
  503       -0.156034      1.927094   1.000000   1.000000
  504       -0.139133      1.927378   1.000000   1.000000
  505       -0.139027      2.133012   1.000000   1.000000
  506       -0.138835      2.133486   1.000000   1.000000
  507       -0.138728      2.191281   1.000000   1.000000
  508       -0.091113      2.193169   1.000000   1.000000
  509       -0.090814      2.300679   1.000000   1.000000
  510       -0.082791      2.300705   1.000000   1.000000
  511       -0.082483      2.301023   1.000000   1.000000
  512       -0.082465      2.301325   1.000000   1.000000