 320 320   0   0
  0.1216366E+02  0.1589065E-08  0.1589065E-08  0.1541455E-08  0.5000000E-15
  1.000000000000000E-004
  CAR 
 unknown system                          
     16.93659897    -54.72904943  301      5.02218492      1.00000000
    -54.729  0.0000E+00  0.0000E+00  0.0000E+00  0.0000E+00
    -54.490  0.0000E+00  0.0000E+00  0.0000E+00  0.0000E+00
    -54.251  0.0000E+00  0.0000E+00  0.0000E+00  0.0000E+00
    -54.012  0.0000E+00  0.0000E+00  0.0000E+00  0.0000E+00
    -53.774  0.0000E+00  0.0000E+00  0.0000E+00  0.0000E+00
    -53.535  0.0000E+00  0.0000E+00  0.0000E+00  0.0000E+00
    -53.296  0.0000E+00  0.0000E+00  0.0000E+00  0.0000E+00
    -53.057  0.0000E+00  0.0000E+00  0.0000E+00  0.0000E+00
    -52.818  0.0000E+00  0.0000E+00  0.0000E+00  0.0000E+00
    -52.579  0.0000E+00  0.0000E+00  0.0000E+00  0.0000E+00
    -52.340  0.0000E+00  0.0000E+00  0.0000E+00  0.0000E+00
    -52.101  0.0000E+00  0.0000E+00  0.0000E+00  0.0000E+00
    -51.862  0.0000E+00  0.0000E+00  0.0000E+00  0.0000E+00
    -51.624  0.1432E-02  0.0000E+00  0.3421E-03  0.0000E+00
    -51.385  0.2654E+03  0.0000E+00  0.6340E+02  0.0000E+00
    -51.146  0.2501E+01  0.0000E+00  0.6400E+02  0.0000E+00
    -50.907  0.0000E+00  0.0000E+00  0.6400E+02  0.0000E+00
    -50.668  0.0000E+00  0.0000E+00  0.6400E+02  0.0000E+00
    -50.429  0.0000E+00  0.0000E+00  0.6400E+02  0.0000E+00
    -50.190  0.3390E-01  0.0000E+00  0.6401E+02  0.0000E+00
    -49.951  0.5328E+03  0.0000E+00  0.1913E+03  0.0000E+00
    -49.712  0.2954E+01  0.0000E+00  0.1920E+03  0.0000E+00
    -49.474  0.0000E+00  0.0000E+00  0.1920E+03  0.0000E+00
    -49.235  0.0000E+00  0.0000E+00  0.1920E+03  0.0000E+00
    -48.996  0.0000E+00  0.0000E+00  0.1920E+03  0.0000E+00
    -48.757  0.0000E+00  0.0000E+00  0.1920E+03  0.0000E+00
    -48.518  0.0000E+00  0.0000E+00  0.1920E+03  0.0000E+00
    -48.279  0.0000E+00  0.0000E+00  0.1920E+03  0.0000E+00
    -48.040  0.0000E+00  0.0000E+00  0.1920E+03  0.0000E+00
    -47.801  0.0000E+00  0.0000E+00  0.1920E+03  0.0000E+00
    -47.562  0.0000E+00  0.0000E+00  0.1920E+03  0.0000E+00
    -47.324  0.0000E+00  0.0000E+00  0.1920E+03  0.0000E+00
    -47.085  0.0000E+00  0.0000E+00  0.1920E+03  0.0000E+00
    -46.846  0.0000E+00  0.9185E-01  0.1920E+03  0.2194E-01
    -46.607  0.0000E+00  0.2677E+03  0.1920E+03  0.6397E+02
    -46.368  0.0000E+00  0.1102E+03  0.1920E+03  0.9030E+02
    -46.129  0.0000E+00  0.4257E+03  0.1920E+03  0.1920E+03
    -45.890  0.0000E+00  0.0000E+00  0.1920E+03  0.1920E+03
    -45.651  0.0000E+00  0.0000E+00  0.1920E+03  0.1920E+03
    -45.413  0.0000E+00  0.0000E+00  0.1920E+03  0.1920E+03
    -45.174  0.0000E+00  0.0000E+00  0.1920E+03  0.1920E+03
    -44.935  0.0000E+00  0.0000E+00  0.1920E+03  0.1920E+03
    -44.696  0.0000E+00  0.0000E+00  0.1920E+03  0.1920E+03
    -44.457  0.0000E+00  0.0000E+00  0.1920E+03  0.1920E+03
    -44.218  0.0000E+00  0.0000E+00  0.1920E+03  0.1920E+03
    -43.979  0.0000E+00  0.0000E+00  0.1920E+03  0.1920E+03
    -43.740  0.0000E+00  0.0000E+00  0.1920E+03  0.1920E+03
    -43.501  0.0000E+00  0.0000E+00  0.1920E+03  0.1920E+03
    -43.263  0.0000E+00  0.0000E+00  0.1920E+03  0.1920E+03
    -43.024  0.0000E+00  0.0000E+00  0.1920E+03  0.1920E+03
    -42.785  0.0000E+00  0.0000E+00  0.1920E+03  0.1920E+03
    -42.546  0.0000E+00  0.0000E+00  0.1920E+03  0.1920E+03
    -42.307  0.0000E+00  0.0000E+00  0.1920E+03  0.1920E+03
    -42.068  0.0000E+00  0.0000E+00  0.1920E+03  0.1920E+03
    -41.829  0.0000E+00  0.0000E+00  0.1920E+03  0.1920E+03
    -41.590  0.0000E+00  0.0000E+00  0.1920E+03  0.1920E+03
    -41.351  0.0000E+00  0.0000E+00  0.1920E+03  0.1920E+03
    -41.113  0.0000E+00  0.0000E+00  0.1920E+03  0.1920E+03
    -40.874  0.0000E+00  0.0000E+00  0.1920E+03  0.1920E+03
    -40.635  0.5167E-10  0.3418E-10  0.1920E+03  0.1920E+03
    -40.396  0.8185E+02  0.7669E+02  0.2116E+03  0.2103E+03
    -40.157  0.4513E+03  0.4570E+03  0.3194E+03  0.3195E+03
    -39.918  0.2636E+01  0.2170E+01  0.3200E+03  0.3200E+03
    -39.679  0.0000E+00  0.0000E+00  0.3200E+03  0.3200E+03
    -39.440  0.0000E+00  0.0000E+00  0.3200E+03  0.3200E+03
    -39.201  0.0000E+00  0.0000E+00  0.3200E+03  0.3200E+03
    -38.963  0.0000E+00  0.0000E+00  0.3200E+03  0.3200E+03
    -38.724  0.0000E+00  0.0000E+00  0.3200E+03  0.3200E+03
    -38.485  0.0000E+00  0.0000E+00  0.3200E+03  0.3200E+03
    -38.246  0.0000E+00  0.0000E+00  0.3200E+03  0.3200E+03
    -38.007  0.0000E+00  0.0000E+00  0.3200E+03  0.3200E+03
    -37.768  0.0000E+00  0.0000E+00  0.3200E+03  0.3200E+03
    -37.529  0.0000E+00  0.0000E+00  0.3200E+03  0.3200E+03
    -37.290  0.0000E+00  0.0000E+00  0.3200E+03  0.3200E+03
    -37.052  0.0000E+00  0.0000E+00  0.3200E+03  0.3200E+03
    -36.813  0.0000E+00  0.0000E+00  0.3200E+03  0.3200E+03
    -36.574  0.0000E+00  0.0000E+00  0.3200E+03  0.3200E+03
    -36.335  0.0000E+00  0.0000E+00  0.3200E+03  0.3200E+03
    -36.096  0.0000E+00  0.0000E+00  0.3200E+03  0.3200E+03
    -35.857  0.0000E+00  0.0000E+00  0.3200E+03  0.3200E+03
    -35.618  0.0000E+00  0.0000E+00  0.3200E+03  0.3200E+03
    -35.379  0.0000E+00  0.0000E+00  0.3200E+03  0.3200E+03
    -35.140  0.0000E+00  0.0000E+00  0.3200E+03  0.3200E+03
    -34.902  0.0000E+00  0.0000E+00  0.3200E+03  0.3200E+03
    -34.663  0.0000E+00  0.0000E+00  0.3200E+03  0.3200E+03
    -34.424  0.0000E+00  0.0000E+00  0.3200E+03  0.3200E+03
    -34.185  0.0000E+00  0.0000E+00  0.3200E+03  0.3200E+03
    -33.946  0.0000E+00  0.0000E+00  0.3200E+03  0.3200E+03
    -33.707  0.0000E+00  0.0000E+00  0.3200E+03  0.3200E+03
    -33.468  0.0000E+00  0.0000E+00  0.3200E+03  0.3200E+03
    -33.229  0.0000E+00  0.0000E+00  0.3200E+03  0.3200E+03
    -32.990  0.0000E+00  0.0000E+00  0.3200E+03  0.3200E+03
    -32.752  0.0000E+00  0.0000E+00  0.3200E+03  0.3200E+03
    -32.513  0.0000E+00  0.0000E+00  0.3200E+03  0.3200E+03
    -32.274  0.0000E+00  0.0000E+00  0.3200E+03  0.3200E+03
    -32.035  0.0000E+00  0.0000E+00  0.3200E+03  0.3200E+03
    -31.796  0.0000E+00  0.0000E+00  0.3200E+03  0.3200E+03
    -31.557  0.0000E+00  0.0000E+00  0.3200E+03  0.3200E+03
    -31.318  0.0000E+00  0.0000E+00  0.3200E+03  0.3200E+03
    -31.079  0.0000E+00  0.0000E+00  0.3200E+03  0.3200E+03
    -30.840  0.0000E+00  0.0000E+00  0.3200E+03  0.3200E+03
    -30.602  0.0000E+00  0.0000E+00  0.3200E+03  0.3200E+03
    -30.363  0.0000E+00  0.0000E+00  0.3200E+03  0.3200E+03
    -30.124  0.0000E+00  0.0000E+00  0.3200E+03  0.3200E+03
    -29.885  0.0000E+00  0.0000E+00  0.3200E+03  0.3200E+03
    -29.646  0.0000E+00  0.0000E+00  0.3200E+03  0.3200E+03
    -29.407  0.0000E+00  0.0000E+00  0.3200E+03  0.3200E+03
    -29.168  0.0000E+00  0.0000E+00  0.3200E+03  0.3200E+03
    -28.929  0.0000E+00  0.0000E+00  0.3200E+03  0.3200E+03
    -28.691  0.0000E+00  0.0000E+00  0.3200E+03  0.3200E+03
    -28.452  0.0000E+00  0.0000E+00  0.3200E+03  0.3200E+03
    -28.213  0.0000E+00  0.0000E+00  0.3200E+03  0.3200E+03
    -27.974  0.0000E+00  0.0000E+00  0.3200E+03  0.3200E+03
    -27.735  0.0000E+00  0.0000E+00  0.3200E+03  0.3200E+03
    -27.496  0.0000E+00  0.0000E+00  0.3200E+03  0.3200E+03
    -27.257  0.0000E+00  0.0000E+00  0.3200E+03  0.3200E+03
    -27.018  0.0000E+00  0.0000E+00  0.3200E+03  0.3200E+03
    -26.779  0.0000E+00  0.0000E+00  0.3200E+03  0.3200E+03
    -26.541  0.0000E+00  0.0000E+00  0.3200E+03  0.3200E+03
    -26.302  0.0000E+00  0.0000E+00  0.3200E+03  0.3200E+03
    -26.063  0.0000E+00  0.0000E+00  0.3200E+03  0.3200E+03
    -25.824  0.0000E+00  0.0000E+00  0.3200E+03  0.3200E+03
    -25.585  0.0000E+00  0.0000E+00  0.3200E+03  0.3200E+03
    -25.346  0.0000E+00  0.0000E+00  0.3200E+03  0.3200E+03
    -25.107  0.0000E+00  0.0000E+00  0.3200E+03  0.3200E+03
    -24.868  0.0000E+00  0.0000E+00  0.3200E+03  0.3200E+03
    -24.629  0.0000E+00  0.0000E+00  0.3200E+03  0.3200E+03
    -24.391  0.0000E+00  0.0000E+00  0.3200E+03  0.3200E+03
    -24.152  0.0000E+00  0.0000E+00  0.3200E+03  0.3200E+03
    -23.913  0.0000E+00  0.0000E+00  0.3200E+03  0.3200E+03
    -23.674  0.0000E+00  0.0000E+00  0.3200E+03  0.3200E+03
    -23.435  0.0000E+00  0.0000E+00  0.3200E+03  0.3200E+03
    -23.196  0.0000E+00  0.0000E+00  0.3200E+03  0.3200E+03
    -22.957  0.0000E+00  0.0000E+00  0.3200E+03  0.3200E+03
    -22.718  0.0000E+00  0.0000E+00  0.3200E+03  0.3200E+03
    -22.480  0.0000E+00  0.0000E+00  0.3200E+03  0.3200E+03
    -22.241  0.0000E+00  0.0000E+00  0.3200E+03  0.3200E+03
    -22.002  0.0000E+00  0.0000E+00  0.3200E+03  0.3200E+03
    -21.763  0.0000E+00  0.0000E+00  0.3200E+03  0.3200E+03
    -21.524  0.0000E+00  0.0000E+00  0.3200E+03  0.3200E+03
    -21.285  0.0000E+00  0.0000E+00  0.3200E+03  0.3200E+03
    -21.046  0.0000E+00  0.0000E+00  0.3200E+03  0.3200E+03
    -20.807  0.0000E+00  0.0000E+00  0.3200E+03  0.3200E+03
    -20.568  0.0000E+00  0.0000E+00  0.3200E+03  0.3200E+03
    -20.330  0.0000E+00  0.0000E+00  0.3200E+03  0.3200E+03
    -20.091  0.0000E+00  0.0000E+00  0.3200E+03  0.3200E+03
    -19.852  0.0000E+00  0.0000E+00  0.3200E+03  0.3200E+03
    -19.613  0.0000E+00  0.0000E+00  0.3200E+03  0.3200E+03
    -19.374  0.0000E+00  0.0000E+00  0.3200E+03  0.3200E+03
    -19.135  0.0000E+00  0.0000E+00  0.3200E+03  0.3200E+03
    -18.896  0.0000E+00  0.0000E+00  0.3200E+03  0.3200E+03
    -18.657  0.0000E+00  0.0000E+00  0.3200E+03  0.3200E+03
    -18.418  0.0000E+00  0.0000E+00  0.3200E+03  0.3200E+03
    -18.180  0.0000E+00  0.0000E+00  0.3200E+03  0.3200E+03
    -17.941  0.0000E+00  0.0000E+00  0.3200E+03  0.3200E+03
    -17.702  0.0000E+00  0.0000E+00  0.3200E+03  0.3200E+03
    -17.463  0.0000E+00  0.0000E+00  0.3200E+03  0.3200E+03
    -17.224  0.0000E+00  0.0000E+00  0.3200E+03  0.3200E+03
    -16.985  0.0000E+00  0.0000E+00  0.3200E+03  0.3200E+03
    -16.746  0.0000E+00  0.0000E+00  0.3200E+03  0.3200E+03
    -16.507  0.0000E+00  0.0000E+00  0.3200E+03  0.3200E+03
    -16.268  0.0000E+00  0.0000E+00  0.3200E+03  0.3200E+03
    -16.030  0.0000E+00  0.0000E+00  0.3200E+03  0.3200E+03
    -15.791  0.0000E+00  0.0000E+00  0.3200E+03  0.3200E+03
    -15.552  0.0000E+00  0.0000E+00  0.3200E+03  0.3200E+03
    -15.313  0.0000E+00  0.0000E+00  0.3200E+03  0.3200E+03
    -15.074  0.0000E+00  0.0000E+00  0.3200E+03  0.3200E+03
    -14.835  0.0000E+00  0.0000E+00  0.3200E+03  0.3200E+03
    -14.596  0.0000E+00  0.0000E+00  0.3200E+03  0.3200E+03
    -14.357  0.0000E+00  0.0000E+00  0.3200E+03  0.3200E+03
    -14.119  0.0000E+00  0.0000E+00  0.3200E+03  0.3200E+03
    -13.880  0.6018E-08  0.0000E+00  0.3200E+03  0.3200E+03
    -13.641  0.2837E+02  0.0000E+00  0.3268E+03  0.3200E+03
    -13.402  0.1441E+03  0.5709E+00  0.3612E+03  0.3201E+03
    -13.163  0.9545E+02  0.1650E+03  0.3840E+03  0.3596E+03
    -12.924  0.1567E-01  0.1023E+03  0.3840E+03  0.3840E+03
    -12.685  0.0000E+00  0.1107E-02  0.3840E+03  0.3840E+03
    -12.446  0.0000E+00  0.0000E+00  0.3840E+03  0.3840E+03
    -12.207  0.0000E+00  0.0000E+00  0.3840E+03  0.3840E+03
    -11.969  0.0000E+00  0.0000E+00  0.3840E+03  0.3840E+03
    -11.730  0.0000E+00  0.0000E+00  0.3840E+03  0.3840E+03
    -11.491  0.0000E+00  0.0000E+00  0.3840E+03  0.3840E+03
    -11.252  0.0000E+00  0.0000E+00  0.3840E+03  0.3840E+03
    -11.013  0.0000E+00  0.0000E+00  0.3840E+03  0.3840E+03
    -10.774  0.0000E+00  0.0000E+00  0.3840E+03  0.3840E+03
    -10.535  0.0000E+00  0.0000E+00  0.3840E+03  0.3840E+03
    -10.296  0.0000E+00  0.0000E+00  0.3840E+03  0.3840E+03
    -10.057  0.0000E+00  0.0000E+00  0.3840E+03  0.3840E+03
     -9.819  0.0000E+00  0.0000E+00  0.3840E+03  0.3840E+03
     -9.580  0.0000E+00  0.0000E+00  0.3840E+03  0.3840E+03
     -9.341  0.0000E+00  0.0000E+00  0.3840E+03  0.3840E+03
     -9.102  0.0000E+00  0.0000E+00  0.3840E+03  0.3840E+03
     -8.863  0.0000E+00  0.0000E+00  0.3840E+03  0.3840E+03
     -8.624  0.0000E+00  0.0000E+00  0.3840E+03  0.3840E+03
     -8.385  0.0000E+00  0.0000E+00  0.3840E+03  0.3840E+03
     -8.146  0.0000E+00  0.0000E+00  0.3840E+03  0.3840E+03
     -7.907  0.0000E+00  0.0000E+00  0.3840E+03  0.3840E+03
     -7.669  0.8606E-04  0.0000E+00  0.3840E+03  0.3840E+03
     -7.430  0.2287E+02  0.4022E-02  0.3895E+03  0.3840E+03
     -7.191  0.1142E+03  0.5233E+02  0.4167E+03  0.3965E+03
     -6.952  0.1149E+03  0.1234E+03  0.4442E+03  0.4260E+03
     -6.713  0.1602E+02  0.8223E+02  0.4480E+03  0.4456E+03
     -6.474  0.5245E-04  0.9914E+01  0.4480E+03  0.4480E+03
     -6.235  0.0000E+00  0.3861E-04  0.4480E+03  0.4480E+03
     -5.996  0.0000E+00  0.0000E+00  0.4480E+03  0.4480E+03
     -5.758  0.0000E+00  0.0000E+00  0.4480E+03  0.4480E+03
     -5.519  0.0000E+00  0.0000E+00  0.4480E+03  0.4480E+03
     -5.280  0.0000E+00  0.0000E+00  0.4480E+03  0.4480E+03
     -5.041  0.0000E+00  0.0000E+00  0.4480E+03  0.4480E+03
     -4.802  0.0000E+00  0.0000E+00  0.4480E+03  0.4480E+03
     -4.563  0.0000E+00  0.0000E+00  0.4480E+03  0.4480E+03
     -4.324  0.0000E+00  0.0000E+00  0.4480E+03  0.4480E+03
     -4.085  0.0000E+00  0.0000E+00  0.4480E+03  0.4480E+03
     -3.846  0.0000E+00  0.0000E+00  0.4480E+03  0.4480E+03
     -3.608  0.0000E+00  0.0000E+00  0.4480E+03  0.4480E+03
     -3.369  0.0000E+00  0.0000E+00  0.4480E+03  0.4480E+03
     -3.130  0.0000E+00  0.0000E+00  0.4480E+03  0.4480E+03
     -2.891  0.1779E-06  0.0000E+00  0.4480E+03  0.4480E+03
     -2.652  0.2835E+02  0.0000E+00  0.4548E+03  0.4480E+03
     -2.413  0.5030E+02  0.0000E+00  0.4668E+03  0.4480E+03
     -2.174  0.2182E+02  0.0000E+00  0.4720E+03  0.4480E+03
     -1.935  0.7260E-06  0.0000E+00  0.4720E+03  0.4480E+03
     -1.696  0.4765E+02  0.0000E+00  0.4834E+03  0.4480E+03
     -1.458  0.2134E+02  0.0000E+00  0.4885E+03  0.4480E+03
     -1.219  0.1117E+03  0.4588E-03  0.5152E+03  0.4480E+03
     -0.980  0.1358E+03  0.1788E+02  0.5476E+03  0.4523E+03
     -0.741  0.1501E+03  0.7430E+02  0.5835E+03  0.4700E+03
     -0.502  0.1397E+03  0.1505E+02  0.6168E+03  0.4736E+03
     -0.263  0.1685E+03  0.5107E+02  0.6571E+03  0.4858E+03
     -0.024  0.1882E+03  0.1234E+02  0.7020E+03  0.4888E+03
      0.215  0.1126E+03  0.5586E+02  0.7289E+03  0.5021E+03
      0.453  0.1051E+03  0.1634E+03  0.7540E+03  0.5411E+03
      0.692  0.9871E+02  0.1500E+03  0.7776E+03  0.5770E+03
      0.931  0.9507E+02  0.2049E+03  0.8003E+03  0.6259E+03
      1.170  0.1222E+03  0.6070E+02  0.8295E+03  0.6404E+03
      1.409  0.1900E+03  0.2945E+02  0.8749E+03  0.6475E+03
      1.648  0.1685E+03  0.9456E+02  0.9152E+03  0.6700E+03
      1.887  0.5463E+02  0.8645E+02  0.9282E+03  0.6907E+03
      2.126  0.9695E+02  0.7645E+02  0.9514E+03  0.7090E+03
      2.365  0.6672E+02  0.5020E+02  0.9673E+03  0.7209E+03
      2.603  0.9404E+02  0.9679E+02  0.9898E+03  0.7441E+03
      2.842  0.1016E+03  0.1173E+03  0.1014E+04  0.7721E+03
      3.081  0.1068E+03  0.1516E+03  0.1040E+04  0.8083E+03
      3.320  0.1061E+03  0.7614E+02  0.1065E+04  0.8265E+03
      3.559  0.1003E+03  0.7138E+02  0.1089E+04  0.8435E+03
      3.798  0.9666E+02  0.1596E+03  0.1112E+04  0.8817E+03
      4.037  0.8414E+02  0.6001E+02  0.1132E+04  0.8960E+03
      4.276  0.4517E+02  0.6493E-02  0.1143E+04  0.8960E+03
      4.515  0.3491E+02  0.0000E+00  0.1151E+04  0.8960E+03
      4.753  0.3403E+01  0.0000E+00  0.1152E+04  0.8960E+03
      4.992  0.2773E-03  0.0000E+00  0.1152E+04  0.8960E+03
      5.231  0.0000E+00  0.0000E+00  0.1152E+04  0.8960E+03
      5.470  0.0000E+00  0.0000E+00  0.1152E+04  0.8960E+03
      5.709  0.0000E+00  0.0000E+00  0.1152E+04  0.8960E+03
      5.948  0.0000E+00  0.0000E+00  0.1152E+04  0.8960E+03
      6.187  0.0000E+00  0.0000E+00  0.1152E+04  0.8960E+03
      6.426  0.0000E+00  0.7600E-06  0.1152E+04  0.8960E+03
      6.665  0.0000E+00  0.1664E+02  0.1152E+04  0.9000E+03
      6.903  0.4764E-14  0.1349E+03  0.1152E+04  0.9322E+03
      7.142  0.9550E-01  0.1324E+03  0.1152E+04  0.9638E+03
      7.381  0.4278E+00  0.1347E+03  0.1152E+04  0.9960E+03
      7.620  0.2221E+01  0.1075E+03  0.1153E+04  0.1022E+04
      7.859  0.2127E+01  0.1614E+03  0.1153E+04  0.1060E+04
      8.098  0.7045E+01  0.1574E+03  0.1155E+04  0.1098E+04
      8.337  0.2026E+02  0.1366E+03  0.1160E+04  0.1130E+04
      8.576  0.3320E+02  0.7851E+02  0.1168E+04  0.1149E+04
      8.814  0.3331E+02  0.1923E+02  0.1176E+04  0.1154E+04
      9.053  0.4768E+02  0.1504E+02  0.1187E+04  0.1157E+04
      9.292  0.7535E+02  0.2022E+02  0.1205E+04  0.1162E+04
      9.531  0.5512E+02  0.3495E+02  0.1218E+04  0.1171E+04
      9.770  0.4925E+02  0.5730E+02  0.1230E+04  0.1184E+04
     10.009  0.3607E+02  0.8320E+02  0.1239E+04  0.1204E+04
     10.248  0.3821E+02  0.7207E+02  0.1248E+04  0.1221E+04
     10.487  0.7327E+02  0.6548E+02  0.1265E+04  0.1237E+04
     10.726  0.6532E+02  0.4180E+02  0.1281E+04  0.1247E+04
     10.964  0.6489E+02  0.8225E+02  0.1296E+04  0.1267E+04
     11.203  0.9894E+02  0.4490E+02  0.1320E+04  0.1277E+04
     11.442  0.1289E+03  0.4930E+02  0.1351E+04  0.1289E+04
     11.681  0.1176E+03  0.8997E+02  0.1379E+04  0.1311E+04
     11.920  0.8123E+02  0.1405E+03  0.1398E+04  0.1344E+04
     12.159  0.3543E+02  0.1488E+03  0.1407E+04  0.1380E+04
     12.398  0.6939E+02  0.6913E+02  0.1423E+04  0.1396E+04
     12.637  0.6367E+02  0.5136E+02  0.1438E+04  0.1409E+04
     12.876  0.6337E+02  0.5437E+02  0.1454E+04  0.1422E+04
     13.114  0.4791E+02  0.7904E+02  0.1465E+04  0.1440E+04
     13.353  0.1232E+02  0.5776E+02  0.1468E+04  0.1454E+04
     13.592  0.2332E+00  0.5307E+02  0.1468E+04  0.1467E+04
     13.831  0.0000E+00  0.4626E+01  0.1468E+04  0.1468E+04
     14.070  0.0000E+00  0.4474E-05  0.1468E+04  0.1468E+04
     14.309  0.0000E+00  0.0000E+00  0.1468E+04  0.1468E+04
     14.548  0.0000E+00  0.0000E+00  0.1468E+04  0.1468E+04
     14.787  0.0000E+00  0.0000E+00  0.1468E+04  0.1468E+04
     15.026  0.0000E+00  0.0000E+00  0.1468E+04  0.1468E+04
     15.264  0.0000E+00  0.0000E+00  0.1468E+04  0.1468E+04
     15.503  0.0000E+00  0.0000E+00  0.1468E+04  0.1468E+04
     15.742  0.0000E+00  0.0000E+00  0.1468E+04  0.1468E+04
     15.981  0.0000E+00  0.0000E+00  0.1468E+04  0.1468E+04
     16.220  0.0000E+00  0.0000E+00  0.1468E+04  0.1468E+04
     16.459  0.0000E+00  0.0000E+00  0.1468E+04  0.1468E+04
     16.698  0.0000E+00  0.0000E+00  0.1468E+04  0.1468E+04
     16.937  0.0000E+00  0.0000E+00  0.1468E+04  0.1468E+04
