  320  320    1    2
  0.1216366E+02  0.1589065E-08  0.1589065E-08  0.1541455E-08  0.5000000E-15
  1.000000000000000E-004
  CAR 
 unknown system                          
   2048      8   1468
 
  0.0000000E+00  0.0000000E+00  0.0000000E+00  0.1250000E+00
    1      -51.471519    -46.729837   1.000000   1.000000
    2      -51.469089    -46.727488   1.000000   1.000000
    3      -51.468834    -46.727251   1.000000   1.000000
    4      -51.468830    -46.727184   1.000000   1.000000
    5      -51.468820    -46.727172   1.000000   1.000000
    6      -51.468758    -46.727125   1.000000   1.000000
    7      -51.468713    -46.727037   1.000000   1.000000
    8      -51.468616    -46.727010   1.000000   1.000000
    9      -51.468607    -46.726978   1.000000   1.000000
   10      -51.468548    -46.726965   1.000000   1.000000
   11      -51.468543    -46.726942   1.000000   1.000000
   12      -51.468537    -46.726900   1.000000   1.000000
   13      -51.468484    -46.726887   1.000000   1.000000
   14      -51.468477    -46.726804   1.000000   1.000000
   15      -51.468443    -46.726742   1.000000   1.000000
   16      -51.468439    -46.726493   1.000000   1.000000
   17      -51.468352    -46.726327   1.000000   1.000000
   18      -51.468229    -46.726308   1.000000   1.000000
   19      -51.468097    -46.726223   1.000000   1.000000
   20      -51.468086    -46.726140   1.000000   1.000000
   21      -51.468078    -46.725980   1.000000   1.000000
   22      -51.468072    -46.725967   1.000000   1.000000
   23      -51.468061    -46.725964   1.000000   1.000000
   24      -51.468051    -46.725962   1.000000   1.000000
   25      -51.467977    -46.725863   1.000000   1.000000
   26      -51.467955    -46.725852   1.000000   1.000000
   27      -51.467894    -46.725778   1.000000   1.000000
   28      -51.467871    -46.725768   1.000000   1.000000
   29      -51.467869    -46.725765   1.000000   1.000000
   30      -51.467812    -46.725710   1.000000   1.000000
   31      -51.467811    -46.725705   1.000000   1.000000
   32      -51.467810    -46.725703   1.000000   1.000000
   33      -51.467805    -46.725695   1.000000   1.000000
   34      -51.467800    -46.725690   1.000000   1.000000
   35      -51.467798    -46.725689   1.000000   1.000000
   36      -51.467788    -46.725677   1.000000   1.000000
   37      -51.467739    -46.725630   1.000000   1.000000
   38      -51.467735    -46.725620   1.000000   1.000000
   39      -51.467714    -46.725607   1.000000   1.000000
   40      -51.467714    -46.725599   1.000000   1.000000
   41      -51.467701    -46.725567   1.000000   1.000000
   42      -51.467668    -46.725551   1.000000   1.000000
   43      -51.467663    -46.725538   1.000000   1.000000
   44      -51.467656    -46.725538   1.000000   1.000000
   45      -51.467498    -46.725228   1.000000   1.000000
   46      -51.467439    -46.725148   1.000000   1.000000
   47      -51.467360    -46.725070   1.000000   1.000000
   48      -51.467330    -46.724945   1.000000   1.000000
   49      -51.467318    -46.724894   1.000000   1.000000
   50      -51.467235    -46.724713   1.000000   1.000000
   51      -51.467224    -46.724605   1.000000   1.000000
   52      -51.467139    -46.724517   1.000000   1.000000
   53      -51.467092    -46.724479   1.000000   1.000000
   54      -51.467081    -46.724457   1.000000   1.000000
   55      -51.467069    -46.724444   1.000000   1.000000
   56      -51.467057    -46.724436   1.000000   1.000000
   57      -51.466975    -46.724360   1.000000   1.000000
   58      -51.466975    -46.724359   1.000000   1.000000
   59      -51.466927    -46.724352   1.000000   1.000000
   60      -51.466909    -46.724347   1.000000   1.000000
   61      -51.466902    -46.724304   1.000000   1.000000
   62      -51.466504    -46.723906   1.000000   1.000000
   63      -51.465926    -46.723903   1.000000   1.000000
   64      -51.465195    -46.722659   1.000000   1.000000
   65      -50.063745    -46.350653   1.000000   1.000000
   66      -50.061244    -46.347706   1.000000   1.000000
   67      -50.061186    -46.347650   1.000000   1.000000
   68      -50.061147    -46.347636   1.000000   1.000000
   69      -50.061146    -46.347599   1.000000   1.000000
   70      -50.060960    -46.347422   1.000000   1.000000
   71      -50.060899    -46.347351   1.000000   1.000000
   72      -50.060845    -46.347270   1.000000   1.000000
   73      -50.060844    -46.347247   1.000000   1.000000
   74      -50.060777    -46.347237   1.000000   1.000000
   75      -50.060770    -46.347193   1.000000   1.000000
   76      -50.060739    -46.347186   1.000000   1.000000
   77      -50.060731    -46.347180   1.000000   1.000000
   78      -50.060718    -46.347169   1.000000   1.000000
   79      -50.060703    -46.347144   1.000000   1.000000
   80      -50.060697    -46.347126   1.000000   1.000000
   81      -50.060669    -46.347111   1.000000   1.000000
   82      -50.060630    -46.347102   1.000000   1.000000
   83      -50.060623    -46.347056   1.000000   1.000000
   84      -50.060601    -46.347053   1.000000   1.000000
   85      -50.060583    -46.347045   1.000000   1.000000
   86      -50.060575    -46.347033   1.000000   1.000000
   87      -50.060571    -46.347022   1.000000   1.000000
   88      -50.060561    -46.347016   1.000000   1.000000
   89      -50.060557    -46.347015   1.000000   1.000000
   90      -50.060540    -46.346988   1.000000   1.000000
   91      -50.060534    -46.346982   1.000000   1.000000
   92      -50.060528    -46.346976   1.000000   1.000000
   93      -50.060516    -46.346963   1.000000   1.000000
   94      -50.060504    -46.346936   1.000000   1.000000
   95      -50.060498    -46.346934   1.000000   1.000000
   96      -50.060495    -46.346927   1.000000   1.000000
   97      -50.060492    -46.346921   1.000000   1.000000
   98      -50.060483    -46.346919   1.000000   1.000000
   99      -50.060470    -46.346903   1.000000   1.000000
  100      -50.060466    -46.346890   1.000000   1.000000
  101      -50.060432    -46.346867   1.000000   1.000000
  102      -50.060415    -46.346863   1.000000   1.000000
  103      -50.060402    -46.346846   1.000000   1.000000
  104      -50.060401    -46.346841   1.000000   1.000000
  105      -50.060399    -46.346832   1.000000   1.000000
  106      -50.060384    -46.346812   1.000000   1.000000
  107      -50.060372    -46.346807   1.000000   1.000000
  108      -50.060360    -46.346806   1.000000   1.000000
  109      -50.060349    -46.346802   1.000000   1.000000
  110      -50.060344    -46.346794   1.000000   1.000000
  111      -50.060332    -46.346781   1.000000   1.000000
  112      -50.060309    -46.346751   1.000000   1.000000
  113      -50.060305    -46.346741   1.000000   1.000000
  114      -50.060298    -46.346735   1.000000   1.000000
  115      -50.060281    -46.346723   1.000000   1.000000
  116      -50.060274    -46.346717   1.000000   1.000000
  117      -50.060266    -46.346708   1.000000   1.000000
  118      -50.060235    -46.346674   1.000000   1.000000
  119      -50.060188    -46.346613   1.000000   1.000000
  120      -50.060161    -46.346606   1.000000   1.000000
  121      -50.060160    -46.346593   1.000000   1.000000
  122      -50.060065    -46.346507   1.000000   1.000000
  123      -50.059850    -46.346271   1.000000   1.000000
  124      -50.059844    -46.346267   1.000000   1.000000
  125      -50.059779    -46.346215   1.000000   1.000000
  126      -50.059721    -46.346128   1.000000   1.000000
  127      -50.058723    -46.345003   1.000000   1.000000
  128      -50.058663    -46.344913   1.000000   1.000000
  129      -50.037309    -46.332881   1.000000   1.000000
  130      -50.034439    -46.330085   1.000000   1.000000
  131      -50.034354    -46.330017   1.000000   1.000000
  132      -50.034339    -46.329997   1.000000   1.000000
  133      -50.034295    -46.329929   1.000000   1.000000
  134      -50.034280    -46.329926   1.000000   1.000000
  135      -50.034162    -46.329917   1.000000   1.000000
  136      -50.034102    -46.329829   1.000000   1.000000
  137      -50.034027    -46.329780   1.000000   1.000000
  138      -50.033988    -46.329742   1.000000   1.000000
  139      -50.033969    -46.329708   1.000000   1.000000
  140      -50.033956    -46.329643   1.000000   1.000000
  141      -50.033928    -46.329629   1.000000   1.000000
  142      -50.033916    -46.329626   1.000000   1.000000
  143      -50.033908    -46.329605   1.000000   1.000000
  144      -50.033893    -46.329571   1.000000   1.000000
  145      -50.033872    -46.329524   1.000000   1.000000
  146      -50.033840    -46.329489   1.000000   1.000000
  147      -50.033806    -46.329452   1.000000   1.000000
  148      -50.033797    -46.329407   1.000000   1.000000
  149      -50.033743    -46.329396   1.000000   1.000000
  150      -50.033742    -46.329352   1.000000   1.000000
  151      -50.033727    -46.329327   1.000000   1.000000
  152      -50.033691    -46.329275   1.000000   1.000000
  153      -50.033679    -46.329269   1.000000   1.000000
  154      -50.033673    -46.329261   1.000000   1.000000
  155      -50.033665    -46.329238   1.000000   1.000000
  156      -50.033625    -46.329229   1.000000   1.000000
  157      -50.033612    -46.329217   1.000000   1.000000
  158      -50.033591    -46.329213   1.000000   1.000000
  159      -50.033567    -46.329146   1.000000   1.000000
  160      -50.033559    -46.329144   1.000000   1.000000
  161      -50.033553    -46.329144   1.000000   1.000000
  162      -50.033544    -46.329134   1.000000   1.000000
  163      -50.033540    -46.329131   1.000000   1.000000
  164      -50.033527    -46.329126   1.000000   1.000000
  165      -50.033515    -46.329109   1.000000   1.000000
  166      -50.033506    -46.329088   1.000000   1.000000
  167      -50.033487    -46.329068   1.000000   1.000000
  168      -50.033482    -46.329062   1.000000   1.000000
  169      -50.033482    -46.329054   1.000000   1.000000
  170      -50.033465    -46.329048   1.000000   1.000000
  171      -50.033463    -46.329001   1.000000   1.000000
  172      -50.033417    -46.328998   1.000000   1.000000
  173      -50.033406    -46.328958   1.000000   1.000000
  174      -50.033378    -46.328902   1.000000   1.000000
  175      -50.033332    -46.328873   1.000000   1.000000
  176      -50.033325    -46.328853   1.000000   1.000000
  177      -50.033323    -46.328784   1.000000   1.000000
  178      -50.033304    -46.328773   1.000000   1.000000
  179      -50.033257    -46.328722   1.000000   1.000000
  180      -50.033199    -46.328649   1.000000   1.000000
  181      -50.033193    -46.328638   1.000000   1.000000
  182      -50.033136    -46.328583   1.000000   1.000000
  183      -50.033105    -46.328578   1.000000   1.000000
  184      -50.033096    -46.328548   1.000000   1.000000
  185      -50.033040    -46.328520   1.000000   1.000000
  186      -50.032954    -46.328511   1.000000   1.000000
  187      -50.032926    -46.328409   1.000000   1.000000
  188      -50.032812    -46.328393   1.000000   1.000000
  189      -50.032775    -46.328324   1.000000   1.000000
  190      -50.032754    -46.328259   1.000000   1.000000
  191      -50.031584    -46.327175   1.000000   1.000000
  192      -50.031527    -46.327094   1.000000   1.000000
  193      -40.381585    -40.379669   1.000000   1.000000
  194      -40.380845    -40.378903   1.000000   1.000000
  195      -40.380280    -40.378331   1.000000   1.000000
  196      -40.380104    -40.378161   1.000000   1.000000
  197      -40.379964    -40.378030   1.000000   1.000000
  198      -40.379705    -40.377766   1.000000   1.000000
  199      -40.379626    -40.377646   1.000000   1.000000
  200      -40.379534    -40.377590   1.000000   1.000000
  201      -40.379464    -40.377531   1.000000   1.000000
  202      -40.379352    -40.377390   1.000000   1.000000
  203      -40.379262    -40.377302   1.000000   1.000000
  204      -40.379207    -40.377242   1.000000   1.000000
  205      -40.379106    -40.377105   1.000000   1.000000
  206      -40.378947    -40.376976   1.000000   1.000000
  207      -40.378906    -40.376925   1.000000   1.000000
  208      -40.378869    -40.376892   1.000000   1.000000
  209      -40.378851    -40.376884   1.000000   1.000000
  210      -40.378815    -40.376849   1.000000   1.000000
  211      -40.378669    -40.376697   1.000000   1.000000
  212      -40.378625    -40.376660   1.000000   1.000000
  213      -40.378329    -40.376364   1.000000   1.000000
  214      -40.378288    -40.376311   1.000000   1.000000
  215      -40.378204    -40.376225   1.000000   1.000000
  216      -40.378169    -40.376210   1.000000   1.000000
  217      -40.378088    -40.376117   1.000000   1.000000
  218      -40.378023    -40.376055   1.000000   1.000000
  219      -40.377968    -40.375999   1.000000   1.000000
  220      -40.377967    -40.375995   1.000000   1.000000
  221      -40.377944    -40.375969   1.000000   1.000000
  222      -40.377867    -40.375887   1.000000   1.000000
  223      -40.377862    -40.375878   1.000000   1.000000
  224      -40.377839    -40.375859   1.000000   1.000000
  225      -40.377837    -40.375858   1.000000   1.000000
  226      -40.377790    -40.375807   1.000000   1.000000
  227      -40.377689    -40.375705   1.000000   1.000000
  228      -40.377668    -40.375684   1.000000   1.000000
  229      -40.377610    -40.375634   1.000000   1.000000
  230      -40.377583    -40.375605   1.000000   1.000000
  231      -40.377564    -40.375586   1.000000   1.000000
  232      -40.377475    -40.375492   1.000000   1.000000
  233      -40.377353    -40.375370   1.000000   1.000000
  234      -40.377329    -40.375343   1.000000   1.000000
  235      -40.377240    -40.375250   1.000000   1.000000
  236      -40.377216    -40.375230   1.000000   1.000000
  237      -40.377126    -40.375136   1.000000   1.000000
  238      -40.377106    -40.375111   1.000000   1.000000
  239      -40.377034    -40.375049   1.000000   1.000000
  240      -40.376923    -40.374940   1.000000   1.000000
  241      -40.376885    -40.374893   1.000000   1.000000
  242      -40.376799    -40.374803   1.000000   1.000000
  243      -40.376742    -40.374754   1.000000   1.000000
  244      -40.376730    -40.374748   1.000000   1.000000
  245      -40.376686    -40.374702   1.000000   1.000000
  246      -40.376676    -40.374691   1.000000   1.000000
  247      -40.376642    -40.374652   1.000000   1.000000
  248      -40.376597    -40.374614   1.000000   1.000000
  249      -40.376570    -40.374584   1.000000   1.000000
  250      -40.376564    -40.374578   1.000000   1.000000
  251      -40.376466    -40.374479   1.000000   1.000000
  252      -40.376369    -40.374387   1.000000   1.000000
  253      -40.376363    -40.374380   1.000000   1.000000
  254      -40.376362    -40.374379   1.000000   1.000000
  255      -40.376129    -40.374142   1.000000   1.000000
  256      -40.373559    -40.371597   1.000000   1.000000
  257      -40.241419    -40.243970   1.000000   1.000000
  258      -40.241073    -40.243614   1.000000   1.000000
  259      -40.240740    -40.243314   1.000000   1.000000
  260      -40.240582    -40.243118   1.000000   1.000000
  261      -40.240559    -40.243113   1.000000   1.000000
  262      -40.240467    -40.243046   1.000000   1.000000
  263      -40.240304    -40.242873   1.000000   1.000000
  264      -40.240277    -40.242842   1.000000   1.000000
  265      -40.240251    -40.242787   1.000000   1.000000
  266      -40.240223    -40.242784   1.000000   1.000000
  267      -40.240110    -40.242668   1.000000   1.000000
  268      -40.240072    -40.242619   1.000000   1.000000
  269      -40.239999    -40.242564   1.000000   1.000000
  270      -40.239994    -40.242542   1.000000   1.000000
  271      -40.239979    -40.242531   1.000000   1.000000
  272      -40.239946    -40.242467   1.000000   1.000000
  273      -40.239900    -40.242431   1.000000   1.000000
  274      -40.239844    -40.242405   1.000000   1.000000
  275      -40.239836    -40.242392   1.000000   1.000000
  276      -40.239825    -40.242381   1.000000   1.000000
  277      -40.239776    -40.242347   1.000000   1.000000
  278      -40.239748    -40.242318   1.000000   1.000000
  279      -40.239723    -40.242296   1.000000   1.000000
  280      -40.239719    -40.242286   1.000000   1.000000
  281      -40.239693    -40.242269   1.000000   1.000000
  282      -40.239667    -40.242232   1.000000   1.000000
  283      -40.239647    -40.242213   1.000000   1.000000
  284      -40.239620    -40.242199   1.000000   1.000000
  285      -40.239604    -40.242163   1.000000   1.000000
  286      -40.239570    -40.242140   1.000000   1.000000
  287      -40.239536    -40.242095   1.000000   1.000000
  288      -40.239521    -40.242094   1.000000   1.000000
  289      -40.239518    -40.242060   1.000000   1.000000
  290      -40.239505    -40.242054   1.000000   1.000000
  291      -40.239504    -40.242048   1.000000   1.000000
  292      -40.239483    -40.242032   1.000000   1.000000
  293      -40.239476    -40.242019   1.000000   1.000000
  294      -40.239452    -40.241999   1.000000   1.000000
  295      -40.239447    -40.241984   1.000000   1.000000
  296      -40.239390    -40.241927   1.000000   1.000000
  297      -40.239387    -40.241913   1.000000   1.000000
  298      -40.239350    -40.241877   1.000000   1.000000
  299      -40.239328    -40.241860   1.000000   1.000000
  300      -40.239291    -40.241837   1.000000   1.000000
  301      -40.239281    -40.241803   1.000000   1.000000
  302      -40.239243    -40.241774   1.000000   1.000000
  303      -40.239177    -40.241703   1.000000   1.000000
  304      -40.239173    -40.241696   1.000000   1.000000
  305      -40.239083    -40.241612   1.000000   1.000000
  306      -40.238975    -40.241517   1.000000   1.000000
  307      -40.238938    -40.241477   1.000000   1.000000
  308      -40.238913    -40.241449   1.000000   1.000000
  309      -40.238814    -40.241338   1.000000   1.000000
  310      -40.238786    -40.241306   1.000000   1.000000
  311      -40.238754    -40.241273   1.000000   1.000000
  312      -40.238740    -40.241257   1.000000   1.000000
  313      -40.238702    -40.241219   1.000000   1.000000
  314      -40.238624    -40.241138   1.000000   1.000000
  315      -40.238522    -40.241035   1.000000   1.000000
  316      -40.238399    -40.240912   1.000000   1.000000
  317      -40.238357    -40.240868   1.000000   1.000000
  318      -40.238278    -40.240796   1.000000   1.000000
  319      -40.237961    -40.240474   1.000000   1.000000
  320      -40.237500    -40.240018   1.000000   1.000000
  321      -13.667818    -13.340169   1.000000   1.000000
  322      -13.667305    -13.339658   1.000000   1.000000
  323      -13.665066    -13.336255   1.000000   1.000000
  324      -13.664577    -13.335753   1.000000   1.000000
  325      -13.650129    -13.322699   1.000000   1.000000
  326      -13.649403    -13.322122   1.000000   1.000000
  327      -13.648919    -13.322045   1.000000   1.000000
  328      -13.648898    -13.321688   1.000000   1.000000
  329      -13.648482    -13.320869   1.000000   1.000000
  330      -13.645022    -13.316740   1.000000   1.000000
  331      -13.644612    -13.316300   1.000000   1.000000
  332      -13.644559    -13.316243   1.000000   1.000000
  333      -13.643963    -13.315668   1.000000   1.000000
  334      -13.624607    -13.296850   1.000000   1.000000
  335      -13.624101    -13.296338   1.000000   1.000000
  336      -13.598829    -13.272348   1.000000   1.000000
  337      -13.507824    -13.233875   1.000000   1.000000
  338      -13.507638    -13.233538   1.000000   1.000000
  339      -13.507604    -13.233524   1.000000   1.000000
  340      -13.507556    -13.233460   1.000000   1.000000
  341      -13.504476    -13.232614   1.000000   1.000000
  342      -13.503994    -13.232268   1.000000   1.000000
  343      -13.503963    -13.232232   1.000000   1.000000
  344      -13.503563    -13.231793   1.000000   1.000000
  345      -13.498820    -13.224699   1.000000   1.000000
  346      -13.498393    -13.224232   1.000000   1.000000
  347      -13.498375    -13.224230   1.000000   1.000000
  348      -13.497841    -13.223683   1.000000   1.000000
  349      -13.476753    -13.202647   1.000000   1.000000
  350      -13.475852    -13.201694   1.000000   1.000000
  351      -13.475832    -13.201694   1.000000   1.000000
  352      -13.475776    -13.201636   1.000000   1.000000
  353      -13.475767    -13.201625   1.000000   1.000000
  354      -13.475710    -13.201567   1.000000   1.000000
  355      -13.475692    -13.201566   1.000000   1.000000
  356      -13.474789    -13.200615   1.000000   1.000000
  357      -13.453620    -13.179508   1.000000   1.000000
  358      -13.453074    -13.178946   1.000000   1.000000
  359      -13.453054    -13.178945   1.000000   1.000000
  360      -13.452642    -13.178494   1.000000   1.000000
  361      -13.449011    -13.173482   1.000000   1.000000
  362      -13.448628    -13.173077   1.000000   1.000000
  363      -13.448613    -13.173071   1.000000   1.000000
  364      -13.448092    -13.172581   1.000000   1.000000
  365      -13.443787    -13.169611   1.000000   1.000000
  366      -13.443747    -13.169578   1.000000   1.000000
  367      -13.443717    -13.169560   1.000000   1.000000
  368      -13.443546    -13.169355   1.000000   1.000000
  369      -13.355932    -13.144068   1.000000   1.000000
  370      -13.320150    -13.107901   1.000000   1.000000
  371      -13.319645    -13.107387   1.000000   1.000000
  372      -13.294884    -13.082262   1.000000   1.000000
  373      -13.294313    -13.081711   1.000000   1.000000
  374      -13.294256    -13.081652   1.000000   1.000000
  375      -13.293814    -13.081176   1.000000   1.000000
  376      -13.288774    -13.073726   1.000000   1.000000
  377      -13.288359    -13.073313   1.000000   1.000000
  378      -13.288296    -13.073247   1.000000   1.000000
  379      -13.287761    -13.072752   1.000000   1.000000
  380      -13.283354    -13.070666   1.000000   1.000000
  381      -13.268767    -13.055792   1.000000   1.000000
  382      -13.268265    -13.055277   1.000000   1.000000
  383      -13.265703    -13.051538   1.000000   1.000000
  384      -13.265185    -13.051018   1.000000   1.000000
  385       -7.538684     -7.332727   1.000000   1.000000
  386       -7.469852     -7.287573   1.000000   1.000000
  387       -7.469563     -7.287281   1.000000   1.000000
  388       -7.469562     -7.287280   1.000000   1.000000
  389       -7.469284     -7.286998   1.000000   1.000000
  390       -7.404730     -7.245225   1.000000   1.000000
  391       -7.404719     -7.245220   1.000000   1.000000
  392       -7.395420     -7.218946   1.000000   1.000000
  393       -7.395405     -7.218931   1.000000   1.000000
  394       -7.356153     -7.188364   1.000000   1.000000
  395       -7.356133     -7.188355   1.000000   1.000000
  396       -7.355760     -7.187971   1.000000   1.000000
  397       -7.355757     -7.187967   1.000000   1.000000
  398       -7.351709     -7.166418   1.000000   1.000000
  399       -7.351472     -7.166166   1.000000   1.000000
  400       -7.351464     -7.166163   1.000000   1.000000
  401       -7.351237     -7.165929   1.000000   1.000000
  402       -7.315280     -7.117890   1.000000   1.000000
  403       -7.315274     -7.117840   1.000000   1.000000
  404       -7.277493     -7.116723   1.000000   1.000000
  405       -7.277261     -7.116510   1.000000   1.000000
  406       -7.277256     -7.116503   1.000000   1.000000
  407       -7.277009     -7.116236   1.000000   1.000000
  408       -7.237962     -7.092080   1.000000   1.000000
  409       -7.237686     -7.085374   1.000000   1.000000
  410       -7.237677     -7.085088   1.000000   1.000000
  411       -7.237397     -7.085087   1.000000   1.000000
  412       -7.233088     -7.084801   1.000000   1.000000
  413       -7.209532     -7.034517   1.000000   1.000000
  414       -7.209523     -7.034506   1.000000   1.000000
  415       -7.209225     -7.034199   1.000000   1.000000
  416       -7.209224     -7.034198   1.000000   1.000000
  417       -7.209142     -7.034119   1.000000   1.000000
  418       -7.209140     -7.034117   1.000000   1.000000
  419       -7.208841     -7.033811   1.000000   1.000000
  420       -7.208829     -7.033800   1.000000   1.000000
  421       -7.147437     -7.005129   1.000000   1.000000
  422       -7.147423     -7.005117   1.000000   1.000000
  423       -7.143219     -6.978903   1.000000   1.000000
  424       -7.142998     -6.978619   1.000000   1.000000
  425       -7.142971     -6.978617   1.000000   1.000000
  426       -7.142727     -6.978323   1.000000   1.000000
  427       -7.140885     -6.950840   1.000000   1.000000
  428       -7.140617     -6.950603   1.000000   1.000000
  429       -7.140596     -6.950600   1.000000   1.000000
  430       -7.140309     -6.950349   1.000000   1.000000
  431       -7.052331     -6.907018   1.000000   1.000000
  432       -7.052069     -6.889618   1.000000   1.000000
  433       -7.052062     -6.889369   1.000000   1.000000
  434       -7.051854     -6.889365   1.000000   1.000000
  435       -7.050832     -6.889127   1.000000   1.000000
  436       -7.046393     -6.862525   1.000000   1.000000
  437       -7.046389     -6.862521   1.000000   1.000000
  438       -7.046005     -6.862129   1.000000   1.000000
  439       -7.046002     -6.862125   1.000000   1.000000
  440       -7.042274     -6.856017   1.000000   1.000000
  441       -7.042273     -6.856014   1.000000   1.000000
  442       -6.950614     -6.764345   1.000000   1.000000
  443       -6.950602     -6.764340   1.000000   1.000000
  444       -6.946384     -6.737106   1.000000   1.000000
  445       -6.946112     -6.736819   1.000000   1.000000
  446       -6.946108     -6.736816   1.000000   1.000000
  447       -6.945811     -6.736523   1.000000   1.000000
  448       -6.844532     -6.608358   1.000000   1.000000
  449       -2.693894     -1.100150   1.000000   1.000000
  450       -2.693488     -1.099814   1.000000   1.000000
  451       -2.690753     -1.046856   1.000000   1.000000
  452       -2.690333     -1.046472   1.000000   1.000000
  453       -2.690024     -1.040392   1.000000   1.000000
  454       -2.689706     -1.040075   1.000000   1.000000
  455       -2.687714     -0.973389   1.000000   1.000000
  456       -2.687219     -0.973004   1.000000   1.000000
  457       -2.687034     -0.972928   1.000000   1.000000
  458       -2.687022     -0.972553   1.000000   1.000000
  459       -2.687007     -0.914782   1.000000   1.000000
  460       -2.686570     -0.914388   1.000000   1.000000
  461       -2.685633     -0.914307   1.000000   1.000000
  462       -2.685387     -0.913915   1.000000   1.000000
  463       -2.685375     -0.898484   1.000000   1.000000
  464       -2.684678     -0.898102   1.000000   1.000000
  465       -1.748843     -0.599834   1.000000   1.000000
  466       -1.748476     -0.599448   1.000000   1.000000
  467       -1.748364     -0.599436   1.000000   1.000000
  468       -1.748191     -0.599066   1.000000   1.000000
  469       -1.746670     -0.494437   1.000000   1.000000
  470       -1.746463     -0.494105   1.000000   1.000000
  471       -1.746348     -0.494082   1.000000   1.000000
  472       -1.746061     -0.493805   1.000000   1.000000
  473       -1.725545     -0.417144   1.000000   1.000000
  474       -1.725151     -0.416821   1.000000   1.000000
  475       -1.725141     -0.416816   1.000000   1.000000
  476       -1.724843     -0.416567   1.000000   1.000000
  477       -1.720179     -0.391810   1.000000   1.000000
  478       -1.719661     -0.391466   1.000000   1.000000
  479       -1.719525     -0.391447   1.000000   1.000000
  480       -1.719499     -0.391141   1.000000   1.000000
  481       -1.719492     -0.376394   1.000000   1.000000
  482       -1.719406     -0.376046   1.000000   1.000000
  483       -1.719318     -0.376017   1.000000   1.000000
  484       -1.718982     -0.375669   1.000000   1.000000
  485       -1.717958     -0.285968   1.000000   1.000000
  486       -1.717744     -0.285249   1.000000   1.000000
  487       -1.717699     -0.285225   1.000000   1.000000
  488       -1.717224     -0.285182   1.000000   1.000000
  489       -1.691129     -0.285180   1.000000   1.000000
  490       -1.690817     -0.285112   1.000000   1.000000
  491       -1.690695     -0.285104   1.000000   1.000000
  492       -1.690512     -0.284374   1.000000   1.000000
  493       -1.689020     -0.028482   1.000000   1.000000
  494       -1.688836     -0.028013   1.000000   1.000000
  495       -1.688708     -0.028013   1.000000   1.000000
  496       -1.688380     -0.027540   1.000000   1.000000
  497       -1.449108      0.029428   1.000000   1.000000
  498       -1.448878      0.029520   1.000000   1.000000
  499       -1.438583      0.046132   1.000000   1.000000
  500       -1.438307      0.046294   1.000000   1.000000
  501       -1.398276      0.186261   1.000000   1.000000
  502       -1.398012      0.186565   1.000000   1.000000
  503       -1.382679      0.186592   1.000000   1.000000
  504       -1.382374      0.186895   1.000000   1.000000
  505       -1.326616      0.211908   1.000000   1.000000
  506       -1.326322      0.212223   1.000000   1.000000
  507       -1.326272      0.262166   1.000000   1.000000
  508       -1.325985      0.262296   1.000000   1.000000
  509       -1.321102      0.262450   1.000000   1.000000
  510       -1.320839      0.262627   1.000000   1.000000
  511       -1.320764      0.284892   1.000000   1.000000
  512       -1.320510      0.284916   1.000000   1.000000