  88  88   0   0
  0.1431748E+02  0.1111223E-08  0.1111745E-08  0.1056954E-08  0.5000000E-15
  1.000000000000000E-004
  CAR 
 unknown system                          
     17.90554257    -54.33935258  301      5.20248184      1.00000000
    -54.339  0.0000E+00  0.0000E+00  0.0000E+00  0.0000E+00
    -54.099  0.0000E+00  0.0000E+00  0.0000E+00  0.0000E+00
    -53.858  0.0000E+00  0.0000E+00  0.0000E+00  0.0000E+00
    -53.617  0.0000E+00  0.0000E+00  0.0000E+00  0.0000E+00
    -53.376  0.0000E+00  0.0000E+00  0.0000E+00  0.0000E+00
    -53.135  0.0000E+00  0.0000E+00  0.0000E+00  0.0000E+00
    -52.894  0.0000E+00  0.0000E+00  0.0000E+00  0.0000E+00
    -52.654  0.0000E+00  0.0000E+00  0.0000E+00  0.0000E+00
    -52.413  0.0000E+00  0.0000E+00  0.0000E+00  0.0000E+00
    -52.172  0.0000E+00  0.0000E+00  0.0000E+00  0.0000E+00
    -51.931  0.0000E+00  0.0000E+00  0.0000E+00  0.0000E+00
    -51.690  0.0000E+00  0.0000E+00  0.0000E+00  0.0000E+00
    -51.450  0.0000E+00  0.0000E+00  0.0000E+00  0.0000E+00
    -51.209  0.4432E-03  0.0000E+00  0.1067E-03  0.0000E+00
    -50.968  0.1311E+03  0.0000E+00  0.3157E+02  0.0000E+00
    -50.727  0.1777E+01  0.0000E+00  0.3200E+02  0.0000E+00
    -50.486  0.0000E+00  0.0000E+00  0.3200E+02  0.0000E+00
    -50.245  0.0000E+00  0.0000E+00  0.3200E+02  0.0000E+00
    -50.005  0.0000E+00  0.0000E+00  0.3200E+02  0.0000E+00
    -49.764  0.2106E+01  0.0000E+00  0.3251E+02  0.0000E+00
    -49.523  0.2377E+03  0.0000E+00  0.8975E+02  0.0000E+00
    -49.282  0.2597E+02  0.0000E+00  0.9600E+02  0.0000E+00
    -49.041  0.0000E+00  0.0000E+00  0.9600E+02  0.0000E+00
    -48.801  0.0000E+00  0.0000E+00  0.9600E+02  0.0000E+00
    -48.560  0.0000E+00  0.0000E+00  0.9600E+02  0.0000E+00
    -48.319  0.0000E+00  0.0000E+00  0.9600E+02  0.0000E+00
    -48.078  0.0000E+00  0.0000E+00  0.9600E+02  0.0000E+00
    -47.837  0.0000E+00  0.0000E+00  0.9600E+02  0.0000E+00
    -47.596  0.0000E+00  0.0000E+00  0.9600E+02  0.0000E+00
    -47.356  0.0000E+00  0.0000E+00  0.9600E+02  0.0000E+00
    -47.115  0.0000E+00  0.0000E+00  0.9600E+02  0.0000E+00
    -46.874  0.0000E+00  0.0000E+00  0.9600E+02  0.0000E+00
    -46.633  0.0000E+00  0.0000E+00  0.9600E+02  0.0000E+00
    -46.392  0.0000E+00  0.4045E+00  0.9600E+02  0.9740E-01
    -46.152  0.0000E+00  0.1324E+03  0.9600E+02  0.3199E+02
    -45.911  0.0000E+00  0.6158E+02  0.9600E+02  0.4682E+02
    -45.670  0.0000E+00  0.2042E+03  0.9600E+02  0.9600E+02
    -45.429  0.0000E+00  0.0000E+00  0.9600E+02  0.9600E+02
    -45.188  0.0000E+00  0.0000E+00  0.9600E+02  0.9600E+02
    -44.948  0.0000E+00  0.0000E+00  0.9600E+02  0.9600E+02
    -44.707  0.0000E+00  0.0000E+00  0.9600E+02  0.9600E+02
    -44.466  0.0000E+00  0.0000E+00  0.9600E+02  0.9600E+02
    -44.225  0.0000E+00  0.0000E+00  0.9600E+02  0.9600E+02
    -43.984  0.0000E+00  0.0000E+00  0.9600E+02  0.9600E+02
    -43.743  0.0000E+00  0.0000E+00  0.9600E+02  0.9600E+02
    -43.503  0.0000E+00  0.0000E+00  0.9600E+02  0.9600E+02
    -43.262  0.0000E+00  0.0000E+00  0.9600E+02  0.9600E+02
    -43.021  0.0000E+00  0.0000E+00  0.9600E+02  0.9600E+02
    -42.780  0.0000E+00  0.0000E+00  0.9600E+02  0.9600E+02
    -42.539  0.0000E+00  0.0000E+00  0.9600E+02  0.9600E+02
    -42.299  0.0000E+00  0.0000E+00  0.9600E+02  0.9600E+02
    -42.058  0.0000E+00  0.0000E+00  0.9600E+02  0.9600E+02
    -41.817  0.0000E+00  0.0000E+00  0.9600E+02  0.9600E+02
    -41.576  0.0000E+00  0.0000E+00  0.9600E+02  0.9600E+02
    -41.335  0.0000E+00  0.0000E+00  0.9600E+02  0.9600E+02
    -41.094  0.0000E+00  0.0000E+00  0.9600E+02  0.9600E+02
    -40.854  0.0000E+00  0.0000E+00  0.9600E+02  0.9600E+02
    -40.613  0.0000E+00  0.0000E+00  0.9600E+02  0.9600E+02
    -40.372  0.0000E+00  0.0000E+00  0.9600E+02  0.9600E+02
    -40.131  0.1902E-11  0.1207E-11  0.9600E+02  0.9600E+02
    -39.890  0.1597E+02  0.1477E+02  0.9985E+02  0.9956E+02
    -39.650  0.5047E+02  0.5167E+02  0.1120E+03  0.1120E+03
    -39.409  0.0000E+00  0.0000E+00  0.1120E+03  0.1120E+03
    -39.168  0.0000E+00  0.0000E+00  0.1120E+03  0.1120E+03
    -38.927  0.0000E+00  0.0000E+00  0.1120E+03  0.1120E+03
    -38.686  0.0000E+00  0.0000E+00  0.1120E+03  0.1120E+03
    -38.445  0.0000E+00  0.0000E+00  0.1120E+03  0.1120E+03
    -38.205  0.0000E+00  0.0000E+00  0.1120E+03  0.1120E+03
    -37.964  0.0000E+00  0.0000E+00  0.1120E+03  0.1120E+03
    -37.723  0.0000E+00  0.0000E+00  0.1120E+03  0.1120E+03
    -37.482  0.0000E+00  0.0000E+00  0.1120E+03  0.1120E+03
    -37.241  0.0000E+00  0.0000E+00  0.1120E+03  0.1120E+03
    -37.001  0.0000E+00  0.0000E+00  0.1120E+03  0.1120E+03
    -36.760  0.0000E+00  0.0000E+00  0.1120E+03  0.1120E+03
    -36.519  0.0000E+00  0.0000E+00  0.1120E+03  0.1120E+03
    -36.278  0.0000E+00  0.0000E+00  0.1120E+03  0.1120E+03
    -36.037  0.0000E+00  0.0000E+00  0.1120E+03  0.1120E+03
    -35.796  0.0000E+00  0.0000E+00  0.1120E+03  0.1120E+03
    -35.556  0.0000E+00  0.0000E+00  0.1120E+03  0.1120E+03
    -35.315  0.0000E+00  0.0000E+00  0.1120E+03  0.1120E+03
    -35.074  0.0000E+00  0.0000E+00  0.1120E+03  0.1120E+03
    -34.833  0.0000E+00  0.0000E+00  0.1120E+03  0.1120E+03
    -34.592  0.0000E+00  0.0000E+00  0.1120E+03  0.1120E+03
    -34.352  0.0000E+00  0.0000E+00  0.1120E+03  0.1120E+03
    -34.111  0.0000E+00  0.0000E+00  0.1120E+03  0.1120E+03
    -33.870  0.0000E+00  0.0000E+00  0.1120E+03  0.1120E+03
    -33.629  0.0000E+00  0.0000E+00  0.1120E+03  0.1120E+03
    -33.388  0.0000E+00  0.0000E+00  0.1120E+03  0.1120E+03
    -33.148  0.0000E+00  0.0000E+00  0.1120E+03  0.1120E+03
    -32.907  0.0000E+00  0.0000E+00  0.1120E+03  0.1120E+03
    -32.666  0.0000E+00  0.0000E+00  0.1120E+03  0.1120E+03
    -32.425  0.0000E+00  0.0000E+00  0.1120E+03  0.1120E+03
    -32.184  0.0000E+00  0.0000E+00  0.1120E+03  0.1120E+03
    -31.943  0.0000E+00  0.0000E+00  0.1120E+03  0.1120E+03
    -31.703  0.0000E+00  0.0000E+00  0.1120E+03  0.1120E+03
    -31.462  0.0000E+00  0.0000E+00  0.1120E+03  0.1120E+03
    -31.221  0.0000E+00  0.0000E+00  0.1120E+03  0.1120E+03
    -30.980  0.0000E+00  0.0000E+00  0.1120E+03  0.1120E+03
    -30.739  0.0000E+00  0.0000E+00  0.1120E+03  0.1120E+03
    -30.499  0.0000E+00  0.0000E+00  0.1120E+03  0.1120E+03
    -30.258  0.0000E+00  0.0000E+00  0.1120E+03  0.1120E+03
    -30.017  0.0000E+00  0.0000E+00  0.1120E+03  0.1120E+03
    -29.776  0.0000E+00  0.0000E+00  0.1120E+03  0.1120E+03
    -29.535  0.0000E+00  0.0000E+00  0.1120E+03  0.1120E+03
    -29.294  0.0000E+00  0.0000E+00  0.1120E+03  0.1120E+03
    -29.054  0.0000E+00  0.0000E+00  0.1120E+03  0.1120E+03
    -28.813  0.0000E+00  0.0000E+00  0.1120E+03  0.1120E+03
    -28.572  0.0000E+00  0.0000E+00  0.1120E+03  0.1120E+03
    -28.331  0.0000E+00  0.0000E+00  0.1120E+03  0.1120E+03
    -28.090  0.0000E+00  0.0000E+00  0.1120E+03  0.1120E+03
    -27.850  0.0000E+00  0.0000E+00  0.1120E+03  0.1120E+03
    -27.609  0.0000E+00  0.0000E+00  0.1120E+03  0.1120E+03
    -27.368  0.0000E+00  0.0000E+00  0.1120E+03  0.1120E+03
    -27.127  0.0000E+00  0.0000E+00  0.1120E+03  0.1120E+03
    -26.886  0.0000E+00  0.0000E+00  0.1120E+03  0.1120E+03
    -26.645  0.0000E+00  0.0000E+00  0.1120E+03  0.1120E+03
    -26.405  0.0000E+00  0.0000E+00  0.1120E+03  0.1120E+03
    -26.164  0.0000E+00  0.0000E+00  0.1120E+03  0.1120E+03
    -25.923  0.0000E+00  0.0000E+00  0.1120E+03  0.1120E+03
    -25.682  0.0000E+00  0.0000E+00  0.1120E+03  0.1120E+03
    -25.441  0.0000E+00  0.0000E+00  0.1120E+03  0.1120E+03
    -25.201  0.0000E+00  0.0000E+00  0.1120E+03  0.1120E+03
    -24.960  0.0000E+00  0.0000E+00  0.1120E+03  0.1120E+03
    -24.719  0.0000E+00  0.0000E+00  0.1120E+03  0.1120E+03
    -24.478  0.0000E+00  0.0000E+00  0.1120E+03  0.1120E+03
    -24.237  0.0000E+00  0.0000E+00  0.1120E+03  0.1120E+03
    -23.996  0.0000E+00  0.0000E+00  0.1120E+03  0.1120E+03
    -23.756  0.0000E+00  0.0000E+00  0.1120E+03  0.1120E+03
    -23.515  0.0000E+00  0.0000E+00  0.1120E+03  0.1120E+03
    -23.274  0.0000E+00  0.0000E+00  0.1120E+03  0.1120E+03
    -23.033  0.0000E+00  0.0000E+00  0.1120E+03  0.1120E+03
    -22.792  0.0000E+00  0.0000E+00  0.1120E+03  0.1120E+03
    -22.552  0.0000E+00  0.0000E+00  0.1120E+03  0.1120E+03
    -22.311  0.0000E+00  0.0000E+00  0.1120E+03  0.1120E+03
    -22.070  0.0000E+00  0.0000E+00  0.1120E+03  0.1120E+03
    -21.829  0.0000E+00  0.0000E+00  0.1120E+03  0.1120E+03
    -21.588  0.0000E+00  0.0000E+00  0.1120E+03  0.1120E+03
    -21.348  0.0000E+00  0.0000E+00  0.1120E+03  0.1120E+03
    -21.107  0.0000E+00  0.0000E+00  0.1120E+03  0.1120E+03
    -20.866  0.0000E+00  0.0000E+00  0.1120E+03  0.1120E+03
    -20.625  0.0000E+00  0.0000E+00  0.1120E+03  0.1120E+03
    -20.384  0.0000E+00  0.0000E+00  0.1120E+03  0.1120E+03
    -20.143  0.0000E+00  0.0000E+00  0.1120E+03  0.1120E+03
    -19.903  0.0000E+00  0.0000E+00  0.1120E+03  0.1120E+03
    -19.662  0.0000E+00  0.0000E+00  0.1120E+03  0.1120E+03
    -19.421  0.0000E+00  0.0000E+00  0.1120E+03  0.1120E+03
    -19.180  0.0000E+00  0.0000E+00  0.1120E+03  0.1120E+03
    -18.939  0.0000E+00  0.0000E+00  0.1120E+03  0.1120E+03
    -18.699  0.0000E+00  0.0000E+00  0.1120E+03  0.1120E+03
    -18.458  0.0000E+00  0.0000E+00  0.1120E+03  0.1120E+03
    -18.217  0.0000E+00  0.0000E+00  0.1120E+03  0.1120E+03
    -17.976  0.0000E+00  0.0000E+00  0.1120E+03  0.1120E+03
    -17.735  0.0000E+00  0.0000E+00  0.1120E+03  0.1120E+03
    -17.494  0.0000E+00  0.0000E+00  0.1120E+03  0.1120E+03
    -17.254  0.0000E+00  0.0000E+00  0.1120E+03  0.1120E+03
    -17.013  0.0000E+00  0.0000E+00  0.1120E+03  0.1120E+03
    -16.772  0.0000E+00  0.0000E+00  0.1120E+03  0.1120E+03
    -16.531  0.0000E+00  0.0000E+00  0.1120E+03  0.1120E+03
    -16.290  0.0000E+00  0.0000E+00  0.1120E+03  0.1120E+03
    -16.050  0.0000E+00  0.0000E+00  0.1120E+03  0.1120E+03
    -15.809  0.0000E+00  0.0000E+00  0.1120E+03  0.1120E+03
    -15.568  0.0000E+00  0.0000E+00  0.1120E+03  0.1120E+03
    -15.327  0.0000E+00  0.0000E+00  0.1120E+03  0.1120E+03
    -15.086  0.0000E+00  0.0000E+00  0.1120E+03  0.1120E+03
    -14.845  0.0000E+00  0.0000E+00  0.1120E+03  0.1120E+03
    -14.605  0.0000E+00  0.0000E+00  0.1120E+03  0.1120E+03
    -14.364  0.0000E+00  0.0000E+00  0.1120E+03  0.1120E+03
    -14.123  0.0000E+00  0.0000E+00  0.1120E+03  0.1120E+03
    -13.882  0.0000E+00  0.0000E+00  0.1120E+03  0.1120E+03
    -13.641  0.0000E+00  0.0000E+00  0.1120E+03  0.1120E+03
    -13.401  0.6888E-06  0.0000E+00  0.1120E+03  0.1120E+03
    -13.160  0.1912E+02  0.0000E+00  0.1166E+03  0.1120E+03
    -12.919  0.4595E+02  0.8254E-02  0.1277E+03  0.1120E+03
    -12.678  0.1365E+01  0.4249E+02  0.1280E+03  0.1222E+03
    -12.437  0.0000E+00  0.2394E+02  0.1280E+03  0.1280E+03
    -12.196  0.0000E+00  0.0000E+00  0.1280E+03  0.1280E+03
    -11.956  0.0000E+00  0.0000E+00  0.1280E+03  0.1280E+03
    -11.715  0.0000E+00  0.0000E+00  0.1280E+03  0.1280E+03
    -11.474  0.0000E+00  0.0000E+00  0.1280E+03  0.1280E+03
    -11.233  0.0000E+00  0.0000E+00  0.1280E+03  0.1280E+03
    -10.992  0.0000E+00  0.0000E+00  0.1280E+03  0.1280E+03
    -10.752  0.0000E+00  0.0000E+00  0.1280E+03  0.1280E+03
    -10.511  0.0000E+00  0.0000E+00  0.1280E+03  0.1280E+03
    -10.270  0.0000E+00  0.0000E+00  0.1280E+03  0.1280E+03
    -10.029  0.0000E+00  0.0000E+00  0.1280E+03  0.1280E+03
     -9.788  0.0000E+00  0.0000E+00  0.1280E+03  0.1280E+03
     -9.548  0.0000E+00  0.0000E+00  0.1280E+03  0.1280E+03
     -9.307  0.0000E+00  0.0000E+00  0.1280E+03  0.1280E+03
     -9.066  0.0000E+00  0.0000E+00  0.1280E+03  0.1280E+03
     -8.825  0.0000E+00  0.0000E+00  0.1280E+03  0.1280E+03
     -8.584  0.0000E+00  0.0000E+00  0.1280E+03  0.1280E+03
     -8.343  0.0000E+00  0.0000E+00  0.1280E+03  0.1280E+03
     -8.103  0.0000E+00  0.0000E+00  0.1280E+03  0.1280E+03
     -7.862  0.7318E-10  0.0000E+00  0.1280E+03  0.1280E+03
     -7.621  0.5739E+00  0.1305E-10  0.1281E+03  0.1280E+03
     -7.380  0.1261E+02  0.5057E+00  0.1312E+03  0.1281E+03
     -7.139  0.3026E+02  0.1385E+02  0.1385E+03  0.1315E+03
     -6.899  0.3405E+02  0.2947E+02  0.1467E+03  0.1386E+03
     -6.658  0.2217E+02  0.2612E+02  0.1520E+03  0.1448E+03
     -6.417  0.2215E-04  0.2966E+02  0.1520E+03  0.1520E+03
     -6.176  0.0000E+00  0.5579E-01  0.1520E+03  0.1520E+03
     -5.935  0.0000E+00  0.0000E+00  0.1520E+03  0.1520E+03
     -5.694  0.0000E+00  0.0000E+00  0.1520E+03  0.1520E+03
     -5.454  0.0000E+00  0.0000E+00  0.1520E+03  0.1520E+03
     -5.213  0.0000E+00  0.0000E+00  0.1520E+03  0.1520E+03
     -4.972  0.0000E+00  0.0000E+00  0.1520E+03  0.1520E+03
     -4.731  0.0000E+00  0.0000E+00  0.1520E+03  0.1520E+03
     -4.490  0.0000E+00  0.0000E+00  0.1520E+03  0.1520E+03
     -4.250  0.0000E+00  0.0000E+00  0.1520E+03  0.1520E+03
     -4.009  0.0000E+00  0.0000E+00  0.1520E+03  0.1520E+03
     -3.768  0.0000E+00  0.0000E+00  0.1520E+03  0.1520E+03
     -3.527  0.0000E+00  0.0000E+00  0.1520E+03  0.1520E+03
     -3.286  0.0000E+00  0.0000E+00  0.1520E+03  0.1520E+03
     -3.045  0.0000E+00  0.0000E+00  0.1520E+03  0.1520E+03
     -2.805  0.0000E+00  0.0000E+00  0.1520E+03  0.1520E+03
     -2.564  0.0000E+00  0.0000E+00  0.1520E+03  0.1520E+03
     -2.323  0.0000E+00  0.0000E+00  0.1520E+03  0.1520E+03
     -2.082  0.2388E-04  0.0000E+00  0.1520E+03  0.1520E+03
     -1.841  0.1594E+02  0.0000E+00  0.1558E+03  0.1520E+03
     -1.601  0.1956E+02  0.0000E+00  0.1606E+03  0.1520E+03
     -1.360  0.1482E+02  0.0000E+00  0.1641E+03  0.1520E+03
     -1.119  0.1711E+02  0.0000E+00  0.1682E+03  0.1520E+03
     -0.878  0.4580E+02  0.0000E+00  0.1793E+03  0.1520E+03
     -0.637  0.5900E+02  0.8670E-06  0.1935E+03  0.1520E+03
     -0.396  0.3869E+02  0.4136E+01  0.2028E+03  0.1530E+03
     -0.156  0.6789E+02  0.2035E+02  0.2191E+03  0.1579E+03
      0.085  0.7374E+02  0.1224E+02  0.2369E+03  0.1608E+03
      0.326  0.7757E+02  0.1852E+02  0.2556E+03  0.1653E+03
      0.567  0.6984E+02  0.2955E+02  0.2724E+03  0.1724E+03
      0.808  0.5567E+02  0.3919E+02  0.2858E+03  0.1819E+03
      1.048  0.3642E+02  0.3732E+02  0.2946E+03  0.1908E+03
      1.289  0.3058E+02  0.3125E+02  0.3019E+03  0.1984E+03
      1.530  0.4507E+02  0.2072E+02  0.3128E+03  0.2034E+03
      1.771  0.4217E+02  0.2896E+02  0.3230E+03  0.2103E+03
      2.012  0.6885E+02  0.3687E+02  0.3395E+03  0.2192E+03
      2.252  0.5808E+02  0.2767E+02  0.3535E+03  0.2259E+03
      2.493  0.2678E+02  0.2701E+02  0.3600E+03  0.2324E+03
      2.734  0.4265E+02  0.3066E+02  0.3702E+03  0.2398E+03
      2.975  0.3026E+02  0.4435E+02  0.3775E+03  0.2504E+03
      3.216  0.8657E+01  0.4552E+02  0.3796E+03  0.2614E+03
      3.457  0.2784E+02  0.3227E+02  0.3863E+03  0.2692E+03
      3.697  0.2727E+02  0.1249E+02  0.3929E+03  0.2722E+03
      3.938  0.3089E+02  0.1763E+02  0.4003E+03  0.2764E+03
      4.179  0.3592E+02  0.5257E+02  0.4090E+03  0.2891E+03
      4.420  0.3636E+02  0.4480E+02  0.4177E+03  0.2999E+03
      4.661  0.3027E+02  0.1712E+02  0.4250E+03  0.3040E+03
      4.901  0.2581E+02  0.5283E-02  0.4312E+03  0.3040E+03
      5.142  0.3199E+01  0.0000E+00  0.4320E+03  0.3040E+03
      5.383  0.0000E+00  0.0000E+00  0.4320E+03  0.3040E+03
      5.624  0.0000E+00  0.0000E+00  0.4320E+03  0.3040E+03
      5.865  0.0000E+00  0.0000E+00  0.4320E+03  0.3040E+03
      6.106  0.0000E+00  0.3180E-09  0.4320E+03  0.3040E+03
      6.346  0.0000E+00  0.3932E+00  0.4320E+03  0.3041E+03
      6.587  0.0000E+00  0.4196E+01  0.4320E+03  0.3051E+03
      6.828  0.0000E+00  0.7846E+01  0.4320E+03  0.3070E+03
      7.069  0.5976E-15  0.1919E+02  0.4320E+03  0.3116E+03
      7.310  0.2589E-01  0.4413E+02  0.4320E+03  0.3222E+03
      7.550  0.1279E+00  0.5332E+02  0.4320E+03  0.3351E+03
      7.791  0.2417E+00  0.6335E+02  0.4321E+03  0.3503E+03
      8.032  0.7337E+00  0.6583E+02  0.4323E+03  0.3662E+03
      8.273  0.2109E+01  0.7006E+02  0.4328E+03  0.3831E+03
      8.514  0.2640E+01  0.5929E+02  0.4334E+03  0.3973E+03
      8.755  0.8885E+01  0.5865E+02  0.4356E+03  0.4115E+03
      8.995  0.1245E+02  0.4797E+02  0.4386E+03  0.4230E+03
      9.236  0.1309E+02  0.3000E+02  0.4417E+03  0.4302E+03
      9.477  0.1806E+02  0.8940E+01  0.4461E+03  0.4324E+03
      9.718  0.1628E+02  0.2998E+01  0.4500E+03  0.4331E+03
      9.959  0.1570E+02  0.8341E+01  0.4538E+03  0.4351E+03
     10.199  0.2248E+02  0.1864E+02  0.4592E+03  0.4396E+03
     10.440  0.1484E+02  0.1798E+02  0.4627E+03  0.4439E+03
     10.681  0.1534E+02  0.1716E+02  0.4664E+03  0.4481E+03
     10.922  0.1317E+02  0.2759E+02  0.4696E+03  0.4547E+03
     11.163  0.2061E+02  0.1897E+02  0.4746E+03  0.4593E+03
     11.404  0.2471E+02  0.2396E+02  0.4805E+03  0.4651E+03
     11.644  0.2729E+02  0.1487E+02  0.4871E+03  0.4686E+03
     11.885  0.2459E+02  0.1379E+02  0.4930E+03  0.4720E+03
     12.126  0.3355E+02  0.1601E+02  0.5011E+03  0.4758E+03
     12.367  0.1990E+02  0.3667E+02  0.5059E+03  0.4846E+03
     12.608  0.2305E+02  0.3269E+02  0.5114E+03  0.4925E+03
     12.848  0.2142E+02  0.2994E+02  0.5166E+03  0.4997E+03
     13.089  0.2032E+02  0.2026E+02  0.5215E+03  0.5046E+03
     13.330  0.2385E+02  0.2213E+02  0.5272E+03  0.5099E+03
     13.571  0.2438E+02  0.2723E+02  0.5331E+03  0.5165E+03
     13.812  0.1357E+02  0.2373E+02  0.5364E+03  0.5222E+03
     14.052  0.6737E+01  0.2630E+02  0.5380E+03  0.5285E+03
     14.293  0.1225E-02  0.1931E+02  0.5380E+03  0.5332E+03
     14.534  0.0000E+00  0.1688E+02  0.5380E+03  0.5373E+03
     14.775  0.0000E+00  0.3083E+01  0.5380E+03  0.5380E+03
     15.016  0.0000E+00  0.2247E-05  0.5380E+03  0.5380E+03
     15.257  0.0000E+00  0.0000E+00  0.5380E+03  0.5380E+03
     15.497  0.0000E+00  0.0000E+00  0.5380E+03  0.5380E+03
     15.738  0.0000E+00  0.0000E+00  0.5380E+03  0.5380E+03
     15.979  0.0000E+00  0.0000E+00  0.5380E+03  0.5380E+03
     16.220  0.0000E+00  0.0000E+00  0.5380E+03  0.5380E+03
     16.461  0.0000E+00  0.0000E+00  0.5380E+03  0.5380E+03
     16.701  0.0000E+00  0.0000E+00  0.5380E+03  0.5380E+03
     16.942  0.0000E+00  0.0000E+00  0.5380E+03  0.5380E+03
     17.183  0.0000E+00  0.0000E+00  0.5380E+03  0.5380E+03
     17.424  0.0000E+00  0.0000E+00  0.5380E+03  0.5380E+03
     17.665  0.0000E+00  0.0000E+00  0.5380E+03  0.5380E+03
     17.906  0.0000E+00  0.0000E+00  0.5380E+03  0.5380E+03
