   95   95   60    2
  0.1340737E+02  0.1119672E-08  0.1119672E-08  0.1055337E-08  0.5000000E-15
   1.0000000000000000E-004
  CAR 
 unknown system                          
    668      8    488

  0.1262379E-14  0.1262379E-14  0.1262379E-14  0.1250000E+00
    1      -51.734306    -46.987534   1.000000   1.000000
    2      -51.732966    -46.984935   1.000000   1.000000
    3      -51.717411    -46.975104   1.000000   1.000000
    4      -51.716102    -46.970986   1.000000   1.000000
    5      -51.712617    -46.967792   1.000000   1.000000
    6      -51.687490    -46.947211   1.000000   1.000000
    7      -51.678991    -46.941864   1.000000   1.000000
    8      -51.666351    -46.940419   1.000000   1.000000
    9      -51.626615    -46.935109   1.000000   1.000000
   10      -51.617568    -46.933369   1.000000   1.000000
   11      -51.615873    -46.931940   1.000000   1.000000
   12      -51.611433    -46.929435   1.000000   1.000000
   13      -51.608691    -46.922365   1.000000   1.000000
   14      -51.599622    -46.915791   1.000000   1.000000
   15      -51.584696    -46.855150   1.000000   1.000000
   16      -51.565982    -46.841109   1.000000   1.000000
   17      -51.555288    -46.840177   1.000000   1.000000
   18      -51.553195    -46.827228   1.000000   1.000000
   19      -51.551441    -46.818713   1.000000   1.000000
   20      -51.534361    -46.814840   1.000000   1.000000
   21      -51.532579    -46.813453   1.000000   1.000000
   22      -51.526706    -46.798455   1.000000   1.000000
   23      -51.524507    -46.791719   1.000000   1.000000
   24      -51.518482    -46.787772   1.000000   1.000000
   25      -50.306397    -46.531574   1.000000   1.000000
   26      -50.288112    -46.527032   1.000000   1.000000
   27      -50.282745    -46.525621   1.000000   1.000000
   28      -50.278901    -46.516074   1.000000   1.000000
   29      -50.275688    -46.512190   1.000000   1.000000
   30      -50.274628    -46.509437   1.000000   1.000000
   31      -50.210871    -46.508068   1.000000   1.000000
   32      -50.202197    -46.505725   1.000000   1.000000
   33      -50.200411    -46.489909   1.000000   1.000000
   34      -50.199970    -46.479167   1.000000   1.000000
   35      -50.170163    -46.475178   1.000000   1.000000
   36      -50.167717    -46.474171   1.000000   1.000000
   37      -50.163281    -46.472412   1.000000   1.000000
   38      -50.161973    -46.471424   1.000000   1.000000
   39      -50.154398    -46.466578   1.000000   1.000000
   40      -50.154054    -46.465609   1.000000   1.000000
   41      -50.151571    -46.463546   1.000000   1.000000
   42      -50.147078    -46.459278   1.000000   1.000000
   43      -50.145822    -46.458658   1.000000   1.000000
   44      -50.144272    -46.454706   1.000000   1.000000
   45      -50.139351    -46.448062   1.000000   1.000000
   46      -50.128620    -46.442448   1.000000   1.000000
   47      -50.127678    -46.442226   1.000000   1.000000
   48      -50.125191    -46.440453   1.000000   1.000000
   49      -50.124473    -46.438502   1.000000   1.000000
   50      -50.116635    -46.435441   1.000000   1.000000
   51      -50.110179    -46.432765   1.000000   1.000000
   52      -50.106252    -46.430794   1.000000   1.000000
   53      -50.102687    -46.422640   1.000000   1.000000
   54      -50.102549    -46.415890   1.000000   1.000000
   55      -50.100725    -46.414160   1.000000   1.000000
   56      -50.098004    -46.405061   1.000000   1.000000
   57      -50.097581    -46.404243   1.000000   1.000000
   58      -50.091869    -46.397721   1.000000   1.000000
   59      -50.090885    -46.397213   1.000000   1.000000
   60      -50.089131    -46.391514   1.000000   1.000000
   61      -50.083087    -46.389767   1.000000   1.000000
   62      -50.081463    -46.387375   1.000000   1.000000
   63      -50.078804    -46.381803   1.000000   1.000000
   64      -50.077591    -46.378837   1.000000   1.000000
   65      -50.071916    -46.376697   1.000000   1.000000
   66      -50.067021    -46.372440   1.000000   1.000000
   67      -50.065470    -46.367830   1.000000   1.000000
   68      -50.053764    -46.367405   1.000000   1.000000
   69      -50.048664    -46.360898   1.000000   1.000000
   70      -50.022597    -46.353181   1.000000   1.000000
   71      -50.021888    -46.352725   1.000000   1.000000
   72      -50.012249    -46.339832   1.000000   1.000000
   73      -40.613572    -40.607682   1.000000   1.000000
   74      -40.608064    -40.602201   1.000000   1.000000
   75      -40.598382    -40.592347   1.000000   1.000000
   76      -40.595515    -40.589162   1.000000   1.000000
   77      -40.573780    -40.568196   1.000000   1.000000
   78      -40.568588    -40.562137   1.000000   1.000000
   79      -40.563208    -40.557449   1.000000   1.000000
   80      -40.366732    -40.366776   1.000000   1.000000
   81      -40.321688    -40.321342   1.000000   1.000000
   82      -40.313188    -40.313444   1.000000   1.000000
   83      -40.311066    -40.310753   1.000000   1.000000
   84      -40.307625    -40.307776   1.000000   1.000000
   85      -40.272263    -40.272099   1.000000   1.000000
   86      -40.268717    -40.268588   1.000000   1.000000
   87      -40.181541    -40.183867   1.000000   1.000000
   88      -40.160769    -40.162720   1.000000   1.000000
   89      -40.135654    -40.137732   1.000000   1.000000
   90      -40.125076    -40.127205   1.000000   1.000000
   91      -40.120163    -40.122031   1.000000   1.000000
   92      -40.119517    -40.121974   1.000000   1.000000
   93      -40.099820    -40.101765   1.000000   1.000000
   94      -40.088755    -40.088254   1.000000   1.000000
   95      -40.085684    -40.087934   1.000000   1.000000
   96      -40.078059    -40.077387   1.000000   1.000000
   97      -40.075486    -40.074831   1.000000   1.000000
   98      -40.067060    -40.066453   1.000000   1.000000
   99      -40.061127    -40.060332   1.000000   1.000000
  100      -40.033031    -40.032463   1.000000   1.000000
  101      -40.031887    -40.029820   1.000000   1.000000
  102      -40.026033    -40.025479   1.000000   1.000000
  103      -39.950017    -39.949498   1.000000   1.000000
  104      -13.849907    -13.484913   1.000000   1.000000
  105      -13.820136    -13.452058   1.000000   1.000000
  106      -13.708859    -13.386813   1.000000   1.000000
  107      -13.706085    -13.384111   1.000000   1.000000
  108      -13.684119    -13.361364   1.000000   1.000000
  109      -13.672173    -13.345113   1.000000   1.000000
  110      -13.557788    -13.284134   1.000000   1.000000
  111      -13.528494    -13.252105   1.000000   1.000000
  112      -13.378420    -13.130886   1.000000   1.000000
  113      -13.255914    -13.033396   1.000000   1.000000
  114      -13.235635    -13.024818   1.000000   1.000000
  115      -13.227115    -13.017747   1.000000   1.000000
  116      -13.125966    -12.931901   1.000000   1.000000
  117      -13.075469    -12.923362   1.000000   1.000000
  118      -13.074662    -12.887800   1.000000   1.000000
  119      -12.869384    -12.669815   1.000000   1.000000
  120       -7.894178     -7.709453   1.000000   1.000000
  121       -7.654881     -7.495130   1.000000   1.000000
  122       -7.648156     -7.484200   1.000000   1.000000
  123       -7.635229     -7.469211   1.000000   1.000000
  124       -7.503565     -7.345093   1.000000   1.000000
  125       -7.483092     -7.328825   1.000000   1.000000
  126       -7.460565     -7.313114   1.000000   1.000000
  127       -7.433436     -7.292398   1.000000   1.000000
  128       -7.415748     -7.219551   1.000000   1.000000
  129       -7.365799     -7.204903   1.000000   1.000000
  130       -7.357779     -7.192577   1.000000   1.000000
  131       -7.329794     -7.180473   1.000000   1.000000
  132       -7.320173     -7.131154   1.000000   1.000000
  133       -7.270096     -7.092377   1.000000   1.000000
  134       -7.261242     -7.086992   1.000000   1.000000
  135       -7.227233     -7.079356   1.000000   1.000000
  136       -7.216644     -7.054350   1.000000   1.000000
  137       -7.204846     -7.047637   1.000000   1.000000
  138       -7.177153     -7.030762   1.000000   1.000000
  139       -7.168292     -6.987627   1.000000   1.000000
  140       -7.143911     -6.962410   1.000000   1.000000
  141       -7.133812     -6.940026   1.000000   1.000000
  142       -7.113565     -6.921339   1.000000   1.000000
  143       -6.975440     -6.775434   1.000000   1.000000
  144       -2.716551     -1.265301   1.000000   1.000000
  145       -2.679977     -1.021937   1.000000   1.000000
  146       -2.398832     -0.909877   1.000000   1.000000
  147       -2.261640     -0.591515   1.000000   1.000000
  148       -1.973764     -0.516838   1.000000   1.000000
  149       -1.962825     -0.514370   1.000000   1.000000
  150       -1.924193     -0.458235   1.000000   1.000000
  151       -1.923147     -0.456731   1.000000   1.000000
  152       -1.890284     -0.351589   1.000000   1.000000
  153       -1.812951     -0.325698   1.000000   1.000000
  154       -1.587208     -0.248393   1.000000   1.000000
  155       -1.586385     -0.235833   1.000000   1.000000
  156       -1.566101     -0.192906   1.000000   1.000000
  157       -1.536716     -0.152985   1.000000   1.000000
  158       -1.527405     -0.101971   1.000000   1.000000
  159       -1.491907     -0.086125   1.000000   1.000000
  160       -1.484187     -0.044220   1.000000   1.000000
  161       -1.476306     -0.027763   1.000000   1.000000
  162       -1.459105      0.057361   1.000000   1.000000
  163       -1.448679      0.108844   1.000000   1.000000
  164       -1.437066      0.110591   1.000000   1.000000
  165       -1.303877      0.118449   1.000000   1.000000
  166       -1.224585      0.236735   1.000000   1.000000
  167       -1.222368      0.345357   1.000000   1.000000
  168       -1.216366      0.368756   1.000000   1.000000
  169       -1.190275      0.400444   1.000000   1.000000
  170       -1.180513      0.404437   1.000000   1.000000
  171       -1.149286      0.409357   1.000000   1.000000
  172       -1.112248      0.437572   1.000000   1.000000
  173       -1.091319      0.451432   1.000000   1.000000
  174       -1.089692      0.586260   1.000000   1.000000
  175       -1.061921      0.602627   1.000000   1.000000
  176       -1.039455      0.624441   1.000000   1.000000
  177       -0.982477      0.638622   1.000000   1.000000
  178       -0.967182      0.652680   1.000000   1.000000
  179       -0.932255      0.705803   1.000000   1.000000
  180       -0.929126      0.778882   1.000000   1.000000
  181       -0.923194      0.780836   1.000000   1.000000
  182       -0.915843      0.808201   1.000000   1.000000
  183       -0.864346      0.840057   1.000000   1.000000
  184       -0.862539      0.850646   1.000000   1.000000
  185       -0.851795      0.854839   1.000000   1.000000
  186       -0.843320      0.886806   1.000000   1.000000
  187       -0.805669      0.891533   1.000000   1.000000
  188       -0.792870      0.900947   1.000000   1.000000
  189       -0.787643      0.951387   1.000000   1.000000
  190       -0.783945      0.968066   1.000000   1.000000
  191       -0.778092      0.989182   1.000000   1.000000
  192       -0.767223      1.040118   1.000000   1.000000
  193       -0.763888      1.062155   1.000000   1.000000
  194       -0.719259      1.107626   1.000000   1.000000
  195       -0.714305      1.171118   1.000000   1.000000
  196       -0.710803      1.185737   1.000000   1.000000
  197       -0.653910      1.197845   1.000000   1.000000
  198       -0.617079      1.208024   1.000000   1.000000
  199       -0.608226      1.235960   1.000000   1.000000
  200       -0.595451      1.255235   1.000000   1.000000
  201       -0.586617      1.279076   1.000000   1.000000
  202       -0.581179      1.286763   1.000000   1.000000
  203       -0.575145      1.303032   1.000000   1.000000
  204       -0.569783      1.404769   1.000000   1.000000
  205       -0.546430      1.454073   1.000000   1.000000
  206       -0.531060      1.469055   1.000000   1.000000
  207       -0.513754      1.497912   1.000000   1.000000
  208       -0.467546      1.575967   1.000000   1.000000
  209       -0.456924      1.588103   1.000000   1.000000
  210       -0.437140      1.673366   1.000000   1.000000
  211       -0.401788      1.684308   1.000000   1.000000
  212       -0.383776      1.711069   1.000000   1.000000
  213       -0.367291      1.721666   1.000000   1.000000
  214       -0.341690      1.773314   1.000000   1.000000
  215       -0.333174      1.806338   1.000000   1.000000
  216       -0.318240      1.828825   1.000000   1.000000
  217       -0.311377      1.839159   1.000000   1.000000
  218       -0.294362      1.922647   1.000000   1.000000
  219       -0.293649      1.974004   1.000000   1.000000
  220       -0.273566      1.982547   1.000000   1.000000
  221       -0.255777      2.116176   1.000000   1.000000
  222       -0.247915      2.142701   1.000000   1.000000
  223       -0.213736      2.191223   1.000000   1.000000
  224       -0.210852      2.247723   1.000000   1.000000
  225       -0.190816      2.262978   1.000000   1.000000
  226       -0.176652      2.315655   1.000000   1.000000
  227       -0.170200      2.326102   1.000000   1.000000
  228       -0.161031      2.341195   1.000000   1.000000
  229       -0.154516      2.382173   1.000000   1.000000
  230       -0.141802      2.408150   1.000000   1.000000
  231       -0.139418      2.484116   1.000000   1.000000
  232       -0.130855      2.545188   1.000000   1.000000
  233       -0.129867      2.575072   1.000000   1.000000
  234       -0.104650      2.604423   1.000000   1.000000
  235       -0.094008      2.628280   1.000000   1.000000
  236       -0.081198      2.659696   1.000000   1.000000
  237       -0.076501      2.672807   1.000000   1.000000
  238       -0.006671      2.720265   1.000000   1.000000
  239        0.102133      2.731356   1.000000   1.000000
  240        0.136833      2.759577   1.000000   1.000000
  241        0.150210      2.774714   1.000000   1.000000
  242        0.164048      2.796865   1.000000   1.000000
  243        0.208930      2.823965   1.000000   1.000000
  244        0.310462      2.841398   1.000000   1.000000
  245        0.330748      2.850855   1.000000   1.000000
  246        0.339200      2.853077   1.000000   1.000000
  247        0.352680      2.872407   1.000000   1.000000
  248        0.390750      2.885690   1.000000   1.000000
  249        0.395718      2.911714   1.000000   1.000000
  250        0.409488      2.919055   1.000000   1.000000
  251        0.420133      2.928848   1.000000   1.000000
  252        0.444433      2.957202   1.000000   1.000000
  253        0.472201      2.977174   1.000000   1.000000
  254        0.487947      3.026523   1.000000   1.000000
  255        0.522097      3.072742   1.000000   1.000000
  256        0.528018      3.077603   1.000000   1.000000
  257        0.680120      3.160812   1.000000   1.000000
  258        0.683089      3.167985   1.000000   1.000000
  259        0.701160      3.213169   1.000000   1.000000
  260        0.711224      3.238029   1.000000   1.000000
  261        0.727178      3.240448   1.000000   1.000000
  262        0.731868      3.315866   1.000000   1.000000
  263        0.780137      3.343863   1.000000   1.000000
  264        0.784782      3.440404   1.000000   1.000000
  265        0.855441      3.481741   1.000000   1.000000
  266        0.871375      3.516091   1.000000   1.000000
  267        0.896599      3.525021   1.000000   1.000000
  268        0.906264      3.562434   1.000000   1.000000
  269        0.914499      3.571010   1.000000   1.000000
  270        0.923834      3.592587   1.000000   1.000000
  271        0.944303      3.606909   1.000000   1.000000
  272        0.957045      3.613646   1.000000   1.000000
  273        1.007658      3.630562   1.000000   1.000000
  274        1.010744      3.649566   1.000000   1.000000
  275        1.055510      3.653110   1.000000   1.000000
  276        1.093894      3.676956   1.000000   1.000000
  277        1.108131      3.690092   1.000000   1.000000
  278        1.132161      3.714572   1.000000   1.000000
  279        1.190903      3.720168   1.000000   1.000000
  280        1.210683      3.737143   1.000000   1.000000
  281        1.251051      3.766183   1.000000   1.000000
  282        1.279556      3.771400   1.000000   1.000000
  283        1.299809      3.777471   1.000000   1.000000
  284        1.338433      3.789181   1.000000   1.000000
  285        1.356368      3.807085   1.000000   1.000000
  286        1.367543      3.815446   1.000000   1.000000
  287        1.394126      3.820412   1.000000   1.000000
  288        1.398132      6.119550   1.000000   0.000000
  289        1.443846      6.236464   1.000000   0.000000
  290        1.450006      6.469476   1.000000   0.000000
  291        1.451422      6.507796   1.000000   0.000000
  292        1.470737      6.533516   1.000000   0.000000
  293        1.484405      6.555405   1.000000   0.000000
  294        1.504615      6.566053   1.000000   0.000000
  295        1.523055      6.576490   1.000000   0.000000
  296        1.531062      6.595803   1.000000   0.000000
  297        1.549161      6.669243   1.000000   0.000000
  298        1.581466      6.749997   1.000000   0.000000
  299        1.593788      6.776460   1.000000   0.000000
  300        1.608038      6.797923   1.000000   0.000000
  301        1.611140      6.847558   1.000000   0.000000
  302        1.629855      6.852095   1.000000   0.000000
  303        1.633426      6.867096   1.000000   0.000000
  304        1.650994      6.883760   1.000000   0.000000
  305        1.674548      6.951717   1.000000   0.000000
  306        1.683152      6.961987   1.000000   0.000000
  307        1.694825      6.966376   1.000000   0.000000
  308        1.725547      6.981886   1.000000   0.000000
  309        1.798512      6.985268   1.000000   0.000000
  310        1.813963      7.039396   1.000000   0.000000
  311        1.886548      7.050616   1.000000   0.000000
  312        1.968322      7.068513   1.000000   0.000000
  313        1.982306      7.097397   1.000000   0.000000
  314        1.994166      7.117723   1.000000   0.000000
  315        2.011436      7.120473   1.000000   0.000000
  316        2.150075      7.161896   1.000000   0.000000
  317        2.174770      7.166244   1.000000   0.000000
  318        2.176546      7.178953   1.000000   0.000000
  319        2.248794      7.183344   1.000000   0.000000
  320        2.341351      7.188601   1.000000   0.000000
  321        2.351447      7.220922   1.000000   0.000000
  322        2.376312      7.227079   1.000000   0.000000
  323        2.395687      7.232109   1.000000   0.000000
  324        2.402941      7.239462   1.000000   0.000000
  325        2.434109      7.247655   1.000000   0.000000
  326        2.470747      7.262372   1.000000   0.000000
  327        2.502762      7.283662   1.000000   0.000000
  328        2.508857      7.292071   1.000000   0.000000
  329        2.535866      7.298249   1.000000   0.000000
  330        2.550290      7.312321   1.000000   0.000000
  331        2.567429      7.326611   1.000000   0.000000
  332        2.570153      7.334868   1.000000   0.000000
  333        2.629290      7.385543   1.000000   0.000000
  334        2.675815      7.413817   1.000000   0.000000
  335        2.763727      7.515111   1.000000   0.000000
  336        2.843647      7.526183   1.000000   0.000000
  337        2.848477      7.546766   1.000000   0.000000
  338        2.874094      7.552268   1.000000   0.000000
  339        2.992089      7.568020   1.000000   0.000000
  340        3.006340      7.577245   1.000000   0.000000
  341        3.008505      7.599013   1.000000   0.000000
  342        3.059144      7.614022   1.000000   0.000000
  343        3.105244      7.629671   1.000000   0.000000
  344        3.147718      7.641183   1.000000   0.000000
  345        3.156806      7.652616   1.000000   0.000000
  346        3.223166      7.665470   1.000000   0.000000
  347        3.228581      7.702629   1.000000   0.000000
  348        3.247394      7.719035   1.000000   0.000000
  349        3.273968      7.725831   1.000000   0.000000
  350        3.313573      7.745275   1.000000   0.000000
  351        3.368427      7.761401   1.000000   0.000000
  352        3.396069      7.780014   1.000000   0.000000
  353        3.429636      7.786898   1.000000   0.000000
  354        3.448833      7.797830   1.000000   0.000000
  355        3.481479      7.811594   1.000000   0.000000
  356        3.506042      7.825162   1.000000   0.000000
  357        3.527685      7.843706   1.000000   0.000000
  358        3.562018      7.851026   1.000000   0.000000
  359        3.576930      7.891432   1.000000   0.000000
  360        3.585492      7.940185   1.000000   0.000000
  361        3.598832      7.997650   1.000000   0.000000
  362        3.635384      8.043068   1.000000   0.000000
  363        3.676715      8.058686   1.000000   0.000000
  364        3.718011      8.093664   1.000000   0.000000
  365        3.782940      8.130604   1.000000   0.000000
  366        3.787210      8.172885   1.000000   0.000000
  367        3.846006      8.192935   1.000000   0.000000
  368        3.882744      8.217778   1.000000   0.000000
  369        3.901153      8.234356   1.000000   0.000000
  370        3.977375      8.246859   1.000000   0.000000
  371        3.984371      8.280585   1.000000   0.000000
  372        4.019275      8.313515   1.000000   0.000000
  373        4.052888      8.329020   1.000000   0.000000
  374        4.063078      8.341000   1.000000   0.000000
  375        4.095449      8.382486   1.000000   0.000000
  376        4.128105      8.402079   1.000000   0.000000
  377        4.142963      8.450013   1.000000   0.000000
  378        4.165898      8.512747   1.000000   0.000000
  379        4.225861      8.533484   1.000000   0.000000
  380        4.406169      8.541523   0.990792   0.000000
  381        4.446941      8.640558   0.890968   0.000000
  382        4.567314      8.644523   0.014553   0.000000
  383        4.593430      8.658711   0.001855   0.000000
  384        7.123736      8.767273   0.000000   0.000000
  385        7.670943      8.827791   0.000000   0.000000
  386        8.389722      8.909350   0.000000   0.000000
  387        9.754740      9.017377   0.000000   0.000000
  388        9.814572      9.100128   0.000000   0.000000
  389        9.849991      9.145013   0.000000   0.000000
  390        9.851096      9.453730   0.000000   0.000000
  391       10.029796      9.582040   0.000000   0.000000
  392       10.177132      9.624422   0.000000   0.000000
  393       10.218609      9.714565   0.000000   0.000000
  394       10.248821      9.721515   0.000000   0.000000
  395       10.250621      9.864853   0.000000   0.000000
  396       10.279422      9.900724   0.000000   0.000000
  397       10.409666     10.008020   0.000000   0.000000
  398       10.522915     10.043755   0.000000   0.000000
  399       10.526864     10.113970   0.000000   0.000000
  400       10.546601     10.192677   0.000000   0.000000
  401       10.557555     10.202032   0.000000   0.000000
  402       10.600834     10.207039   0.000000   0.000000
  403       10.707803     10.233008   0.000000   0.000000
  404       10.733925     10.257176   0.000000   0.000000
  405       10.737322     10.385298   0.000000   0.000000
  406       10.758261     10.447654   0.000000   0.000000
  407       10.760888     10.525710   0.000000   0.000000
  408       10.816355     10.532369   0.000000   0.000000
  409       10.860037     10.632439   0.000000   0.000000
  410       10.879166     10.647224   0.000000   0.000000
  411       10.937868     10.734331   0.000000   0.000000
  412       10.952029     10.800746   0.000000   0.000000
  413       10.978688     10.833532   0.000000   0.000000
  414       11.003342     10.854218   0.000000   0.000000
  415       11.011229     10.890375   0.000000   0.000000
  416       11.025525     10.929853   0.000000   0.000000
  417       11.037635     10.973820   0.000000   0.000000
  418       11.041285     11.023996   0.000000   0.000000
  419       11.060828     11.054871   0.000000   0.000000
  420       11.118004     11.070987   0.000000   0.000000
  421       11.143137     11.108923   0.000000   0.000000
  422       11.180601     11.131811   0.000000   0.000000
  423       11.204295     11.159297   0.000000   0.000000
  424       11.241282     11.224053   0.000000   0.000000
  425       11.251682     11.244688   0.000000   0.000000
  426       11.256537     11.297611   0.000000   0.000000
  427       11.319849     11.315675   0.000000   0.000000
  428       11.360738     11.400865   0.000000   0.000000
  429       11.416406     11.452765   0.000000   0.000000
  430       11.426380     11.529834   0.000000   0.000000
  431       11.492126     11.567996   0.000000   0.000000
  432       11.500434     11.590676   0.000000   0.000000
  433       11.529587     11.627728   0.000000   0.000000
  434       11.544993     11.671851   0.000000   0.000000
  435       11.548767     11.679756   0.000000   0.000000
  436       11.602740     11.744728   0.000000   0.000000
  437       11.613735     11.763654   0.000000   0.000000
  438       11.613752     11.806099   0.000000   0.000000
  439       11.703754     11.843688   0.000000   0.000000
  440       11.718992     11.862415   0.000000   0.000000
  441       11.731940     11.878705   0.000000   0.000000
  442       11.771607     11.905984   0.000000   0.000000
  443       11.782887     11.928779   0.000000   0.000000
  444       11.796251     11.988352   0.000000   0.000000
  445       11.825441     12.040791   0.000000   0.000000
  446       11.907231     12.056422   0.000000   0.000000
  447       11.990010     12.084728   0.000000   0.000000
  448       11.999043     12.128932   0.000000   0.000000
  449       12.004064     12.140524   0.000000   0.000000
  450       12.032324     12.152289   0.000000   0.000000
  451       12.078564     12.170881   0.000000   0.000000
  452       12.095157     12.199099   0.000000   0.000000
  453       12.098427     12.239652   0.000000   0.000000
  454       12.176050     12.258113   0.000000   0.000000
  455       12.177911     12.277642   0.000000   0.000000
  456       12.285768     12.292622   0.000000   0.000000
  457       12.296790     12.365225   0.000000   0.000000
  458       12.313184     12.405568   0.000000   0.000000
  459       12.351367     12.422013   0.000000   0.000000
  460       12.401232     12.448458   0.000000   0.000000
  461       12.469092     12.500459   0.000000   0.000000
  462       12.487504     12.518415   0.000000   0.000000
  463       12.556002     12.539632   0.000000   0.000000
  464       12.595053     12.626659   0.000000   0.000000
  465       12.628977     12.697495   0.000000   0.000000
  466       12.673974     12.797638   0.000000   0.000000
  467       12.710433     12.833532   0.000000   0.000000
  468       12.743678     12.897554   0.000000   0.000000
  469       12.823139     12.945951   0.000000   0.000000
  470       12.825282     12.982169   0.000000   0.000000
  471       12.917050     12.997716   0.000000   0.000000
  472       13.103138     13.034640   0.000000   0.000000
  473       13.156192     13.044666   0.000000   0.000000
  474       13.243963     13.086453   0.000000   0.000000
  475       13.354500     13.130176   0.000000   0.000000
  476       13.368387     13.167470   0.000000   0.000000
  477       13.418190     13.240361   0.000000   0.000000
  478       13.759648     13.296624   0.000000   0.000000
  479       13.993139     13.364792   0.000000   0.000000
  480       14.518976     13.441016   0.000000   0.000000
  481       14.590925     13.482131   0.000000   0.000000
  482       14.987836     13.567907   0.000000   0.000000
  483       15.178490     13.702258   0.000000   0.000000
  484       15.401139     13.800727   0.000000   0.000000
  485       15.406282     13.857571   0.000000   0.000000
  486       15.931370     13.941210   0.000000   0.000000
  487       16.814215     14.062813   0.000000   0.000000
  488       18.339772     14.270942   0.000000   0.000000

  0.5000000E+00  0.1339234E-14  0.1262012E-14  0.1250000E+00
    1      -51.734305    -46.987533   1.000000   1.000000
    2      -51.732965    -46.984934   1.000000   1.000000
    3      -51.717410    -46.975103   1.000000   1.000000
    4      -51.716101    -46.970986   1.000000   1.000000
    5      -51.712616    -46.967792   1.000000   1.000000
    6      -51.687489    -46.947213   1.000000   1.000000
    7      -51.678991    -46.941864   1.000000   1.000000
    8      -51.666350    -46.940418   1.000000   1.000000
    9      -51.626617    -46.935114   1.000000   1.000000
   10      -51.617572    -46.933366   1.000000   1.000000
   11      -51.615875    -46.931944   1.000000   1.000000
   12      -51.611436    -46.929437   1.000000   1.000000
   13      -51.608694    -46.922364   1.000000   1.000000
   14      -51.599625    -46.915793   1.000000   1.000000
   15      -51.584699    -46.855151   1.000000   1.000000
   16      -51.565985    -46.841111   1.000000   1.000000
   17      -51.555291    -46.840178   1.000000   1.000000
   18      -51.553197    -46.827230   1.000000   1.000000
   19      -51.551444    -46.818716   1.000000   1.000000
   20      -51.534364    -46.814842   1.000000   1.000000
   21      -51.532582    -46.813455   1.000000   1.000000
   22      -51.526709    -46.798457   1.000000   1.000000
   23      -51.524510    -46.791721   1.000000   1.000000