 108 108   0   0
  0.1367340E+02  0.1151037E-08  0.1132740E-08  0.1132740E-08  0.5000000E-15
  1.000000000000000E-004
  CAR 
 unknown system                          
     17.82387053    -54.65780777  301      5.29058033      1.00000000
    -54.658  0.0000E+00  0.0000E+00  0.0000E+00  0.0000E+00
    -54.416  0.0000E+00  0.0000E+00  0.0000E+00  0.0000E+00
    -54.175  0.0000E+00  0.0000E+00  0.0000E+00  0.0000E+00
    -53.933  0.0000E+00  0.0000E+00  0.0000E+00  0.0000E+00
    -53.691  0.0000E+00  0.0000E+00  0.0000E+00  0.0000E+00
    -53.450  0.0000E+00  0.0000E+00  0.0000E+00  0.0000E+00
    -53.208  0.0000E+00  0.0000E+00  0.0000E+00  0.0000E+00
    -52.967  0.0000E+00  0.0000E+00  0.0000E+00  0.0000E+00
    -52.725  0.0000E+00  0.0000E+00  0.0000E+00  0.0000E+00
    -52.483  0.0000E+00  0.0000E+00  0.0000E+00  0.0000E+00
    -52.242  0.0000E+00  0.0000E+00  0.0000E+00  0.0000E+00
    -52.000  0.0000E+00  0.0000E+00  0.0000E+00  0.0000E+00
    -51.759  0.0000E+00  0.0000E+00  0.0000E+00  0.0000E+00
    -51.517  0.3755E-03  0.0000E+00  0.9071E-04  0.0000E+00
    -51.275  0.9840E+02  0.0000E+00  0.2377E+02  0.0000E+00
    -51.034  0.4317E+02  0.0000E+00  0.3420E+02  0.0000E+00
    -50.792  0.7436E+01  0.0000E+00  0.3600E+02  0.0000E+00
    -50.551  0.0000E+00  0.0000E+00  0.3600E+02  0.0000E+00
    -50.309  0.1877E-03  0.0000E+00  0.3600E+02  0.0000E+00
    -50.067  0.9794E+02  0.0000E+00  0.5966E+02  0.0000E+00
    -49.826  0.5025E+02  0.0000E+00  0.7180E+02  0.0000E+00
    -49.584  0.1240E+03  0.0000E+00  0.1018E+03  0.0000E+00
    -49.342  0.2581E+02  0.0000E+00  0.1080E+03  0.0000E+00
    -49.101  0.0000E+00  0.0000E+00  0.1080E+03  0.0000E+00
    -48.859  0.0000E+00  0.0000E+00  0.1080E+03  0.0000E+00
    -48.618  0.0000E+00  0.0000E+00  0.1080E+03  0.0000E+00
    -48.376  0.0000E+00  0.0000E+00  0.1080E+03  0.0000E+00
    -48.134  0.0000E+00  0.0000E+00  0.1080E+03  0.0000E+00
    -47.893  0.0000E+00  0.0000E+00  0.1080E+03  0.0000E+00
    -47.651  0.0000E+00  0.0000E+00  0.1080E+03  0.0000E+00
    -47.410  0.0000E+00  0.0000E+00  0.1080E+03  0.0000E+00
    -47.168  0.0000E+00  0.0000E+00  0.1080E+03  0.0000E+00
    -46.926  0.0000E+00  0.0000E+00  0.1080E+03  0.0000E+00
    -46.685  0.0000E+00  0.1376E+01  0.1080E+03  0.3324E+00
    -46.443  0.0000E+00  0.9798E+02  0.1080E+03  0.2401E+02
    -46.202  0.0000E+00  0.1754E+03  0.1080E+03  0.6638E+02
    -45.960  0.0000E+00  0.8352E+02  0.1080E+03  0.8656E+02
    -45.718  0.0000E+00  0.8875E+02  0.1080E+03  0.1080E+03
    -45.477  0.0000E+00  0.3924E-03  0.1080E+03  0.1080E+03
    -45.235  0.0000E+00  0.0000E+00  0.1080E+03  0.1080E+03
    -44.994  0.0000E+00  0.0000E+00  0.1080E+03  0.1080E+03
    -44.752  0.0000E+00  0.0000E+00  0.1080E+03  0.1080E+03
    -44.510  0.0000E+00  0.0000E+00  0.1080E+03  0.1080E+03
    -44.269  0.0000E+00  0.0000E+00  0.1080E+03  0.1080E+03
    -44.027  0.0000E+00  0.0000E+00  0.1080E+03  0.1080E+03
    -43.786  0.0000E+00  0.0000E+00  0.1080E+03  0.1080E+03
    -43.544  0.0000E+00  0.0000E+00  0.1080E+03  0.1080E+03
    -43.302  0.0000E+00  0.0000E+00  0.1080E+03  0.1080E+03
    -43.061  0.0000E+00  0.0000E+00  0.1080E+03  0.1080E+03
    -42.819  0.0000E+00  0.0000E+00  0.1080E+03  0.1080E+03
    -42.578  0.0000E+00  0.0000E+00  0.1080E+03  0.1080E+03
    -42.336  0.0000E+00  0.0000E+00  0.1080E+03  0.1080E+03
    -42.094  0.0000E+00  0.0000E+00  0.1080E+03  0.1080E+03
    -41.853  0.0000E+00  0.0000E+00  0.1080E+03  0.1080E+03
    -41.611  0.0000E+00  0.0000E+00  0.1080E+03  0.1080E+03
    -41.370  0.0000E+00  0.0000E+00  0.1080E+03  0.1080E+03
    -41.128  0.0000E+00  0.0000E+00  0.1080E+03  0.1080E+03
    -40.886  0.0000E+00  0.0000E+00  0.1080E+03  0.1080E+03
    -40.645  0.0000E+00  0.0000E+00  0.1080E+03  0.1080E+03
    -40.403  0.3225E-12  0.6307E-12  0.1080E+03  0.1080E+03
    -40.161  0.1662E+02  0.1882E+02  0.1120E+03  0.1125E+03
    -39.920  0.8272E+02  0.8052E+02  0.1320E+03  0.1320E+03
    -39.678  0.0000E+00  0.0000E+00  0.1320E+03  0.1320E+03
    -39.437  0.0000E+00  0.0000E+00  0.1320E+03  0.1320E+03
    -39.195  0.0000E+00  0.0000E+00  0.1320E+03  0.1320E+03
    -38.953  0.0000E+00  0.0000E+00  0.1320E+03  0.1320E+03
    -38.712  0.0000E+00  0.0000E+00  0.1320E+03  0.1320E+03
    -38.470  0.0000E+00  0.0000E+00  0.1320E+03  0.1320E+03
    -38.229  0.0000E+00  0.0000E+00  0.1320E+03  0.1320E+03
    -37.987  0.0000E+00  0.0000E+00  0.1320E+03  0.1320E+03
    -37.745  0.0000E+00  0.0000E+00  0.1320E+03  0.1320E+03
    -37.504  0.0000E+00  0.0000E+00  0.1320E+03  0.1320E+03
    -37.262  0.0000E+00  0.0000E+00  0.1320E+03  0.1320E+03
    -37.021  0.0000E+00  0.0000E+00  0.1320E+03  0.1320E+03
    -36.779  0.0000E+00  0.0000E+00  0.1320E+03  0.1320E+03
    -36.537  0.0000E+00  0.0000E+00  0.1320E+03  0.1320E+03
    -36.296  0.0000E+00  0.0000E+00  0.1320E+03  0.1320E+03
    -36.054  0.0000E+00  0.0000E+00  0.1320E+03  0.1320E+03
    -35.813  0.0000E+00  0.0000E+00  0.1320E+03  0.1320E+03
    -35.571  0.0000E+00  0.0000E+00  0.1320E+03  0.1320E+03
    -35.329  0.0000E+00  0.0000E+00  0.1320E+03  0.1320E+03
    -35.088  0.0000E+00  0.0000E+00  0.1320E+03  0.1320E+03
    -34.846  0.0000E+00  0.0000E+00  0.1320E+03  0.1320E+03
    -34.605  0.0000E+00  0.0000E+00  0.1320E+03  0.1320E+03
    -34.363  0.0000E+00  0.0000E+00  0.1320E+03  0.1320E+03
    -34.121  0.0000E+00  0.0000E+00  0.1320E+03  0.1320E+03
    -33.880  0.0000E+00  0.0000E+00  0.1320E+03  0.1320E+03
    -33.638  0.0000E+00  0.0000E+00  0.1320E+03  0.1320E+03
    -33.397  0.0000E+00  0.0000E+00  0.1320E+03  0.1320E+03
    -33.155  0.0000E+00  0.0000E+00  0.1320E+03  0.1320E+03
    -32.913  0.0000E+00  0.0000E+00  0.1320E+03  0.1320E+03
    -32.672  0.0000E+00  0.0000E+00  0.1320E+03  0.1320E+03
    -32.430  0.0000E+00  0.0000E+00  0.1320E+03  0.1320E+03
    -32.188  0.0000E+00  0.0000E+00  0.1320E+03  0.1320E+03
    -31.947  0.0000E+00  0.0000E+00  0.1320E+03  0.1320E+03
    -31.705  0.0000E+00  0.0000E+00  0.1320E+03  0.1320E+03
    -31.464  0.0000E+00  0.0000E+00  0.1320E+03  0.1320E+03
    -31.222  0.0000E+00  0.0000E+00  0.1320E+03  0.1320E+03
    -30.980  0.0000E+00  0.0000E+00  0.1320E+03  0.1320E+03
    -30.739  0.0000E+00  0.0000E+00  0.1320E+03  0.1320E+03
    -30.497  0.0000E+00  0.0000E+00  0.1320E+03  0.1320E+03
    -30.256  0.0000E+00  0.0000E+00  0.1320E+03  0.1320E+03
    -30.014  0.0000E+00  0.0000E+00  0.1320E+03  0.1320E+03
    -29.772  0.0000E+00  0.0000E+00  0.1320E+03  0.1320E+03
    -29.531  0.0000E+00  0.0000E+00  0.1320E+03  0.1320E+03
    -29.289  0.0000E+00  0.0000E+00  0.1320E+03  0.1320E+03
    -29.048  0.0000E+00  0.0000E+00  0.1320E+03  0.1320E+03
    -28.806  0.0000E+00  0.0000E+00  0.1320E+03  0.1320E+03
    -28.564  0.0000E+00  0.0000E+00  0.1320E+03  0.1320E+03
    -28.323  0.0000E+00  0.0000E+00  0.1320E+03  0.1320E+03
    -28.081  0.0000E+00  0.0000E+00  0.1320E+03  0.1320E+03
    -27.840  0.0000E+00  0.0000E+00  0.1320E+03  0.1320E+03
    -27.598  0.0000E+00  0.0000E+00  0.1320E+03  0.1320E+03
    -27.356  0.0000E+00  0.0000E+00  0.1320E+03  0.1320E+03
    -27.115  0.0000E+00  0.0000E+00  0.1320E+03  0.1320E+03
    -26.873  0.0000E+00  0.0000E+00  0.1320E+03  0.1320E+03
    -26.632  0.0000E+00  0.0000E+00  0.1320E+03  0.1320E+03
    -26.390  0.0000E+00  0.0000E+00  0.1320E+03  0.1320E+03
    -26.148  0.0000E+00  0.0000E+00  0.1320E+03  0.1320E+03
    -25.907  0.0000E+00  0.0000E+00  0.1320E+03  0.1320E+03
    -25.665  0.0000E+00  0.0000E+00  0.1320E+03  0.1320E+03
    -25.424  0.0000E+00  0.0000E+00  0.1320E+03  0.1320E+03
    -25.182  0.0000E+00  0.0000E+00  0.1320E+03  0.1320E+03
    -24.940  0.0000E+00  0.0000E+00  0.1320E+03  0.1320E+03
    -24.699  0.0000E+00  0.0000E+00  0.1320E+03  0.1320E+03
    -24.457  0.0000E+00  0.0000E+00  0.1320E+03  0.1320E+03
    -24.216  0.0000E+00  0.0000E+00  0.1320E+03  0.1320E+03
    -23.974  0.0000E+00  0.0000E+00  0.1320E+03  0.1320E+03
    -23.732  0.0000E+00  0.0000E+00  0.1320E+03  0.1320E+03
    -23.491  0.0000E+00  0.0000E+00  0.1320E+03  0.1320E+03
    -23.249  0.0000E+00  0.0000E+00  0.1320E+03  0.1320E+03
    -23.007  0.0000E+00  0.0000E+00  0.1320E+03  0.1320E+03
    -22.766  0.0000E+00  0.0000E+00  0.1320E+03  0.1320E+03
    -22.524  0.0000E+00  0.0000E+00  0.1320E+03  0.1320E+03
    -22.283  0.0000E+00  0.0000E+00  0.1320E+03  0.1320E+03
    -22.041  0.0000E+00  0.0000E+00  0.1320E+03  0.1320E+03
    -21.799  0.0000E+00  0.0000E+00  0.1320E+03  0.1320E+03
    -21.558  0.0000E+00  0.0000E+00  0.1320E+03  0.1320E+03
    -21.316  0.0000E+00  0.0000E+00  0.1320E+03  0.1320E+03
    -21.075  0.0000E+00  0.0000E+00  0.1320E+03  0.1320E+03
    -20.833  0.0000E+00  0.0000E+00  0.1320E+03  0.1320E+03
    -20.591  0.0000E+00  0.0000E+00  0.1320E+03  0.1320E+03
    -20.350  0.0000E+00  0.0000E+00  0.1320E+03  0.1320E+03
    -20.108  0.0000E+00  0.0000E+00  0.1320E+03  0.1320E+03
    -19.867  0.0000E+00  0.0000E+00  0.1320E+03  0.1320E+03
    -19.625  0.0000E+00  0.0000E+00  0.1320E+03  0.1320E+03
    -19.383  0.0000E+00  0.0000E+00  0.1320E+03  0.1320E+03
    -19.142  0.0000E+00  0.0000E+00  0.1320E+03  0.1320E+03
    -18.900  0.0000E+00  0.0000E+00  0.1320E+03  0.1320E+03
    -18.659  0.0000E+00  0.0000E+00  0.1320E+03  0.1320E+03
    -18.417  0.0000E+00  0.0000E+00  0.1320E+03  0.1320E+03
    -18.175  0.0000E+00  0.0000E+00  0.1320E+03  0.1320E+03
    -17.934  0.0000E+00  0.0000E+00  0.1320E+03  0.1320E+03
    -17.692  0.0000E+00  0.0000E+00  0.1320E+03  0.1320E+03
    -17.451  0.0000E+00  0.0000E+00  0.1320E+03  0.1320E+03
    -17.209  0.0000E+00  0.0000E+00  0.1320E+03  0.1320E+03
    -16.967  0.0000E+00  0.0000E+00  0.1320E+03  0.1320E+03
    -16.726  0.0000E+00  0.0000E+00  0.1320E+03  0.1320E+03
    -16.484  0.0000E+00  0.0000E+00  0.1320E+03  0.1320E+03
    -16.243  0.0000E+00  0.0000E+00  0.1320E+03  0.1320E+03
    -16.001  0.0000E+00  0.0000E+00  0.1320E+03  0.1320E+03
    -15.759  0.0000E+00  0.0000E+00  0.1320E+03  0.1320E+03
    -15.518  0.0000E+00  0.0000E+00  0.1320E+03  0.1320E+03
    -15.276  0.0000E+00  0.0000E+00  0.1320E+03  0.1320E+03
    -15.034  0.0000E+00  0.0000E+00  0.1320E+03  0.1320E+03
    -14.793  0.0000E+00  0.0000E+00  0.1320E+03  0.1320E+03
    -14.551  0.0000E+00  0.0000E+00  0.1320E+03  0.1320E+03
    -14.310  0.0000E+00  0.0000E+00  0.1320E+03  0.1320E+03
    -14.068  0.0000E+00  0.0000E+00  0.1320E+03  0.1320E+03
    -13.826  0.1208E-11  0.0000E+00  0.1320E+03  0.1320E+03
    -13.585  0.2229E+01  0.0000E+00  0.1325E+03  0.1320E+03
    -13.343  0.5768E+02  0.1468E-05  0.1465E+03  0.1320E+03
    -13.102  0.3928E+02  0.1874E+02  0.1560E+03  0.1365E+03
    -12.860  0.1486E+00  0.7641E+02  0.1560E+03  0.1550E+03
    -12.618  0.0000E+00  0.4191E+01  0.1560E+03  0.1560E+03
    -12.377  0.0000E+00  0.0000E+00  0.1560E+03  0.1560E+03
    -12.135  0.0000E+00  0.0000E+00  0.1560E+03  0.1560E+03
    -11.894  0.0000E+00  0.0000E+00  0.1560E+03  0.1560E+03
    -11.652  0.0000E+00  0.0000E+00  0.1560E+03  0.1560E+03
    -11.410  0.0000E+00  0.0000E+00  0.1560E+03  0.1560E+03
    -11.169  0.0000E+00  0.0000E+00  0.1560E+03  0.1560E+03
    -10.927  0.0000E+00  0.0000E+00  0.1560E+03  0.1560E+03
    -10.686  0.0000E+00  0.0000E+00  0.1560E+03  0.1560E+03
    -10.444  0.0000E+00  0.0000E+00  0.1560E+03  0.1560E+03
    -10.202  0.0000E+00  0.0000E+00  0.1560E+03  0.1560E+03
     -9.961  0.0000E+00  0.0000E+00  0.1560E+03  0.1560E+03
     -9.719  0.0000E+00  0.0000E+00  0.1560E+03  0.1560E+03
     -9.478  0.0000E+00  0.0000E+00  0.1560E+03  0.1560E+03
     -9.236  0.0000E+00  0.0000E+00  0.1560E+03  0.1560E+03
     -8.994  0.0000E+00  0.0000E+00  0.1560E+03  0.1560E+03
     -8.753  0.0000E+00  0.0000E+00  0.1560E+03  0.1560E+03
     -8.511  0.0000E+00  0.0000E+00  0.1560E+03  0.1560E+03
     -8.270  0.0000E+00  0.0000E+00  0.1560E+03  0.1560E+03
     -8.028  0.0000E+00  0.0000E+00  0.1560E+03  0.1560E+03
     -7.786  0.3000E-13  0.0000E+00  0.1560E+03  0.1560E+03
     -7.545  0.2185E+00  0.4255E-16  0.1561E+03  0.1560E+03
     -7.303  0.2233E+02  0.6547E-01  0.1614E+03  0.1560E+03
     -7.062  0.4716E+02  0.2445E+02  0.1728E+03  0.1619E+03
     -6.820  0.2938E+02  0.4655E+02  0.1799E+03  0.1732E+03
     -6.578  0.2510E+00  0.2676E+02  0.1800E+03  0.1796E+03
     -6.337  0.0000E+00  0.1510E+01  0.1800E+03  0.1800E+03
     -6.095  0.0000E+00  0.0000E+00  0.1800E+03  0.1800E+03
     -5.853  0.0000E+00  0.0000E+00  0.1800E+03  0.1800E+03
     -5.612  0.0000E+00  0.0000E+00  0.1800E+03  0.1800E+03
     -5.370  0.0000E+00  0.0000E+00  0.1800E+03  0.1800E+03
     -5.129  0.0000E+00  0.0000E+00  0.1800E+03  0.1800E+03
     -4.887  0.0000E+00  0.0000E+00  0.1800E+03  0.1800E+03
     -4.645  0.0000E+00  0.0000E+00  0.1800E+03  0.1800E+03
     -4.404  0.0000E+00  0.0000E+00  0.1800E+03  0.1800E+03
     -4.162  0.0000E+00  0.0000E+00  0.1800E+03  0.1800E+03
     -3.921  0.0000E+00  0.0000E+00  0.1800E+03  0.1800E+03
     -3.679  0.0000E+00  0.0000E+00  0.1800E+03  0.1800E+03
     -3.437  0.0000E+00  0.0000E+00  0.1800E+03  0.1800E+03
     -3.196  0.0000E+00  0.0000E+00  0.1800E+03  0.1800E+03
     -2.954  0.0000E+00  0.0000E+00  0.1800E+03  0.1800E+03
     -2.713  0.0000E+00  0.0000E+00  0.1800E+03  0.1800E+03
     -2.471  0.0000E+00  0.0000E+00  0.1800E+03  0.1800E+03
     -2.229  0.1294E-01  0.0000E+00  0.1800E+03  0.1800E+03
     -1.988  0.2695E+02  0.0000E+00  0.1865E+03  0.1800E+03
     -1.746  0.5032E+02  0.0000E+00  0.1987E+03  0.1800E+03
     -1.505  0.1588E+02  0.0000E+00  0.2025E+03  0.1800E+03
     -1.263  0.1895E+02  0.0000E+00  0.2071E+03  0.1800E+03
     -1.021  0.5898E+02  0.1416E-03  0.2213E+03  0.1800E+03
     -0.780  0.7345E+02  0.1885E+01  0.2391E+03  0.1805E+03
     -0.538  0.6480E+02  0.9965E+01  0.2547E+03  0.1829E+03
     -0.297  0.6332E+02  0.2034E+02  0.2700E+03  0.1878E+03
     -0.055  0.6198E+02  0.3415E+02  0.2850E+03  0.1960E+03
      0.187  0.5483E+02  0.2518E+02  0.2983E+03  0.2021E+03
      0.428  0.1066E+03  0.3703E+02  0.3240E+03  0.2111E+03
      0.670  0.5273E+02  0.3615E+02  0.3368E+03  0.2198E+03
      0.911  0.4686E+02  0.5710E+02  0.3481E+03  0.2336E+03
      1.153  0.5302E+02  0.5605E+02  0.3609E+03  0.2471E+03
      1.395  0.6421E+02  0.1983E+02  0.3764E+03  0.2519E+03
      1.636  0.5400E+02  0.2518E+02  0.3895E+03  0.2580E+03
      1.878  0.5841E+02  0.4737E+02  0.4036E+03  0.2694E+03
      2.120  0.4842E+02  0.3573E+02  0.4153E+03  0.2781E+03
      2.361  0.2760E+02  0.3018E+02  0.4219E+03  0.2854E+03
      2.603  0.3520E+02  0.3337E+02  0.4304E+03  0.2934E+03
      2.844  0.3383E+02  0.4465E+02  0.4386E+03  0.3042E+03
      3.086  0.3659E+02  0.3817E+02  0.4475E+03  0.3134E+03
      3.328  0.3371E+02  0.5958E+02  0.4556E+03  0.3278E+03
      3.569  0.2571E+02  0.2797E+02  0.4618E+03  0.3346E+03
      3.811  0.4115E+02  0.9306E+01  0.4718E+03  0.3368E+03
      4.052  0.4597E+02  0.1082E+02  0.4829E+03  0.3395E+03
      4.294  0.3578E+02  0.4078E+02  0.4915E+03  0.3493E+03
      4.536  0.3620E+02  0.2260E+02  0.5002E+03  0.3548E+03
      4.777  0.1551E+02  0.2002E+02  0.5040E+03  0.3596E+03
      5.019  0.1324E-01  0.1617E+01  0.5040E+03  0.3600E+03
      5.260  0.0000E+00  0.2119E-04  0.5040E+03  0.3600E+03
      5.502  0.0000E+00  0.0000E+00  0.5040E+03  0.3600E+03
      5.744  0.0000E+00  0.0000E+00  0.5040E+03  0.3600E+03
      5.985  0.0000E+00  0.1951E-07  0.5040E+03  0.3600E+03
      6.227  0.0000E+00  0.3134E+00  0.5040E+03  0.3601E+03
      6.468  0.0000E+00  0.3662E+01  0.5040E+03  0.3610E+03
      6.710  0.4517E-02  0.9737E+01  0.5040E+03  0.3633E+03
      6.952  0.1488E+00  0.3268E+02  0.5040E+03  0.3712E+03
      7.193  0.3148E+00  0.7771E+02  0.5041E+03  0.3900E+03
      7.435  0.7607E+00  0.6509E+02  0.5043E+03  0.4057E+03
      7.676  0.2525E+01  0.5157E+02  0.5049E+03  0.4182E+03
      7.918  0.2201E+01  0.8547E+02  0.5054E+03  0.4388E+03
      8.160  0.2120E+01  0.7837E+02  0.5060E+03  0.4578E+03
      8.401  0.5338E+01  0.5284E+02  0.5072E+03  0.4705E+03
      8.643  0.7887E+01  0.7291E+02  0.5091E+03  0.4881E+03
      8.884  0.1651E+02  0.4509E+02  0.5131E+03  0.4990E+03
      9.126  0.1349E+02  0.2220E+02  0.5164E+03  0.5044E+03
      9.368  0.1855E+02  0.4844E+01  0.5209E+03  0.5056E+03
      9.609  0.1986E+02  0.6635E+01  0.5257E+03  0.5072E+03
      9.851  0.1784E+02  0.1155E+02  0.5300E+03  0.5100E+03
     10.092  0.1801E+02  0.1442E+02  0.5343E+03  0.5134E+03
     10.334  0.1977E+02  0.1811E+02  0.5391E+03  0.5178E+03
     10.576  0.2425E+02  0.3197E+02  0.5450E+03  0.5255E+03
     10.817  0.2130E+02  0.2821E+02  0.5501E+03  0.5324E+03
     11.059  0.2849E+02  0.2193E+02  0.5570E+03  0.5377E+03
     11.301  0.2880E+02  0.2482E+02  0.5640E+03  0.5437E+03
     11.542  0.2219E+02  0.2208E+02  0.5693E+03  0.5490E+03
     11.784  0.2723E+02  0.2153E+02  0.5759E+03  0.5542E+03
     12.025  0.3938E+02  0.1858E+02  0.5854E+03  0.5587E+03
     12.267  0.3439E+02  0.3059E+02  0.5937E+03  0.5661E+03
     12.509  0.2811E+02  0.4276E+02  0.6005E+03  0.5764E+03
     12.750  0.2534E+02  0.3531E+02  0.6066E+03  0.5849E+03
     12.992  0.2863E+02  0.2849E+02  0.6135E+03  0.5918E+03
     13.233  0.2537E+02  0.2739E+02  0.6197E+03  0.5984E+03
     13.475  0.2166E+02  0.3664E+02  0.6249E+03  0.6073E+03
     13.717  0.1792E+02  0.2946E+02  0.6292E+03  0.6144E+03
     13.958  0.2961E+01  0.2309E+02  0.6300E+03  0.6200E+03
     14.200  0.1846E+00  0.2360E+02  0.6300E+03  0.6257E+03
     14.441  0.0000E+00  0.1643E+02  0.6300E+03  0.6297E+03
     14.683  0.0000E+00  0.1406E+01  0.6300E+03  0.6300E+03
     14.925  0.0000E+00  0.2100E-05  0.6300E+03  0.6300E+03
     15.166  0.0000E+00  0.0000E+00  0.6300E+03  0.6300E+03
     15.408  0.0000E+00  0.0000E+00  0.6300E+03  0.6300E+03
     15.649  0.0000E+00  0.0000E+00  0.6300E+03  0.6300E+03
     15.891  0.0000E+00  0.0000E+00  0.6300E+03  0.6300E+03
     16.133  0.0000E+00  0.0000E+00  0.6300E+03  0.6300E+03
     16.374  0.0000E+00  0.0000E+00  0.6300E+03  0.6300E+03
     16.616  0.0000E+00  0.0000E+00  0.6300E+03  0.6300E+03
     16.857  0.0000E+00  0.0000E+00  0.6300E+03  0.6300E+03
     17.099  0.0000E+00  0.0000E+00  0.6300E+03  0.6300E+03
     17.341  0.0000E+00  0.0000E+00  0.6300E+03  0.6300E+03
     17.582  0.0000E+00  0.0000E+00  0.6300E+03  0.6300E+03
     17.824  0.0000E+00  0.0000E+00  0.6300E+03  0.6300E+03
