<?xml version="1.0" encoding="ISO-8859-1"?>
<modeling>
 <generator>
  <i name="program" type="string">vasp </i>
  <i name="version" type="string">5.4.4.18Apr17-6-g9f103f2a35  </i>
  <i name="subversion" type="string">(build Oct 25 2017 14:42:18) complex            parallel </i>
  <i name="platform" type="string">LinuxIFC </i>
  <i name="date" type="string">2021 04 18 </i>
  <i name="time" type="string">00:16:15 </i>
 </generator>
 <incar>
  <i type="string" name="PREC">accurate</i>
  <i type="string" name="ALGO"> normal</i>
  <i type="logical" name="ADDGRID"> T  </i>
  <i type="int" name="ISPIN">     2</i>
  <i type="int" name="ICHARG">     1</i>
  <i type="int" name="NELM">   200</i>
  <i type="int" name="NELMIN">     8</i>
  <i name="EDIFF">      0.00000100</i>
  <i type="int" name="ISYM">     0</i>
  <i name="ENCUT">    650.00000000</i>
  <v name="MAGMOM">      0.60000000      0.60000000      0.60000000      0.60000000      0.60000000      0.60000000      0.60000000      0.60000000      0.60000000      0.60000000      0.60000000      0.60000000      0.60000000      0.60000000      0.60000000      0.60000000      0.60000000      0.60000000      0.60000000      0.60000000
      0.60000000      0.60000000      0.60000000      0.60000000      0.60000000      0.60000000      0.60000000      0.60000000      0.60000000      0.60000000      0.60000000      0.60000000      0.60000000      0.60000000      0.60000000      0.60000000      0.60000000      0.60000000      0.60000000      0.60000000
      0.60000000      0.60000000      0.60000000      0.60000000      0.60000000      0.60000000      0.60000000      0.60000000      5.00000000      5.00000000      5.00000000      5.00000000      5.00000000      5.00000000      5.00000000      5.00000000      5.00000000      5.00000000      5.00000000      5.00000000
      5.00000000      5.00000000      5.00000000      5.00000000      5.00000000      5.00000000      5.00000000      5.00000000      5.00000000      5.00000000      5.00000000      5.00000000      5.00000000      5.00000000      5.00000000      5.00000000      5.00000000      5.00000000      5.00000000      5.00000000
      5.00000000      5.00000000      5.00000000      5.00000000      0.60000000      0.60000000      0.60000000      0.60000000      0.60000000      0.60000000      0.60000000      0.60000000      0.60000000      0.60000000      0.60000000      0.60000000      0.60000000      0.60000000      0.60000000      0.60000000
      0.60000000      0.60000000      0.60000000      0.60000000      0.60000000      0.60000000      0.60000000      0.60000000      0.60000000      0.60000000      0.60000000      0.60000000      0.60000000      0.60000000      0.60000000      0.60000000      0.60000000      0.60000000      0.60000000      0.60000000
      0.60000000      0.60000000      0.60000000      0.60000000      0.60000000      0.60000000      0.60000000      0.60000000      0.60000000      0.60000000      0.60000000      0.60000000      0.60000000      0.60000000      0.60000000      0.60000000      0.60000000      0.60000000      0.60000000      0.60000000
      0.60000000      0.60000000      0.60000000      0.60000000</v>
  <i type="logical" name="LREAL"> F  </i>
  <i type="int" name="ISMEAR">     0</i>
  <i name="SIGMA">      0.05000000</i>
  <i type="int" name="NWRITE">     1</i>
  <i type="int" name="LMAXMIX">     4</i>
  <i type="logical" name="LWAVE"> F  </i>
  <i type="logical" name="LASPH"> T  </i>
  <v type="int" name="KPOINT_BSE">    -1     0     0     0</v>
  <i type="int" name="NELM">   200</i>
  <i type="string" name="GGA"> pe</i>
  <i type="logical" name="LDAU"> T  </i>
  <v type="int" name="LDAUTYPE">     2</v>
  <v type="int" name="LDAUL">    -1     2    -1    -1</v>
  <v name="LDAUU">      0.00000000      4.00000000      0.00000000      0.00000000</v>
  <v name="LDAUJ">      0.00000000      0.00000000      0.00000000      0.00000000</v>
  <i type="logical" name="LASPH"> T  </i>
 </incar>
 <structure name="primitive_cell" >
  <crystal>
   <varray name="basis" >
    <v>      15.21162830       0.00516956      -2.78361592 </v>
    <v>      -0.40798665      11.93565774      -2.20735884 </v>
    <v>      -0.06175567      -0.11168197      10.54442638 </v>
   </varray>
   <i name="volume">   1908.54869108 </i>
   <varray name="rec_basis" >
    <v>       0.06581343       0.00232549       0.00041008 </v>
    <v>       0.00013433       0.08395174       0.00088997 </v>
    <v>       0.01740216       0.01818827       0.09513139 </v>
   </varray>
  </crystal>
  <varray name="positions" >
   <v>       0.47527516       0.00074367       0.00446200 </v>
   <v>      -0.47527003       0.03239991       0.19439947 </v>
   <v>       0.47618324      -0.03189981      -0.19139884 </v>
   <v>       0.37500000       0.16666667       0.00000000 </v>
   <v>       0.37500000      -0.16666667       0.00000000 </v>
   <v>       0.40535584       0.03794021       0.22764128 </v>
   <v>      -0.35733875       0.02567762       0.15406572 </v>
   <v>       0.47796480      -0.19750812      -0.18504874 </v>
   <v>       0.34464416      -0.03794021      -0.22764128 </v>
   <v>       0.47796480       0.13582521      -0.18599704 </v>
   <v>      -0.39266125      -0.02567762      -0.15406572 </v>
   <v>      -0.47447416       0.19979622       0.19877732 </v>
   <v>      -0.47447416      -0.13353711       0.19877732 </v>
   <v>      -0.37500000       0.16666667       0.00000000 </v>
   <v>      -0.37500000      -0.16666667       0.00000000 </v>
   <v>       0.27472484      -0.00074367      -0.00446200 </v>
   <v>       0.27381676       0.03189981       0.19139884 </v>
   <v>      -0.42788806       0.06536154       0.39216926 </v>
   <v>       0.22527003      -0.03239991      -0.19439947 </v>
   <v>       0.47527516      -0.33258966       0.00446200 </v>
   <v>       0.47527516       0.33407700       0.00446200 </v>
   <v>       0.46517249      -0.06641917      -0.39851502 </v>
   <v>       0.27203520       0.19750812       0.18504874 </v>
   <v>       0.27203520      -0.13582521       0.18504874 </v>
   <v>      -0.47527003       0.36573324       0.19439947 </v>
   <v>      -0.47527003      -0.30093342       0.19439947 </v>
   <v>       0.41542107       0.22793643       0.36761855 </v>
   <v>       0.41542107      -0.10539691       0.36761855 </v>
   <v>       0.22447416       0.13353711      -0.19877732 </v>
   <v>       0.22447416      -0.19979622      -0.19877732 </v>
   <v>       0.33457893       0.10539691      -0.36761855 </v>
   <v>       0.33457893      -0.22793643      -0.36761855 </v>
   <v>       0.47618324       0.30143353      -0.19139884 </v>
   <v>       0.47618324      -0.36523314      -0.19139884 </v>
   <v>      -0.22527516      -0.00074367      -0.00446200 </v>
   <v>      -0.22618324       0.03189981       0.19139884 </v>
   <v>      -0.27472997      -0.03239991      -0.19439947 </v>
   <v>      -0.32385262       0.22809805       0.36858830 </v>
   <v>      -0.32385262      -0.10523528       0.36858830 </v>
   <v>      -0.42614738       0.10523528      -0.36858830 </v>
   <v>      -0.42614738      -0.22809805      -0.36858830 </v>
   <v>       0.40535584       0.37127355       0.22764128 </v>
   <v>       0.40535584      -0.29539312       0.22764128 </v>
   <v>      -0.35733875       0.35901095       0.15406572 </v>
   <v>      -0.35733875      -0.30765571       0.15406572 </v>
   <v>       0.34464416       0.29539312      -0.22764128 </v>
   <v>       0.34464416      -0.37127355      -0.22764128 </v>
   <v>      -0.39266125       0.30765571      -0.15406572 </v>
   <v>      -0.39266125      -0.35901095      -0.15406572 </v>
   <v>      -0.22796480       0.19750812       0.18504874 </v>
   <v>      -0.22796480      -0.13582521       0.18504874 </v>
   <v>       0.27472484       0.33258966      -0.00446200 </v>
   <v>       0.27472484      -0.33407700      -0.00446200 </v>
   <v>      -0.27552584       0.13353711      -0.19877732 </v>
   <v>      -0.27552584      -0.19979622      -0.19877732 </v>
   <v>       0.28482751       0.06641917       0.39851502 </v>
   <v>       0.17788806      -0.06536154      -0.39216926 </v>
   <v>       0.10733875      -0.02567762      -0.15406572 </v>
   <v>      -0.32211194      -0.06536154      -0.39216926 </v>
   <v>       0.14266125       0.02567762       0.15406572 </v>
   <v>       0.27381676       0.36523314       0.19139884 </v>
   <v>       0.27381676      -0.30143353       0.19139884 </v>
   <v>      -0.21517249       0.06641917       0.39851502 </v>
   <v>      -0.42788806       0.39869487       0.39216926 </v>
   <v>      -0.42788806      -0.26797179       0.39216926 </v>
   <v>       0.22527003       0.30093342      -0.19439947 </v>
   <v>       0.22527003      -0.36573324      -0.19439947 </v>
   <v>       0.12500000       0.16666667       0.00000000 </v>
   <v>       0.12500000      -0.16666667       0.00000000 </v>
   <v>       0.46517249       0.26691416      -0.39851502 </v>
   <v>       0.46517249      -0.39975250      -0.39851502 </v>
   <v>      -0.22527516       0.33258966      -0.00446200 </v>
   <v>      -0.22527516      -0.33407700      -0.00446200 </v>
   <v>      -0.22618324       0.36523314       0.19139884 </v>
   <v>      -0.22618324      -0.30143353       0.19139884 </v>
   <v>      -0.27472997       0.30093342      -0.19439947 </v>
   <v>      -0.27472997      -0.36573324      -0.19439947 </v>
   <v>       0.37500000      -0.50000000       0.00000000 </v>
   <v>       0.47796480       0.46915854      -0.18504874 </v>
   <v>      -0.47447416      -0.46687045       0.19877732 </v>
   <v>      -0.37500000      -0.50000000       0.00000000 </v>
   <v>      -0.12500000       0.16666667       0.00000000 </v>
   <v>      -0.12500000      -0.16666667       0.00000000 </v>
   <v>      -0.15535584      -0.03794021      -0.22764128 </v>
   <v>      -0.09464416       0.03794021       0.22764128 </v>
   <v>       0.28482751      -0.26691416       0.39851502 </v>
   <v>      -0.32211194       0.26797179      -0.39216926 </v>
   <v>       0.28482751       0.39975250       0.39851502 </v>
   <v>       0.17614738       0.22809805       0.36858830 </v>
   <v>       0.17614738      -0.10523528       0.36858830 </v>
   <v>       0.17788806       0.26797179      -0.39216926 </v>
   <v>       0.17788806      -0.39869487      -0.39216926 </v>
   <v>       0.10733875       0.30765571      -0.15406572 </v>
   <v>       0.10733875      -0.35901095      -0.15406572 </v>
   <v>      -0.32211194      -0.39869487      -0.39216926 </v>
   <v>       0.14266125       0.35901095       0.15406572 </v>
   <v>       0.14266125      -0.30765571       0.15406572 </v>
   <v>       0.07385262       0.10523528      -0.36858830 </v>
   <v>       0.07385262      -0.22809805      -0.36858830 </v>
   <v>      -0.21517249       0.39975250       0.39851502 </v>
   <v>      -0.21517249      -0.26691416       0.39851502 </v>
   <v>       0.27203520      -0.46915854       0.18504874 </v>
   <v>       0.41542107      -0.43873024       0.36761855 </v>
   <v>       0.22447416       0.46687045      -0.19877732 </v>
   <v>       0.33457893       0.43873024      -0.36761855 </v>
   <v>      -0.08457893       0.22793643       0.36761855 </v>
   <v>      -0.08457893      -0.10539691       0.36761855 </v>
   <v>      -0.32385262      -0.43856862       0.36858830 </v>
   <v>      -0.42614738       0.43856862      -0.36858830 </v>
   <v>       0.02472997       0.03239991       0.19439947 </v>
   <v>      -0.02381676      -0.03189981      -0.19139884 </v>
   <v>      -0.16542107       0.10539691      -0.36761855 </v>
   <v>      -0.16542107      -0.22793643      -0.36761855 </v>
   <v>      -0.22796480      -0.46915854       0.18504874 </v>
   <v>      -0.27552584       0.46687045      -0.19877732 </v>
   <v>      -0.02472484       0.00074367       0.00446200 </v>
   <v>      -0.15535584       0.29539312      -0.22764128 </v>
   <v>      -0.15535584      -0.37127355      -0.22764128 </v>
   <v>      -0.09464416       0.37127355       0.22764128 </v>
   <v>      -0.09464416      -0.29539312       0.22764128 </v>
   <v>      -0.02203520       0.13582521      -0.18504874 </v>
   <v>      -0.02203520      -0.19750812      -0.18504874 </v>
   <v>       0.02552584       0.19979622       0.19877732 </v>
   <v>       0.02552584      -0.13353711       0.19877732 </v>
   <v>       0.07211194       0.06536154       0.39216926 </v>
   <v>       0.12500000      -0.50000000       0.00000000 </v>
   <v>      -0.03482751      -0.06641917      -0.39851502 </v>
   <v>       0.07211194      -0.26797179       0.39216926 </v>
   <v>       0.17614738      -0.43856862       0.36858830 </v>
   <v>       0.02472997       0.36573324       0.19439947 </v>
   <v>       0.02472997      -0.30093342       0.19439947 </v>
   <v>      -0.02381676       0.30143353      -0.19139884 </v>
   <v>      -0.02381676      -0.36523314      -0.19139884 </v>
   <v>      -0.12500000      -0.50000000       0.00000000 </v>
   <v>      -0.16542107       0.43873024      -0.36761855 </v>
   <v>      -0.02472484      -0.33258966       0.00446200 </v>
   <v>      -0.02472484       0.33407700       0.00446200 </v>
   <v>       0.07211194       0.39869487       0.39216926 </v>
   <v>       0.07385262       0.43856862      -0.36858830 </v>
   <v>      -0.03482751       0.26691416      -0.39851502 </v>
   <v>      -0.03482751      -0.39975250      -0.39851502 </v>
   <v>      -0.08457893      -0.43873024       0.36761855 </v>
   <v>      -0.02203520       0.46915854      -0.18504874 </v>
   <v>       0.02552584      -0.46687045       0.19877732 </v>
  </varray>
 </structure>
 <varray name="primitive_index" >
  <v type="int" >        1 </v>
  <v type="int" >      134 </v>
  <v type="int" >      131 </v>
  <v type="int" >       91 </v>
  <v type="int" >       95 </v>
  <v type="int" >       43 </v>
  <v type="int" >       38 </v>
  <v type="int" >       71 </v>
  <v type="int" >       35 </v>
  <v type="int" >       67 </v>
  <v type="int" >       30 </v>
  <v type="int" >       74 </v>
  <v type="int" >       78 </v>
  <v type="int" >       86 </v>
  <v type="int" >       90 </v>
  <v type="int" >       11 </v>
  <v type="int" >      139 </v>
  <v type="int" >       20 </v>
  <v type="int" >      125 </v>
  <v type="int" >        5 </v>
  <v type="int" >        3 </v>
  <v type="int" >       53 </v>
  <v type="int" >       79 </v>
  <v type="int" >       83 </v>
  <v type="int" >      136 </v>
  <v type="int" >      138 </v>
  <v type="int" >      103 </v>
  <v type="int" >      107 </v>
  <v type="int" >       61 </v>
  <v type="int" >       65 </v>
  <v type="int" >      115 </v>
  <v type="int" >      119 </v>
  <v type="int" >      127 </v>
  <v type="int" >      129 </v>
  <v type="int" >       12 </v>
  <v type="int" >      140 </v>
  <v type="int" >      126 </v>
  <v type="int" >       98 </v>
  <v type="int" >      102 </v>
  <v type="int" >      110 </v>
  <v type="int" >      114 </v>
  <v type="int" >       45 </v>
  <v type="int" >       47 </v>
  <v type="int" >       40 </v>
  <v type="int" >       42 </v>
  <v type="int" >       31 </v>
  <v type="int" >       33 </v>
  <v type="int" >       26 </v>
  <v type="int" >       28 </v>
  <v type="int" >       80 </v>
  <v type="int" >       84 </v>
  <v type="int" >        7 </v>
  <v type="int" >        9 </v>
  <v type="int" >       62 </v>
  <v type="int" >       66 </v>
  <v type="int" >       55 </v>
  <v type="int" >       17 </v>
  <v type="int" >       29 </v>
  <v type="int" >       18 </v>
  <v type="int" >       37 </v>
  <v type="int" >      141 </v>
  <v type="int" >      143 </v>
  <v type="int" >       56 </v>
  <v type="int" >       22 </v>
  <v type="int" >       24 </v>
  <v type="int" >      121 </v>
  <v type="int" >      123 </v>
  <v type="int" >       85 </v>
  <v type="int" >       89 </v>
  <v type="int" >       49 </v>
  <v type="int" >       51 </v>
  <v type="int" >        8 </v>
  <v type="int" >       10 </v>
  <v type="int" >      142 </v>
  <v type="int" >      144 </v>
  <v type="int" >      122 </v>
  <v type="int" >      124 </v>
  <v type="int" >       93 </v>
  <v type="int" >       69 </v>
  <v type="int" >       76 </v>
  <v type="int" >       88 </v>
  <v type="int" >       92 </v>
  <v type="int" >       96 </v>
  <v type="int" >       36 </v>
  <v type="int" >       44 </v>
  <v type="int" >       59 </v>
  <v type="int" >       14 </v>
  <v type="int" >       57 </v>
  <v type="int" >       97 </v>
  <v type="int" >      101 </v>
  <v type="int" >       13 </v>
  <v type="int" >       15 </v>
  <v type="int" >       25 </v>
  <v type="int" >       27 </v>
  <v type="int" >       16 </v>
  <v type="int" >       39 </v>
  <v type="int" >       41 </v>
  <v type="int" >      109 </v>
  <v type="int" >      113 </v>
  <v type="int" >       58 </v>
  <v type="int" >       60 </v>
  <v type="int" >       81 </v>
  <v type="int" >      105 </v>
  <v type="int" >       63 </v>
  <v type="int" >      117 </v>
  <v type="int" >      104 </v>
  <v type="int" >      108 </v>
  <v type="int" >      100 </v>
  <v type="int" >      112 </v>
  <v type="int" >      133 </v>
  <v type="int" >      132 </v>
  <v type="int" >      116 </v>
  <v type="int" >      120 </v>
  <v type="int" >       82 </v>
  <v type="int" >       64 </v>
  <v type="int" >        2 </v>
  <v type="int" >       32 </v>
  <v type="int" >       34 </v>
  <v type="int" >       46 </v>
  <v type="int" >       48 </v>
  <v type="int" >       68 </v>
  <v type="int" >       72 </v>
  <v type="int" >       73 </v>
  <v type="int" >       77 </v>
  <v type="int" >       19 </v>
  <v type="int" >       87 </v>
  <v type="int" >       54 </v>
  <v type="int" >       23 </v>
  <v type="int" >       99 </v>
  <v type="int" >      135 </v>
  <v type="int" >      137 </v>
  <v type="int" >      128 </v>
  <v type="int" >      130 </v>
  <v type="int" >       94 </v>
  <v type="int" >      118 </v>
  <v type="int" >        6 </v>
  <v type="int" >        4 </v>
  <v type="int" >       21 </v>
  <v type="int" >      111 </v>
  <v type="int" >       50 </v>
  <v type="int" >       52 </v>
  <v type="int" >      106 </v>
  <v type="int" >       70 </v>
  <v type="int" >       75 </v>
 </varray>
 <kpoints>
  <generation param="Gamma">
   <v type="int" name="divisions">       2        3        3 </v>
   <v name="usershift">      0.00000000       0.00000000       0.00000000 </v>
   <v name="genvec1">      0.50000000       0.00000000      -0.00000000 </v>
   <v name="genvec2">      0.00000000       0.33333333       0.00000000 </v>
   <v name="genvec3">      0.00000000       0.00000000       0.33333333 </v>
   <v name="shift">      0.00000000       0.00000000       0.00000000 </v>
  </generation>
  <varray name="kpointlist" >
   <v>       0.00000000       0.00000000       0.00000000 </v>
   <v>       0.50000000      -0.00000000       0.00000000 </v>
   <v>      -0.00000000       0.33333333      -0.00000000 </v>
   <v>       0.50000000       0.33333333      -0.00000000 </v>
   <v>      -0.00000000       0.00000000       0.33333333 </v>
   <v>       0.50000000       0.00000000       0.33333333 </v>
   <v>      -0.00000000       0.33333333       0.33333333 </v>
   <v>       0.50000000       0.33333333       0.33333333 </v>
   <v>      -0.00000000      -0.33333333       0.33333333 </v>
   <v>       0.50000000      -0.33333333       0.33333333 </v>
  </varray>
  <varray name="weights" >
   <v>       0.05555556 </v>
   <v>       0.05555556 </v>
   <v>       0.11111111 </v>
   <v>       0.11111111 </v>
   <v>       0.11111111 </v>
   <v>       0.11111111 </v>
   <v>       0.11111111 </v>
   <v>       0.11111111 </v>
   <v>       0.11111111 </v>
   <v>       0.11111111 </v>
  </varray>
 </kpoints>
 <parameters>
  <separator name="general" >
   <i type="string" name="SYSTEM">unknown system</i>
   <i type="logical" name="LCOMPAT"> F  </i>
  </separator>
  <separator name="electronic" >
   <i type="string" name="PREC">accura</i>
   <i name="ENMAX">    650.00000000</i>
   <i name="ENAUG">    628.94500000</i>
   <i name="EDIFF">      0.00000100</i>
   <i type="int" name="IALGO">    38</i>
   <i type="int" name="IWAVPR">    10</i>
   <i type="int" name="NBANDS">   728</i>
   <i name="NELECT">   1008.00000000</i>
   <i type="int" name="TURBO">     0</i>
   <i type="int" name="IRESTART">     0</i>
   <i type="int" name="NREBOOT">     0</i>
   <i type="int" name="NMIN">     0</i>
   <i name="EREF">      0.00000000</i>
   <separator name="electronic smearing" >
    <i type="int" name="ISMEAR">     0</i>
    <i name="SIGMA">      0.05000000</i>
    <i name="KSPACING">      0.50000000</i>
    <i type="logical" name="KGAMMA"> T  </i>
   </separator>
   <separator name="electronic projectors" >
    <i type="logical" name="LREAL"> F  </i>
    <v name="ROPT">      0.00000000      0.00000000      0.00000000      0.00000000</v>
    <i type="int" name="LMAXPAW">  -100</i>
    <i type="int" name="LMAXMIX">     4</i>
    <i type="logical" name="NLSPLINE"> F  </i>
   </separator>
   <separator name="electronic startup" >
    <i type="int" name="ISTART">     0</i>
    <i type="int" name="ICHARG">     1</i>
    <i type="int" name="INIWAV">     1</i>
   </separator>
   <separator name="electronic spin" >
    <i type="int" name="ISPIN">     2</i>
    <i type="logical" name="LNONCOLLINEAR"> F  </i>
    <v name="MAGMOM">      0.60000000      0.60000000      0.60000000      0.60000000      0.60000000      0.60000000      0.60000000      0.60000000      0.60000000      0.60000000      0.60000000      0.60000000      0.60000000      0.60000000      0.60000000      0.60000000      0.60000000      0.60000000      0.60000000      0.60000000
      0.60000000      0.60000000      0.60000000      0.60000000      0.60000000      0.60000000      0.60000000      0.60000000      0.60000000      0.60000000      0.60000000      0.60000000      0.60000000      0.60000000      0.60000000      0.60000000      0.60000000      0.60000000      0.60000000      0.60000000
      0.60000000      0.60000000      0.60000000      0.60000000      0.60000000      0.60000000      0.60000000      0.60000000      5.00000000      5.00000000      5.00000000      5.00000000      5.00000000      5.00000000      5.00000000      5.00000000      5.00000000      5.00000000      5.00000000      5.00000000
      5.00000000      5.00000000      5.00000000      5.00000000      5.00000000      5.00000000      5.00000000      5.00000000      5.00000000      5.00000000      5.00000000      5.00000000      5.00000000      5.00000000      5.00000000      5.00000000      5.00000000      5.00000000      5.00000000      5.00000000
      5.00000000      5.00000000      5.00000000      5.00000000      0.60000000      0.60000000      0.60000000      0.60000000      0.60000000      0.60000000      0.60000000      0.60000000      0.60000000      0.60000000      0.60000000      0.60000000      0.60000000      0.60000000      0.60000000      0.60000000
      0.60000000      0.60000000      0.60000000      0.60000000      0.60000000      0.60000000      0.60000000      0.60000000      0.60000000      0.60000000      0.60000000      0.60000000      0.60000000      0.60000000      0.60000000      0.60000000      0.60000000      0.60000000      0.60000000      0.60000000
      0.60000000      0.60000000      0.60000000      0.60000000      0.60000000      0.60000000      0.60000000      0.60000000      0.60000000      0.60000000      0.60000000      0.60000000      0.60000000      0.60000000      0.60000000      0.60000000      0.60000000      0.60000000      0.60000000      0.60000000
      0.60000000      0.60000000      0.60000000      0.60000000</v>
    <i name="NUPDOWN">     -1.00000000</i>
    <i type="logical" name="LSORBIT"> F  </i>
    <v name="SAXIS">      0.00000000      0.00000000      1.00000000</v>
    <i type="logical" name="LSPIRAL"> F  </i>
    <v name="QSPIRAL">      0.00000000      0.00000000      0.00000000</v>
    <i type="logical" name="LZEROZ"> F  </i>
   </separator>
   <separator name="electronic exchange-correlation" >
    <i type="logical" name="LASPH"> T  </i>
    <i type="logical" name="LMETAGGA"> F  </i>
   </separator>
   <separator name="electronic convergence" >
    <i type="int" name="NELM">   200</i>
    <i type="int" name="NELMDL">     0</i>
    <i type="int" name="NELMIN">     8</i>
    <i name="ENINI">    650.00000000</i>
    <separator name="electronic convergence detail" >
     <i type="logical" name="LDIAG"> T  </i>
     <i type="logical" name="LSUBROT"> F  </i>
     <i name="WEIMIN">      0.00000000</i>
     <i name="EBREAK">      0.00000000</i>
     <i name="DEPER">      0.30000000</i>
     <i type="int" name="NRMM">     4</i>
     <i name="TIME">      0.40000000</i>
    </separator>
   </separator>
   <separator name="electronic mixer" >
    <i name="AMIX">      0.40000000</i>
    <i name="BMIX">      1.00000000</i>
    <i name="AMIN">      0.10000000</i>
    <i name="AMIX_MAG">      1.60000000</i>
    <i name="BMIX_MAG">      1.00000000</i>
    <separator name="electronic mixer details" >
     <i type="int" name="IMIX">     4</i>
     <i type="logical" name="MIXFIRST"> F  </i>
     <i type="int" name="MAXMIX">   -45</i>
     <i name="WC">    100.00000000</i>
     <i type="int" name="INIMIX">     1</i>
     <i type="int" name="MIXPRE">     1</i>
     <i type="int" name="MREMOVE">     5</i>
    </separator>
   </separator>
   <separator name="electronic dipolcorrection" >
    <i type="logical" name="LDIPOL"> F  </i>
    <i type="logical" name="LMONO"> F  </i>
    <i type="int" name="IDIPOL">     0</i>
    <i name="EPSILON">      1.00000000</i>
    <v name="DIPOL">   -100.00000000   -100.00000000   -100.00000000</v>
    <i name="EFIELD">      0.00000000</i>
   </separator>
  </separator>
  <separator name="grids" >
   <i type="int" name="NGX">   140</i>
   <i type="int" name="NGY">   108</i>
   <i type="int" name="NGZ">    90</i>
   <i type="int" name="NGXF">   280</i>
   <i type="int" name="NGYF">   216</i>
   <i type="int" name="NGZF">   180</i>
   <i type="logical" name="ADDGRID"> T  </i>
  </separator>
  <separator name="ionic" >
   <i type="int" name="NSW">     0</i>
   <i type="int" name="IBRION">    -1</i>
   <i type="int" name="MDALGO">     0</i>
   <i type="int" name="ISIF">     2</i>
   <i name="PSTRESS">      0.00000000</i>
   <i name="EDIFFG">      0.00001000</i>
   <i type="int" name="NFREE">     0</i>
   <i name="POTIM">      0.50000000</i>
   <i name="SMASS">     -3.00000000</i>
   <i name="SCALEE">      1.00000000</i>
  </separator>
  <separator name="ionic md" >
   <i name="TEBEG">      0.00010000</i>
   <i name="TEEND">      0.00010000</i>
   <i type="int" name="NBLOCK">     1</i>
   <i type="int" name="KBLOCK">     1</i>
   <i type="int" name="NPACO">   256</i>
   <i name="APACO">     16.00000000</i>
  </separator>
  <separator name="symmetry" >
   <i type="int" name="ISYM">     0</i>
   <i name="SYMPREC">      0.00001000</i>
  </separator>
  <separator name="dos" >
   <i type="int" name="LORBIT">     0</i>
   <v name="RWIGS">     -1.00000000     -1.00000000     -1.00000000     -1.00000000</v>
   <i type="int" name="NEDOS">   301</i>
   <i name="EMIN">     10.00000000</i>
   <i name="EMAX">    -10.00000000</i>
   <i name="EFERMI">      0.00000000</i>
  </separator>
  <separator name="writing" >
   <i type="int" name="NWRITE">     1</i>
   <i type="logical" name="LWAVE"> F  </i>
   <i type="logical" name="LDOWNSAMPLE"> F  </i>
   <i type="logical" name="LCHARG"> T  </i>
   <i type="logical" name="LPARD"> F  </i>
   <i type="logical" name="LVTOT"> F  </i>
   <i type="logical" name="LVHAR"> F  </i>
   <i type="logical" name="LELF"> F  </i>
   <i type="logical" name="LOPTICS"> F  </i>
   <v name="STM">      0.00000000      0.00000000      0.00000000      0.00000000      0.00000000      0.00000000      0.00000000</v>
  </separator>
  <separator name="performance" >
   <i type="int" name="NPAR">     4</i>
   <i type="int" name="NSIM">     4</i>
   <i type="int" name="NBLK">    -1</i>
   <i type="logical" name="LPLANE"> T  </i>
   <i type="logical" name="LSCALAPACK"> T  </i>
   <i type="logical" name="LSCAAWARE"> F  </i>
   <i type="logical" name="LSCALU"> F  </i>
   <i type="logical" name="LASYNC"> F  </i>
   <i type="logical" name="LORBITALREAL"> F  </i>
  </separator>
  <separator name="miscellaneous" >
   <i type="int" name="IDIOT">     3</i>
   <i type="int" name="ISPECIAL">     0</i>
   <i type="logical" name="LMUSIC"> F  </i>
   <v name="POMASS">      7.01000000     55.84700000     32.06600000     16.00000000</v>
   <v name="DARWINR">      0.00000000      0.00000000      0.00000000      0.00000000</v>
   <v name="DARWINV">      1.00000000      1.00000000      1.00000000      1.00000000</v>
   <i type="logical" name="LCORR"> T  </i>
  </separator>
  <i type="logical" name="GGA_COMPAT"> T  </i>
  <i type="logical" name="LBERRY"> F  </i>
  <i type="int" name="ICORELEVEL">     0</i>
  <i type="logical" name="LDAU"> T  </i>
  <v type="int" name="LDAUTYPE">     2</v>
  <v type="int" name="LDAUL">    -1</v>
  <v name="LDAUU">      0.00000000</v>
  <v name="LDAUJ">      0.00000000</v>
  <i type="int" name="LDAUPRINT">     0</i>
  <i type="int" name="I_CONSTRAINED_M">     0</i>
  <separator name="electronic exchange-correlation" >
   <i type="string" name="GGA">PE</i>
   <i type="int" name="VOSKOWN">     0</i>
   <i type="logical" name="LHFCALC"> F  </i>
   <i type="string" name="PRECFOCK"></i>
   <i type="logical" name="LSYMGRAD"> F  </i>
   <i type="logical" name="LHFONE"> F  </i>
   <i type="logical" name="LRHFCALC"> F  </i>
   <i type="logical" name="LTHOMAS"> F  </i>
   <i type="logical" name="LMODELHF"> F  </i>
   <i name="ENCUT4O">     -1.00000000</i>
   <i type="int" name="EXXOEP">     0</i>
   <i type="int" name="FOURORBIT">     0</i>
   <i name="AEXX">      0.00000000</i>
   <i name="HFALPHA">      0.00000000</i>
   <i name="MCALPHA">      0.00000000</i>
   <i name="ALDAX">      1.00000000</i>
   <i name="AGGAX">      1.00000000</i>
   <i name="ALDAC">      1.00000000</i>
   <i name="AGGAC">      1.00000000</i>
   <i type="int" name="NKREDX">     1</i>
   <i type="int" name="NKREDY">     1</i>
   <i type="int" name="NKREDZ">     1</i>
   <i type="logical" name="SHIFTRED"> F  </i>
   <i type="logical" name="ODDONLY"> F  </i>
   <i type="logical" name="EVENONLY"> F  </i>
   <i type="int" name="LMAXFOCK">     0</i>
   <i type="int" name="NMAXFOCKAE">     0</i>
   <i type="logical" name="LFOCKAEDFT"> F  </i>
   <i name="HFSCREEN">      0.00000000</i>
   <i name="HFSCREENC">      0.00000000</i>
   <i type="int" name="NBANDSGWLOW">     0</i>
  </separator>
  <separator name="vdW DFT" >
   <i type="logical" name="LUSE_VDW"> F  </i>
   <i name="Zab_VDW">     -0.84910000</i>
   <i name="PARAM1">      0.12340000</i>
   <i name="PARAM2">      1.00000000</i>
   <i name="PARAM3">      0.00000000</i>
  </separator>
  <separator name="model GW" >
   <i type="int" name="MODEL_GW">     0</i>
   <i name="MODEL_EPS0">      7.95228621</i>
   <i name="MODEL_ALPHA">      1.00000000</i>
  </separator>
  <separator name="linear response parameters" >
   <i type="logical" name="LEPSILON"> F  </i>
   <i type="logical" name="LRPA"> F  </i>
   <i type="logical" name="LNABLA"> F  </i>
   <i type="logical" name="LVEL"> F  </i>
   <i type="int" name="KINTER">     0</i>
   <i name="CSHIFT">      0.10000000</i>
   <i name="OMEGAMAX">     -1.00000000</i>
   <i name="DEG_THRESHOLD">      0.00200000</i>
   <i name="RTIME">     -0.10000000</i>
   <i name="WPLASMAI">      0.00000000</i>
   <v name="DFIELD">      0.00000000      0.00000000      0.00000000</v>
   <v name="WPLASMA">      0.00000000      0.00000000      0.00000000      0.00000000      0.00000000      0.00000000      0.00000000      0.00000000      0.00000000</v>
  </separator>
  <separator name="orbital magnetization" >
   <i type="logical" name="NUCIND"> F  </i>
   <v name="MAGPOS">      0.00000000      0.00000000      0.00000000</v>
   <i type="logical" name="LNICSALL"> T  </i>
   <i type="logical" name="ORBITALMAG"> F  </i>
   <i type="logical" name="LMAGBLOCH"> F  </i>
   <i type="logical" name="LCHIMAG"> F  </i>
   <i type="logical" name="LGAUGE"> T  </i>
   <i type="int" name="MAGATOM">     0</i>
   <v name="MAGDIPOL">      0.00000000      0.00000000      0.00000000</v>
   <v name="AVECCONST">      0.00000000      0.00000000      0.00000000</v>
  </separator>
  <separator name="response functions" >
   <i type="logical" name="LADDER"> F  </i>
   <i type="logical" name="LRPAFORCE"> F  </i>
   <i type="logical" name="LFXC"> F  </i>
   <i type="logical" name="LHARTREE"> T  </i>
   <i type="int" name="IBSE">     0</i>
   <v type="int" name="KPOINT">    -1     0     0     0</v>
   <i type="logical" name="LTCTE"> F  </i>
   <i type="logical" name="LTETE"> F  </i>
   <i type="logical" name="LTRIPLET"> F  </i>
   <i type="logical" name="LFXCEPS"> F  </i>
   <i type="logical" name="LFXHEG"> F  </i>
   <i type="int" name="NATURALO">     2</i>
   <i type="logical" name="L2ORDER"> F  </i>
   <i type="logical" name="LMP2LT"> F  </i>
   <i type="logical" name="LUSEW"> F  </i>
   <i name="ENCUTGW">     -2.00000000</i>
   <i name="ENCUTGWSOFT">     -2.00000000</i>
   <i name="ENCUTLF">     -1.00000000</i>
   <i type="int" name="LMAXMP2">    -1</i>
   <i name="SCISSOR">      0.00000000</i>
   <i type="int" name="NOMEGA">     0</i>
   <i type="int" name="NOMEGAR">     0</i>
   <i type="int" name="NBANDSGW">    -1</i>
   <i type="int" name="NBANDSO">    -1</i>
   <i type="int" name="NBANDSV">    -1</i>
   <i type="int" name="NELM">   200</i>
   <i type="int" name="NELMHF">     1</i>
   <i type="int" name="DIM">     3</i>
   <i type="int" name="ANTIRES">     0</i>
   <i name="OMEGAMAX">    -30.00000000</i>
   <i name="OMEGAMIN">    -30.00000000</i>
   <i name="OMEGATL">   -200.00000000</i>
   <i type="int" name="OMEGAGRID">   140</i>
   <i name="CSHIFT">     -0.10000000</i>
   <i type="logical" name="SELFENERGY"> F  </i>
   <i type="logical" name="LSPECTRAL"> F  </i>
   <i type="logical" name="LSPECTRALGW"> F  </i>
   <i type="logical" name="LSINGLES"> F  </i>
   <i type="logical" name="LFERMIGW"> F  </i>
   <i type="logical" name="ODDONLYGW"> F  </i>
   <i type="logical" name="EVENONLYGW"> F  </i>
   <i type="int" name="NKREDLFX">     1</i>
   <i type="int" name="NKREDLFY">     1</i>
   <i type="int" name="NKREDLFZ">     1</i>
   <i type="int" name="MAXMEM">  2800</i>
   <i type="int" name="TELESCOPE">     0</i>
   <i type="int" name="TAUPAR">     1</i>
   <i type="int" name="OMEGAPAR">    -1</i>
   <i name="LAMBDA">      1.00000000</i>
  </separator>
  <separator name="External order field" >
   <i name="OFIELD_KAPPA">      0.00000000</i>
   <v name="OFIELD_K">      0.00000000      0.00000000      0.00000000</v>
   <i name="OFIELD_Q6_NEAR">      0.00000000</i>
   <i name="OFIELD_Q6_FAR">      0.00000000</i>
   <i name="OFIELD_A">      0.00000000</i>
  </separator>
 </parameters>
 <atominfo>
  <atoms>     144 </atoms>
  <types>       4 </types>
  <array name="atoms" >
   <dimension dim="1">ion</dimension>
   <field type="string">element</field>
   <field type="int">atomtype</field>
   <set>
    <rc><c>Li</c><c>   1</c></rc>
    <rc><c>Li</c><c>   1</c></rc>
    <rc><c>Li</c><c>   1</c></rc>
    <rc><c>Li</c><c>   1</c></rc>
    <rc><c>Li</c><c>   1</c></rc>
    <rc><c>Li</c><c>   1</c></rc>
    <rc><c>Li</c><c>   1</c></rc>
    <rc><c>Li</c><c>   1</c></rc>
    <rc><c>Li</c><c>   1</c></rc>
    <rc><c>Li</c><c>   1</c></rc>
    <rc><c>Li</c><c>   1</c></rc>
    <rc><c>Li</c><c>   1</c></rc>
    <rc><c>Li</c><c>   1</c></rc>
    <rc><c>Li</c><c>   1</c></rc>
    <rc><c>Li</c><c>   1</c></rc>
    <rc><c>Li</c><c>   1</c></rc>
    <rc><c>Li</c><c>   1</c></rc>
    <rc><c>Li</c><c>   1</c></rc>
    <rc><c>Li</c><c>   1</c></rc>
    <rc><c>Li</c><c>   1</c></rc>
    <rc><c>Li</c><c>   1</c></rc>
    <rc><c>Li</c><c>   1</c></rc>
    <rc><c>Li</c><c>   1</c></rc>
    <rc><c>Li</c><c>   1</c></rc>
    <rc><c>Li</c><c>   1</c></rc>
    <rc><c>Li</c><c>   1</c></rc>
    <rc><c>Li</c><c>   1</c></rc>
    <rc><c>Li</c><c>   1</c></rc>
    <rc><c>Li</c><c>   1</c></rc>
    <rc><c>Li</c><c>   1</c></rc>
    <rc><c>Li</c><c>   1</c></rc>
    <rc><c>Li</c><c>   1</c></rc>
    <rc><c>Li</c><c>   1</c></rc>
    <rc><c>Li</c><c>   1</c></rc>
    <rc><c>Li</c><c>   1</c></rc>
    <rc><c>Li</c><c>   1</c></rc>
    <rc><c>Li</c><c>   1</c></rc>
    <rc><c>Li</c><c>   1</c></rc>
    <rc><c>Li</c><c>   1</c></rc>
    <rc><c>Li</c><c>   1</c></rc>
    <rc><c>Li</c><c>   1</c></rc>
    <rc><c>Li</c><c>   1</c></rc>
    <rc><c>Li</c><c>   1</c></rc>
    <rc><c>Li</c><c>   1</c></rc>
    <rc><c>Li</c><c>   1</c></rc>
    <rc><c>Li</c><c>   1</c></rc>
    <rc><c>Li</c><c>   1</c></rc>
    <rc><c>Li</c><c>   1</c></rc>
    <rc><c>Fe</c><c>   2</c></rc>
    <rc><c>Fe</c><c>   2</c></rc>
    <rc><c>Fe</c><c>   2</c></rc>
    <rc><c>Fe</c><c>   2</c></rc>
    <rc><c>Fe</c><c>   2</c></rc>
    <rc><c>Fe</c><c>   2</c></rc>
    <rc><c>Fe</c><c>   2</c></rc>
    <rc><c>Fe</c><c>   2</c></rc>
    <rc><c>Fe</c><c>   2</c></rc>
    <rc><c>Fe</c><c>   2</c></rc>
    <rc><c>Fe</c><c>   2</c></rc>
    <rc><c>Fe</c><c>   2</c></rc>
    <rc><c>Fe</c><c>   2</c></rc>
    <rc><c>Fe</c><c>   2</c></rc>
    <rc><c>Fe</c><c>   2</c></rc>
    <rc><c>Fe</c><c>   2</c></rc>
    <rc><c>Fe</c><c>   2</c></rc>
    <rc><c>Fe</c><c>   2</c></rc>
    <rc><c>Fe</c><c>   2</c></rc>
    <rc><c>Fe</c><c>   2</c></rc>
    <rc><c>Fe</c><c>   2</c></rc>
    <rc><c>Fe</c><c>   2</c></rc>
    <rc><c>Fe</c><c>   2</c></rc>
    <rc><c>Fe</c><c>   2</c></rc>
    <rc><c>Fe</c><c>   2</c></rc>
    <rc><c>Fe</c><c>   2</c></rc>
    <rc><c>Fe</c><c>   2</c></rc>
    <rc><c>Fe</c><c>   2</c></rc>
    <rc><c>Fe</c><c>   2</c></rc>
    <rc><c>Fe</c><c>   2</c></rc>
    <rc><c>Fe</c><c>   2</c></rc>
    <rc><c>Fe</c><c>   2</c></rc>
    <rc><c>Fe</c><c>   2</c></rc>
    <rc><c>Fe</c><c>   2</c></rc>
    <rc><c>Fe</c><c>   2</c></rc>
    <rc><c>Fe</c><c>   2</c></rc>
    <rc><c>S </c><c>   3</c></rc>
    <rc><c>S </c><c>   3</c></rc>
    <rc><c>S </c><c>   3</c></rc>
    <rc><c>S </c><c>   3</c></rc>
    <rc><c>S </c><c>   3</c></rc>
    <rc><c>S </c><c>   3</c></rc>
    <rc><c>S </c><c>   3</c></rc>
    <rc><c>S </c><c>   3</c></rc>
    <rc><c>S </c><c>   3</c></rc>
    <rc><c>S </c><c>   3</c></rc>
    <rc><c>S </c><c>   3</c></rc>
    <rc><c>S </c><c>   3</c></rc>
    <rc><c>S </c><c>   3</c></rc>
    <rc><c>S </c><c>   3</c></rc>
    <rc><c>S </c><c>   3</c></rc>
    <rc><c>S </c><c>   3</c></rc>
    <rc><c>S </c><c>   3</c></rc>
    <rc><c>S </c><c>   3</c></rc>
    <rc><c>S </c><c>   3</c></rc>
    <rc><c>S </c><c>   3</c></rc>
    <rc><c>S </c><c>   3</c></rc>
    <rc><c>S </c><c>   3</c></rc>
    <rc><c>S </c><c>   3</c></rc>
    <rc><c>S </c><c>   3</c></rc>
    <rc><c>S </c><c>   3</c></rc>
    <rc><c>S </c><c>   3</c></rc>
    <rc><c>S </c><c>   3</c></rc>
    <rc><c>S </c><c>   3</c></rc>
    <rc><c>S </c><c>   3</c></rc>
    <rc><c>S </c><c>   3</c></rc>
    <rc><c>S </c><c>   3</c></rc>
    <rc><c>S </c><c>   3</c></rc>
    <rc><c>S </c><c>   3</c></rc>
    <rc><c>S </c><c>   3</c></rc>
    <rc><c>S </c><c>   3</c></rc>
    <rc><c>S </c><c>   3</c></rc>
    <rc><c>O </c><c>   4</c></rc>
    <rc><c>O </c><c>   4</c></rc>
    <rc><c>O </c><c>   4</c></rc>
    <rc><c>O </c><c>   4</c></rc>
    <rc><c>O </c><c>   4</c></rc>
    <rc><c>O </c><c>   4</c></rc>
    <rc><c>O </c><c>   4</c></rc>
    <rc><c>O </c><c>   4</c></rc>
    <rc><c>O </c><c>   4</c></rc>
    <rc><c>O </c><c>   4</c></rc>
    <rc><c>O </c><c>   4</c></rc>
    <rc><c>O </c><c>   4</c></rc>
    <rc><c>O </c><c>   4</c></rc>
    <rc><c>O </c><c>   4</c></rc>
    <rc><c>O </c><c>   4</c></rc>
    <rc><c>O </c><c>   4</c></rc>
    <rc><c>O </c><c>   4</c></rc>
    <rc><c>O </c><c>   4</c></rc>
    <rc><c>O </c><c>   4</c></rc>
    <rc><c>O </c><c>   4</c></rc>
    <rc><c>O </c><c>   4</c></rc>
    <rc><c>O </c><c>   4</c></rc>
    <rc><c>O </c><c>   4</c></rc>
    <rc><c>O </c><c>   4</c></rc>
   </set>
  </array>
  <array name="atomtypes" >
   <dimension dim="1">type</dimension>
   <field type="int">atomspertype</field>
   <field type="string">element</field>
   <field>mass</field>
   <field>valence</field>
   <field type="string">pseudopotential</field>
   <set>
    <rc><c>  48</c><c>Li</c><c>      7.01000000</c><c>      3.00000000</c><c>  PAW_PBE Li_sv 10Sep2004               </c></rc>
    <rc><c>  36</c><c>Fe</c><c>     55.84700000</c><c>     14.00000000</c><c>  PAW_PBE Fe_pv 02Aug2007               </c></rc>
    <rc><c>  36</c><c>S </c><c>     32.06600000</c><c>      6.00000000</c><c>  PAW_PBE S 06Sep2000                   </c></rc>
    <rc><c>  24</c><c>O </c><c>     16.00000000</c><c>      6.00000000</c><c>  PAW_PBE O 08Apr2002                   </c></rc>
   </set>
  </array>
 </atominfo>
 <structure name="initialpos" >
  <crystal>
   <varray name="basis" >
    <v>      15.21162830       0.00516956      -2.78361592 </v>
    <v>      -0.40798665      11.93565774      -2.20735884 </v>
    <v>      -0.06175567      -0.11168197      10.54442638 </v>
   </varray>
   <i name="volume">   1908.54869108 </i>
   <varray name="rec_basis" >
    <v>       0.06581343       0.00232549       0.00041008 </v>
    <v>       0.00013433       0.08395174       0.00088997 </v>
    <v>       0.01740216       0.01818827       0.09513139 </v>
   </varray>
  </crystal>
  <varray name="positions" >
   <v>       0.47527516       0.00074367       0.00446200 </v>
   <v>       0.97527516       0.00074367       0.00446200 </v>
   <v>       0.47527516       0.33407700       0.00446200 </v>
   <v>       0.97527516       0.33407700       0.00446200 </v>
   <v>       0.47527516       0.66741034       0.00446200 </v>
   <v>       0.97527516       0.66741034       0.00446200 </v>
   <v>       0.27472484       0.33258966       0.99553800 </v>
   <v>       0.77472484       0.33258966       0.99553800 </v>
   <v>       0.27472484       0.66592300       0.99553800 </v>
   <v>       0.77472484       0.66592300       0.99553800 </v>
   <v>       0.27472484       0.99925633       0.99553800 </v>
   <v>       0.77472484       0.99925633       0.99553800 </v>
   <v>       0.17788805       0.26797179       0.60783074 </v>
   <v>       0.67788805       0.26797179       0.60783074 </v>
   <v>       0.17788805       0.60130513       0.60783074 </v>
   <v>       0.67788805       0.60130513       0.60783074 </v>
   <v>       0.17788805       0.93463846       0.60783074 </v>
   <v>       0.67788805       0.93463846       0.60783074 </v>
   <v>       0.07211195       0.06536154       0.39216926 </v>
   <v>       0.57211195       0.06536154       0.39216926 </v>
   <v>       0.07211195       0.39869487       0.39216926 </v>
   <v>       0.57211195       0.39869487       0.39216926 </v>
   <v>       0.07211195       0.73202821       0.39216926 </v>
   <v>       0.57211195       0.73202821       0.39216926 </v>
   <v>       0.10733875       0.30765571       0.84593428 </v>
   <v>       0.60733875       0.30765571       0.84593428 </v>
   <v>       0.10733875       0.64098905       0.84593428 </v>
   <v>       0.60733875       0.64098905       0.84593428 </v>
   <v>       0.10733875       0.97432238       0.84593428 </v>
   <v>       0.60733875       0.97432238       0.84593428 </v>
   <v>       0.34464416       0.29539312       0.77235872 </v>
   <v>       0.84464416       0.29539312       0.77235872 </v>
   <v>       0.34464416       0.62872645       0.77235872 </v>
   <v>       0.84464416       0.62872645       0.77235872 </v>
   <v>       0.34464416       0.96205979       0.77235872 </v>
   <v>       0.84464416       0.96205979       0.77235872 </v>
   <v>       0.14266125       0.02567762       0.15406572 </v>
   <v>       0.64266125       0.02567762       0.15406572 </v>
   <v>       0.14266125       0.35901095       0.15406572 </v>
   <v>       0.64266125       0.35901095       0.15406572 </v>
   <v>       0.14266125       0.69234429       0.15406572 </v>
   <v>       0.64266125       0.69234429       0.15406572 </v>
   <v>       0.40535584       0.03794021       0.22764128 </v>
   <v>       0.90535584       0.03794021       0.22764128 </v>
   <v>       0.40535584       0.37127355       0.22764128 </v>
   <v>       0.90535584       0.37127355       0.22764128 </v>
   <v>       0.40535584       0.70460688       0.22764128 </v>
   <v>       0.90535584       0.70460688       0.22764128 </v>
   <v>       0.46517249       0.26691416       0.60148498 </v>
   <v>       0.96517249       0.26691416       0.60148498 </v>
   <v>       0.46517249       0.60024750       0.60148498 </v>
   <v>       0.96517249       0.60024750       0.60148498 </v>
   <v>       0.46517249       0.93358083       0.60148498 </v>
   <v>       0.96517249       0.93358083       0.60148498 </v>
   <v>       0.28482751       0.06641917       0.39851502 </v>
   <v>       0.78482751       0.06641917       0.39851502 </v>
   <v>       0.28482751       0.39975250       0.39851502 </v>
   <v>       0.78482751       0.39975250       0.39851502 </v>
   <v>       0.28482751       0.73308584       0.39851502 </v>
   <v>       0.78482751       0.73308584       0.39851502 </v>
   <v>       0.22447416       0.13353711       0.80122268 </v>
   <v>       0.72447416       0.13353711       0.80122268 </v>
   <v>       0.22447416       0.46687045       0.80122268 </v>
   <v>       0.72447416       0.46687045       0.80122268 </v>
   <v>       0.22447416       0.80020378       0.80122268 </v>
   <v>       0.72447416       0.80020378       0.80122268 </v>
   <v>       0.47796479       0.13582521       0.81400296 </v>
   <v>       0.97796479       0.13582521       0.81495126 </v>
   <v>       0.47796479       0.46915854       0.81495126 </v>
   <v>       0.97796479       0.46915854       0.81495126 </v>
   <v>       0.47796479       0.80249188       0.81495126 </v>
   <v>       0.97796479       0.80249188       0.81495126 </v>
   <v>       0.02552584       0.19979622       0.19877732 </v>
   <v>       0.52552584       0.19979622       0.19877732 </v>
   <v>       0.02552584       0.53312955       0.19877732 </v>
   <v>       0.52552584       0.53312955       0.19877732 </v>
   <v>       0.02552584       0.86646289       0.19877732 </v>
   <v>       0.52552584       0.86646289       0.19877732 </v>
   <v>       0.27203521       0.19750812       0.18504874 </v>
   <v>       0.77203521       0.19750812       0.18504874 </v>
   <v>       0.27203521       0.53084146       0.18504874 </v>
   <v>       0.77203521       0.53084146       0.18504874 </v>
   <v>       0.27203521       0.86417479       0.18504874 </v>
   <v>       0.77203521       0.86417479       0.18504874 </v>
   <v>       0.12500000       0.16666667       0.00000000 </v>
   <v>       0.62500000       0.16666667       0.00000000 </v>
   <v>       0.12500000       0.50000000       0.00000000 </v>
   <v>       0.62500000       0.50000000       0.00000000 </v>
   <v>       0.12500000       0.83333333       0.00000000 </v>
   <v>       0.62500000       0.83333333       0.00000000 </v>
   <v>       0.37500000       0.16666667       0.00000000 </v>
   <v>       0.87500000       0.16666667       0.00000000 </v>
   <v>       0.37500000       0.50000000       0.00000000 </v>
   <v>       0.87500000       0.50000000       0.00000000 </v>
   <v>       0.37500000       0.83333333       0.00000000 </v>
   <v>       0.87500000       0.83333333       0.00000000 </v>
   <v>       0.17614737       0.22809805       0.36858830 </v>
   <v>       0.67614737       0.22809805       0.36858830 </v>
   <v>       0.17614737       0.56143138       0.36858830 </v>
   <v>       0.67614737       0.56143138       0.36858830 </v>
   <v>       0.17614737       0.89476472       0.36858830 </v>
   <v>       0.67614737       0.89476472       0.36858830 </v>
   <v>       0.41542106       0.22793643       0.36761855 </v>
   <v>       0.91542106       0.22793643       0.36761855 </v>
   <v>       0.41542106       0.56126976       0.36761855 </v>
   <v>       0.91542106       0.56126976       0.36761855 </v>
   <v>       0.41542106       0.89460309       0.36761855 </v>
   <v>       0.91542106       0.89460309       0.36761855 </v>
   <v>       0.07385263       0.10523528       0.63141170 </v>
   <v>       0.57385263       0.10523528       0.63141170 </v>
   <v>       0.07385263       0.43856862       0.63141170 </v>
   <v>       0.57385263       0.43856862       0.63141170 </v>
   <v>       0.07385263       0.77190195       0.63141170 </v>
   <v>       0.57385263       0.77190195       0.63141170 </v>
   <v>       0.33457894       0.10539691       0.63238145 </v>
   <v>       0.83457894       0.10539691       0.63238145 </v>
   <v>       0.33457894       0.43873024       0.63238145 </v>
   <v>       0.83457894       0.43873024       0.63238145 </v>
   <v>       0.33457894       0.77206357       0.63238145 </v>
   <v>       0.83457894       0.77206357       0.63238145 </v>
   <v>       0.22527003       0.30093342       0.80560053 </v>
   <v>       0.72527003       0.30093342       0.80560053 </v>
   <v>       0.22527003       0.63426676       0.80560053 </v>
   <v>       0.72527003       0.63426676       0.80560053 </v>
   <v>       0.22527003       0.96760009       0.80560053 </v>
   <v>       0.72527003       0.96760009       0.80560053 </v>
   <v>       0.47618324       0.30143353       0.80860116 </v>
   <v>       0.97618324       0.30143353       0.80860116 </v>
   <v>       0.47618324       0.63476686       0.80860116 </v>
   <v>       0.97618324       0.63476686       0.80860116 </v>
   <v>       0.47618324       0.96810019       0.80860116 </v>
   <v>       0.97618324       0.96810019       0.80860116 </v>
   <v>       0.02472997       0.03239991       0.19439947 </v>
   <v>       0.52472997       0.03239991       0.19439947 </v>
   <v>       0.02472997       0.36573324       0.19439947 </v>
   <v>       0.52472997       0.36573324       0.19439947 </v>
   <v>       0.02472997       0.69906658       0.19439947 </v>
   <v>       0.52472997       0.69906658       0.19439947 </v>
   <v>       0.27381676       0.03189981       0.19139884 </v>
   <v>       0.77381676       0.03189981       0.19139884 </v>
   <v>       0.27381676       0.36523314       0.19139884 </v>
   <v>       0.77381676       0.36523314       0.19139884 </v>
   <v>       0.27381676       0.69856647       0.19139884 </v>
   <v>       0.77381676       0.69856647       0.19139884 </v>
  </varray>
 </structure>
 <calculation>
  <scstep>
   <time name="dav">  337.62  341.09</time>
   <time name="total">  340.22  343.73</time>
   <energy>
    <i name="alphaZ">   2668.72143546 </i>
    <i name="ewald"> -68024.76068162 </i>
    <i name="hartreedc"> -39876.48701016 </i>
    <i name="XCdc">   4298.62578373 </i>
    <i name="pawpsdc"> 114383.84820647 </i>
    <i name="pawaedc">-118048.71515856 </i>
    <i name="eentropy">     -0.02909920 </i>
    <i name="bandstr">   -564.38350051 </i>
    <i name="atom"> 118542.86816856 </i>
    <i name="e_fr_energy">  13379.68814417 </i>
    <i name="e_wo_entrp">  13379.71724337 </i>
    <i name="e_0_energy">  13379.70269377 </i>
   </energy>
  </scstep>
  <scstep>
   <time name="dav">  326.08  330.12</time>
   <time name="total">  326.09  330.12</time>
   <energy>
    <i name="e_fr_energy">   1421.85939322 </i>
    <i name="e_wo_entrp">   1421.94423658 </i>
    <i name="e_0_energy">   1421.90181490 </i>
   </energy>
  </scstep>
  <scstep>
   <time name="dav">  352.79  356.56</time>
   <time name="total">  352.80  356.56</time>
   <energy>
    <i name="e_fr_energy">   -473.21802772 </i>
    <i name="e_wo_entrp">   -473.21802772 </i>
    <i name="e_0_energy">   -473.21802772 </i>
   </energy>
  </scstep>
  <scstep>
   <time name="dav">  390.53  394.78</time>
   <time name="total">  390.54  394.78</time>
   <energy>
    <i name="e_fr_energy">   -715.91036014 </i>
    <i name="e_wo_entrp">   -715.91036014 </i>
    <i name="e_0_energy">   -715.91036014 </i>
   </energy>
  </scstep>
  <scstep>
   <time name="dav">  517.77  522.73</time>
   <time name="total">  528.61  533.78</time>
   <energy>
    <i name="e_fr_energy">   -745.36172041 </i>
    <i name="e_wo_entrp">   -745.36172041 </i>
    <i name="e_0_energy">   -745.36172041 </i>
   </energy>
  </scstep>
  <scstep>
   <time name="dav">  417.64  422.00</time>
   <time name="total">  431.10  435.53</time>
   <energy>
    <i name="e_fr_energy">   -746.58184693 </i>
    <i name="e_wo_entrp">   -746.58184693 </i>
    <i name="e_0_energy">   -746.58184693 </i>
   </energy>
  </scstep>
  <scstep>
   <time name="dav">  465.80  470.54</time>
   <time name="total">  479.28  484.13</time>
   <energy>
    <i name="e_fr_energy">   -746.63637357 </i>
    <i name="e_wo_entrp">   -746.63637357 </i>
    <i name="e_0_energy">   -746.63637357 </i>
   </energy>
  </scstep>
  <scstep>
   <time name="dav">  441.62  446.97</time>
   <time name="total">  455.17  460.62</time>
   <energy>
    <i name="e_fr_energy">   -746.63578831 </i>
    <i name="e_wo_entrp">   -746.63578831 </i>
    <i name="e_0_energy">   -746.63578831 </i>
   </energy>
  </scstep>
  <scstep>
   <time name="dav">  488.27  493.99</time>
   <time name="total">  501.86  507.64</time>
   <energy>
    <i name="e_fr_energy">   -746.63460937 </i>
    <i name="e_wo_entrp">   -746.63460937 </i>
    <i name="e_0_energy">   -746.63460937 </i>
   </energy>
  </scstep>
  <scstep>
   <time name="dav">  521.42  526.93</time>
   <time name="total">  534.88  540.60</time>
   <energy>
    <i name="e_fr_energy">   -746.63108312 </i>
    <i name="e_wo_entrp">   -746.63108312 </i>
    <i name="e_0_energy">   -746.63108312 </i>
   </energy>
  </scstep>
  <scstep>
   <time name="dav">  390.71  394.94</time>
   <time name="total">  404.23  408.55</time>
   <energy>
    <i name="e_fr_energy">   -746.63091763 </i>
    <i name="e_wo_entrp">   -746.63091763 </i>
    <i name="e_0_energy">   -746.63091763 </i>
   </energy>
  </scstep>
  <scstep>
   <time name="dav">  436.74  441.39</time>
   <time name="total">  450.25  454.94</time>
   <energy>
    <i name="e_fr_energy">   -746.63096275 </i>
    <i name="e_wo_entrp">   -746.63096275 </i>
    <i name="e_0_energy">   -746.63096275 </i>
   </energy>
  </scstep>
  <scstep>
   <time name="dav">  409.35  414.05</time>
   <time name="total">  422.78  427.66</time>
   <energy>
    <i name="e_fr_energy">   -746.63096294 </i>
    <i name="e_wo_entrp">   -746.63096294 </i>
    <i name="e_0_energy">   -746.63096294 </i>
   </energy>
  </scstep>
  <scstep>
   <time name="dav">  353.77  357.05</time>
   <time name="total">  367.31  370.63</time>
   <energy>
    <i name="e_fr_energy">   -746.63096424 </i>
    <i name="e_wo_entrp">   -746.63096424 </i>
    <i name="e_0_energy">   -746.63096424 </i>
   </energy>
  </scstep>
  <scstep>
   <time name="dav">  357.82  365.58</time>
   <time name="total">  371.16  379.17</time>
   <energy>
    <i name="e_fr_energy">   -746.63096835 </i>
    <i name="e_wo_entrp">   -746.63096835 </i>
    <i name="e_0_energy">   -746.63096835 </i>
   </energy>
  </scstep>
  <scstep>
   <time name="dav">  258.55  263.34</time>
   <time name="total">  271.78  276.97</time>
   <energy>
    <i name="e_fr_energy">   -746.63096987 </i>
    <i name="e_wo_entrp">   -746.63096987 </i>
    <i name="e_0_energy">   -746.63096987 </i>
   </energy>
  </scstep>
  <scstep>
   <time name="dav">  240.50  245.53</time>
   <time name="total">  253.88  259.18</time>
   <energy>
    <i name="e_fr_energy">   -746.63097222 </i>
    <i name="e_wo_entrp">   -746.63097222 </i>
    <i name="e_0_energy">   -746.63097222 </i>
   </energy>
  </scstep>
  <scstep>
   <time name="dav">  229.40  234.11</time>
   <time name="total">  242.57  247.64</time>
   <energy>
    <i name="e_fr_energy">   -746.63097336 </i>
    <i name="e_wo_entrp">   -746.63097336 </i>
    <i name="e_0_energy">   -746.63097336 </i>
   </energy>
  </scstep>
  <scstep>
   <time name="dav">  237.93  243.18</time>
   <time name="total">  240.48  245.77</time>
   <energy>
    <i name="alphaZ">   2668.72143546 </i>
    <i name="ewald"> -68024.76068162 </i>
    <i name="hartreedc"> -39876.52404776 </i>
    <i name="XCdc">   4298.62363959 </i>
    <i name="pawpsdc"> 114384.79644603 </i>
    <i name="pawaedc">-118049.67009890 </i>
    <i name="eentropy">     -0.00000000 </i>
    <i name="bandstr"> -14690.68583552 </i>
    <i name="atom"> 118542.86816856 </i>
    <i name="e_fr_energy">   -746.63097415 </i>
    <i name="e_wo_entrp">   -746.63097415 </i>
    <i name="e_0_energy">   -746.63097415 </i>
   </energy>
  </scstep>
  <structure>
   <crystal>
    <varray name="basis" >
     <v>      15.21162830       0.00516956      -2.78361592 </v>
     <v>      -0.40798665      11.93565774      -2.20735884 </v>
     <v>      -0.06175567      -0.11168197      10.54442638 </v>
    </varray>
    <i name="volume">   1908.54869108 </i>
    <varray name="rec_basis" >
     <v>       0.06581343       0.00232549       0.00041008 </v>
     <v>       0.00013433       0.08395174       0.00088997 </v>
     <v>       0.01740216       0.01818827       0.09513139 </v>
    </varray>
   </crystal>
   <varray name="positions" >
    <v>       0.47527516       0.00074367       0.00446200 </v>
    <v>       0.97527516       0.00074367       0.00446200 </v>
    <v>       0.47527516       0.33407700       0.00446200 </v>
    <v>       0.97527516       0.33407700       0.00446200 </v>
    <v>       0.47527516       0.66741034       0.00446200 </v>
    <v>       0.97527516       0.66741034       0.00446200 </v>
    <v>       0.27472484       0.33258966       0.99553800 </v>
    <v>       0.77472484       0.33258966       0.99553800 </v>
    <v>       0.27472484       0.66592300       0.99553800 </v>
    <v>       0.77472484       0.66592300       0.99553800 </v>
    <v>       0.27472484       0.99925633       0.99553800 </v>
    <v>       0.77472484       0.99925633       0.99553800 </v>
    <v>       0.17788805       0.26797179       0.60783074 </v>
    <v>       0.67788805       0.26797179       0.60783074 </v>
    <v>       0.17788805       0.60130513       0.60783074 </v>
    <v>       0.67788805       0.60130513       0.60783074 </v>
    <v>       0.17788805       0.93463846       0.60783074 </v>
    <v>       0.67788805       0.93463846       0.60783074 </v>
    <v>       0.07211195       0.06536154       0.39216926 </v>
    <v>       0.57211195       0.06536154       0.39216926 </v>
    <v>       0.07211195       0.39869487       0.39216926 </v>
    <v>       0.57211195       0.39869487       0.39216926 </v>
    <v>       0.07211195       0.73202821       0.39216926 </v>
    <v>       0.57211195       0.73202821       0.39216926 </v>
    <v>       0.10733875       0.30765571       0.84593428 </v>
    <v>       0.60733875       0.30765571       0.84593428 </v>
    <v>       0.10733875       0.64098905       0.84593428 </v>
    <v>       0.60733875       0.64098905       0.84593428 </v>
    <v>       0.10733875       0.97432238       0.84593428 </v>
    <v>       0.60733875       0.97432238       0.84593428 </v>
    <v>       0.34464416       0.29539312       0.77235872 </v>
    <v>       0.84464416       0.29539312       0.77235872 </v>
    <v>       0.34464416       0.62872645       0.77235872 </v>
    <v>       0.84464416       0.62872645       0.77235872 </v>
    <v>       0.34464416       0.96205979       0.77235872 </v>
    <v>       0.84464416       0.96205979       0.77235872 </v>
    <v>       0.14266125       0.02567762       0.15406572 </v>
    <v>       0.64266125       0.02567762       0.15406572 </v>
    <v>       0.14266125       0.35901095       0.15406572 </v>
    <v>       0.64266125       0.35901095       0.15406572 </v>
    <v>       0.14266125       0.69234429       0.15406572 </v>
    <v>       0.64266125       0.69234429       0.15406572 </v>
    <v>       0.40535584       0.03794021       0.22764128 </v>
    <v>       0.90535584       0.03794021       0.22764128 </v>
    <v>       0.40535584       0.37127355       0.22764128 </v>
    <v>       0.90535584       0.37127355       0.22764128 </v>
    <v>       0.40535584       0.70460688       0.22764128 </v>
    <v>       0.90535584       0.70460688       0.22764128 </v>
    <v>       0.46517249       0.26691416       0.60148498 </v>
    <v>       0.96517249       0.26691416       0.60148498 </v>
    <v>       0.46517249       0.60024750       0.60148498 </v>
    <v>       0.96517249       0.60024750       0.60148498 </v>
    <v>       0.46517249       0.93358083       0.60148498 </v>
    <v>       0.96517249       0.93358083       0.60148498 </v>
    <v>       0.28482751       0.06641917       0.39851502 </v>
    <v>       0.78482751       0.06641917       0.39851502 </v>
    <v>       0.28482751       0.39975250       0.39851502 </v>
    <v>       0.78482751       0.39975250       0.39851502 </v>
    <v>       0.28482751       0.73308584       0.39851502 </v>
    <v>       0.78482751       0.73308584       0.39851502 </v>
    <v>       0.22447416       0.13353711       0.80122268 </v>
    <v>       0.72447416       0.13353711       0.80122268 </v>
    <v>       0.22447416       0.46687045       0.80122268 </v>
    <v>       0.72447416       0.46687045       0.80122268 </v>
    <v>       0.22447416       0.80020378       0.80122268 </v>
    <v>       0.72447416       0.80020378       0.80122268 </v>
    <v>       0.47796479       0.13582521       0.81400296 </v>
    <v>       0.97796479       0.13582521       0.81495126 </v>
    <v>       0.47796479       0.46915854       0.81495126 </v>
    <v>       0.97796479       0.46915854       0.81495126 </v>
    <v>       0.47796479       0.80249188       0.81495126 </v>
    <v>       0.97796479       0.80249188       0.81495126 </v>
    <v>       0.02552584       0.19979622       0.19877732 </v>
    <v>       0.52552584       0.19979622       0.19877732 </v>
    <v>       0.02552584       0.53312955       0.19877732 </v>
    <v>       0.52552584       0.53312955       0.19877732 </v>
    <v>       0.02552584       0.86646289       0.19877732 </v>
    <v>       0.52552584       0.86646289       0.19877732 </v>
    <v>       0.27203521       0.19750812       0.18504874 </v>
    <v>       0.77203521       0.19750812       0.18504874 </v>
    <v>       0.27203521       0.53084146       0.18504874 </v>
    <v>       0.77203521       0.53084146       0.18504874 </v>
    <v>       0.27203521       0.86417479       0.18504874 </v>
    <v>       0.77203521       0.86417479       0.18504874 </v>
    <v>       0.12500000       0.16666667       0.00000000 </v>
    <v>       0.62500000       0.16666667       0.00000000 </v>
    <v>       0.12500000       0.50000000       0.00000000 </v>
    <v>       0.62500000       0.50000000       0.00000000 </v>
    <v>       0.12500000       0.83333333       0.00000000 </v>
    <v>       0.62500000       0.83333333       0.00000000 </v>
    <v>       0.37500000       0.16666667       0.00000000 </v>
    <v>       0.87500000       0.16666667       0.00000000 </v>
    <v>       0.37500000       0.50000000       0.00000000 </v>
    <v>       0.87500000       0.50000000       0.00000000 </v>
    <v>       0.37500000       0.83333333       0.00000000 </v>
    <v>       0.87500000       0.83333333       0.00000000 </v>
    <v>       0.17614737       0.22809805       0.36858830 </v>
    <v>       0.67614737       0.22809805       0.36858830 </v>
    <v>       0.17614737       0.56143138       0.36858830 </v>
    <v>       0.67614737       0.56143138       0.36858830 </v>
    <v>       0.17614737       0.89476472       0.36858830 </v>
    <v>       0.67614737       0.89476472       0.36858830 </v>
    <v>       0.41542106       0.22793643       0.36761855 </v>
    <v>       0.91542106       0.22793643       0.36761855 </v>
    <v>       0.41542106       0.56126976       0.36761855 </v>
    <v>       0.91542106       0.56126976       0.36761855 </v>
    <v>       0.41542106       0.89460309       0.36761855 </v>
    <v>       0.91542106       0.89460309       0.36761855 </v>
    <v>       0.07385263       0.10523528       0.63141170 </v>
    <v>       0.57385263       0.10523528       0.63141170 </v>
    <v>       0.07385263       0.43856862       0.63141170 </v>
    <v>       0.57385263       0.43856862       0.63141170 </v>
    <v>       0.07385263       0.77190195       0.63141170 </v>
    <v>       0.57385263       0.77190195       0.63141170 </v>
    <v>       0.33457894       0.10539691       0.63238145 </v>
    <v>       0.83457894       0.10539691       0.63238145 </v>
    <v>       0.33457894       0.43873024       0.63238145 </v>
    <v>       0.83457894       0.43873024       0.63238145 </v>
    <v>       0.33457894       0.77206357       0.63238145 </v>
    <v>       0.83457894       0.77206357       0.63238145 </v>
    <v>       0.22527003       0.30093342       0.80560053 </v>
    <v>       0.72527003       0.30093342       0.80560053 </v>
    <v>       0.22527003       0.63426676       0.80560053 </v>
    <v>       0.72527003       0.63426676       0.80560053 </v>
    <v>       0.22527003       0.96760009       0.80560053 </v>
    <v>       0.72527003       0.96760009       0.80560053 </v>
    <v>       0.47618324       0.30143353       0.80860116 </v>
    <v>       0.97618324       0.30143353       0.80860116 </v>
    <v>       0.47618324       0.63476686       0.80860116 </v>
    <v>       0.97618324       0.63476686       0.80860116 </v>
    <v>       0.47618324       0.96810019       0.80860116 </v>
    <v>       0.97618324       0.96810019       0.80860116 </v>
    <v>       0.02472997       0.03239991       0.19439947 </v>
    <v>       0.52472997       0.03239991       0.19439947 </v>
    <v>       0.02472997       0.36573324       0.19439947 </v>
    <v>       0.52472997       0.36573324       0.19439947 </v>
    <v>       0.02472997       0.69906658       0.19439947 </v>
    <v>       0.52472997       0.69906658       0.19439947 </v>
    <v>       0.27381676       0.03189981       0.19139884 </v>
    <v>       0.77381676       0.03189981       0.19139884 </v>
    <v>       0.27381676       0.36523314       0.19139884 </v>
    <v>       0.77381676       0.36523314       0.19139884 </v>
    <v>       0.27381676       0.69856647       0.19139884 </v>
    <v>       0.77381676       0.69856647       0.19139884 </v>
   </varray>
  </structure>
  <varray name="forces" >
   <v>      -0.00022564       0.00673026      -0.00722031 </v>
   <v>       0.00013048       0.00010318      -0.00020493 </v>
   <v>       0.00020192      -0.00703116      -0.00094923 </v>
   <v>       0.00015952      -0.00034029      -0.00011678 </v>
   <v>       0.00000049       0.00004486      -0.00008178 </v>
   <v>       0.00012043      -0.00011304      -0.00019189 </v>
   <v>       0.00110666      -0.00145852       0.00070952 </v>
   <v>      -0.00069175      -0.00060703       0.00080621 </v>
   <v>       0.00004404       0.00021245       0.00006127 </v>
   <v>      -0.00015789       0.00019806       0.00018217 </v>
   <v>       0.00105872       0.00164909      -0.00010710 </v>
   <v>      -0.00074916       0.00084893       0.00045353 </v>
   <v>      -0.00121763       0.00100447       0.00019486 </v>
   <v>       0.00077555       0.00171712      -0.00049660 </v>
   <v>      -0.00060695       0.00051070       0.00009830 </v>
   <v>      -0.00017977       0.00056751      -0.00007051 </v>
   <v>      -0.00115825      -0.00022112       0.00061221 </v>
   <v>       0.00085534      -0.00107992       0.00030781 </v>
   <v>       0.00023960      -0.00033738      -0.00015527 </v>
   <v>       0.00004996      -0.00062934      -0.00227357 </v>
   <v>       0.00035358      -0.00040942      -0.00009234 </v>
   <v>       0.00041074      -0.00052018      -0.00061644 </v>
   <v>       0.00037022      -0.00052015      -0.00000541 </v>
   <v>       0.00050004      -0.00060555      -0.00017643 </v>
   <v>      -0.00028089       0.00002730      -0.00001660 </v>
   <v>       0.00199586       0.00149451       0.00252739 </v>
   <v>      -0.00032709       0.00009869      -0.00015792 </v>
   <v>      -0.00022613       0.00033955       0.00014021 </v>
   <v>      -0.00024713       0.00023994      -0.00007886 </v>
   <v>      -0.00153481       0.00109267       0.00266602 </v>
   <v>      -0.00273905       0.00069046       0.00248169 </v>
   <v>      -0.00113822      -0.00021932       0.00002873 </v>
   <v>      -0.00132691      -0.00002975       0.00025325 </v>
   <v>      -0.00124199      -0.00024904      -0.00003170 </v>
   <v>       0.00055139       0.00089331       0.00255409 </v>
   <v>      -0.00117825      -0.00022743       0.00005936 </v>
   <v>       0.00043482       0.00003306      -0.00005774 </v>
   <v>       0.00002035       0.00060035      -0.00088921 </v>
   <v>       0.00049310      -0.00022732       0.00003286 </v>
   <v>       0.00023017      -0.00122506      -0.00044990 </v>
   <v>       0.00028871      -0.00019989       0.00007967 </v>
   <v>       0.00025875      -0.00007965       0.00003038 </v>
   <v>       0.00112370       0.00071990      -0.00131359 </v>
   <v>       0.00113665       0.00033507      -0.00001193 </v>
   <v>       0.00112691      -0.00057117      -0.00094960 </v>
   <v>       0.00113897       0.00015673       0.00004191 </v>
   <v>       0.00132474       0.00008508      -0.00019758 </v>
   <v>       0.00129428       0.00023490       0.00006924 </v>
   <v>      -0.00298155       0.00936093      -0.01253952 </v>
   <v>       0.00000197       0.00059007      -0.00038968 </v>
   <v>      -0.00033173       0.00073640      -0.00049564 </v>
   <v>       0.00000302       0.00044109      -0.00026400 </v>
   <v>      -0.00146765      -0.00944947      -0.00105666 </v>
   <v>       0.00005385       0.00026607      -0.00012565 </v>
   <v>      -0.00053520      -0.00085061      -0.00374473 </v>
   <v>       0.00016308      -0.00030336      -0.00051349 </v>
   <v>      -0.00021380      -0.00053078      -0.00079795 </v>
   <v>       0.00005607      -0.00058245      -0.00024346 </v>
   <v>      -0.00002880      -0.00080413       0.00033099 </v>
   <v>       0.00016307      -0.00063763       0.00025222 </v>
   <v>       0.00129013       0.00023279       0.00328481 </v>
   <v>       0.00177599       0.00017263       0.00298190 </v>
   <v>      -0.00011191      -0.00022707       0.00055675 </v>
   <v>       0.00039587       0.00004905       0.00040124 </v>
   <v>       0.00014668       0.00005348       0.00039136 </v>
   <v>       0.00008944      -0.00020781       0.00047494 </v>
   <v>       0.00001918      -0.02052695       0.04718278 </v>
   <v>      -0.00000345       0.00015835       0.00063650 </v>
   <v>      -0.00031767       0.00324045      -0.00015092 </v>
   <v>      -0.00020092      -0.00001267      -0.00011204 </v>
   <v>      -0.00028032       0.00225783      -0.00016498 </v>
   <v>      -0.00020615       0.00006412      -0.00011157 </v>
   <v>      -0.00025120       0.00012446      -0.00062216 </v>
   <v>      -0.00103632      -0.00068299      -0.00443495 </v>
   <v>      -0.00006441       0.00005851      -0.00016676 </v>
   <v>      -0.00002772      -0.00057148      -0.00007509 </v>
   <v>      -0.00027943       0.00032465      -0.00038796 </v>
   <v>      -0.00005814       0.00091052      -0.00098773 </v>
   <v>       0.00224820      -0.00055025      -0.00429439 </v>
   <v>      -0.00190275      -0.00045389      -0.00241836 </v>
   <v>       0.00016585      -0.00071856       0.00028113 </v>
   <v>       0.00036730      -0.00055347       0.00035088 </v>
   <v>       0.00014257       0.00044245      -0.00055813 </v>
   <v>       0.00019411       0.00046078      -0.00026441 </v>
   <v>      -0.00115529      -0.00007100      -0.00012363 </v>
   <v>       0.00063786       0.00043977      -0.00219927 </v>
   <v>      -0.00002366       0.00011468      -0.00005924 </v>
   <v>      -0.00052959       0.00000597      -0.00072186 </v>
   <v>      -0.00004773      -0.00010769       0.00010934 </v>
   <v>       0.00027341      -0.00073849       0.00007168 </v>
   <v>      -0.00218306       0.00068679      -0.00036646 </v>
   <v>       0.00068134      -0.00006722      -0.00054353 </v>
   <v>       0.00033329       0.00031507      -0.00081068 </v>
   <v>      -0.00009641       0.00006204      -0.00012332 </v>
   <v>      -0.00016579      -0.00099710       0.00033607 </v>
   <v>       0.00000404      -0.00011679      -0.00007487 </v>
   <v>       0.00040172      -0.00064278       0.00122696 </v>
   <v>      -0.00027808      -0.00057522       0.00172262 </v>
   <v>       0.00003077      -0.00024987       0.00034229 </v>
   <v>       0.00002384      -0.00017153       0.00034563 </v>
   <v>       0.00049940       0.00011035       0.00078053 </v>
   <v>      -0.00040780       0.00006129       0.00109720 </v>
   <v>       0.00097133      -0.00039231       0.00309430 </v>
   <v>       0.00032525      -0.00025628       0.00042885 </v>
   <v>       0.00017159      -0.00008766       0.00039538 </v>
   <v>       0.00019899      -0.00016951       0.00005119 </v>
   <v>       0.00051832       0.00049473       0.00139334 </v>
   <v>       0.00019424      -0.00037411       0.00014060 </v>
   <v>       0.00041566       0.00030279      -0.00047225 </v>
   <v>       0.00467365       0.00006824      -0.00774109 </v>
   <v>       0.00004778       0.00041291      -0.00020065 </v>
   <v>      -0.00036165      -0.00071051       0.00033568 </v>
   <v>      -0.00001721       0.00038483      -0.00022793 </v>
   <v>       0.00011093       0.00062691      -0.00076062 </v>
   <v>      -0.00267781       0.00031534      -0.00311050 </v>
   <v>      -0.00077544       0.00025577       0.00006695 </v>
   <v>       0.00051786      -0.00033934       0.00029470 </v>
   <v>      -0.00021646       0.00033134       0.00013341 </v>
   <v>      -0.00034347       0.00019340      -0.00056734 </v>
   <v>      -0.00020052       0.00034846      -0.00000029 </v>
   <v>      -0.00028390       0.00012712      -0.00155909 </v>
   <v>      -0.00094954      -0.00045735      -0.00127049 </v>
   <v>      -0.00002579      -0.00013191      -0.00025010 </v>
   <v>      -0.00025577      -0.00015342      -0.00022570 </v>
   <v>      -0.00058785      -0.00036001      -0.00140261 </v>
   <v>      -0.00064624       0.00025033      -0.00150856 </v>
   <v>      -0.00043979       0.00934095      -0.00775541 </v>
   <v>      -0.00052476      -0.00003556      -0.00053875 </v>
   <v>      -0.00035106      -0.00112985      -0.00072496 </v>
   <v>      -0.00045234      -0.00013186      -0.00027928 </v>
   <v>      -0.00037828       0.00524717      -0.00938049 </v>
   <v>      -0.00051428      -0.00034870      -0.00049984 </v>
   <v>       0.00014523      -0.00036078       0.00023574 </v>
   <v>       0.00060285      -0.00146472       0.00217303 </v>
   <v>       0.00012768       0.00010625       0.00013135 </v>
   <v>       0.00037182       0.00180125       0.00101268 </v>
   <v>       0.00014780       0.00007308       0.00004231 </v>
   <v>       0.00004515       0.00004512       0.00026581 </v>
   <v>      -0.00004982      -0.00126453       0.00258091 </v>
   <v>       0.00117423      -0.00096038       0.00141175 </v>
   <v>      -0.00023942       0.00210162       0.00173242 </v>
   <v>       0.00112298       0.00168250       0.00096689 </v>
   <v>       0.00051420       0.00037462       0.00051848 </v>
   <v>       0.00035024       0.00017831       0.00037802 </v>
  </varray>
  <varray name="stress" >
   <v>      -0.11820407       0.01507436       0.01470059 </v>
   <v>       0.00510439      -0.13562844      -0.07805263 </v>
   <v>      -0.02389153      -0.04918037      -0.10553324 </v>
  </varray>
  <energy>
   <i name="e_fr_energy">   -746.63097415 </i>
   <i name="e_wo_entrp">   -746.63097415 </i>
   <i name="e_0_energy">     -0.00000000 </i>
  </energy>
  <time name="totalsc"> 7940.33 8043.23</time>
  <eigenvalues>
   <array>
    <dimension dim="1">band</dimension>
    <dimension dim="2">kpoint</dimension>
    <dimension dim="3">spin</dimension>
    <field>eigene</field>
    <field>occ</field>
    <set>
     <set comment="spin 1">
      <set comment="kpoint 1">
       <r>  -51.6058    1.0000 </r>
       <r>  -51.6043    1.0000 </r>
       <r>  -51.6038    1.0000 </r>
       <r>  -51.6031    1.0000 </r>
       <r>  -51.6028    1.0000 </r>
       <r>  -51.6028    1.0000 </r>
       <r>  -51.6028    1.0000 </r>
       <r>  -51.6026    1.0000 </r>
       <r>  -51.6026    1.0000 </r>
       <r>  -51.6025    1.0000 </r>
       <r>  -51.6025    1.0000 </r>
       <r>  -51.6021    1.0000 </r>
       <r>  -51.4192    1.0000 </r>
       <r>  -51.4178    1.0000 </r>
       <r>  -51.4177    1.0000 </r>
       <r>  -51.4177    1.0000 </r>
       <r>  -51.4176    1.0000 </r>
       <r>  -51.4174    1.0000 </r>
       <r>  -51.4174    1.0000 </r>
       <r>  -51.4173    1.0000 </r>
       <r>  -51.4171    1.0000 </r>
       <r>  -51.4161    1.0000 </r>
       <r>  -51.4158    1.0000 </r>
       <r>  -51.4154    1.0000 </r>
       <r>  -51.2984    1.0000 </r>
       <r>  -51.2981    1.0000 </r>
       <r>  -51.2979    1.0000 </r>
       <r>  -51.2978    1.0000 </r>
       <r>  -51.2977    1.0000 </r>
       <r>  -51.2977    1.0000 </r>
       <r>  -51.2976    1.0000 </r>
       <r>  -51.2973    1.0000 </r>
       <r>  -51.2971    1.0000 </r>
       <r>  -51.2970    1.0000 </r>
       <r>  -51.2970    1.0000 </r>
       <r>  -51.2959    1.0000 </r>
       <r>  -50.1605    1.0000 </r>
       <r>  -50.1593    1.0000 </r>
       <r>  -50.1585    1.0000 </r>
       <r>  -50.1578    1.0000 </r>
       <r>  -50.1577    1.0000 </r>
       <r>  -50.1576    1.0000 </r>
       <r>  -50.1576    1.0000 </r>
       <r>  -50.1574    1.0000 </r>
       <r>  -50.1573    1.0000 </r>
       <r>  -50.1570    1.0000 </r>
       <r>  -50.1569    1.0000 </r>
       <r>  -50.1565    1.0000 </r>
       <r>  -50.0698    1.0000 </r>
       <r>  -50.0684    1.0000 </r>
       <r>  -50.0668    1.0000 </r>
       <r>  -50.0663    1.0000 </r>
       <r>  -50.0661    1.0000 </r>
       <r>  -50.0659    1.0000 </r>
       <r>  -50.0659    1.0000 </r>
       <r>  -50.0658    1.0000 </r>
       <r>  -50.0658    1.0000 </r>
       <r>  -50.0656    1.0000 </r>
       <r>  -50.0655    1.0000 </r>
       <r>  -50.0654    1.0000 </r>
       <r>  -49.9629    1.0000 </r>
       <r>  -49.9617    1.0000 </r>
       <r>  -49.9617    1.0000 </r>
       <r>  -49.9615    1.0000 </r>
       <r>  -49.9615    1.0000 </r>
       <r>  -49.9614    1.0000 </r>
       <r>  -49.9614    1.0000 </r>
       <r>  -49.9613    1.0000 </r>
       <r>  -49.9611    1.0000 </r>
       <r>  -49.9600    1.0000 </r>
       <r>  -49.9599    1.0000 </r>
       <r>  -49.9598    1.0000 </r>
       <r>  -49.9538    1.0000 </r>
       <r>  -49.9525    1.0000 </r>
       <r>  -49.9525    1.0000 </r>
       <r>  -49.9524    1.0000 </r>
       <r>  -49.9523    1.0000 </r>
       <r>  -49.9523    1.0000 </r>
       <r>  -49.9523    1.0000 </r>
       <r>  -49.9522    1.0000 </r>
       <r>  -49.9520    1.0000 </r>
       <r>  -49.9510    1.0000 </r>
       <r>  -49.9507    1.0000 </r>
       <r>  -49.9501    1.0000 </r>
       <r>  -49.8892    1.0000 </r>
       <r>  -49.8890    1.0000 </r>
       <r>  -49.8888    1.0000 </r>
       <r>  -49.8888    1.0000 </r>
       <r>  -49.8888    1.0000 </r>
       <r>  -49.8887    1.0000 </r>
       <r>  -49.8887    1.0000 </r>
       <r>  -49.8886    1.0000 </r>
       <r>  -49.8885    1.0000 </r>
       <r>  -49.8884    1.0000 </r>
       <r>  -49.8884    1.0000 </r>
       <r>  -49.8868    1.0000 </r>
       <r>  -49.8477    1.0000 </r>
[...]
       <r>   -32.5902     0.0000   156.0000 </r>
       <r>   -32.3506     0.0000   156.0000 </r>
       <r>   -32.1110     0.0000   156.0000 </r>
       <r>   -31.8714     0.0000   156.0000 </r>
       <r>   -31.6318     0.0000   156.0000 </r>
       <r>   -31.3922     0.0000   156.0000 </r>
       <r>   -31.1526     0.0000   156.0000 </r>
       <r>   -30.9130     0.0000   156.0000 </r>
       <r>   -30.6734     0.0000   156.0000 </r>
       <r>   -30.4338     0.0000   156.0000 </r>
       <r>   -30.1942     0.0000   156.0000 </r>
       <r>   -29.9546     0.0000   156.0000 </r>
       <r>   -29.7150     0.0000   156.0000 </r>
       <r>   -29.4754     0.0000   156.0000 </r>
       <r>   -29.2358     0.0000   156.0000 </r>
       <r>   -28.9962     0.0000   156.0000 </r>
       <r>   -28.7566     0.0000   156.0000 </r>
       <r>   -28.5170     0.0000   156.0000 </r>
       <r>   -28.2774     0.0000   156.0000 </r>
       <r>   -28.0378     0.0000   156.0000 </r>
       <r>   -27.7982     0.0000   156.0000 </r>
       <r>   -27.5586     0.0000   156.0000 </r>
       <r>   -27.3190     0.0000   156.0000 </r>
       <r>   -27.0794     0.0000   156.0000 </r>
       <r>   -26.8398     0.0000   156.0000 </r>
       <r>   -26.6002     0.0000   156.0000 </r>
       <r>   -26.3606     0.0000   156.0000 </r>
       <r>   -26.1210     0.0000   156.0000 </r>
       <r>   -25.8814     0.0000   156.0000 </r>
       <r>   -25.6418     0.0000   156.0000 </r>
       <r>   -25.4022     0.0000   156.0000 </r>
       <r>   -25.1626     0.0000   156.0000 </r>
       <r>   -24.9230     0.0000   156.0000 </r>
       <r>   -24.6834     0.0000   156.0000 </r>
       <r>   -24.4438     0.0000   156.0000 </r>
       <r>   -24.2042     0.0000   156.0000 </r>
       <r>   -23.9646     0.0000   156.0000 </r>
       <r>   -23.7249     0.0000   156.0000 </r>
       <r>   -23.4853     0.0000   156.0000 </r>
       <r>   -23.2457     0.0000   156.0000 </r>
       <r>   -23.0061     0.0000   156.0000 </r>
       <r>   -22.7665     0.0000   156.0000 </r>
       <r>   -22.5269     0.0000   156.0000 </r>
       <r>   -22.2873     0.0000   156.0000 </r>
       <r>   -22.0477     0.0000   156.0000 </r>
       <r>   -21.8081     0.0000   156.0000 </r>
       <r>   -21.5685     0.0000   156.0000 </r>
       <r>   -21.3289     0.0000   156.0000 </r>
       <r>   -21.0893     0.0000   156.0000 </r>
       <r>   -20.8497     0.0000   156.0000 </r>
       <r>   -20.6101     0.0000   156.0000 </r>
       <r>   -20.3705     0.0000   156.0000 </r>
       <r>   -20.1309     0.0000   156.0000 </r>
       <r>   -19.8913     0.0000   156.0000 </r>
       <r>   -19.6517     0.0000   156.0000 </r>
       <r>   -19.4121     0.0000   156.0000 </r>
       <r>   -19.1725     0.0000   156.0000 </r>
       <r>   -18.9329     0.0000   156.0000 </r>
       <r>   -18.6933     0.0000   156.0000 </r>
       <r>   -18.4537     0.0000   156.0000 </r>
       <r>   -18.2141     0.0000   156.0000 </r>
       <r>   -17.9745     0.0000   156.0000 </r>
       <r>   -17.7349     0.0000   156.0000 </r>
       <r>   -17.4953     0.0000   156.0000 </r>
       <r>   -17.2557     0.0000   156.0000 </r>
       <r>   -17.0161     0.0000   156.0000 </r>
       <r>   -16.7765     0.0000   156.0000 </r>
       <r>   -16.5369     0.0000   156.0000 </r>
       <r>   -16.2973     0.0000   156.0000 </r>
       <r>   -16.0577     0.0000   156.0000 </r>
       <r>   -15.8181     0.0000   156.0000 </r>
       <r>   -15.5785     0.0000   156.0000 </r>
       <r>   -15.3389     0.0000   156.0000 </r>
       <r>   -15.0993     0.0000   156.0000 </r>
       <r>   -14.8597     0.0000   156.0000 </r>
       <r>   -14.6201     0.0000   156.0000 </r>
       <r>   -14.3805     0.0000   156.0000 </r>
       <r>   -14.1409     0.0000   156.0000 </r>
       <r>   -13.9013     0.0000   156.0000 </r>
       <r>   -13.6617     0.0000   156.0000 </r>
       <r>   -13.4221     1.6301   156.3906 </r>
       <r>   -13.1825    44.3319   167.0125 </r>
       <r>   -12.9429     4.7542   168.1517 </r>
       <r>   -12.7033    41.7829   178.1629 </r>
       <r>   -12.4637     7.6673   180.0000 </r>
       <r>   -12.2241     0.0000   180.0000 </r>
       <r>   -11.9845     0.0000   180.0000 </r>
       <r>   -11.7449     0.0000   180.0000 </r>
       <r>   -11.5053     0.0000   180.0000 </r>
       <r>   -11.2657     0.0000   180.0000 </r>
       <r>   -11.0261     0.0000   180.0000 </r>
       <r>   -10.7865     0.0000   180.0000 </r>
       <r>   -10.5469     0.0000   180.0000 </r>
       <r>   -10.3073     0.0000   180.0000 </r>
       <r>   -10.0677     0.0000   180.0000 </r>
       <r>    -9.8281     0.0000   180.0000 </r>
       <r>    -9.5885     0.0000   180.0000 </r>
       <r>    -9.3489     0.0000   180.0000 </r>
       <r>    -9.1093     0.0000   180.0000 </r>
       <r>    -8.8697     0.0000   180.0000 </r>
       <r>    -8.6301     0.0000   180.0000 </r>
       <r>    -8.3905     0.0000   180.0000 </r>
       <r>    -8.1509     0.0000   180.0000 </r>
       <r>    -7.9113     0.0000   180.0000 </r>
       <r>    -7.6717     0.0158   180.0038 </r>
       <r>    -7.4321    11.8920   182.8531 </r>
       <r>    -7.1925    28.2789   189.6288 </r>
       <r>    -6.9529    59.8004   203.9570 </r>
       <r>    -6.7133    46.7731   215.1639 </r>
       <r>    -6.4737     3.4894   216.0000 </r>
       <r>    -6.2341     0.0000   216.0000 </r>
       <r>    -5.9945     0.0000   216.0000 </r>
       <r>    -5.7548     0.0000   216.0000 </r>
       <r>    -5.5152     0.0000   216.0000 </r>
       <r>    -5.2756     0.0000   216.0000 </r>
       <r>    -5.0360     0.0000   216.0000 </r>
       <r>    -4.7964     0.0000   216.0000 </r>
       <r>    -4.5568     0.0000   216.0000 </r>
       <r>    -4.3172     0.0000   216.0000 </r>
       <r>    -4.0776     0.0000   216.0000 </r>
       <r>    -3.8380     0.0000   216.0000 </r>
       <r>    -3.5984     0.0000   216.0000 </r>
       <r>    -3.3588     0.0000   216.0000 </r>
       <r>    -3.1192     0.0000   216.0000 </r>
       <r>    -2.8796     0.0000   216.0000 </r>
       <r>    -2.6400     0.0000   216.0000 </r>
       <r>    -2.4004     0.0000   216.0000 </r>
       <r>    -2.1608     0.0000   216.0000 </r>
       <r>    -1.9212     0.0000   216.0000 </r>
       <r>    -1.6816     0.0000   216.0000 </r>
       <r>    -1.4420     0.0000   216.0000 </r>
       <r>    -1.2024     0.0783   216.0188 </r>
       <r>    -0.9628     4.3972   217.0723 </r>
       <r>    -0.7232    14.0056   220.4281 </r>
       <r>    -0.4836    15.2591   224.0842 </r>
       <r>    -0.2440    19.4480   228.7440 </r>
       <r>    -0.0044    41.3006   238.6397 </r>
       <r>     0.2352    33.9245   246.7680 </r>
       <r>     0.4748    42.0174   256.8354 </r>
       <r>     0.7144    33.8233   264.9395 </r>
       <r>     0.9540    52.7259   277.5727 </r>
       <r>     1.1936    60.6113   292.0953 </r>
       <r>     1.4332    44.4183   302.7380 </r>
       <r>     1.6728    40.1534   312.3588 </r>
       <r>     1.9124    38.4221   321.5648 </r>
       <r>     2.1520    37.4385   330.5351 </r>
       <r>     2.3916    38.2607   339.7024 </r>
       <r>     2.6312    49.1224   351.4722 </r>
       <r>     2.8708    63.0182   366.5714 </r>
       <r>     3.1104    58.6856   380.6326 </r>
       <r>     3.3500    48.2518   392.1938 </r>
       <r>     3.5896    29.8694   399.3505 </r>
       <r>     3.8292    60.9447   413.9529 </r>
       <r>     4.0688    73.9009   431.6597 </r>
       <r>     4.3084     1.4203   432.0000 </r>
       <r>     4.5480     0.0000   432.0000 </r>
       <r>     4.7876     0.0000   432.0000 </r>
       <r>     5.0272     0.0000   432.0000 </r>
       <r>     5.2668     0.0000   432.0000 </r>
       <r>     5.5064     0.0000   432.0000 </r>
       <r>     5.7460     0.0000   432.0000 </r>
       <r>     5.9856     0.0000   432.0000 </r>
       <r>     6.2252     0.1416   432.0339 </r>
       <r>     6.4648     8.0973   433.9740 </r>
       <r>     6.7044    30.1449   441.1968 </r>
       <r>     6.9440    43.2544   451.5606 </r>
       <r>     7.1836    72.9731   469.0451 </r>
       <r>     7.4232    80.8602   488.4193 </r>
       <r>     7.6628    65.3058   504.0666 </r>
       <r>     7.9024    87.8898   525.1251 </r>
       <r>     8.1420    71.5221   542.2619 </r>
       <r>     8.3816    54.5480   555.3317 </r>
       <r>     8.6212    37.1132   564.2240 </r>
       <r>     8.8608    39.3233   573.6460 </r>
       <r>     9.1004    19.4826   578.3140 </r>
       <r>     9.3400    13.8095   581.6228 </r>
       <r>     9.5796    20.5817   586.5542 </r>
       <r>     9.8192    29.9499   593.7302 </r>
       <r>    10.0588    26.5532   600.0924 </r>
       <r>    10.2984    34.5755   608.3768 </r>
       <r>    10.5380    35.6213   616.9117 </r>
       <r>    10.7776    27.8831   623.5925 </r>
       <r>    11.0172    22.5444   628.9942 </r>
       <r>    11.2568    21.5053   634.1469 </r>
       <r>    11.4964    32.2665   641.8780 </r>
       <r>    11.7360    38.7724   651.1679 </r>
       <r>    11.9756    42.5212   661.3560 </r>
       <r>    12.2153    51.8976   673.7908 </r>
       <r>    12.4549    46.8907   685.0258 </r>
       <r>    12.6945    35.9896   693.6490 </r>
       <r>    12.9341    41.2418   703.5306 </r>
       <r>    13.1737    39.8523   713.0792 </r>
       <r>    13.4133    34.1433   721.2600 </r>
       <r>    13.6529    24.1894   727.0558 </r>
       <r>    13.8925     3.9405   728.0000 </r>
       <r>    14.1321     0.0000   728.0000 </r>
       <r>    14.3717     0.0000   728.0000 </r>
       <r>    14.6113     0.0000   728.0000 </r>
       <r>    14.8509     0.0000   728.0000 </r>
       <r>    15.0905     0.0000   728.0000 </r>
       <r>    15.3301     0.0000   728.0000 </r>
       <r>    15.5697     0.0000   728.0000 </r>
       <r>    15.8093     0.0000   728.0000 </r>
       <r>    16.0489     0.0000   728.0000 </r>
       <r>    16.2885     0.0000   728.0000 </r>
       <r>    16.5281     0.0000   728.0000 </r>
       <r>    16.7677     0.0000   728.0000 </r>
       <r>    17.0073     0.0000   728.0000 </r>
      </set>
     </set>
    </array>
   </total>
  </dos>
 </calculation>
 <structure name="finalpos" >
  <crystal>
   <varray name="basis" >
    <v>      15.21162830       0.00516956      -2.78361592 </v>
    <v>      -0.40798665      11.93565774      -2.20735884 </v>
    <v>      -0.06175567      -0.11168197      10.54442638 </v>
   </varray>
   <i name="volume">   1908.54869108 </i>
   <varray name="rec_basis" >
    <v>       0.06581343       0.00232549       0.00041008 </v>
    <v>       0.00013433       0.08395174       0.00088997 </v>
    <v>       0.01740216       0.01818827       0.09513139 </v>
   </varray>
  </crystal>
  <varray name="positions" >
   <v>       0.47527516       0.00074367       0.00446200 </v>
   <v>       0.97527516       0.00074367       0.00446200 </v>
   <v>       0.47527516       0.33407700       0.00446200 </v>
   <v>       0.97527516       0.33407700       0.00446200 </v>
   <v>       0.47527516       0.66741034       0.00446200 </v>
   <v>       0.97527516       0.66741034       0.00446200 </v>
   <v>       0.27472484       0.33258966       0.99553800 </v>
   <v>       0.77472484       0.33258966       0.99553800 </v>
   <v>       0.27472484       0.66592300       0.99553800 </v>
   <v>       0.77472484       0.66592300       0.99553800 </v>
   <v>       0.27472484       0.99925633       0.99553800 </v>
   <v>       0.77472484       0.99925633       0.99553800 </v>
   <v>       0.17788805       0.26797179       0.60783074 </v>
   <v>       0.67788805       0.26797179       0.60783074 </v>
   <v>       0.17788805       0.60130513       0.60783074 </v>
   <v>       0.67788805       0.60130513       0.60783074 </v>
   <v>       0.17788805       0.93463846       0.60783074 </v>
   <v>       0.67788805       0.93463846       0.60783074 </v>
   <v>       0.07211195       0.06536154       0.39216926 </v>
   <v>       0.57211195       0.06536154       0.39216926 </v>
   <v>       0.07211195       0.39869487       0.39216926 </v>
   <v>       0.57211195       0.39869487       0.39216926 </v>
   <v>       0.07211195       0.73202821       0.39216926 </v>
   <v>       0.57211195       0.73202821       0.39216926 </v>
   <v>       0.10733875       0.30765571       0.84593428 </v>
   <v>       0.60733875       0.30765571       0.84593428 </v>
   <v>       0.10733875       0.64098905       0.84593428 </v>
   <v>       0.60733875       0.64098905       0.84593428 </v>
   <v>       0.10733875       0.97432238       0.84593428 </v>
   <v>       0.60733875       0.97432238       0.84593428 </v>
   <v>       0.34464416       0.29539312       0.77235872 </v>
   <v>       0.84464416       0.29539312       0.77235872 </v>
   <v>       0.34464416       0.62872645       0.77235872 </v>
   <v>       0.84464416       0.62872645       0.77235872 </v>
   <v>       0.34464416       0.96205979       0.77235872 </v>
   <v>       0.84464416       0.96205979       0.77235872 </v>
   <v>       0.14266125       0.02567762       0.15406572 </v>
   <v>       0.64266125       0.02567762       0.15406572 </v>
   <v>       0.14266125       0.35901095       0.15406572 </v>
   <v>       0.64266125       0.35901095       0.15406572 </v>
   <v>       0.14266125       0.69234429       0.15406572 </v>
   <v>       0.64266125       0.69234429       0.15406572 </v>
   <v>       0.40535584       0.03794021       0.22764128 </v>
   <v>       0.90535584       0.03794021       0.22764128 </v>
   <v>       0.40535584       0.37127355       0.22764128 </v>
   <v>       0.90535584       0.37127355       0.22764128 </v>
   <v>       0.40535584       0.70460688       0.22764128 </v>
   <v>       0.90535584       0.70460688       0.22764128 </v>
   <v>       0.46517249       0.26691416       0.60148498 </v>
   <v>       0.96517249       0.26691416       0.60148498 </v>
   <v>       0.46517249       0.60024750       0.60148498 </v>
   <v>       0.96517249       0.60024750       0.60148498 </v>
   <v>       0.46517249       0.93358083       0.60148498 </v>
   <v>       0.96517249       0.93358083       0.60148498 </v>
   <v>       0.28482751       0.06641917       0.39851502 </v>
   <v>       0.78482751       0.06641917       0.39851502 </v>
   <v>       0.28482751       0.39975250       0.39851502 </v>
   <v>       0.78482751       0.39975250       0.39851502 </v>
   <v>       0.28482751       0.73308584       0.39851502 </v>
   <v>       0.78482751       0.73308584       0.39851502 </v>
   <v>       0.22447416       0.13353711       0.80122268 </v>
   <v>       0.72447416       0.13353711       0.80122268 </v>
   <v>       0.22447416       0.46687045       0.80122268 </v>
   <v>       0.72447416       0.46687045       0.80122268 </v>
   <v>       0.22447416       0.80020378       0.80122268 </v>
   <v>       0.72447416       0.80020378       0.80122268 </v>
   <v>       0.47796479       0.13582521       0.81400296 </v>
   <v>       0.97796479       0.13582521       0.81495126 </v>
   <v>       0.47796479       0.46915854       0.81495126 </v>
   <v>       0.97796479       0.46915854       0.81495126 </v>
   <v>       0.47796479       0.80249188       0.81495126 </v>
   <v>       0.97796479       0.80249188       0.81495126 </v>
   <v>       0.02552584       0.19979622       0.19877732 </v>
   <v>       0.52552584       0.19979622       0.19877732 </v>
   <v>       0.02552584       0.53312955       0.19877732 </v>
   <v>       0.52552584       0.53312955       0.19877732 </v>
   <v>       0.02552584       0.86646289       0.19877732 </v>
   <v>       0.52552584       0.86646289       0.19877732 </v>
   <v>       0.27203521       0.19750812       0.18504874 </v>
   <v>       0.77203521       0.19750812       0.18504874 </v>
   <v>       0.27203521       0.53084146       0.18504874 </v>
   <v>       0.77203521       0.53084146       0.18504874 </v>
   <v>       0.27203521       0.86417479       0.18504874 </v>
   <v>       0.77203521       0.86417479       0.18504874 </v>
   <v>       0.12500000       0.16666667       0.00000000 </v>
   <v>       0.62500000       0.16666667       0.00000000 </v>
   <v>       0.12500000       0.50000000       0.00000000 </v>
   <v>       0.62500000       0.50000000       0.00000000 </v>
   <v>       0.12500000       0.83333333       0.00000000 </v>
   <v>       0.62500000       0.83333333       0.00000000 </v>
   <v>       0.37500000       0.16666667       0.00000000 </v>
   <v>       0.87500000       0.16666667       0.00000000 </v>
   <v>       0.37500000       0.50000000       0.00000000 </v>
   <v>       0.87500000       0.50000000       0.00000000 </v>
   <v>       0.37500000       0.83333333       0.00000000 </v>
   <v>       0.87500000       0.83333333       0.00000000 </v>
   <v>       0.17614737       0.22809805       0.36858830 </v>
   <v>       0.67614737       0.22809805       0.36858830 </v>
   <v>       0.17614737       0.56143138       0.36858830 </v>
   <v>       0.67614737       0.56143138       0.36858830 </v>
   <v>       0.17614737       0.89476472       0.36858830 </v>
   <v>       0.67614737       0.89476472       0.36858830 </v>
   <v>       0.41542106       0.22793643       0.36761855 </v>
   <v>       0.91542106       0.22793643       0.36761855 </v>
   <v>       0.41542106       0.56126976       0.36761855 </v>
   <v>       0.91542106       0.56126976       0.36761855 </v>
   <v>       0.41542106       0.89460309       0.36761855 </v>
   <v>       0.91542106       0.89460309       0.36761855 </v>
   <v>       0.07385263       0.10523528       0.63141170 </v>
   <v>       0.57385263       0.10523528       0.63141170 </v>
   <v>       0.07385263       0.43856862       0.63141170 </v>
   <v>       0.57385263       0.43856862       0.63141170 </v>
   <v>       0.07385263       0.77190195       0.63141170 </v>
   <v>       0.57385263       0.77190195       0.63141170 </v>
   <v>       0.33457894       0.10539691       0.63238145 </v>
   <v>       0.83457894       0.10539691       0.63238145 </v>
   <v>       0.33457894       0.43873024       0.63238145 </v>
   <v>       0.83457894       0.43873024       0.63238145 </v>
   <v>       0.33457894       0.77206357       0.63238145 </v>
   <v>       0.83457894       0.77206357       0.63238145 </v>
   <v>       0.22527003       0.30093342       0.80560053 </v>
   <v>       0.72527003       0.30093342       0.80560053 </v>
   <v>       0.22527003       0.63426676       0.80560053 </v>
   <v>       0.72527003       0.63426676       0.80560053 </v>
   <v>       0.22527003       0.96760009       0.80560053 </v>
   <v>       0.72527003       0.96760009       0.80560053 </v>
   <v>       0.47618324       0.30143353       0.80860116 </v>
   <v>       0.97618324       0.30143353       0.80860116 </v>
   <v>       0.47618324       0.63476686       0.80860116 </v>
   <v>       0.97618324       0.63476686       0.80860116 </v>
   <v>       0.47618324       0.96810019       0.80860116 </v>
   <v>       0.97618324       0.96810019       0.80860116 </v>
   <v>       0.02472997       0.03239991       0.19439947 </v>
   <v>       0.52472997       0.03239991       0.19439947 </v>
   <v>       0.02472997       0.36573324       0.19439947 </v>
   <v>       0.52472997       0.36573324       0.19439947 </v>
   <v>       0.02472997       0.69906658       0.19439947 </v>
   <v>       0.52472997       0.69906658       0.19439947 </v>
   <v>       0.27381676       0.03189981       0.19139884 </v>
   <v>       0.77381676       0.03189981       0.19139884 </v>
   <v>       0.27381676       0.36523314       0.19139884 </v>
   <v>       0.77381676       0.36523314       0.19139884 </v>
   <v>       0.27381676       0.69856647       0.19139884 </v>
   <v>       0.77381676       0.69856647       0.19139884 </v>
  </varray>
 </structure>
</modeling>
