 108 108   0   0
  0.1367340E+02  0.1151037E-08  0.1132740E-08  0.1132740E-08  0.5000000E-15
  1.000000000000000E-004
  CAR 
 unknown system                          
     17.82431485    -54.65929537  301      5.29069058      1.00000000
    -54.659  0.0000E+00  0.0000E+00  0.0000E+00  0.0000E+00
    -54.418  0.0000E+00  0.0000E+00  0.0000E+00  0.0000E+00
    -54.176  0.0000E+00  0.0000E+00  0.0000E+00  0.0000E+00
    -53.934  0.0000E+00  0.0000E+00  0.0000E+00  0.0000E+00
    -53.693  0.0000E+00  0.0000E+00  0.0000E+00  0.0000E+00
    -53.451  0.0000E+00  0.0000E+00  0.0000E+00  0.0000E+00
    -53.210  0.0000E+00  0.0000E+00  0.0000E+00  0.0000E+00
    -52.968  0.0000E+00  0.0000E+00  0.0000E+00  0.0000E+00
    -52.726  0.0000E+00  0.0000E+00  0.0000E+00  0.0000E+00
    -52.485  0.0000E+00  0.0000E+00  0.0000E+00  0.0000E+00
    -52.243  0.0000E+00  0.0000E+00  0.0000E+00  0.0000E+00
    -52.002  0.0000E+00  0.0000E+00  0.0000E+00  0.0000E+00
    -51.760  0.0000E+00  0.0000E+00  0.0000E+00  0.0000E+00
    -51.518  0.3268E-03  0.0000E+00  0.7896E-04  0.0000E+00
    -51.277  0.9831E+02  0.0000E+00  0.2375E+02  0.0000E+00
    -51.035  0.4244E+02  0.0000E+00  0.3401E+02  0.0000E+00
    -50.794  0.8246E+01  0.0000E+00  0.3600E+02  0.0000E+00
    -50.552  0.0000E+00  0.0000E+00  0.3600E+02  0.0000E+00
    -50.310  0.1525E-03  0.0000E+00  0.3600E+02  0.0000E+00
    -50.069  0.9779E+02  0.0000E+00  0.5963E+02  0.0000E+00
    -49.827  0.4918E+02  0.0000E+00  0.7151E+02  0.0000E+00
    -49.585  0.1241E+03  0.0000E+00  0.1015E+03  0.0000E+00
    -49.344  0.2695E+02  0.0000E+00  0.1080E+03  0.0000E+00
    -49.102  0.0000E+00  0.0000E+00  0.1080E+03  0.0000E+00
    -48.861  0.0000E+00  0.0000E+00  0.1080E+03  0.0000E+00
    -48.619  0.0000E+00  0.0000E+00  0.1080E+03  0.0000E+00
    -48.377  0.0000E+00  0.0000E+00  0.1080E+03  0.0000E+00
    -48.136  0.0000E+00  0.0000E+00  0.1080E+03  0.0000E+00
    -47.894  0.0000E+00  0.0000E+00  0.1080E+03  0.0000E+00
    -47.653  0.0000E+00  0.0000E+00  0.1080E+03  0.0000E+00
    -47.411  0.0000E+00  0.0000E+00  0.1080E+03  0.0000E+00
    -47.169  0.0000E+00  0.0000E+00  0.1080E+03  0.0000E+00
    -46.928  0.0000E+00  0.0000E+00  0.1080E+03  0.0000E+00
    -46.686  0.0000E+00  0.1273E+01  0.1080E+03  0.3075E+00
    -46.444  0.0000E+00  0.9808E+02  0.1080E+03  0.2401E+02
    -46.203  0.0000E+00  0.1743E+03  0.1080E+03  0.6612E+02
    -45.961  0.0000E+00  0.8380E+02  0.1080E+03  0.8637E+02
    -45.720  0.0000E+00  0.8951E+02  0.1080E+03  0.1080E+03
    -45.478  0.0000E+00  0.5287E-03  0.1080E+03  0.1080E+03
    -45.236  0.0000E+00  0.0000E+00  0.1080E+03  0.1080E+03
    -44.995  0.0000E+00  0.0000E+00  0.1080E+03  0.1080E+03
    -44.753  0.0000E+00  0.0000E+00  0.1080E+03  0.1080E+03
    -44.512  0.0000E+00  0.0000E+00  0.1080E+03  0.1080E+03
    -44.270  0.0000E+00  0.0000E+00  0.1080E+03  0.1080E+03
    -44.028  0.0000E+00  0.0000E+00  0.1080E+03  0.1080E+03
    -43.787  0.0000E+00  0.0000E+00  0.1080E+03  0.1080E+03
    -43.545  0.0000E+00  0.0000E+00  0.1080E+03  0.1080E+03
    -43.304  0.0000E+00  0.0000E+00  0.1080E+03  0.1080E+03
    -43.062  0.0000E+00  0.0000E+00  0.1080E+03  0.1080E+03
    -42.820  0.0000E+00  0.0000E+00  0.1080E+03  0.1080E+03
    -42.579  0.0000E+00  0.0000E+00  0.1080E+03  0.1080E+03
    -42.337  0.0000E+00  0.0000E+00  0.1080E+03  0.1080E+03
    -42.095  0.0000E+00  0.0000E+00  0.1080E+03  0.1080E+03
    -41.854  0.0000E+00  0.0000E+00  0.1080E+03  0.1080E+03
    -41.612  0.0000E+00  0.0000E+00  0.1080E+03  0.1080E+03
    -41.371  0.0000E+00  0.0000E+00  0.1080E+03  0.1080E+03
    -41.129  0.0000E+00  0.0000E+00  0.1080E+03  0.1080E+03
    -40.887  0.0000E+00  0.0000E+00  0.1080E+03  0.1080E+03
    -40.646  0.0000E+00  0.0000E+00  0.1080E+03  0.1080E+03
    -40.404  0.4165E-12  0.8071E-12  0.1080E+03  0.1080E+03
    -40.163  0.1607E+02  0.1821E+02  0.1119E+03  0.1124E+03
    -39.921  0.8327E+02  0.8112E+02  0.1320E+03  0.1320E+03
    -39.679  0.0000E+00  0.0000E+00  0.1320E+03  0.1320E+03
    -39.438  0.0000E+00  0.0000E+00  0.1320E+03  0.1320E+03
    -39.196  0.0000E+00  0.0000E+00  0.1320E+03  0.1320E+03
    -38.955  0.0000E+00  0.0000E+00  0.1320E+03  0.1320E+03
    -38.713  0.0000E+00  0.0000E+00  0.1320E+03  0.1320E+03
    -38.471  0.0000E+00  0.0000E+00  0.1320E+03  0.1320E+03
    -38.230  0.0000E+00  0.0000E+00  0.1320E+03  0.1320E+03
    -37.988  0.0000E+00  0.0000E+00  0.1320E+03  0.1320E+03
    -37.746  0.0000E+00  0.0000E+00  0.1320E+03  0.1320E+03
    -37.505  0.0000E+00  0.0000E+00  0.1320E+03  0.1320E+03
    -37.263  0.0000E+00  0.0000E+00  0.1320E+03  0.1320E+03
    -37.022  0.0000E+00  0.0000E+00  0.1320E+03  0.1320E+03
    -36.780  0.0000E+00  0.0000E+00  0.1320E+03  0.1320E+03
    -36.538  0.0000E+00  0.0000E+00  0.1320E+03  0.1320E+03
    -36.297  0.0000E+00  0.0000E+00  0.1320E+03  0.1320E+03
    -36.055  0.0000E+00  0.0000E+00  0.1320E+03  0.1320E+03
    -35.814  0.0000E+00  0.0000E+00  0.1320E+03  0.1320E+03
    -35.572  0.0000E+00  0.0000E+00  0.1320E+03  0.1320E+03
    -35.330  0.0000E+00  0.0000E+00  0.1320E+03  0.1320E+03
    -35.089  0.0000E+00  0.0000E+00  0.1320E+03  0.1320E+03
    -34.847  0.0000E+00  0.0000E+00  0.1320E+03  0.1320E+03
    -34.605  0.0000E+00  0.0000E+00  0.1320E+03  0.1320E+03
    -34.364  0.0000E+00  0.0000E+00  0.1320E+03  0.1320E+03
    -34.122  0.0000E+00  0.0000E+00  0.1320E+03  0.1320E+03
    -33.881  0.0000E+00  0.0000E+00  0.1320E+03  0.1320E+03
    -33.639  0.0000E+00  0.0000E+00  0.1320E+03  0.1320E+03
    -33.397  0.0000E+00  0.0000E+00  0.1320E+03  0.1320E+03
    -33.156  0.0000E+00  0.0000E+00  0.1320E+03  0.1320E+03
    -32.914  0.0000E+00  0.0000E+00  0.1320E+03  0.1320E+03
    -32.673  0.0000E+00  0.0000E+00  0.1320E+03  0.1320E+03
    -32.431  0.0000E+00  0.0000E+00  0.1320E+03  0.1320E+03
    -32.189  0.0000E+00  0.0000E+00  0.1320E+03  0.1320E+03
    -31.948  0.0000E+00  0.0000E+00  0.1320E+03  0.1320E+03
    -31.706  0.0000E+00  0.0000E+00  0.1320E+03  0.1320E+03
    -31.465  0.0000E+00  0.0000E+00  0.1320E+03  0.1320E+03
    -31.223  0.0000E+00  0.0000E+00  0.1320E+03  0.1320E+03
    -30.981  0.0000E+00  0.0000E+00  0.1320E+03  0.1320E+03
    -30.740  0.0000E+00  0.0000E+00  0.1320E+03  0.1320E+03
    -30.498  0.0000E+00  0.0000E+00  0.1320E+03  0.1320E+03
    -30.256  0.0000E+00  0.0000E+00  0.1320E+03  0.1320E+03
    -30.015  0.0000E+00  0.0000E+00  0.1320E+03  0.1320E+03
    -29.773  0.0000E+00  0.0000E+00  0.1320E+03  0.1320E+03
    -29.532  0.0000E+00  0.0000E+00  0.1320E+03  0.1320E+03
    -29.290  0.0000E+00  0.0000E+00  0.1320E+03  0.1320E+03
    -29.048  0.0000E+00  0.0000E+00  0.1320E+03  0.1320E+03
    -28.807  0.0000E+00  0.0000E+00  0.1320E+03  0.1320E+03
    -28.565  0.0000E+00  0.0000E+00  0.1320E+03  0.1320E+03
    -28.324  0.0000E+00  0.0000E+00  0.1320E+03  0.1320E+03
    -28.082  0.0000E+00  0.0000E+00  0.1320E+03  0.1320E+03
    -27.840  0.0000E+00  0.0000E+00  0.1320E+03  0.1320E+03
    -27.599  0.0000E+00  0.0000E+00  0.1320E+03  0.1320E+03
    -27.357  0.0000E+00  0.0000E+00  0.1320E+03  0.1320E+03
    -27.116  0.0000E+00  0.0000E+00  0.1320E+03  0.1320E+03
    -26.874  0.0000E+00  0.0000E+00  0.1320E+03  0.1320E+03
    -26.632  0.0000E+00  0.0000E+00  0.1320E+03  0.1320E+03
    -26.391  0.0000E+00  0.0000E+00  0.1320E+03  0.1320E+03
    -26.149  0.0000E+00  0.0000E+00  0.1320E+03  0.1320E+03
    -25.907  0.0000E+00  0.0000E+00  0.1320E+03  0.1320E+03
    -25.666  0.0000E+00  0.0000E+00  0.1320E+03  0.1320E+03
    -25.424  0.0000E+00  0.0000E+00  0.1320E+03  0.1320E+03
    -25.183  0.0000E+00  0.0000E+00  0.1320E+03  0.1320E+03
    -24.941  0.0000E+00  0.0000E+00  0.1320E+03  0.1320E+03
    -24.699  0.0000E+00  0.0000E+00  0.1320E+03  0.1320E+03
    -24.458  0.0000E+00  0.0000E+00  0.1320E+03  0.1320E+03
    -24.216  0.0000E+00  0.0000E+00  0.1320E+03  0.1320E+03
    -23.975  0.0000E+00  0.0000E+00  0.1320E+03  0.1320E+03
    -23.733  0.0000E+00  0.0000E+00  0.1320E+03  0.1320E+03
    -23.491  0.0000E+00  0.0000E+00  0.1320E+03  0.1320E+03
    -23.250  0.0000E+00  0.0000E+00  0.1320E+03  0.1320E+03
    -23.008  0.0000E+00  0.0000E+00  0.1320E+03  0.1320E+03
    -22.767  0.0000E+00  0.0000E+00  0.1320E+03  0.1320E+03
    -22.525  0.0000E+00  0.0000E+00  0.1320E+03  0.1320E+03
    -22.283  0.0000E+00  0.0000E+00  0.1320E+03  0.1320E+03
    -22.042  0.0000E+00  0.0000E+00  0.1320E+03  0.1320E+03
    -21.800  0.0000E+00  0.0000E+00  0.1320E+03  0.1320E+03
    -21.558  0.0000E+00  0.0000E+00  0.1320E+03  0.1320E+03
    -21.317  0.0000E+00  0.0000E+00  0.1320E+03  0.1320E+03
    -21.075  0.0000E+00  0.0000E+00  0.1320E+03  0.1320E+03
    -20.834  0.0000E+00  0.0000E+00  0.1320E+03  0.1320E+03
    -20.592  0.0000E+00  0.0000E+00  0.1320E+03  0.1320E+03
    -20.350  0.0000E+00  0.0000E+00  0.1320E+03  0.1320E+03
    -20.109  0.0000E+00  0.0000E+00  0.1320E+03  0.1320E+03
    -19.867  0.0000E+00  0.0000E+00  0.1320E+03  0.1320E+03
    -19.626  0.0000E+00  0.0000E+00  0.1320E+03  0.1320E+03
    -19.384  0.0000E+00  0.0000E+00  0.1320E+03  0.1320E+03
    -19.142  0.0000E+00  0.0000E+00  0.1320E+03  0.1320E+03
    -18.901  0.0000E+00  0.0000E+00  0.1320E+03  0.1320E+03
    -18.659  0.0000E+00  0.0000E+00  0.1320E+03  0.1320E+03
    -18.417  0.0000E+00  0.0000E+00  0.1320E+03  0.1320E+03
    -18.176  0.0000E+00  0.0000E+00  0.1320E+03  0.1320E+03
    -17.934  0.0000E+00  0.0000E+00  0.1320E+03  0.1320E+03
    -17.693  0.0000E+00  0.0000E+00  0.1320E+03  0.1320E+03
    -17.451  0.0000E+00  0.0000E+00  0.1320E+03  0.1320E+03
    -17.209  0.0000E+00  0.0000E+00  0.1320E+03  0.1320E+03
    -16.968  0.0000E+00  0.0000E+00  0.1320E+03  0.1320E+03
    -16.726  0.0000E+00  0.0000E+00  0.1320E+03  0.1320E+03
    -16.485  0.0000E+00  0.0000E+00  0.1320E+03  0.1320E+03
    -16.243  0.0000E+00  0.0000E+00  0.1320E+03  0.1320E+03
    -16.001  0.0000E+00  0.0000E+00  0.1320E+03  0.1320E+03
    -15.760  0.0000E+00  0.0000E+00  0.1320E+03  0.1320E+03
    -15.518  0.0000E+00  0.0000E+00  0.1320E+03  0.1320E+03
    -15.277  0.0000E+00  0.0000E+00  0.1320E+03  0.1320E+03
    -15.035  0.0000E+00  0.0000E+00  0.1320E+03  0.1320E+03
    -14.793  0.0000E+00  0.0000E+00  0.1320E+03  0.1320E+03
    -14.552  0.0000E+00  0.0000E+00  0.1320E+03  0.1320E+03
    -14.310  0.0000E+00  0.0000E+00  0.1320E+03  0.1320E+03
    -14.068  0.0000E+00  0.0000E+00  0.1320E+03  0.1320E+03
    -13.827  0.1277E-11  0.0000E+00  0.1320E+03  0.1320E+03
    -13.585  0.2259E+01  0.0000E+00  0.1325E+03  0.1320E+03
    -13.344  0.5775E+02  0.1520E-05  0.1465E+03  0.1320E+03
    -13.102  0.3918E+02  0.1881E+02  0.1560E+03  0.1365E+03
    -12.860  0.1464E+00  0.7636E+02  0.1560E+03  0.1550E+03
    -12.619  0.0000E+00  0.4162E+01  0.1560E+03  0.1560E+03
    -12.377  0.0000E+00  0.0000E+00  0.1560E+03  0.1560E+03
    -12.136  0.0000E+00  0.0000E+00  0.1560E+03  0.1560E+03
    -11.894  0.0000E+00  0.0000E+00  0.1560E+03  0.1560E+03
    -11.652  0.0000E+00  0.0000E+00  0.1560E+03  0.1560E+03
    -11.411  0.0000E+00  0.0000E+00  0.1560E+03  0.1560E+03
    -11.169  0.0000E+00  0.0000E+00  0.1560E+03  0.1560E+03
    -10.928  0.0000E+00  0.0000E+00  0.1560E+03  0.1560E+03
    -10.686  0.0000E+00  0.0000E+00  0.1560E+03  0.1560E+03
    -10.444  0.0000E+00  0.0000E+00  0.1560E+03  0.1560E+03
    -10.203  0.0000E+00  0.0000E+00  0.1560E+03  0.1560E+03
     -9.961  0.0000E+00  0.0000E+00  0.1560E+03  0.1560E+03
     -9.719  0.0000E+00  0.0000E+00  0.1560E+03  0.1560E+03
     -9.478  0.0000E+00  0.0000E+00  0.1560E+03  0.1560E+03
     -9.236  0.0000E+00  0.0000E+00  0.1560E+03  0.1560E+03
     -8.995  0.0000E+00  0.0000E+00  0.1560E+03  0.1560E+03
     -8.753  0.0000E+00  0.0000E+00  0.1560E+03  0.1560E+03
     -8.511  0.0000E+00  0.0000E+00  0.1560E+03  0.1560E+03
     -8.270  0.0000E+00  0.0000E+00  0.1560E+03  0.1560E+03
     -8.028  0.0000E+00  0.0000E+00  0.1560E+03  0.1560E+03
     -7.787  0.2692E-13  0.0000E+00  0.1560E+03  0.1560E+03
     -7.545  0.2130E+00  0.3404E-16  0.1561E+03  0.1560E+03
     -7.303  0.2226E+02  0.6333E-01  0.1614E+03  0.1560E+03
     -7.062  0.4712E+02  0.2438E+02  0.1728E+03  0.1619E+03
     -6.820  0.2948E+02  0.4653E+02  0.1799E+03  0.1731E+03
     -6.579  0.2568E+00  0.2683E+02  0.1800E+03  0.1796E+03
     -6.337  0.0000E+00  0.1527E+01  0.1800E+03  0.1800E+03
     -6.095  0.0000E+00  0.0000E+00  0.1800E+03  0.1800E+03
     -5.854  0.0000E+00  0.0000E+00  0.1800E+03  0.1800E+03
     -5.612  0.0000E+00  0.0000E+00  0.1800E+03  0.1800E+03
     -5.370  0.0000E+00  0.0000E+00  0.1800E+03  0.1800E+03
     -5.129  0.0000E+00  0.0000E+00  0.1800E+03  0.1800E+03
     -4.887  0.0000E+00  0.0000E+00  0.1800E+03  0.1800E+03
     -4.646  0.0000E+00  0.0000E+00  0.1800E+03  0.1800E+03
     -4.404  0.0000E+00  0.0000E+00  0.1800E+03  0.1800E+03
     -4.162  0.0000E+00  0.0000E+00  0.1800E+03  0.1800E+03
     -3.921  0.0000E+00  0.0000E+00  0.1800E+03  0.1800E+03
     -3.679  0.0000E+00  0.0000E+00  0.1800E+03  0.1800E+03
     -3.438  0.0000E+00  0.0000E+00  0.1800E+03  0.1800E+03
     -3.196  0.0000E+00  0.0000E+00  0.1800E+03  0.1800E+03
     -2.954  0.0000E+00  0.0000E+00  0.1800E+03  0.1800E+03
     -2.713  0.0000E+00  0.0000E+00  0.1800E+03  0.1800E+03
     -2.471  0.0000E+00  0.0000E+00  0.1800E+03  0.1800E+03
     -2.229  0.1333E-01  0.0000E+00  0.1800E+03  0.1800E+03
     -1.988  0.2705E+02  0.0000E+00  0.1865E+03  0.1800E+03
     -1.746  0.5029E+02  0.0000E+00  0.1987E+03  0.1800E+03
     -1.505  0.1584E+02  0.0000E+00  0.2025E+03  0.1800E+03
     -1.263  0.1896E+02  0.0000E+00  0.2071E+03  0.1800E+03
     -1.021  0.5904E+02  0.1470E-03  0.2214E+03  0.1800E+03
     -0.780  0.7336E+02  0.1892E+01  0.2391E+03  0.1805E+03
     -0.538  0.6473E+02  0.9979E+01  0.2547E+03  0.1829E+03
     -0.297  0.6334E+02  0.2036E+02  0.2700E+03  0.1878E+03
     -0.055  0.6199E+02  0.3416E+02  0.2850E+03  0.1960E+03
      0.187  0.5483E+02  0.2517E+02  0.2983E+03  0.2021E+03
      0.428  0.1066E+03  0.3704E+02  0.3240E+03  0.2111E+03
      0.670  0.5271E+02  0.3615E+02  0.3368E+03  0.2198E+03
      0.911  0.4685E+02  0.5712E+02  0.3481E+03  0.2336E+03
      1.153  0.5304E+02  0.5600E+02  0.3609E+03  0.2471E+03
      1.395  0.6422E+02  0.1981E+02  0.3764E+03  0.2519E+03
      1.636  0.5401E+02  0.2516E+02  0.3895E+03  0.2580E+03
      1.878  0.5840E+02  0.4736E+02  0.4036E+03  0.2694E+03
      2.120  0.4842E+02  0.3573E+02  0.4153E+03  0.2781E+03
      2.361  0.2761E+02  0.3017E+02  0.4219E+03  0.2854E+03
      2.603  0.3522E+02  0.3334E+02  0.4304E+03  0.2934E+03
      2.844  0.3381E+02  0.4469E+02  0.4386E+03  0.3042E+03
      3.086  0.3659E+02  0.3816E+02  0.4475E+03  0.3134E+03
      3.328  0.3372E+02  0.5955E+02  0.4556E+03  0.3278E+03
      3.569  0.2569E+02  0.2802E+02  0.4618E+03  0.3346E+03
      3.811  0.4115E+02  0.9289E+01  0.4717E+03  0.3368E+03
      4.052  0.4597E+02  0.1080E+02  0.4829E+03  0.3394E+03
      4.294  0.3577E+02  0.4084E+02  0.4915E+03  0.3493E+03
      4.536  0.3618E+02  0.2267E+02  0.5002E+03  0.3548E+03
      4.777  0.1554E+02  0.1995E+02  0.5040E+03  0.3596E+03
      5.019  0.1362E-01  0.1593E+01  0.5040E+03  0.3600E+03
      5.260  0.0000E+00  0.1927E-04  0.5040E+03  0.3600E+03
      5.502  0.0000E+00  0.0000E+00  0.5040E+03  0.3600E+03
      5.744  0.0000E+00  0.0000E+00  0.5040E+03  0.3600E+03
      5.985  0.0000E+00  0.1990E-07  0.5040E+03  0.3600E+03
      6.227  0.0000E+00  0.3138E+00  0.5040E+03  0.3601E+03
      6.469  0.0000E+00  0.3667E+01  0.5040E+03  0.3610E+03
      6.710  0.4549E-02  0.9748E+01  0.5040E+03  0.3633E+03
      6.952  0.1487E+00  0.3270E+02  0.5040E+03  0.3712E+03
      7.193  0.3154E+00  0.7771E+02  0.5041E+03  0.3900E+03
      7.435  0.7602E+00  0.6507E+02  0.5043E+03  0.4057E+03
      7.677  0.2528E+01  0.5157E+02  0.5049E+03  0.4182E+03
      7.918  0.2206E+01  0.8546E+02  0.5054E+03  0.4388E+03
      8.160  0.2119E+01  0.7836E+02  0.5060E+03  0.4578E+03
      8.401  0.5335E+01  0.5284E+02  0.5072E+03  0.4705E+03
      8.643  0.7896E+01  0.7285E+02  0.5091E+03  0.4881E+03
      8.885  0.1651E+02  0.4512E+02  0.5131E+03  0.4990E+03
      9.126  0.1348E+02  0.2222E+02  0.5164E+03  0.5044E+03
      9.368  0.1855E+02  0.4851E+01  0.5209E+03  0.5056E+03
      9.610  0.1986E+02  0.6643E+01  0.5257E+03  0.5072E+03
      9.851  0.1783E+02  0.1155E+02  0.5300E+03  0.5100E+03
     10.093  0.1800E+02  0.1442E+02  0.5343E+03  0.5134E+03
     10.334  0.1976E+02  0.1811E+02  0.5391E+03  0.5178E+03
     10.576  0.2426E+02  0.3197E+02  0.5450E+03  0.5255E+03
     10.818  0.2129E+02  0.2822E+02  0.5501E+03  0.5324E+03
     11.059  0.2850E+02  0.2192E+02  0.5570E+03  0.5377E+03
     11.301  0.2881E+02  0.2483E+02  0.5640E+03  0.5437E+03
     11.542  0.2221E+02  0.2207E+02  0.5693E+03  0.5490E+03
     11.784  0.2725E+02  0.2154E+02  0.5759E+03  0.5542E+03
     12.026  0.3937E+02  0.1861E+02  0.5854E+03  0.5587E+03
     12.267  0.3438E+02  0.3058E+02  0.5937E+03  0.5661E+03
     12.509  0.2813E+02  0.4275E+02  0.6005E+03  0.5764E+03
     12.750  0.2534E+02  0.3532E+02  0.6066E+03  0.5849E+03
     12.992  0.2861E+02  0.2850E+02  0.6136E+03  0.5918E+03
     13.234  0.2537E+02  0.2743E+02  0.6197E+03  0.5985E+03
     13.475  0.2166E+02  0.3660E+02  0.6249E+03  0.6073E+03
     13.717  0.1792E+02  0.2947E+02  0.6292E+03  0.6144E+03
     13.959  0.2937E+01  0.2309E+02  0.6300E+03  0.6200E+03
     14.200  0.1793E+00  0.2360E+02  0.6300E+03  0.6257E+03
     14.442  0.0000E+00  0.1642E+02  0.6300E+03  0.6297E+03
     14.683  0.0000E+00  0.1380E+01  0.6300E+03  0.6300E+03
     14.925  0.0000E+00  0.2098E-05  0.6300E+03  0.6300E+03
     15.167  0.0000E+00  0.0000E+00  0.6300E+03  0.6300E+03
     15.408  0.0000E+00  0.0000E+00  0.6300E+03  0.6300E+03
     15.650  0.0000E+00  0.0000E+00  0.6300E+03  0.6300E+03
     15.891  0.0000E+00  0.0000E+00  0.6300E+03  0.6300E+03
     16.133  0.0000E+00  0.0000E+00  0.6300E+03  0.6300E+03
     16.375  0.0000E+00  0.0000E+00  0.6300E+03  0.6300E+03
     16.616  0.0000E+00  0.0000E+00  0.6300E+03  0.6300E+03
     16.858  0.0000E+00  0.0000E+00  0.6300E+03  0.6300E+03
     17.099  0.0000E+00  0.0000E+00  0.6300E+03  0.6300E+03
     17.341  0.0000E+00  0.0000E+00  0.6300E+03  0.6300E+03
     17.583  0.0000E+00  0.0000E+00  0.6300E+03  0.6300E+03
     17.824  0.0000E+00  0.0000E+00  0.6300E+03  0.6300E+03
