  99  99   0   0
  0.1430410E+02  0.1177748E-08  0.1177748E-08  0.1058004E-08  0.5000000E-15
  1.000000000000000E-004
  CAR 
 unknown system                          
     18.04508967    -54.34212382  301      5.31700463      1.00000000
    -54.342  0.0000E+00  0.0000E+00  0.0000E+00  0.0000E+00
    -54.101  0.0000E+00  0.0000E+00  0.0000E+00  0.0000E+00
    -53.860  0.0000E+00  0.0000E+00  0.0000E+00  0.0000E+00
    -53.618  0.0000E+00  0.0000E+00  0.0000E+00  0.0000E+00
    -53.377  0.0000E+00  0.0000E+00  0.0000E+00  0.0000E+00
    -53.136  0.0000E+00  0.0000E+00  0.0000E+00  0.0000E+00
    -52.894  0.0000E+00  0.0000E+00  0.0000E+00  0.0000E+00
    -52.653  0.0000E+00  0.0000E+00  0.0000E+00  0.0000E+00
    -52.412  0.0000E+00  0.0000E+00  0.0000E+00  0.0000E+00
    -52.171  0.0000E+00  0.0000E+00  0.0000E+00  0.0000E+00
    -51.929  0.0000E+00  0.0000E+00  0.0000E+00  0.0000E+00
    -51.688  0.0000E+00  0.0000E+00  0.0000E+00  0.0000E+00
    -51.447  0.0000E+00  0.0000E+00  0.0000E+00  0.0000E+00
    -51.205  0.4355E-03  0.0000E+00  0.1051E-03  0.0000E+00
    -50.964  0.1470E+03  0.0000E+00  0.3548E+02  0.0000E+00
    -50.723  0.2148E+01  0.0000E+00  0.3600E+02  0.0000E+00
    -50.481  0.0000E+00  0.0000E+00  0.3600E+02  0.0000E+00
    -50.240  0.0000E+00  0.0000E+00  0.3600E+02  0.0000E+00
    -49.999  0.0000E+00  0.0000E+00  0.3600E+02  0.0000E+00
    -49.758  0.1975E+01  0.0000E+00  0.3648E+02  0.0000E+00
    -49.516  0.2726E+03  0.0000E+00  0.1023E+03  0.0000E+00
    -49.275  0.2381E+02  0.0000E+00  0.1080E+03  0.0000E+00
    -49.034  0.0000E+00  0.0000E+00  0.1080E+03  0.0000E+00
    -48.792  0.0000E+00  0.0000E+00  0.1080E+03  0.0000E+00
    -48.551  0.0000E+00  0.0000E+00  0.1080E+03  0.0000E+00
    -48.310  0.0000E+00  0.0000E+00  0.1080E+03  0.0000E+00
    -48.069  0.0000E+00  0.0000E+00  0.1080E+03  0.0000E+00
    -47.827  0.0000E+00  0.0000E+00  0.1080E+03  0.0000E+00
    -47.586  0.0000E+00  0.0000E+00  0.1080E+03  0.0000E+00
    -47.345  0.0000E+00  0.0000E+00  0.1080E+03  0.0000E+00
    -47.103  0.0000E+00  0.0000E+00  0.1080E+03  0.0000E+00
    -46.862  0.0000E+00  0.0000E+00  0.1080E+03  0.0000E+00
    -46.621  0.0000E+00  0.0000E+00  0.1080E+03  0.0000E+00
    -46.380  0.0000E+00  0.6290E+00  0.1080E+03  0.1518E+00
    -46.138  0.0000E+00  0.1486E+03  0.1080E+03  0.3600E+02
    -45.897  0.0000E+00  0.7998E+02  0.1080E+03  0.5530E+02
    -45.656  0.0000E+00  0.2184E+03  0.1080E+03  0.1080E+03
    -45.414  0.0000E+00  0.0000E+00  0.1080E+03  0.1080E+03
    -45.173  0.0000E+00  0.0000E+00  0.1080E+03  0.1080E+03
    -44.932  0.0000E+00  0.0000E+00  0.1080E+03  0.1080E+03
    -44.690  0.0000E+00  0.0000E+00  0.1080E+03  0.1080E+03
    -44.449  0.0000E+00  0.0000E+00  0.1080E+03  0.1080E+03
    -44.208  0.0000E+00  0.0000E+00  0.1080E+03  0.1080E+03
    -43.967  0.0000E+00  0.0000E+00  0.1080E+03  0.1080E+03
    -43.725  0.0000E+00  0.0000E+00  0.1080E+03  0.1080E+03
    -43.484  0.0000E+00  0.0000E+00  0.1080E+03  0.1080E+03
    -43.243  0.0000E+00  0.0000E+00  0.1080E+03  0.1080E+03
    -43.001  0.0000E+00  0.0000E+00  0.1080E+03  0.1080E+03
    -42.760  0.0000E+00  0.0000E+00  0.1080E+03  0.1080E+03
    -42.519  0.0000E+00  0.0000E+00  0.1080E+03  0.1080E+03
    -42.278  0.0000E+00  0.0000E+00  0.1080E+03  0.1080E+03
    -42.036  0.0000E+00  0.0000E+00  0.1080E+03  0.1080E+03
    -41.795  0.0000E+00  0.0000E+00  0.1080E+03  0.1080E+03
    -41.554  0.0000E+00  0.0000E+00  0.1080E+03  0.1080E+03
    -41.312  0.0000E+00  0.0000E+00  0.1080E+03  0.1080E+03
    -41.071  0.0000E+00  0.0000E+00  0.1080E+03  0.1080E+03
    -40.830  0.0000E+00  0.0000E+00  0.1080E+03  0.1080E+03
    -40.589  0.0000E+00  0.0000E+00  0.1080E+03  0.1080E+03
    -40.347  0.0000E+00  0.0000E+00  0.1080E+03  0.1080E+03
    -40.106  0.2143E-09  0.1416E-09  0.1080E+03  0.1080E+03
    -39.865  0.3539E+02  0.3365E+02  0.1165E+03  0.1161E+03
    -39.623  0.3921E+02  0.4095E+02  0.1260E+03  0.1260E+03
    -39.382  0.0000E+00  0.0000E+00  0.1260E+03  0.1260E+03
    -39.141  0.0000E+00  0.0000E+00  0.1260E+03  0.1260E+03
    -38.900  0.0000E+00  0.0000E+00  0.1260E+03  0.1260E+03
    -38.658  0.0000E+00  0.0000E+00  0.1260E+03  0.1260E+03
    -38.417  0.0000E+00  0.0000E+00  0.1260E+03  0.1260E+03
    -38.176  0.0000E+00  0.0000E+00  0.1260E+03  0.1260E+03
    -37.934  0.0000E+00  0.0000E+00  0.1260E+03  0.1260E+03
    -37.693  0.0000E+00  0.0000E+00  0.1260E+03  0.1260E+03
    -37.452  0.0000E+00  0.0000E+00  0.1260E+03  0.1260E+03
    -37.210  0.0000E+00  0.0000E+00  0.1260E+03  0.1260E+03
    -36.969  0.0000E+00  0.0000E+00  0.1260E+03  0.1260E+03
    -36.728  0.0000E+00  0.0000E+00  0.1260E+03  0.1260E+03
    -36.487  0.0000E+00  0.0000E+00  0.1260E+03  0.1260E+03
    -36.245  0.0000E+00  0.0000E+00  0.1260E+03  0.1260E+03
    -36.004  0.0000E+00  0.0000E+00  0.1260E+03  0.1260E+03
    -35.763  0.0000E+00  0.0000E+00  0.1260E+03  0.1260E+03
    -35.521  0.0000E+00  0.0000E+00  0.1260E+03  0.1260E+03
    -35.280  0.0000E+00  0.0000E+00  0.1260E+03  0.1260E+03
    -35.039  0.0000E+00  0.0000E+00  0.1260E+03  0.1260E+03
    -34.798  0.0000E+00  0.0000E+00  0.1260E+03  0.1260E+03
    -34.556  0.0000E+00  0.0000E+00  0.1260E+03  0.1260E+03
    -34.315  0.0000E+00  0.0000E+00  0.1260E+03  0.1260E+03
    -34.074  0.0000E+00  0.0000E+00  0.1260E+03  0.1260E+03
    -33.832  0.0000E+00  0.0000E+00  0.1260E+03  0.1260E+03
    -33.591  0.0000E+00  0.0000E+00  0.1260E+03  0.1260E+03
    -33.350  0.0000E+00  0.0000E+00  0.1260E+03  0.1260E+03
    -33.109  0.0000E+00  0.0000E+00  0.1260E+03  0.1260E+03
    -32.867  0.0000E+00  0.0000E+00  0.1260E+03  0.1260E+03
    -32.626  0.0000E+00  0.0000E+00  0.1260E+03  0.1260E+03
    -32.385  0.0000E+00  0.0000E+00  0.1260E+03  0.1260E+03
    -32.143  0.0000E+00  0.0000E+00  0.1260E+03  0.1260E+03
    -31.902  0.0000E+00  0.0000E+00  0.1260E+03  0.1260E+03
    -31.661  0.0000E+00  0.0000E+00  0.1260E+03  0.1260E+03
    -31.420  0.0000E+00  0.0000E+00  0.1260E+03  0.1260E+03
    -31.178  0.0000E+00  0.0000E+00  0.1260E+03  0.1260E+03
    -30.937  0.0000E+00  0.0000E+00  0.1260E+03  0.1260E+03
    -30.696  0.0000E+00  0.0000E+00  0.1260E+03  0.1260E+03
    -30.454  0.0000E+00  0.0000E+00  0.1260E+03  0.1260E+03
    -30.213  0.0000E+00  0.0000E+00  0.1260E+03  0.1260E+03
    -29.972  0.0000E+00  0.0000E+00  0.1260E+03  0.1260E+03
    -29.730  0.0000E+00  0.0000E+00  0.1260E+03  0.1260E+03
    -29.489  0.0000E+00  0.0000E+00  0.1260E+03  0.1260E+03
    -29.248  0.0000E+00  0.0000E+00  0.1260E+03  0.1260E+03
    -29.007  0.0000E+00  0.0000E+00  0.1260E+03  0.1260E+03
    -28.765  0.0000E+00  0.0000E+00  0.1260E+03  0.1260E+03
    -28.524  0.0000E+00  0.0000E+00  0.1260E+03  0.1260E+03
    -28.283  0.0000E+00  0.0000E+00  0.1260E+03  0.1260E+03
    -28.041  0.0000E+00  0.0000E+00  0.1260E+03  0.1260E+03
    -27.800  0.0000E+00  0.0000E+00  0.1260E+03  0.1260E+03
    -27.559  0.0000E+00  0.0000E+00  0.1260E+03  0.1260E+03
    -27.318  0.0000E+00  0.0000E+00  0.1260E+03  0.1260E+03
    -27.076  0.0000E+00  0.0000E+00  0.1260E+03  0.1260E+03
    -26.835  0.0000E+00  0.0000E+00  0.1260E+03  0.1260E+03
    -26.594  0.0000E+00  0.0000E+00  0.1260E+03  0.1260E+03
    -26.352  0.0000E+00  0.0000E+00  0.1260E+03  0.1260E+03
    -26.111  0.0000E+00  0.0000E+00  0.1260E+03  0.1260E+03
    -25.870  0.0000E+00  0.0000E+00  0.1260E+03  0.1260E+03
    -25.629  0.0000E+00  0.0000E+00  0.1260E+03  0.1260E+03
    -25.387  0.0000E+00  0.0000E+00  0.1260E+03  0.1260E+03
    -25.146  0.0000E+00  0.0000E+00  0.1260E+03  0.1260E+03
    -24.905  0.0000E+00  0.0000E+00  0.1260E+03  0.1260E+03
    -24.663  0.0000E+00  0.0000E+00  0.1260E+03  0.1260E+03
    -24.422  0.0000E+00  0.0000E+00  0.1260E+03  0.1260E+03
    -24.181  0.0000E+00  0.0000E+00  0.1260E+03  0.1260E+03
    -23.939  0.0000E+00  0.0000E+00  0.1260E+03  0.1260E+03
    -23.698  0.0000E+00  0.0000E+00  0.1260E+03  0.1260E+03
    -23.457  0.0000E+00  0.0000E+00  0.1260E+03  0.1260E+03
    -23.216  0.0000E+00  0.0000E+00  0.1260E+03  0.1260E+03
    -22.974  0.0000E+00  0.0000E+00  0.1260E+03  0.1260E+03
    -22.733  0.0000E+00  0.0000E+00  0.1260E+03  0.1260E+03
    -22.492  0.0000E+00  0.0000E+00  0.1260E+03  0.1260E+03
    -22.250  0.0000E+00  0.0000E+00  0.1260E+03  0.1260E+03
    -22.009  0.0000E+00  0.0000E+00  0.1260E+03  0.1260E+03
    -21.768  0.0000E+00  0.0000E+00  0.1260E+03  0.1260E+03
    -21.527  0.0000E+00  0.0000E+00  0.1260E+03  0.1260E+03
    -21.285  0.0000E+00  0.0000E+00  0.1260E+03  0.1260E+03
    -21.044  0.0000E+00  0.0000E+00  0.1260E+03  0.1260E+03
    -20.803  0.0000E+00  0.0000E+00  0.1260E+03  0.1260E+03
    -20.561  0.0000E+00  0.0000E+00  0.1260E+03  0.1260E+03
    -20.320  0.0000E+00  0.0000E+00  0.1260E+03  0.1260E+03
    -20.079  0.0000E+00  0.0000E+00  0.1260E+03  0.1260E+03
    -19.838  0.0000E+00  0.0000E+00  0.1260E+03  0.1260E+03
    -19.596  0.0000E+00  0.0000E+00  0.1260E+03  0.1260E+03
    -19.355  0.0000E+00  0.0000E+00  0.1260E+03  0.1260E+03
    -19.114  0.0000E+00  0.0000E+00  0.1260E+03  0.1260E+03
    -18.872  0.0000E+00  0.0000E+00  0.1260E+03  0.1260E+03
    -18.631  0.0000E+00  0.0000E+00  0.1260E+03  0.1260E+03
    -18.390  0.0000E+00  0.0000E+00  0.1260E+03  0.1260E+03
    -18.149  0.0000E+00  0.0000E+00  0.1260E+03  0.1260E+03
    -17.907  0.0000E+00  0.0000E+00  0.1260E+03  0.1260E+03
    -17.666  0.0000E+00  0.0000E+00  0.1260E+03  0.1260E+03
    -17.425  0.0000E+00  0.0000E+00  0.1260E+03  0.1260E+03
    -17.183  0.0000E+00  0.0000E+00  0.1260E+03  0.1260E+03
    -16.942  0.0000E+00  0.0000E+00  0.1260E+03  0.1260E+03
    -16.701  0.0000E+00  0.0000E+00  0.1260E+03  0.1260E+03
    -16.459  0.0000E+00  0.0000E+00  0.1260E+03  0.1260E+03
    -16.218  0.0000E+00  0.0000E+00  0.1260E+03  0.1260E+03
    -15.977  0.0000E+00  0.0000E+00  0.1260E+03  0.1260E+03
    -15.736  0.0000E+00  0.0000E+00  0.1260E+03  0.1260E+03
    -15.494  0.0000E+00  0.0000E+00  0.1260E+03  0.1260E+03
    -15.253  0.0000E+00  0.0000E+00  0.1260E+03  0.1260E+03
    -15.012  0.0000E+00  0.0000E+00  0.1260E+03  0.1260E+03
    -14.770  0.0000E+00  0.0000E+00  0.1260E+03  0.1260E+03
    -14.529  0.0000E+00  0.0000E+00  0.1260E+03  0.1260E+03
    -14.288  0.0000E+00  0.0000E+00  0.1260E+03  0.1260E+03
    -14.047  0.0000E+00  0.0000E+00  0.1260E+03  0.1260E+03
    -13.805  0.0000E+00  0.0000E+00  0.1260E+03  0.1260E+03
    -13.564  0.0000E+00  0.0000E+00  0.1260E+03  0.1260E+03
    -13.323  0.4769E-01  0.0000E+00  0.1260E+03  0.1260E+03
    -13.081  0.4151E+02  0.2245E-11  0.1360E+03  0.1260E+03
    -12.840  0.3304E+02  0.4641E+01  0.1440E+03  0.1271E+03
    -12.599  0.1800E-02  0.6685E+02  0.1440E+03  0.1432E+03
    -12.358  0.0000E+00  0.3110E+01  0.1440E+03  0.1440E+03
    -12.116  0.0000E+00  0.0000E+00  0.1440E+03  0.1440E+03
    -11.875  0.0000E+00  0.0000E+00  0.1440E+03  0.1440E+03
    -11.634  0.0000E+00  0.0000E+00  0.1440E+03  0.1440E+03
    -11.392  0.0000E+00  0.0000E+00  0.1440E+03  0.1440E+03
    -11.151  0.0000E+00  0.0000E+00  0.1440E+03  0.1440E+03
    -10.910  0.0000E+00  0.0000E+00  0.1440E+03  0.1440E+03
    -10.669  0.0000E+00  0.0000E+00  0.1440E+03  0.1440E+03
    -10.427  0.0000E+00  0.0000E+00  0.1440E+03  0.1440E+03
    -10.186  0.0000E+00  0.0000E+00  0.1440E+03  0.1440E+03
     -9.945  0.0000E+00  0.0000E+00  0.1440E+03  0.1440E+03
     -9.703  0.0000E+00  0.0000E+00  0.1440E+03  0.1440E+03
     -9.462  0.0000E+00  0.0000E+00  0.1440E+03  0.1440E+03
     -9.221  0.0000E+00  0.0000E+00  0.1440E+03  0.1440E+03
     -8.979  0.0000E+00  0.0000E+00  0.1440E+03  0.1440E+03
     -8.738  0.0000E+00  0.0000E+00  0.1440E+03  0.1440E+03
     -8.497  0.0000E+00  0.0000E+00  0.1440E+03  0.1440E+03
     -8.256  0.0000E+00  0.0000E+00  0.1440E+03  0.1440E+03
     -8.014  0.0000E+00  0.0000E+00  0.1440E+03  0.1440E+03
     -7.773  0.6270E-06  0.0000E+00  0.1440E+03  0.1440E+03
     -7.532  0.2480E+01  0.1491E-06  0.1446E+03  0.1440E+03
     -7.290  0.2554E+02  0.2435E+01  0.1508E+03  0.1446E+03
     -7.049  0.2799E+02  0.2742E+02  0.1575E+03  0.1512E+03
     -6.808  0.4558E+02  0.2612E+02  0.1685E+03  0.1575E+03
     -6.567  0.1030E+02  0.3574E+02  0.1710E+03  0.1661E+03
     -6.325  0.0000E+00  0.2019E+02  0.1710E+03  0.1710E+03
     -6.084  0.0000E+00  0.5449E-03  0.1710E+03  0.1710E+03
     -5.843  0.0000E+00  0.0000E+00  0.1710E+03  0.1710E+03
     -5.601  0.0000E+00  0.0000E+00  0.1710E+03  0.1710E+03
     -5.360  0.0000E+00  0.0000E+00  0.1710E+03  0.1710E+03
     -5.119  0.0000E+00  0.0000E+00  0.1710E+03  0.1710E+03
     -4.878  0.0000E+00  0.0000E+00  0.1710E+03  0.1710E+03
     -4.636  0.0000E+00  0.0000E+00  0.1710E+03  0.1710E+03
     -4.395  0.0000E+00  0.0000E+00  0.1710E+03  0.1710E+03
     -4.154  0.0000E+00  0.0000E+00  0.1710E+03  0.1710E+03
     -3.912  0.0000E+00  0.0000E+00  0.1710E+03  0.1710E+03
     -3.671  0.0000E+00  0.0000E+00  0.1710E+03  0.1710E+03
     -3.430  0.0000E+00  0.0000E+00  0.1710E+03  0.1710E+03
     -3.188  0.0000E+00  0.0000E+00  0.1710E+03  0.1710E+03
     -2.947  0.0000E+00  0.0000E+00  0.1710E+03  0.1710E+03
     -2.706  0.0000E+00  0.0000E+00  0.1710E+03  0.1710E+03
     -2.465  0.0000E+00  0.0000E+00  0.1710E+03  0.1710E+03
     -2.223  0.8572E-14  0.0000E+00  0.1710E+03  0.1710E+03
     -1.982  0.1216E+01  0.0000E+00  0.1713E+03  0.1710E+03
     -1.741  0.3059E+02  0.0000E+00  0.1787E+03  0.1710E+03
     -1.499  0.1728E+02  0.0000E+00  0.1828E+03  0.1710E+03
     -1.258  0.1647E+02  0.0000E+00  0.1868E+03  0.1710E+03
     -1.017  0.2793E+02  0.0000E+00  0.1936E+03  0.1710E+03
     -0.776  0.5960E+02  0.6817E-16  0.2079E+03  0.1710E+03
     -0.534  0.6151E+02  0.6787E-01  0.2228E+03  0.1710E+03
     -0.293  0.4929E+02  0.1736E+02  0.2347E+03  0.1752E+03
     -0.052  0.7937E+02  0.1637E+02  0.2538E+03  0.1792E+03
      0.190  0.9498E+02  0.1591E+02  0.2767E+03  0.1830E+03
      0.431  0.7668E+02  0.2424E+02  0.2952E+03  0.1888E+03
      0.672  0.7663E+02  0.3983E+02  0.3137E+03  0.1985E+03
      0.913  0.4948E+02  0.4537E+02  0.3257E+03  0.2094E+03
      1.155  0.3463E+02  0.3895E+02  0.3340E+03  0.2188E+03
      1.396  0.4394E+02  0.2905E+02  0.3446E+03  0.2258E+03
      1.637  0.4626E+02  0.2818E+02  0.3558E+03  0.2326E+03
      1.879  0.6648E+02  0.3395E+02  0.3718E+03  0.2408E+03
      2.120  0.7972E+02  0.3942E+02  0.3911E+03  0.2503E+03
      2.361  0.4172E+02  0.2500E+02  0.4011E+03  0.2563E+03
      2.602  0.3745E+02  0.3049E+02  0.4102E+03  0.2637E+03
      2.844  0.5042E+02  0.4489E+02  0.4223E+03  0.2745E+03
      3.085  0.1246E+02  0.5020E+02  0.4253E+03  0.2866E+03
      3.326  0.1606E+02  0.4309E+02  0.4292E+03  0.2970E+03
      3.568  0.3814E+02  0.3096E+02  0.4384E+03  0.3045E+03
      3.809  0.2731E+02  0.7381E+01  0.4450E+03  0.3063E+03
      4.050  0.4125E+02  0.3887E+02  0.4550E+03  0.3157E+03
      4.292  0.3777E+02  0.7600E+02  0.4641E+03  0.3340E+03
      4.533  0.3897E+02  0.2972E+02  0.4735E+03  0.3412E+03
      4.774  0.3177E+02  0.3413E+01  0.4812E+03  0.3420E+03
      5.015  0.1953E+02  0.0000E+00  0.4859E+03  0.3420E+03
      5.257  0.5688E+00  0.0000E+00  0.4860E+03  0.3420E+03
      5.498  0.0000E+00  0.0000E+00  0.4860E+03  0.3420E+03
      5.739  0.0000E+00  0.0000E+00  0.4860E+03  0.3420E+03
      5.981  0.0000E+00  0.0000E+00  0.4860E+03  0.3420E+03
      6.222  0.0000E+00  0.6165E-04  0.4860E+03  0.3420E+03
      6.463  0.0000E+00  0.2211E+01  0.4860E+03  0.3425E+03
      6.704  0.0000E+00  0.5310E+01  0.4860E+03  0.3438E+03
      6.946  0.0000E+00  0.1496E+02  0.4860E+03  0.3474E+03
      7.187  0.3956E-07  0.3115E+02  0.4860E+03  0.3549E+03
      7.428  0.1480E+00  0.5857E+02  0.4860E+03  0.3691E+03
      7.670  0.6528E-02  0.6798E+02  0.4860E+03  0.3855E+03
      7.911  0.6728E+00  0.6542E+02  0.4862E+03  0.4013E+03
      8.152  0.1392E+01  0.7518E+02  0.4865E+03  0.4194E+03
      8.393  0.2903E+01  0.8290E+02  0.4872E+03  0.4394E+03
      8.635  0.5525E+01  0.6534E+02  0.4886E+03  0.4552E+03
      8.876  0.1145E+02  0.6092E+02  0.4913E+03  0.4699E+03
      9.117  0.1474E+02  0.4212E+02  0.4949E+03  0.4800E+03
      9.359  0.2026E+02  0.2265E+02  0.4998E+03  0.4855E+03
      9.600  0.1569E+02  0.5310E+01  0.5036E+03  0.4868E+03
      9.841  0.1857E+02  0.8087E+01  0.5080E+03  0.4887E+03
     10.082  0.2438E+02  0.1157E+02  0.5139E+03  0.4915E+03
     10.324  0.1868E+02  0.2243E+02  0.5184E+03  0.4969E+03
     10.565  0.1936E+02  0.2136E+02  0.5231E+03  0.5021E+03
     10.806  0.1199E+02  0.2242E+02  0.5260E+03  0.5075E+03
     11.048  0.1929E+02  0.2944E+02  0.5307E+03  0.5146E+03
     11.289  0.2514E+02  0.2358E+02  0.5367E+03  0.5203E+03
     11.530  0.3215E+02  0.2122E+02  0.5445E+03  0.5254E+03
     11.772  0.2741E+02  0.1430E+02  0.5511E+03  0.5289E+03
     12.013  0.3392E+02  0.1228E+02  0.5593E+03  0.5318E+03
     12.254  0.3181E+02  0.3281E+02  0.5670E+03  0.5397E+03
     12.495  0.2286E+02  0.4578E+02  0.5725E+03  0.5508E+03
     12.737  0.2130E+02  0.3616E+02  0.5776E+03  0.5595E+03
     12.978  0.2381E+02  0.2442E+02  0.5834E+03  0.5654E+03
     13.219  0.2826E+02  0.2054E+02  0.5902E+03  0.5704E+03
     13.461  0.2771E+02  0.2969E+02  0.5969E+03  0.5775E+03
     13.702  0.2228E+02  0.3028E+02  0.6022E+03  0.5848E+03
     13.943  0.1442E+02  0.2719E+02  0.6057E+03  0.5914E+03
     14.184  0.1190E+01  0.2405E+02  0.6060E+03  0.5972E+03
     14.426  0.0000E+00  0.2278E+02  0.6060E+03  0.6027E+03
     14.667  0.0000E+00  0.1320E+02  0.6060E+03  0.6059E+03
     14.908  0.0000E+00  0.5022E+00  0.6060E+03  0.6060E+03
     15.150  0.0000E+00  0.2157E-05  0.6060E+03  0.6060E+03
     15.391  0.0000E+00  0.0000E+00  0.6060E+03  0.6060E+03
     15.632  0.0000E+00  0.0000E+00  0.6060E+03  0.6060E+03
     15.873  0.0000E+00  0.0000E+00  0.6060E+03  0.6060E+03
     16.115  0.0000E+00  0.0000E+00  0.6060E+03  0.6060E+03
     16.356  0.0000E+00  0.0000E+00  0.6060E+03  0.6060E+03
     16.597  0.0000E+00  0.0000E+00  0.6060E+03  0.6060E+03
     16.839  0.0000E+00  0.0000E+00  0.6060E+03  0.6060E+03
     17.080  0.0000E+00  0.0000E+00  0.6060E+03  0.6060E+03
     17.321  0.0000E+00  0.0000E+00  0.6060E+03  0.6060E+03
     17.563  0.0000E+00  0.0000E+00  0.6060E+03  0.6060E+03
     17.804  0.0000E+00  0.0000E+00  0.6060E+03  0.6060E+03
     18.045  0.0000E+00  0.0000E+00  0.6060E+03  0.6060E+03
