 vasp.5.4.4.18Apr17-6-g9f103f2a35 (build Oct 25 2017 14:42:18) complex          
  
 executed on             LinuxIFC date 2021.05.28  04:32:52
 running on   24 total cores
 distrk:  each k-point on   12 cores,    2 groups
 distr:  one band on NCORES_PER_BAND=   6 cores,    2 groups


--------------------------------------------------------------------------------------------------------


 INCAR:
 POTCAR:    PAW_PBE Li_sv 10Sep2004               
 POTCAR:    PAW_PBE O 08Apr2002                   
 POTCAR:    PAW_PBE S 06Sep2000                   
 POTCAR:    PAW_PBE Fe_pv 02Aug2007               

 ----------------------------------------------------------------------------- 
|                                                                             |
|           W    W    AA    RRRRR   N    N  II  N    N   GGGG   !!!           |
|           W    W   A  A   R    R  NN   N  II  NN   N  G    G  !!!           |
|           W    W  A    A  R    R  N N  N  II  N N  N  G       !!!           |
|           W WW W  AAAAAA  RRRRR   N  N N  II  N  N N  G  GGG   !            |
|           WW  WW  A    A  R   R   N   NN  II  N   NN  G    G                |
|           W    W  A    A  R    R  N    N  II  N    N   GGGG   !!!           |
|                                                                             |
|      You have enabled k-point parallelism (KPAR>1).                         |
|      This developmental code was originally  written by Paul Kent at ORNL,  |
|      and carefully double checked in Vienna.                                |
|      GW as well as linear response parallelism added by Martijn Marsman     |
|      and Georg Kresse.                                                      |
|      Carefully verify results versus KPAR=1.                                |
|      Report problems to Paul Kent and Vienna.                               |
|                                                                             |
 ----------------------------------------------------------------------------- 

 POTCAR:    PAW_PBE Li_sv 10Sep2004               
  local pseudopotential read in
  atomic valenz-charges read in
  non local Contribution for L=           0  read in
    real space projection operators read in
  non local Contribution for L=           0  read in
    real space projection operators read in
  non local Contribution for L=           1  read in
    real space projection operators read in
    PAW grid and wavefunctions read in
 
   number of l-projection  operators is LMAX  =           3
   number of lm-projection operators is LMMAX =           5
 
 POTCAR:    PAW_PBE O 08Apr2002                   
  local pseudopotential read in
  partial core-charges read in
  partial kinetic energy density read in
  kinetic energy density of atom read in
  atomic valenz-charges read in
  non local Contribution for L=           0  read in
    real space projection operators read in
  non local Contribution for L=           0  read in
    real space projection operators read in
  non local Contribution for L=           1  read in
    real space projection operators read in
  non local Contribution for L=           1  read in
    real space projection operators read in
    PAW grid and wavefunctions read in
 
   number of l-projection  operators is LMAX  =           4
   number of lm-projection operators is LMMAX =           8
 
 POTCAR:    PAW_PBE S 06Sep2000                   
  local pseudopotential read in
  partial core-charges read in
  partial kinetic energy density read in
  atomic valenz-charges read in
  non local Contribution for L=           0  read in
    real space projection operators read in
  non local Contribution for L=           0  read in
    real space projection operators read in
  non local Contribution for L=           1  read in
    real space projection operators read in
  non local Contribution for L=           1  read in
    real space projection operators read in
    PAW grid and wavefunctions read in
 
   number of l-projection  operators is LMAX  =           4
   number of lm-projection operators is LMMAX =           8
 
 POTCAR:    PAW_PBE Fe_pv 02Aug2007               
  local pseudopotential read in
  partial core-charges read in
  partial kinetic energy density read in
  atomic valenz-charges read in
  non local Contribution for L=           1  read in
    real space projection operators read in
  non local Contribution for L=           1  read in
    real space projection operators read in
  non local Contribution for L=           2  read in
    real space projection operators read in
  non local Contribution for L=           2  read in
    real space projection operators read in
  non local Contribution for L=           0  read in
    real space projection operators read in
  non local Contribution for L=           0  read in
    real space projection operators read in
    PAW grid and wavefunctions read in
 
   number of l-projection  operators is LMAX  =           6
   number of lm-projection operators is LMMAX =          18
 

 ----------------------------------------------------------------------------- 
|                                                                             |
|  ADVICE TO THIS USER RUNNING 'VASP/VAMP'   (HEAR YOUR MASTER'S VOICE ...):  |
|                                                                             |
|      You have a (more or less) 'large supercell' and for larger cells       |
|      it might be more efficient to use real space projection opertators     |
|      So try LREAL= Auto  in the INCAR   file.                               |
|      Mind:          For very  accurate calculation you might also keep the  |
|      reciprocal projection scheme          (i.e. LREAL=.FALSE.)             |
|                                                                             |
 ----------------------------------------------------------------------------- 

  PAW_PBE Li_sv 10Sep2004               :
 energy of atom  1       EATOM= -202.7858
 kinetic energy error for atom=    0.0072 (will be added to EATOM!!)
  PAW_PBE O 08Apr2002                   :
 energy of atom  2       EATOM= -432.3788
 kinetic energy error for atom=    0.0129 (will be added to EATOM!!)
  PAW_PBE S 06Sep2000                   :
 energy of atom  3       EATOM= -276.8230
 kinetic energy error for atom=    0.0008 (will be added to EATOM!!)
  PAW_PBE Fe_pv 02Aug2007               :
 energy of atom  4       EATOM=-2457.4239
 kinetic energy error for atom=    0.0041 (will be added to EATOM!!)
 
 
 POSCAR: # Compound: Li18O18S27Fe36. Old comment:
  positions in direct lattice
  No initial velocities read in
 exchange correlation table for  LEXCH =        8
   RHO(1)=    0.500       N(1)  =     2000
   RHO(2)=  100.500       N(2)  =     4000
 


--------------------------------------------------------------------------------------------------------


 ion  position               nearest neighbor table
   1  0.202  0.242  0.832-  31 1.98  28 1.99  56 2.61  55 2.61
   2  0.536  0.242  0.832-  32 1.98  29 1.99  57 2.61  56 2.61
   3  0.869  0.242  0.832-  33 1.98  30 1.99  55 2.61  57 2.61
   4  0.202  0.575  0.832-  34 1.98  31 1.99  59 2.61  58 2.61
   5  0.536  0.575  0.832-  35 1.98  32 1.99  60 2.61  59 2.61
   6  0.869  0.575  0.832-  36 1.98  33 1.99  58 2.61  60 2.61
   7  0.202  0.909  0.832-  28 1.98  34 1.99  62 2.61  61 2.61
   8  0.536  0.909  0.832-  29 1.98  35 1.99  63 2.61  62 2.61
   9  0.869  0.909  0.832-  30 1.98  36 1.99  61 2.61  63 2.61
  10  0.091  0.131  0.168-  21 1.98  19 1.99  61 2.61  55 2.61
  11  0.425  0.131  0.168-  19 1.98  20 1.99  62 2.61  56 2.61
  12  0.758  0.131  0.168-  20 1.98  21 1.99  63 2.61  57 2.61
  13  0.091  0.464  0.168-  24 1.98  22 1.99  55 2.61  58 2.61
  14  0.425  0.464  0.168-  22 1.98  23 1.99  56 2.61  59 2.61
  15  0.758  0.464  0.168-  23 1.98  24 1.99  57 2.61  60 2.61
  16  0.091  0.798  0.168-  27 1.98  25 1.99  58 2.61  61 2.61
  17  0.425  0.798  0.168-  25 1.98  26 1.99  59 2.61  62 2.61
  18  0.758  0.798  0.168-  26 1.98  27 1.99  60 2.61  63 2.61
  19  0.263  0.136  0.197-  11 1.98  10 1.99  97 2.01  64 2.01  91 2.01
  20  0.596  0.136  0.197-  12 1.98  11 1.99  98 2.01  65 2.01  92 2.01
  21  0.930  0.136  0.197-  10 1.98  12 1.99  99 2.01  66 2.01  93 2.01
  22  0.263  0.469  0.197-  14 1.98  13 1.99  91 2.01  67 2.01  94 2.01
  23  0.596  0.469  0.197-  15 1.98  14 1.99  92 2.01  68 2.01  95 2.01
  24  0.930  0.469  0.197-  13 1.98  15 1.99  93 2.01  69 2.01  96 2.01
  25  0.263  0.803  0.197-  17 1.98  16 1.99  94 2.01  70 2.01  97 2.01
  26  0.596  0.803  0.197-  18 1.98  17 1.99  95 2.01  71 2.01  98 2.01
  27  0.930  0.803  0.197-  16 1.98  18 1.99  96 2.01  72 2.01  99 2.01
  28  0.197  0.070  0.803-   7 1.98   1 1.99  83 2.01  73 2.01  82 2.01
  29  0.531  0.070  0.803-   8 1.98   2 1.99  84 2.01  74 2.01  83 2.01
  30  0.864  0.070  0.803-   9 1.98   3 1.99  82 2.01  75 2.01  84 2.01
  31  0.197  0.404  0.803-   1 1.98   4 1.99  86 2.01  76 2.01  85 2.01
  32  0.531  0.404  0.803-   2 1.98   5 1.99  87 2.01  77 2.01  86 2.01
  33  0.864  0.404  0.803-   3 1.98   6 1.99  85 2.01  78 2.01  87 2.01
  34  0.197  0.737  0.803-   4 1.98   7 1.99  89 2.01  79 2.01  88 2.01
  35  0.531  0.737  0.803-   5 1.98   8 1.99  90 2.01  80 2.01  89 2.01
  36  0.864  0.737  0.803-   6 1.98   9 1.99  88 2.01  81 2.01  90 2.01
  37  0.003  0.207  0.629-  66 2.41  73 2.70  75 2.76
  38  0.336  0.207  0.629-  64 2.41  74 2.70  73 2.76
  39  0.669  0.207  0.629-  65 2.41  75 2.70  74 2.76
  40  0.003  0.540  0.629-  69 2.41  76 2.70  78 2.76
  41  0.336  0.540  0.629-  67 2.41  77 2.70  76 2.76
  42  0.669  0.540  0.629-  68 2.41  78 2.70  77 2.76
  43  0.003  0.873  0.629-  72 2.41  79 2.70  81 2.76
  44  0.336  0.873  0.629-  70 2.41  80 2.70  79 2.76
  45  0.669  0.873  0.629-  71 2.41  81 2.70  80 2.76
  46  0.127  0.331  0.371-  76 2.41  64 2.69  67 2.76
  47  0.460  0.331  0.371-  77 2.41  65 2.70  68 2.76
  48  0.793  0.331  0.371-  78 2.41  66 2.70  69 2.76
  49  0.127  0.664  0.371-  79 2.41  67 2.70  70 2.76
  50  0.460  0.664  0.371-  80 2.41  68 2.70  71 2.76
  51  0.793  0.664  0.371-  81 2.41  69 2.70  72 2.76
  52  0.127  0.997  0.371-  73 2.41  70 2.70  64 2.76
  53  0.460  0.997  0.371-  74 2.41  71 2.70  65 2.76
  54  0.793  0.997  0.371-  75 2.41  72 2.70  66 2.76
  55  0.064  0.270  0.000-  85 2.52  93 2.52  82 2.52  91 2.52  13 2.61   3 2.61  10 2.61   1 2.61

  56  0.397  0.270  0.000-  86 2.52  91 2.52  83 2.52  92 2.52  14 2.61   1 2.61  11 2.61   2 2.61

  57  0.730  0.270  0.000-  87 2.52  92 2.52  84 2.52  93 2.52  15 2.61   2 2.61  12 2.61   3 2.61

  58  0.064  0.603  0.000-  88 2.52  96 2.52  85 2.52  94 2.52  16 2.61   6 2.61  13 2.61   4 2.61

  59  0.397  0.603  0.000-  89 2.52  94 2.52  86 2.52  95 2.52  17 2.61   4 2.61  14 2.61   5 2.61

  60  0.730  0.603  0.000-  90 2.52  95 2.52  87 2.52  96 2.52  18 2.61   5 2.61  15 2.61   6 2.61

  61  0.064  0.936  0.000-  82 2.52  99 2.52  88 2.52  97 2.52  10 2.61   9 2.61  16 2.61   7 2.61

  62  0.397  0.936  0.000-  83 2.52  97 2.52  89 2.52  98 2.52  11 2.61   7 2.61  17 2.61   8 2.61

  63  0.730  0.936  0.000-  84 2.52  98 2.52  90 2.52  99 2.52  12 2.61   8 2.61  18 2.61   9 2.61

  64  0.289  0.172  0.394-  19 2.01  38 2.41  46 2.69  52 2.76
  65  0.624  0.172  0.394-  20 2.01  39 2.41  47 2.70  53 2.76
  66  0.957  0.172  0.394-  21 2.01  37 2.41  48 2.70  54 2.76
  67  0.290  0.505  0.394-  22 2.01  41 2.41  49 2.70  46 2.76
  68  0.624  0.505  0.394-  23 2.01  42 2.41  50 2.70  47 2.76
  69  0.957  0.505  0.394-  24 2.01  40 2.41  51 2.70  48 2.76
  70  0.290  0.839  0.394-  25 2.01  44 2.41  52 2.70  49 2.76
  71  0.624  0.839  0.394-  26 2.01  45 2.41  53 2.70  50 2.76
  72  0.957  0.839  0.394-  27 2.01  43 2.41  54 2.70  51 2.76
  73  0.161  0.043  0.606-  28 2.01  52 2.41  37 2.70  38 2.76
  74  0.495  0.043  0.606-  29 2.01  53 2.41  38 2.70  39 2.76
  75  0.828  0.043  0.606-  30 2.01  54 2.41  39 2.70  37 2.76
  76  0.161  0.376  0.606-  31 2.01  46 2.41  40 2.70  41 2.76
  77  0.495  0.376  0.606-  32 2.01  47 2.41  41 2.70  42 2.76
  78  0.828  0.376  0.606-  33 2.01  48 2.41  42 2.70  40 2.76
  79  0.161  0.710  0.606-  34 2.01  49 2.41  43 2.70  44 2.76
  80  0.495  0.710  0.606-  35 2.01  50 2.41  44 2.70  45 2.76
  81  0.828  0.710  0.606-  36 2.01  51 2.41  45 2.70  43 2.76
  82  0.038  0.077  0.845-  30 2.01  28 2.01  61 2.52  55 2.52
  83  0.371  0.077  0.845-  28 2.01  29 2.01  62 2.52  56 2.52
  84  0.704  0.077  0.845-  29 2.01  30 2.01  63 2.52  57 2.52
  85  0.038  0.411  0.845-  33 2.01  31 2.01  55 2.52  58 2.52
  86  0.371  0.411  0.845-  31 2.01  32 2.01  56 2.52  59 2.52
  87  0.704  0.411  0.845-  32 2.01  33 2.01  57 2.52  60 2.52
  88  0.038  0.744  0.845-  36 2.01  34 2.01  58 2.52  61 2.52
  89  0.371  0.744  0.845-  34 2.01  35 2.01  59 2.52  62 2.52
  90  0.704  0.744  0.845-  35 2.01  36 2.01  60 2.52  63 2.52
  91  0.256  0.296  0.155-  22 2.01  19 2.01  56 2.52  55 2.52
  92  0.589  0.296  0.155-  23 2.01  20 2.01  57 2.52  56 2.52
  93  0.923  0.296  0.155-  24 2.01  21 2.01  55 2.52  57 2.52
  94  0.256  0.629  0.155-  25 2.01  22 2.01  59 2.52  58 2.52
  95  0.589  0.629  0.155-  26 2.01  23 2.01  60 2.52  59 2.52
  96  0.923  0.629  0.155-  27 2.01  24 2.01  58 2.52  60 2.52
  97  0.256  0.962  0.155-  19 2.01  25 2.01  62 2.52  61 2.52
  98  0.589  0.962  0.155-  20 2.01  26 2.01  63 2.52  62 2.52
  99  0.923  0.962  0.155-  21 2.01  27 2.01  61 2.52  63 2.52
 

IMPORTANT INFORMATION: All symmetrisations will be switched off!
NOSYMM: (Re-)initialisation of all symmetry stuff for point group C_1.

 
 
 KPOINTS: # No comment                            

Automatic generation of k-mesh.
Space group operators:
 irot       det(A)        alpha          n_x          n_y          n_z        tau_x        tau_y        tau_z
    1     1.000000     0.000001     1.000000     0.000000     0.000000     0.000000     0.000000     0.000000
 
 Subroutine IBZKPT returns following result:
 ===========================================
 
 Found     14 irreducible k-points:
 
 Following reciprocal coordinates:
            Coordinates               Weight
  0.000000  0.000000  0.000000      1.000000
  0.333333 -0.000000 -0.000000      2.000000
  0.000000  0.333333  0.000000      2.000000
  0.333333  0.333333  0.000000      2.000000
 -0.333333  0.333333  0.000000      2.000000
 -0.000000 -0.000000  0.333333      2.000000
  0.333333 -0.000000  0.333333      2.000000
 -0.333333 -0.000000  0.333333      2.000000
 -0.000000  0.333333  0.333333      2.000000
  0.333333  0.333333  0.333333      2.000000
 -0.333333  0.333333  0.333333      2.000000
 -0.000000 -0.333333  0.333333      2.000000
  0.333333 -0.333333  0.333333      2.000000
 -0.333333 -0.333333  0.333333      2.000000
 
 Following cartesian coordinates:
            Coordinates               Weight
  0.000000  0.000000  0.000000      1.000000
  0.028270  0.000040  0.005614      2.000000
 -0.000053  0.028270  0.005614      2.000000
  0.028217  0.028310  0.011229      2.000000
 -0.028323  0.028230 -0.000000      2.000000
 -0.000192 -0.000192  0.032649      2.000000
  0.028078 -0.000153  0.038263      2.000000
 -0.028462 -0.000232  0.027035      2.000000
 -0.000245  0.028078  0.038263      2.000000
  0.028025  0.028117  0.043878      2.000000
 -0.028515  0.028038  0.032649      2.000000
 -0.000138 -0.028462  0.027035      2.000000
  0.028132 -0.028423  0.032649      2.000000
 -0.028408 -0.028502  0.021421      2.000000
 


--------------------------------------------------------------------------------------------------------




 Dimension of arrays:
   k-points           NKPTS =     14   k-points in BZ     NKDIM =     14   number of bands    NBANDS=    606
   number of dos      NEDOS =    301   number of ions     NIONS =     99
   non local maximal  LDIM  =      6   non local SUM 2l+1 LMDIM =     18
   total plane-waves  NPLWV = 864360
   max r-space proj   IRMAX =      1   max aug-charges    IRDMAX= 154021
   dimension x,y,z NGX =    98 NGY =   98 NGZ =   90
   dimension x,y,z NGXF=   196 NGYF=  196 NGZF=  180
   support grid    NGXF=   392 NGYF=  392 NGZF=  360
   ions per type =              18  18  27  36
   NGX,Y,Z   is equivalent  to a cutoff of  13.83, 13.83, 14.14 a.u.
   NGXF,Y,Z  is equivalent  to a cutoff of  27.67, 27.67, 28.28 a.u.

 SYSTEM =  unknown system                          
 POSCAR =  # Compound: Li18O18S27Fe36. Old comment:

 Startparameter for this run:
   NWRITE =      1    write-flag & timer
   PREC   = accura    normal or accurate (medium, high low for compatibility)
   ISTART =      0    job   : 0-new  1-cont  2-samecut
   ICHARG =      1    charge: 1-file 2-atom 10-const
   ISPIN  =      2    spin polarized calculation?
   LNONCOLLINEAR =      F non collinear calculations
   LSORBIT =      F    spin-orbit coupling
   INIWAV =      1    electr: 0-lowe 1-rand  2-diag
   LASPH  =      T    aspherical Exc in radial PAW
   METAGGA=      F    non-selfconsistent MetaGGA calc.

 Electronic Relaxation 1
   ENCUT  =  650.0 eV  47.77 Ry    6.91 a.u.  24.48 24.48 21.99*2*pi/ulx,y,z
   ENINI  =  650.0     initial cutoff
   ENAUG  =  628.9 eV  augmentation charge cutoff
   NELM   =    200;   NELMIN=  8; NELMDL=  0     # of ELM steps 
   EDIFF  = 0.1E-05   stopping-criterion for ELM
   LREAL  =      F    real-space projection
   NLSPLINE    = F    spline interpolate recip. space projectors
   LCOMPAT=      F    compatible to vasp.4.4
   GGA_COMPAT  = T    GGA compatible to vasp.4.4-vasp.4.6
   LMAXPAW     = -100 max onsite density
   LMAXMIX     =    4 max onsite mixed and CHGCAR
   VOSKOWN=      0    Vosko Wilk Nusair interpolation
   ROPT   =    0.00000   0.00000   0.00000   0.00000
 Ionic relaxation
   EDIFFG = 0.1E-04   stopping-criterion for IOM
   NSW    =      0    number of steps for IOM
   NBLOCK =      1;   KBLOCK =      1    inner block; outer block 
   IBRION =     -1    ionic relax: 0-MD 1-quasi-New 2-CG
   NFREE  =      0    steps in history (QN), initial steepest desc. (CG)
   ISIF   =      2    stress and relaxation
   IWAVPR =     10    prediction:  0-non 1-charg 2-wave 3-comb
   ISYM   =      0    0-nonsym 1-usesym 2-fastsym
   LCORR  =      T    Harris-Foulkes like correction to forces

   POTIM  = 0.5000    time-step for ionic-motion
   TEIN   =    0.0    initial temperature
   TEBEG  =    0.0;   TEEND  =   0.0 temperature during run
   SMASS  =  -3.00    Nose mass-parameter (am)
   estimated Nose-frequenzy (Omega)   =  0.10E-29 period in steps =****** mass=  -0.317E-26a.u.
   SCALEE = 1.0000    scale energy and forces
   NPACO  =    256;   APACO  = 16.0  distance and # of slots for P.C.
   PSTRESS=    0.0 pullay stress

  Mass of Ions in am
   POMASS =   7.01 16.00 32.07 55.85
  Ionic Valenz
   ZVAL   =   3.00  6.00  6.00 14.00
  Atomic Wigner-Seitz radii
   RWIGS  =  -1.00 -1.00 -1.00 -1.00
  virtual crystal weights 
   VCA    =   1.00  1.00  1.00  1.00
   NELECT =     828.0000    total number of electrons
   NUPDOWN=      -1.0000    fix difference up-down

 DOS related values:
   EMIN   =  10.00;   EMAX   =-10.00  energy-range for DOS
   EFERMI =   0.00
   ISMEAR =     0;   SIGMA  =   0.05  broadening in eV -4-tet -1-fermi 0-gaus

 Electronic relaxation 2 (details)
   IALGO  =     38    algorithm
   LDIAG  =      T    sub-space diagonalisation (order eigenvalues)
   LSUBROT=      F    optimize rotation matrix (better conditioning)
   TURBO    =      0    0=normal 1=particle mesh
   IRESTART =      0    0=no restart 2=restart with 2 vectors
   NREBOOT  =      0    no. of reboots
   NMIN     =      0    reboot dimension
   EREF     =   0.00    reference energy to select bands
   IMIX   =      4    mixing-type and parameters
     AMIX     =   0.40;   BMIX     =  1.00
     AMIX_MAG =   1.60;   BMIX_MAG =  1.00
     AMIN     =   0.10
     WC   =   100.;   INIMIX=   1;  MIXPRE=   1;  MAXMIX= -45

 Intra band minimization:
   WEIMIN = 0.0000     energy-eigenvalue tresh-hold
   EBREAK =  0.41E-09  absolut break condition
   DEPER  =   0.30     relativ break condition  

   TIME   =   0.40     timestep for ELM

  volume/ion in A,a.u.               =      14.30        96.53
  Fermi-wavevector in a.u.,A,eV,Ry     =   1.368946  2.586933 25.497507  1.874014
  Thomas-Fermi vector in A             =   2.494865
 
 Write flags
   LWAVE        =      F    write WAVECAR
   LDOWNSAMPLE  =      F    k-point downsampling of WAVECAR
   LCHARG       =      T    write CHGCAR
   LVTOT        =      F    write LOCPOT, total local potential
   LVHAR        =      F    write LOCPOT, Hartree potential only
   LELF         =      F    write electronic localiz. function (ELF)
   LORBIT       =      0    0 simple, 1 ext, 2 COOP (PROOUT), +10 PAW based schemes


 Dipole corrections
   LMONO  =      F    monopole corrections only (constant potential shift)
   LDIPOL =      F    correct potential (dipole corrections)
   IDIPOL =      0    1-x, 2-y, 3-z, 4-all directions 
   EPSILON=  1.0000000 bulk dielectric constant

 LDA+U is selected, type is set to LDAUTYPE =  2
   angular momentum for each species LDAUL =    -1   -1   -1    2
   U (eV)           for each species LDAUU =   0.0  0.0  0.0  4.0
   J (eV)           for each species LDAUJ =   0.0  0.0  0.0  0.0
 Exchange correlation treatment:
   GGA     =    PE    GGA type
   LEXCH   =     8    internal setting for exchange type
   VOSKOWN=      0    Vosko Wilk Nusair interpolation
   LHFCALC =     F    Hartree Fock is set to
   LHFONE  =     F    Hartree Fock one center treatment
   AEXX    =    0.0000 exact exchange contribution

 Linear response parameters
   LEPSILON=     F    determine dielectric tensor
   LRPA    =     F    only Hartree local field effects (RPA)
   LNABLA  =     F    use nabla operator in PAW spheres
   LVEL    =     F    velocity operator in full k-point grid
   LINTERFAST=   F  fast interpolation
   KINTER  =     0    interpolate to denser k-point grid
   CSHIFT  =0.1000    complex shift for real part using Kramers Kronig
   OMEGAMAX=  -1.0    maximum frequency
   DEG_THRESHOLD= 0.2000000E-02 threshold for treating states as degnerate
   RTIME   =   -0.100 relaxation time in fs
  (WPLASMAI=    0.000 imaginary part of plasma frequency in eV, 0.658/RTIME)
   DFIELD  = 0.0000000 0.0000000 0.0000000 field for delta impulse in time
 
 Orbital magnetization related:
   ORBITALMAG=     F  switch on orbital magnetization
   LCHIMAG   =     F  perturbation theory with respect to B field
   DQ        =  0.001000  dq finite difference perturbation B field
   LLRAUG    =     F  two centre corrections for induced B field



--------------------------------------------------------------------------------------------------------


 Static calculation
 charge density and potential will be updated during run
 spin polarized calculation
 Variant of blocked Davidson
 Davidson routine will perform the subspace rotation
 perform sub-space diagonalisation
    after iterative eigenvector-optimisation
 modified Broyden-mixing scheme, WC =      100.0
 initial mixing is a Kerker type mixing with AMIX =  0.4000 and BMIX =      1.0000
 Hartree-type preconditioning will be used
 using additional bands          192
 reciprocal scheme for non local part
 use partial core corrections
 calculate Harris-corrections to forces 
   (improved forces if not selfconsistent)
 use gradient corrections 
 use of overlap-Matrix (Vanderbilt PP)
 Gauss-broadening in eV      SIGMA  =   0.05


--------------------------------------------------------------------------------------------------------


  energy-cutoff  :      650.00
  volume of cell :     1416.11
      direct lattice vectors                 reciprocal lattice vectors
    11.777269740  0.008488710  0.069233160     0.084810225  0.000119058  0.016842962
    -0.030282480 11.777233860  0.069233160    -0.000160141  0.084810158  0.016842962
    -2.020002310 -2.026663200 10.185746220    -0.000575372 -0.000577269  0.097947445

  length of vectors
    11.777476292 11.777476285 10.580037765     0.086466605  0.086466605  0.097950836


 
 k-points in units of 2pi/SCALE and weight: # No comment                            
   0.00000000  0.00000000  0.00000000       0.037
   0.02827008  0.00003969  0.00561432       0.074
  -0.00005338  0.02827005  0.00561432       0.074
   0.02821669  0.02830974  0.01122864       0.074
  -0.02832346  0.02823037 -0.00000000       0.074
  -0.00019179 -0.00019242  0.03264915       0.074
   0.02807828 -0.00015274  0.03826347       0.074
  -0.02846187 -0.00023211  0.02703483       0.074
  -0.00024517  0.02807763  0.03826347       0.074
   0.02802490  0.02811732  0.04387779       0.074
  -0.02851525  0.02803794  0.03264915       0.074
  -0.00013841 -0.02846248  0.02703483       0.074
   0.02813166 -0.02842279  0.03264915       0.074
  -0.02840849 -0.02850216  0.02142051       0.074
 
 k-points in reciprocal lattice and weights: # No comment                            
   0.00000000  0.00000000  0.00000000       0.037
   0.33333333 -0.00000000 -0.00000000       0.074
   0.00000000  0.33333333  0.00000000       0.074
   0.33333333  0.33333333  0.00000000       0.074
  -0.33333333  0.33333333  0.00000000       0.074
  -0.00000000 -0.00000000  0.33333333       0.074
   0.33333333 -0.00000000  0.33333333       0.074
  -0.33333333 -0.00000000  0.33333333       0.074
  -0.00000000  0.33333333  0.33333333       0.074
   0.33333333  0.33333333  0.33333333       0.074
  -0.33333333  0.33333333  0.33333333       0.074
  -0.00000000 -0.33333333  0.33333333       0.074
   0.33333333 -0.33333333  0.33333333       0.074
  -0.33333333 -0.33333333  0.33333333       0.074
 
 position of ions in fractional coordinates (direct lattice) 
   0.20224939  0.24206952  0.83183419
   0.53558272  0.24206952  0.83183419
   0.86891606  0.24206952  0.83183419
   0.20224939  0.57540285  0.83183419
   0.53558272  0.57540285  0.83183419
   0.86891606  0.57540285  0.83183419
   0.20224939  0.90873619  0.83183419
   0.53558272  0.90873619  0.83183419
   0.86891606  0.90873619  0.83183419
   0.09126381  0.13108394  0.16816581
   0.42459715  0.13108394  0.16816581
   0.75793048  0.13108394  0.16816581
   0.09126381  0.46441728  0.16816581
   0.42459715  0.46441728  0.16816581
   0.75793048  0.46441728  0.16816581
   0.09126381  0.79775061  0.16816581
   0.42459715  0.79775061  0.16816581
   0.75793048  0.79775061  0.16816581
   0.26311007  0.13598816  0.19686089
   0.59644341  0.13598816  0.19686089
   0.92977674  0.13598816  0.19686089
   0.26311007  0.46932149  0.19686089
   0.59644341  0.46932149  0.19686089
   0.92977674  0.46932149  0.19686089
   0.26311007  0.80265483  0.19686089
   0.59644341  0.80265483  0.19686089
   0.92977674  0.80265483  0.19686089
   0.19734517  0.07022326  0.80313911
   0.53067851  0.07022326  0.80313911
   0.86401184  0.07022326  0.80313911
   0.19734517  0.40355659  0.80313911
   0.53067851  0.40355659  0.80313911
   0.86401184  0.40355659  0.80313911
   0.19734517  0.73688993  0.80313911
   0.53067851  0.73688993  0.80313911
   0.86401184  0.73688993  0.80313911
   0.00253935  0.20657296  0.62920335
   0.33587268  0.20657296  0.62920335
   0.66920601  0.20657296  0.62920335
   0.00253935  0.53990630  0.62920335
   0.33587268  0.53990630  0.62920335
   0.66920601  0.53990630  0.62920335
   0.00253935  0.87323963  0.62920335
   0.33587268  0.87323963  0.62920335
   0.66920601  0.87323963  0.62920335
   0.12676037  0.33079399  0.37079665
   0.46009370  0.33079399  0.37079665
   0.79342704  0.33079399  0.37079665
   0.12676037  0.66412732  0.37079665
   0.46009370  0.66412732  0.37079665
   0.79342704  0.66412732  0.37079665
   0.12676037  0.99746065  0.37079665
   0.46009370  0.99746065  0.37079665
   0.79342704  0.99746065  0.37079665
   0.06350899  0.26982435  0.00000000
   0.39684232  0.26982435  0.00000000
   0.73017565  0.26982435  0.00000000
   0.06350899  0.60315768  0.00000000
   0.39684232  0.60315768  0.00000000
   0.73017565  0.60315768  0.00000000
   0.06350899  0.93649101  0.00000000
   0.39684232  0.93649101  0.00000000
   0.73017565  0.93649101  0.00000000
   0.28942366  0.17214940  0.39352170
   0.62360607  0.17214940  0.39352170
   0.95693941  0.17214940  0.39352170
   0.29027274  0.50548273  0.39352170
   0.62360607  0.50548273  0.39352170
   0.95693941  0.50548273  0.39352170
   0.29027274  0.83881607  0.39352170
   0.62360607  0.83881607  0.39352170
   0.95693941  0.83881607  0.39352170
   0.16118393  0.04306059  0.60647830
   0.49451727  0.04306059  0.60647830
   0.82785060  0.04306059  0.60647830
   0.16118393  0.37639393  0.60647830
   0.49451727  0.37639393  0.60647830
   0.82785060  0.37639393  0.60647830
   0.16118393  0.70972726  0.60647830
   0.49451727  0.70972726  0.60647830
   0.82785060  0.70972726  0.60647830
   0.03761391  0.07731307  0.84542777
   0.37094724  0.07731307  0.84542777
   0.70428057  0.07731307  0.84542777
   0.03761391  0.41064640  0.84542777
   0.37094724  0.41064640  0.84542777
   0.70428057  0.41064640  0.84542777
   0.03761391  0.74397973  0.84542777
   0.37094724  0.74397973  0.84542777
   0.70428057  0.74397973  0.84542777
   0.25602027  0.29571943  0.15457223
   0.58935360  0.29571943  0.15457223
   0.92268693  0.29571943  0.15457223
   0.25602027  0.62905276  0.15457223
   0.58935360  0.62905276  0.15457223
   0.92268693  0.62905276  0.15457223
   0.25602027  0.96238609  0.15457223
   0.58935360  0.96238609  0.15457223
   0.92268693  0.96238609  0.15457223
 
 position of ions in cartesian coordinates  (Angst):
   0.69430817  1.16677844  8.50361356
   4.62006475  1.16960801  8.52669128
   8.54582133  1.17243758  8.54976900
   0.68421401  5.09252306  8.52669128
   4.60997059  5.09535263  8.54976900
   8.53572717  5.09818220  8.57284672
   0.67411985  9.01826768  8.54976900
   4.59987643  9.02109725  8.57284672
   8.52563301  9.02392682  8.59592444
   0.73117368  1.20376551  1.72828810
   4.65693026  1.20659508  1.75136582
   8.58268684  1.20942465  1.77444354
   0.72107952  5.12951013  1.75136582
   4.64683610  5.13233970  1.77444354
   8.57259268  5.13516927  1.79752126
   0.71098536  9.05525475  1.77444354
   4.63674194  9.05808432  1.79752126
   8.56249852  9.06091389  1.82059898
   2.69694079  1.20482711  2.03280590
   6.62269737  1.20765668  2.05588362
  10.54845395  1.21048625  2.07896134
   2.68684663  5.13057173  2.05588362
   6.61260321  5.13340130  2.07896134
  10.53835979  5.13623087  2.10203906
   2.67675247  9.05631635  2.07896134
   6.60250905  9.05914592  2.10203906
  10.52826563  9.06197549  2.12511678
   0.69971795 -0.79898152  8.19909576
   4.62547453 -0.79615195  8.22217348
   8.55123111 -0.79332238  8.24525120
   0.68962379  3.12676310  8.22217348
   4.61538037  3.12959267  8.24525120
   8.54113695  3.13242224  8.26832892
   0.67952963  7.05250772  8.24525120
   4.60528621  7.05533729  8.26832892
   8.53104279  7.05816686  8.29140664
  -1.24734119  1.15769638  6.42338315
   2.67841539  1.16052595  6.44646087
   6.60417197  1.16335552  6.46953859
  -1.25743535  5.08344100  6.44646087
   2.66832123  5.08627057  6.46953859
   6.59407781  5.08910014  6.49261631
  -1.26752951  9.00918562  6.46953859
   2.65822707  9.01201519  6.49261631
   6.58398365  9.01484476  6.51569403
   0.73386372  3.14543425  3.80851851
   4.65962030  3.14826382  3.83159623
   8.58537688  3.15109339  3.85467395
   0.72376956  7.07117887  3.83159623
   4.64952614  7.07400844  3.85467395
   8.57528272  7.07683801  3.87775167
   0.71367540 10.99692349  3.85467395
   4.63943198 10.99975306  3.87775167
   8.56518856 11.00258263  3.90082939
   0.73979152  3.17832354  0.02307772
   4.66554810  3.18115311  0.04615544
   8.59130468  3.18398268  0.06923316
   0.72969736  7.10406816  0.04615544
   4.65545394  7.10689773  0.06923316
   8.58121052  7.10972730  0.09231088
   0.71960320 11.02981278  0.06923316
   4.64535978 11.03264235  0.09231088
   8.57111636 11.03547192  0.11538860
   2.60849268  1.23236463  4.04026833
   6.54424908  1.23520141  4.06340483
  10.47000566  1.23803098  4.08648255
   2.60839834  5.15811646  4.06340483
   6.53415492  5.16094603  4.08648255
  10.45991150  5.16377560  4.10956027
   2.59830418  9.08386108  4.08648255
   6.52406076  9.08669065  4.10956027
  10.44981734  9.08952022  4.13263799
   0.67191511 -0.72062433  6.19157455
   4.59767169 -0.71779476  6.21465227
   8.52342827 -0.71496519  6.23772999
   0.66182095  3.20512029  6.21465227
   4.58757753  3.20794986  6.23772999
   8.51333411  3.21077943  6.26080771
   0.65172679  7.13086491  6.23772999
   4.57748337  7.13369448  6.26080771
   8.50323995  7.13652405  6.28388543
  -1.26711815 -0.80254399  8.61926947
   2.65863843 -0.79971442  8.64234719
   6.58439500 -0.79688485  8.66542491
  -1.27721231  3.12320063  8.64234719
   2.64854427  3.12603020  8.66542491
   6.57430084  3.12885977  8.68850263
  -1.28730647  7.04894525  8.66542491
   2.63845011  7.05177482  8.68850263
   6.56420668  7.05460439  8.71158035
   2.69402836  3.17166428  1.61263219
   6.61978494  3.17449385  1.63570991
  10.54554152  3.17732342  1.65878763
   2.68393420  7.09740890  1.63570991
   6.60969078  7.10023847  1.65878763
  10.53544736  7.10306804  1.68186535
   2.67384004 11.02315352  1.65878763
   6.59959662 11.02598309  1.68186535
  10.52535320 11.02881266  1.70494307
 


--------------------------------------------------------------------------------------------------------


 k-point  1 :   0.0000 0.0000 0.0000  plane waves:   53279
 k-point  2 :   0.3333-0.0000-0.0000  plane waves:   53283
 k-point  3 :   0.0000 0.3333 0.0000  plane waves:   53283
 k-point  4 :   0.3333 0.3333 0.0000  plane waves:   53248
 k-point  5 :  -0.3333 0.3333 0.0000  plane waves:   53268
 k-point  6 :  -0.0000-0.0000 0.3333  plane waves:   53317
 k-point  7 :   0.3333-0.0000 0.3333  plane waves:   53290
 k-point  8 :  -0.3333-0.0000 0.3333  plane waves:   53280
 k-point  9 :  -0.0000 0.3333 0.3333  plane waves:   53290
 k-point 10 :   0.3333 0.3333 0.3333  plane waves:   53292
 k-point 11 :  -0.3333 0.3333 0.3333  plane waves:   53261
 k-point 12 :  -0.0000-0.3333 0.3333  plane waves:   53280
 k-point 13 :   0.3333-0.3333 0.3333  plane waves:   53261
 k-point 14 :  -0.3333-0.3333 0.3333  plane waves:   53313

 maximum and minimum number of plane-waves per node :      8936     8841

 maximum number of plane-waves:     53317
 maximum index in each direction: 
   IXMAX=   24   IYMAX=   24   IZMAX=   21
   IXMIN=  -24   IYMIN=  -24   IZMIN=  -22


 parallel 3D FFT for wavefunctions:
    minimum data exchange during FFTs selected (reduces bandwidth)
 parallel 3D FFT for charge:
    minimum data exchange during FFTs selected (reduces bandwidth)


 total amount of memory used by VASP MPI-rank0  1508757. kBytes
=======================================================================

   base      :      30000. kBytes
   nonl-proj :      85790. kBytes
   fftplans  :      89726. kBytes
   grid      :      70158. kBytes
   one-center:        528. kBytes
   wavefun   :    1232555. kBytes
 
     INWAV:  cpu time    0.0000: real time    0.0000
 Broyden mixing: mesh for mixing (old mesh)
   NGX = 49   NGY = 49   NGZ = 43
  (NGX  =196   NGY  =196   NGZ  =180)
  gives a total of 103243 points

 initial charge density was supplied:
 number of electron     828.0000017 magnetization     144.0000076
 keeping initial charge density in first step


--------------------------------------------------------------------------------------------------------


 Maximum index for augmentation-charges        13331 (set IRDMAX)


--------------------------------------------------------------------------------------------------------


 First call to EWALD:  gamma=   0.158
 Maximum number of real-space cells 3x 3x 3
 Maximum number of reciprocal cells 3x 3x 3

    FEWALD:  cpu time    0.0229: real time    0.0229


--------------------------------------- Iteration      1(   1)  ---------------------------------------


    POTLOK:  cpu time    1.1308: real time    1.1440
    SETDIJ:  cpu time    2.5527: real time    2.5658
     EDDAV:  cpu time  430.9684: real time  435.2241
       DOS:  cpu time    0.0082: real time    0.0083
    --------------------------------------------
      LOOP:  cpu time  434.6601: real time  438.9421

 eigenvalue-minimisations  : 34880
 total energy-change (2. order) : 0.1170604E+05  (-0.4628332E+05)
 number of electron     828.0000017 magnetization     144.0000076
 augmentation part      828.0000017 magnetization     144.0000076

 Free energy of the ion-electron system (eV)
  ---------------------------------------------------
  alpha Z        PSCENC =      2606.24521607
  Ewald energy   TEWEN  =    -65007.66774350
  -Hartree energ DENC   =    -34081.95478168
  -exchange      EXHF   =         0.00000000
  -V(xc)+E(xc)   XCENC  =      3632.83862671
  PAW double counting   =    104149.30743192  -107360.85880398
  entropy T*S    EENTRO =        -0.01682184
  eigenvalues    EBANDS =       394.23493930
  atomic energy  EATOM  =    107373.91467324
  Solvation  Ediel_sol  =         0.00000000
  ---------------------------------------------------
  free energy    TOTEN  =     11706.04273626 eV

  energy without entropy =    11706.05955810  energy(sigma->0) =    11706.05114718


--------------------------------------------------------------------------------------------------------




--------------------------------------- Iteration      1(   2)  ---------------------------------------


     EDDAV:  cpu time  422.4187: real time  426.5107
       DOS:  cpu time    0.0093: real time    0.0093
    --------------------------------------------
      LOOP:  cpu time  422.4280: real time  426.5201

 eigenvalue-minimisations  : 33936
 total energy-change (2. order) :-0.1037733E+05  (-0.9729388E+04)
 number of electron     828.0000017 magnetization     144.0000076
 augmentation part      828.0000017 magnetization     144.0000076

 Free energy of the ion-electron system (eV)
  ---------------------------------------------------
  alpha Z        PSCENC =      2606.24521607
  Ewald energy   TEWEN  =    -65007.66774350
  -Hartree energ DENC   =    -34081.95478168
  -exchange      EXHF   =         0.00000000
  -V(xc)+E(xc)   XCENC  =      3632.83862671
  PAW double counting   =    104149.30743192  -107360.85880398
  entropy T*S    EENTRO =        -0.06807591
  eigenvalues    EBANDS =     -9983.04331765
  atomic energy  EATOM  =    107373.91467324
  Solvation  Ediel_sol  =         0.00000000
  ---------------------------------------------------
  free energy    TOTEN  =      1328.71322523 eV

  energy without entropy =     1328.78130114  energy(sigma->0) =     1328.74726319


--------------------------------------------------------------------------------------------------------




--------------------------------------- Iteration      1(   3)  ---------------------------------------


     EDDAV:  cpu time  447.0229: real time  451.6471
       DOS:  cpu time    0.0030: real time    0.0031
    --------------------------------------------
      LOOP:  cpu time  447.0259: real time  451.6502

 eigenvalue-minimisations  : 36376
 total energy-change (2. order) :-0.1674121E+04  (-0.1442058E+04)
 number of electron     828.0000017 magnetization     144.0000076
 augmentation part      828.0000017 magnetization     144.0000076

 Free energy of the ion-electron system (eV)
  ---------------------------------------------------
  alpha Z        PSCENC =      2606.24521607
  Ewald energy   TEWEN  =    -65007.66774350
  -Hartree energ DENC   =    -34081.95478168
  -exchange      EXHF   =         0.00000000
  -V(xc)+E(xc)   XCENC  =      3632.83862671
  PAW double counting   =    104149.30743192  -107360.85880398
  entropy T*S    EENTRO =        -0.00000000
  eigenvalues    EBANDS =    -11657.23215170
  atomic energy  EATOM  =    107373.91467324
  Solvation  Ediel_sol  =         0.00000000
  ---------------------------------------------------
  free energy    TOTEN  =      -345.40753290 eV

  energy without entropy =     -345.40753290  energy(sigma->0) =     -345.40753290


--------------------------------------------------------------------------------------------------------




--------------------------------------- Iteration      1(   4)  ---------------------------------------


     EDDAV:  cpu time  479.8041: real time  484.5294
       DOS:  cpu time    0.0030: real time    0.0030
    --------------------------------------------
      LOOP:  cpu time  479.8071: real time  484.5324

 eigenvalue-minimisations  : 39832
 total energy-change (2. order) :-0.1904685E+03  (-0.1873221E+03)
 number of electron     828.0000017 magnetization     144.0000076
 augmentation part      828.0000017 magnetization     144.0000076

 Free energy of the ion-electron system (eV)
  ---------------------------------------------------
  alpha Z        PSCENC =      2606.24521607
  Ewald energy   TEWEN  =    -65007.66774350
  -Hartree energ DENC   =    -34081.95478168
  -exchange      EXHF   =         0.00000000
  -V(xc)+E(xc)   XCENC  =      3632.83862671
  PAW double counting   =    104149.30743192  -107360.85880398
  entropy T*S    EENTRO =        -0.00000000
  eigenvalues    EBANDS =    -11847.70065971
  atomic energy  EATOM  =    107373.91467324
  Solvation  Ediel_sol  =         0.00000000
  ---------------------------------------------------
  free energy    TOTEN  =      -535.87604091 eV

  energy without entropy =     -535.87604091  energy(sigma->0) =     -535.87604091


--------------------------------------------------------------------------------------------------------




--------------------------------------- Iteration      1(   5)  ---------------------------------------


     EDDAV:  cpu time  625.3870: real time  631.2542
       DOS:  cpu time    0.0031: real time    0.0067
    CHARGE:  cpu time   12.2407: real time   12.3446
    MIXING:  cpu time    0.0334: real time    0.0335
    --------------------------------------------
      LOOP:  cpu time  637.6643: real time  643.6390

 eigenvalue-minimisations  : 55248
 total energy-change (2. order) :-0.1391093E+02  (-0.1377071E+02)
 number of electron     828.0000017 magnetization     144.0000050
 augmentation part      313.2929978 magnetization      94.6584565

 Broyden mixing:
  rms(total) = 0.21498E+00    rms(broyden)= 0.21485E+00
  rms(prec ) = 0.21837E+00
  weight for this iteration     100.00

 Free energy of the ion-electron system (eV)
  ---------------------------------------------------
  alpha Z        PSCENC =      2606.24521607
  Ewald energy   TEWEN  =    -65007.66774350
  -Hartree energ DENC   =    -34081.95478168
  -exchange      EXHF   =         0.00000000
  -V(xc)+E(xc)   XCENC  =      3632.83862671
  PAW double counting   =    104149.30743192  -107360.85880398
  entropy T*S    EENTRO =        -0.00000000
  eigenvalues    EBANDS =    -11861.61159448
  atomic energy  EATOM  =    107373.91467324
  Solvation  Ediel_sol  =         0.00000000
  ---------------------------------------------------
  free energy    TOTEN  =      -549.78697569 eV

  energy without entropy =     -549.78697569  energy(sigma->0) =     -549.78697569


--------------------------------------------------------------------------------------------------------




--------------------------------------- Iteration      1(   6)  ---------------------------------------


    POTLOK:  cpu time    1.1228: real time    1.1259
    SETDIJ:  cpu time    2.5681: real time    2.5832
     EDDAV:  cpu time  561.3174: real time  566.5336
       DOS:  cpu time    0.0029: real time    0.0029
    CHARGE:  cpu time   11.8437: real time   11.9034
    MIXING:  cpu time    0.0640: real time    0.0648
    --------------------------------------------
      LOOP:  cpu time  576.9190: real time  582.2138

 eigenvalue-minimisations  : 48664
 total energy-change (2. order) :-0.5349511E+00  (-0.5470666E+00)
 number of electron     828.0000017 magnetization     144.0000039
 augmentation part      312.7276530 magnetization      94.7032744

 Broyden mixing:
  rms(total) = 0.10709E+00    rms(broyden)= 0.10697E+00
  rms(prec ) = 0.10782E+00
  weight for this iteration     100.00

 eigenvalues of (default mixing * dielectric matrix)
  average eigenvalue GAMMA=   0.6422
  0.6422

 Free energy of the ion-electron system (eV)
  ---------------------------------------------------
  alpha Z        PSCENC =      2606.24521607
  Ewald energy   TEWEN  =    -65007.66774350
  -Hartree energ DENC   =    -34080.02890524
  -exchange      EXHF   =         0.00000000
  -V(xc)+E(xc)   XCENC  =      3632.51648068
  PAW double counting   =    103987.84668108  -107197.60142991
  entropy T*S    EENTRO =        -0.00000000
  eigenvalues    EBANDS =    -11865.54689922
  atomic energy  EATOM  =    107373.91467324
  Solvation  Ediel_sol  =         0.00000000
  ---------------------------------------------------
  free energy    TOTEN  =      -550.32192678 eV

  energy without entropy =     -550.32192678  energy(sigma->0) =     -550.32192678


--------------------------------------------------------------------------------------------------------




--------------------------------------- Iteration      1(   7)  ---------------------------------------


    POTLOK:  cpu time    1.1224: real time    1.1253
    SETDIJ:  cpu time    2.5053: real time    2.5646
     EDDAV:  cpu time  588.6162: real time  594.3855
       DOS:  cpu time    0.0033: real time    0.0033
    CHARGE:  cpu time   12.0327: real time   12.1372
    MIXING:  cpu time    0.0346: real time    0.0346
    --------------------------------------------
      LOOP:  cpu time  604.3145: real time  610.2505

 eigenvalue-minimisations  : 51344
 total energy-change (2. order) :-0.1934951E-01  (-0.1965962E-01)
 number of electron     828.0000017 magnetization     144.0000034
 augmentation part      312.6398129 magnetization      94.6958281

 Broyden mixing:
  rms(total) = 0.61242E-01    rms(broyden)= 0.61212E-01
  rms(prec ) = 0.62667E-01
  weight for this iteration     100.00

 eigenvalues of (default mixing * dielectric matrix)
  average eigenvalue GAMMA=   0.5769
  0.5769  0.5769

 Free energy of the ion-electron system (eV)
  ---------------------------------------------------
  alpha Z        PSCENC =      2606.24521607
  Ewald energy   TEWEN  =    -65007.66774350
  -Hartree energ DENC   =    -34080.94157849
  -exchange      EXHF   =         0.00000000
  -V(xc)+E(xc)   XCENC  =      3632.60082400
  PAW double counting   =    104045.50209839  -107255.86501193
  entropy T*S    EENTRO =        -0.00000000
  eigenvalues    EBANDS =    -11864.12975408
  atomic energy  EATOM  =    107373.91467324
  Solvation  Ediel_sol  =         0.00000000
  ---------------------------------------------------
  free energy    TOTEN  =      -550.34127629 eV

  energy without entropy =     -550.34127629  energy(sigma->0) =     -550.34127629


--------------------------------------------------------------------------------------------------------




--------------------------------------- Iteration      1(   8)  ---------------------------------------


    POTLOK:  cpu time    1.1207: real time    1.1232
    SETDIJ:  cpu time    2.5519: real time    2.5619
     EDDAV:  cpu time  563.5078: real time  568.6194
       DOS:  cpu time    0.0034: real time    0.0035
    CHARGE:  cpu time   12.2387: real time   12.3921
    MIXING:  cpu time    0.0414: real time    0.0506
    --------------------------------------------
      LOOP:  cpu time  579.4639: real time  584.7508

 eigenvalue-minimisations  : 48832
 total energy-change (2. order) : 0.4406854E-03  (-0.4146932E-03)
 number of electron     828.0000017 magnetization     144.0000030
 augmentation part      312.6311404 magnetization      94.6988281

 Broyden mixing:
  rms(total) = 0.53372E-01    rms(broyden)= 0.53369E-01
  rms(prec ) = 0.54646E-01
  weight for this iteration     100.00

 eigenvalues of (default mixing * dielectric matrix)
  average eigenvalue GAMMA=   0.5569
  0.6013  0.6013  0.4681

 Free energy of the ion-electron system (eV)
  ---------------------------------------------------
  alpha Z        PSCENC =      2606.24521607
  Ewald energy   TEWEN  =    -65007.66774350
  -Hartree energ DENC   =    -34080.93258182
  -exchange      EXHF   =         0.00000000
  -V(xc)+E(xc)   XCENC  =      3632.63368167
  PAW double counting   =    104060.46394130  -107270.97975895
  entropy T*S    EENTRO =        -0.00000000
  eigenvalues    EBANDS =    -11864.01826363
  atomic energy  EATOM  =    107373.91467324
  Solvation  Ediel_sol  =         0.00000000
  ---------------------------------------------------
  free energy    TOTEN  =      -550.34083561 eV

  energy without entropy =     -550.34083561  energy(sigma->0) =     -550.34083561


--------------------------------------------------------------------------------------------------------




--------------------------------------- Iteration      1(   9)  ---------------------------------------


    POTLOK:  cpu time    1.1293: real time    1.1385
    SETDIJ:  cpu time    2.5586: real time    2.5615
     EDDAV:  cpu time  622.8137: real time  629.0717
       DOS:  cpu time    0.0054: real time    0.0054
    CHARGE:  cpu time   12.0152: real time   12.2796
    MIXING:  cpu time    0.0332: real time    0.0361
    --------------------------------------------
      LOOP:  cpu time  638.5553: real time  645.0927

 eigenvalue-minimisations  : 55192
 total energy-change (2. order) : 0.6469402E-03  (-0.2456910E-04)
 number of electron     828.0000017 magnetization     144.0000011
 augmentation part      312.6339818 magnetization      94.6992082

 Broyden mixing:
  rms(total) = 0.44073E-01    rms(broyden)= 0.44073E-01
  rms(prec ) = 0.45078E-01
  weight for this iteration     100.00

 eigenvalues of (default mixing * dielectric matrix)
  average eigenvalue GAMMA=   1.1014
  1.9763  1.1522  0.6386  0.6386

 Free energy of the ion-electron system (eV)
  ---------------------------------------------------
  alpha Z        PSCENC =      2606.24521607
  Ewald energy   TEWEN  =    -65007.66774350
  -Hartree energ DENC   =    -34081.06471566
  -exchange      EXHF   =         0.00000000
  -V(xc)+E(xc)   XCENC  =      3632.67248470
  PAW double counting   =    104073.53373578  -107284.23153080
  entropy T*S    EENTRO =        -0.00000000
  eigenvalues    EBANDS =    -11863.74230850
  atomic energy  EATOM  =    107373.91467324
  Solvation  Ediel_sol  =         0.00000000
  ---------------------------------------------------
  free energy    TOTEN  =      -550.34018867 eV

  energy without entropy =     -550.34018867  energy(sigma->0) =     -550.34018867


--------------------------------------------------------------------------------------------------------




--------------------------------------- Iteration      1(  10)  ---------------------------------------


    POTLOK:  cpu time    1.1024: real time    1.1312
    SETDIJ:  cpu time    2.5338: real time    2.5718
     EDDAV:  cpu time  622.7269: real time  628.2247
       DOS:  cpu time    0.0031: real time    0.0031
    CHARGE:  cpu time   12.0515: real time   12.1858
    MIXING:  cpu time    0.0317: real time    0.0330
    --------------------------------------------
      LOOP:  cpu time  638.4495: real time  644.1496

 eigenvalue-minimisations  : 55264
 total energy-change (2. order) : 0.1076935E-02  (-0.2024447E-03)
 number of electron     828.0000017 magnetization     144.0000007
 augmentation part      312.6531445 magnetization      94.7012570

 Broyden mixing:
  rms(total) = 0.82284E-02    rms(broyden)= 0.82252E-02
  rms(prec ) = 0.82574E-02
  weight for this iteration     100.00

 eigenvalues of (default mixing * dielectric matrix)
  average eigenvalue GAMMA=   1.0468
  2.4986  0.9231  0.6480  0.6480  0.5166

 Free energy of the ion-electron system (eV)
  ---------------------------------------------------
  alpha Z        PSCENC =      2606.24521607
  Ewald energy   TEWEN  =    -65007.66774350
  -Hartree energ DENC   =    -34081.89750713
  -exchange      EXHF   =         0.00000000
  -V(xc)+E(xc)   XCENC  =      3632.84127125
  PAW double counting   =    104132.41614670  -107343.92048858
  entropy T*S    EENTRO =        -0.00000000
  eigenvalues    EBANDS =    -11862.27067978
  atomic energy  EATOM  =    107373.91467324
  Solvation  Ediel_sol  =         0.00000000
  ---------------------------------------------------
  free energy    TOTEN  =      -550.33911173 eV

  energy without entropy =     -550.33911173  energy(sigma->0) =     -550.33911173


--------------------------------------------------------------------------------------------------------




--------------------------------------- Iteration      1(  11)  ---------------------------------------


    POTLOK:  cpu time    1.1187: real time    1.1279
    SETDIJ:  cpu time    2.5707: real time    2.5885
     EDDAV:  cpu time  505.7749: real time  510.8399
       DOS:  cpu time    0.0030: real time    0.0030
    CHARGE:  cpu time   12.0489: real time   12.1320
    MIXING:  cpu time    0.0412: real time    0.0427
    --------------------------------------------
      LOOP:  cpu time  521.5573: real time  526.7340

 eigenvalue-minimisations  : 42808
 total energy-change (2. order) :-0.7953661E-04  (-0.5405898E-04)
 number of electron     828.0000017 magnetization     144.0000007
 augmentation part      312.6566166 magnetization      94.7010841

 Broyden mixing:
  rms(total) = 0.61104E-02    rms(broyden)= 0.61085E-02
  rms(prec ) = 0.63996E-02
  weight for this iteration     100.00

 eigenvalues of (default mixing * dielectric matrix)
  average eigenvalue GAMMA=   0.9648
  2.5339  0.8897  0.6225  0.6225  0.5601  0.5601

 Free energy of the ion-electron system (eV)
  ---------------------------------------------------
  alpha Z        PSCENC =      2606.24521607
  Ewald energy   TEWEN  =    -65007.66774350
  -Hartree energ DENC   =    -34082.02580457
  -exchange      EXHF   =         0.00000000
  -V(xc)+E(xc)   XCENC  =      3632.86489503
  PAW double counting   =    104144.62306111  -107356.25391205
  entropy T*S    EENTRO =        -0.00000000
  eigenvalues    EBANDS =    -11862.03957660
  atomic energy  EATOM  =    107373.91467324
  Solvation  Ediel_sol  =         0.00000000
  ---------------------------------------------------
  free energy    TOTEN  =      -550.33919127 eV

  energy without entropy =     -550.33919127  energy(sigma->0) =     -550.33919127


--------------------------------------------------------------------------------------------------------




--------------------------------------- Iteration      1(  12)  ---------------------------------------


    POTLOK:  cpu time    1.1123: real time    1.1387
    SETDIJ:  cpu time    2.5538: real time    2.5846
     EDDAV:  cpu time  544.7423: real time  550.0540
       DOS:  cpu time    0.0028: real time    0.0028
    CHARGE:  cpu time   12.0135: real time   12.1011
    MIXING:  cpu time    0.0338: real time    0.0346
    --------------------------------------------
      LOOP:  cpu time  560.4585: real time  565.9159

 eigenvalue-minimisations  : 46936
 total energy-change (2. order) : 0.5512120E-05  (-0.5455019E-05)
 number of electron     828.0000017 magnetization     144.0000006
 augmentation part      312.6589967 magnetization      94.7010275

 Broyden mixing:
  rms(total) = 0.55856E-02    rms(broyden)= 0.55842E-02
  rms(prec ) = 0.58513E-02
  weight for this iteration     100.00

 eigenvalues of (default mixing * dielectric matrix)
  average eigenvalue GAMMA=   1.0831
  2.5463  1.1808  1.1808  0.8867  0.6365  0.6365  0.5139

 Free energy of the ion-electron system (eV)
  ---------------------------------------------------
  alpha Z        PSCENC =      2606.24521607
  Ewald energy   TEWEN  =    -65007.66774350
  -Hartree energ DENC   =    -34082.01531549
  -exchange      EXHF   =         0.00000000
  -V(xc)+E(xc)   XCENC  =      3632.86090824
  PAW double counting   =    104145.33048184  -107356.94680262
  entropy T*S    EENTRO =        -0.00000000
  eigenvalues    EBANDS =    -11862.06060356
  atomic energy  EATOM  =    107373.91467324
  Solvation  Ediel_sol  =         0.00000000
  ---------------------------------------------------
  free energy    TOTEN  =      -550.33918576 eV

  energy without entropy =     -550.33918576  energy(sigma->0) =     -550.33918576


--------------------------------------------------------------------------------------------------------




--------------------------------------- Iteration      1(  13)  ---------------------------------------


    POTLOK:  cpu time    1.1132: real time    1.1326
    SETDIJ:  cpu time    2.5568: real time    2.5594
     EDDAV:  cpu time  483.8057: real time  488.2333
       DOS:  cpu time    0.0029: real time    0.0029
    CHARGE:  cpu time   12.0562: real time   12.1113
    MIXING:  cpu time    0.0376: real time    0.0376
    --------------------------------------------
      LOOP:  cpu time  499.5724: real time  504.0769

 eigenvalue-minimisations  : 40296
 total energy-change (2. order) : 0.1768206E-04  (-0.1923689E-05)
 number of electron     828.0000017 magnetization     144.0000005
 augmentation part      312.6575896 magnetization      94.7007828

 Broyden mixing:
  rms(total) = 0.17198E-02    rms(broyden)= 0.17159E-02
  rms(prec ) = 0.17768E-02
  weight for this iteration     100.00

 eigenvalues of (default mixing * dielectric matrix)
  average eigenvalue GAMMA=   1.1653
  2.4900  1.9795  1.3014  1.0268  0.7316  0.6348  0.5792  0.5792

 Free energy of the ion-electron system (eV)
  ---------------------------------------------------
  alpha Z        PSCENC =      2606.24521607
  Ewald energy   TEWEN  =    -65007.66774350
  -Hartree energ DENC   =    -34081.94595376
  -exchange      EXHF   =         0.00000000
  -V(xc)+E(xc)   XCENC  =      3632.84229531
  PAW double counting   =    104146.63329886  -107358.18394642
  entropy T*S    EENTRO =        -0.00000000
  eigenvalues    EBANDS =    -11862.17700788
  atomic energy  EATOM  =    107373.91467324
  Solvation  Ediel_sol  =         0.00000000
  ---------------------------------------------------
  free energy    TOTEN  =      -550.33916807 eV

  energy without entropy =     -550.33916807  energy(sigma->0) =     -550.33916807


--------------------------------------------------------------------------------------------------------




--------------------------------------- Iteration      1(  14)  ---------------------------------------


    POTLOK:  cpu time    1.1175: real time    1.1188
    SETDIJ:  cpu time    2.6203: real time    2.6261
     EDDAV:  cpu time  446.4254: real time  451.0326
       DOS:  cpu time    0.0031: real time    0.0034
    CHARGE:  cpu time   12.0543: real time   12.1927
    MIXING:  cpu time    0.0378: real time    0.0421
    --------------------------------------------
      LOOP:  cpu time  462.2583: real time  467.0157

 eigenvalue-minimisations  : 36544
 total energy-change (2. order) :-0.6436807E-05  (-0.3044015E-05)
 number of electron     828.0000017 magnetization     144.0000005
 augmentation part      312.6554144 magnetization      94.7006630

 Broyden mixing:
  rms(total) = 0.97537E-03    rms(broyden)= 0.96823E-03
  rms(prec ) = 0.10126E-02
  weight for this iteration     100.00

 eigenvalues of (default mixing * dielectric matrix)
  average eigenvalue GAMMA=   1.1180
  2.8378  1.5577  1.5577  0.8679  0.7363  0.7363  0.6268  0.6268  0.5147

 Free energy of the ion-electron system (eV)
  ---------------------------------------------------
  alpha Z        PSCENC =      2606.24521607
  Ewald energy   TEWEN  =    -65007.66774350
  -Hartree energ DENC   =    -34081.93595735
  -exchange      EXHF   =         0.00000000
  -V(xc)+E(xc)   XCENC  =      3632.83506558
  PAW double counting   =    104148.28889077  -107359.82222729
  entropy T*S    EENTRO =        -0.00000000
  eigenvalues    EBANDS =    -11862.19709205
  atomic energy  EATOM  =    107373.91467324
  Solvation  Ediel_sol  =         0.00000000
  ---------------------------------------------------
  free energy    TOTEN  =      -550.33917451 eV

  energy without entropy =     -550.33917451  energy(sigma->0) =     -550.33917451


--------------------------------------------------------------------------------------------------------




--------------------------------------- Iteration      1(  15)  ---------------------------------------


    POTLOK:  cpu time    1.1155: real time    1.1345
    SETDIJ:  cpu time    2.5474: real time    2.5716
     EDDAV:  cpu time  423.6576: real time  427.7538
       DOS:  cpu time    0.0030: real time    0.0030
    CHARGE:  cpu time   12.0242: real time   12.0965
    MIXING:  cpu time    0.0432: real time    0.0481
    --------------------------------------------
      LOOP:  cpu time  439.3910: real time  443.6074

 eigenvalue-minimisations  : 33928
 total energy-change (2. order) : 0.2155211E-05  (-0.3969509E-06)
 number of electron     828.0000017 magnetization     144.0000005
 augmentation part      312.6551193 magnetization      94.7006925

 Broyden mixing:
  rms(total) = 0.52244E-03    rms(broyden)= 0.50922E-03
  rms(prec ) = 0.53014E-03
  weight for this iteration     100.00

 eigenvalues of (default mixing * dielectric matrix)
  average eigenvalue GAMMA=   1.0841
  2.7337  1.5921  1.5921  0.9894  0.7698  0.7698  0.6646  0.6046  0.5623  0.5623

 Free energy of the ion-electron system (eV)
  ---------------------------------------------------
  alpha Z        PSCENC =      2606.24521607
  Ewald energy   TEWEN  =    -65007.66774350
  -Hartree energ DENC   =    -34081.94716723
  -exchange      EXHF   =         0.00000000
  -V(xc)+E(xc)   XCENC  =      3632.83845358
  PAW double counting   =    104148.97989116  -107360.53013555
  entropy T*S    EENTRO =        -0.00000000
  eigenvalues    EBANDS =    -11862.17236012
  atomic energy  EATOM  =    107373.91467324
  Solvation  Ediel_sol  =         0.00000000
  ---------------------------------------------------
  free energy    TOTEN  =      -550.33917236 eV

  energy without entropy =     -550.33917236  energy(sigma->0) =     -550.33917236


--------------------------------------------------------------------------------------------------------




--------------------------------------- Iteration      1(  16)  ---------------------------------------


    POTLOK:  cpu time    1.1193: real time    1.1243
    SETDIJ:  cpu time    2.5772: real time    2.5922
     EDDAV:  cpu time  313.6899: real time  317.1877
       DOS:  cpu time    0.0033: real time    0.0044
    --------------------------------------------
      LOOP:  cpu time  317.3897: real time  320.9085

 eigenvalue-minimisations  : 22368
 total energy-change (2. order) :-0.4991307E-08  (-0.7224181E-07)
 number of electron     828.0000017 magnetization     144.0000005
 augmentation part      312.6551193 magnetization      94.7006925

 Free energy of the ion-electron system (eV)
  ---------------------------------------------------
  alpha Z        PSCENC =      2606.24521607
  Ewald energy   TEWEN  =    -65007.66774350
  -Hartree energ DENC   =    -34081.94390993
  -exchange      EXHF   =         0.00000000
  -V(xc)+E(xc)   XCENC  =      3632.83832564
  PAW double counting   =    104149.09082348  -107360.64216917
  entropy T*S    EENTRO =        -0.00000000
  eigenvalues    EBANDS =    -11862.17438820
  atomic energy  EATOM  =    107373.91467324
  Solvation  Ediel_sol  =         0.00000000
  ---------------------------------------------------
  free energy    TOTEN  =      -550.33917236 eV

  energy without entropy =     -550.33917236  energy(sigma->0) =     -550.33917236


--------------------------------------------------------------------------------------------------------




 average (electrostatic) potential at core
  the test charge radii are     0.7079  0.7215  0.9698  0.9500
  (the norm of the test charge is              1.0000)
       1 -58.9458       2 -58.9458       3 -58.9458       4 -58.9459       5 -58.9457
       6 -58.9460       7 -58.9461       8 -58.9455       9 -58.9460      10 -58.9483
      11 -58.9433      12 -58.9457      13 -58.9471      14 -58.9446      15 -58.9458
      16 -58.9470      17 -58.9448      18 -58.9456      19 -69.8186      20 -69.8178
      21 -69.8206      22 -69.8193      23 -69.8179      24 -69.8204      25 -69.8193
      26 -69.8180      27 -69.8204      28 -69.8194      29 -69.8188      30 -69.8193
      31 -69.8195      32 -69.8188      33 -69.8193      34 -69.8193      35 -69.8190
      36 -69.8193      37 -85.5598      38 -85.5583      39 -85.5578      40 -85.5595
      41 -85.5587      42 -85.5579      43 -85.5595      44 -85.5587      45 -85.5580
      46 -85.5648      47 -85.5529      48 -85.5587      49 -85.5598      50 -85.5577
      51 -85.5587      52 -85.5645      53 -85.5533      54 -85.5587      55 -85.6468
      56 -85.6455      57 -85.6460      58 -85.6465      59 -85.6459      60 -85.6460
      61 -85.6467      62 -85.6456      63 -85.6460      64 -78.5668      65 -78.5649
      66 -78.5684      67 -78.5669      68 -78.5647      69 -78.5683      70 -78.5669
      71 -78.5647      72 -78.5684      73 -78.5683      74 -78.5652      75 -78.5667
      76 -78.5685      77 -78.5650      78 -78.5667      79 -78.5671      80 -78.5664
      81 -78.5667      82 -78.5834      83 -78.5826      84 -78.5826      85 -78.5834
      86 -78.5826      87 -78.5826      88 -78.5833      89 -78.5827      90 -78.5826
      91 -78.5829      92 -78.5818      93 -78.5840      94 -78.5830      95 -78.5822
      96 -78.5836      97 -78.5829      98 -78.5819      99 -78.5839
 
 
 
 E-fermi :   5.3170     XC(G=0): -10.4947     alpha+bet :-11.8267


 spin component 1

 k-point     1 :       0.0000    0.0000    0.0000
  band No.  band energies     occupation 
      1     -51.0513      1.00000
      2     -51.0513      1.00000
      3     -51.0510      1.00000
      4     -51.0509      1.00000
      5     -51.0501      1.00000
      6     -51.0499      1.00000
      7     -51.0498      1.00000
      8     -51.0498      1.00000
      9     -51.0494      1.00000
     10     -51.0491      1.00000
     11     -51.0487      1.00000
     12     -51.0482      1.00000
     13     -51.0480      1.00000
     14     -51.0479      1.00000
     15     -51.0471      1.00000
     16     -51.0467      1.00000
     17     -51.0466      1.00000
     18     -51.0452      1.00000
     19     -51.0380      1.00000
     20     -51.0372      1.00000
     21     -51.0371      1.00000
     22     -51.0371      1.00000
     23     -51.0371      1.00000
     24     -51.0371      1.00000
     25     -51.0369      1.00000
     26     -51.0362      1.00000
     27     -51.0361      1.00000
     28     -51.0361      1.00000
     29     -51.0361      1.00000
     30     -51.0360      1.00000
     31     -51.0359      1.00000
     32     -51.0357      1.00000
     33     -51.0355      1.00000
     34     -51.0355      1.00000
     35     -51.0349      1.00000
     36     -51.0347      1.00000
     37     -49.6903      1.00000
     38     -49.6903      1.00000
     39     -49.6900      1.00000
     40     -49.6899      1.00000
     41     -49.6899      1.00000
     42     -49.6893      1.00000
     43     -49.6892      1.00000
     44     -49.6892      1.00000
     45     -49.6892      1.00000
     46     -49.6892      1.00000
     47     -49.6891      1.00000
     48     -49.6891      1.00000
     49     -49.6890      1.00000
     50     -49.6885      1.00000
     51     -49.6884      1.00000
     52     -49.6884      1.00000
     53     -49.6881      1.00000
     54     -49.6879      1.00000
     55     -49.5924      1.00000
     56     -49.5921      1.00000
     57     -49.5911      1.00000
     58     -49.5911      1.00000
     59     -49.5909      1.00000
     60     -49.5904      1.00000
     61     -49.5902      1.00000
     62     -49.5901      1.00000
     63     -49.5897      1.00000
     64     -49.5897      1.00000
     65     -49.5896      1.00000
     66     -49.5889      1.00000
     67     -49.5888      1.00000
     68     -49.5885      1.00000
     69     -49.5876      1.00000
     70     -49.5870      1.00000
     71     -49.5866      1.00000
     72     -49.5865      1.00000
     73     -49.5631      1.00000
     74     -49.5631      1.00000
     75     -49.5621      1.00000
     76     -49.5616      1.00000
     77     -49.5610      1.00000
     78     -49.5607      1.00000
     79     -49.5604      1.00000
     80     -49.5599      1.00000
     81     -49.5598      1.00000
     82     -49.5596      1.00000
     83     -49.5595      1.00000
     84     -49.5592      1.00000
     85     -49.5585      1.00000
     86     -49.5585      1.00000
     87     -49.5574      1.00000
     88     -49.5570      1.00000
     89     -49.5569      1.00000
     90     -49.5568      1.00000
     91     -49.5493      1.00000
     92     -49.5486      1.00000
     93     -49.5485      1.00000
     94     -49.5485      1.00000
     95     -49.5484      1.00000
     96     -49.5480      1.00000
     97     -49.5478      1.00000
     98     -49.5476      1.00000
     99     -49.5471      1.00000
    100     -49.5471      1.00000
    101     -49.5470      1.00000
    102     -49.5469      1.00000
    103     -49.5469      1.00000
    104     -49.5465      1.00000
    105     -49.5464      1.00000
    106     -49.5464      1.00000
    107     -49.5460      1.00000
    108     -49.5459      1.00000
    109     -39.8649      1.00000
    110     -39.8638      1.00000
    111     -39.8636      1.00000
    112     -39.8632      1.00000
    113     -39.8629      1.00000
    114     -39.8627      1.00000
    115     -39.8625      1.00000
    116     -39.8624      1.00000
    117     -39.8623      1.00000
    118     -39.8623      1.00000
    119     -39.8622      1.00000
    120     -39.8621      1.00000
    121     -39.8621      1.00000
    122     -39.8620      1.00000
    123     -39.8618      1.00000
    124     -39.8614      1.00000
    125     -39.8611      1.00000
    126     -39.8599      1.00000
    127     -13.2356      1.00000
    128     -13.2349      1.00000
    129     -13.2348      1.00000
    130     -13.2340      1.00000
    131     -13.2258      1.00000
    132     -13.1986      1.00000
    133     -13.0555      1.00000
    134     -13.0554      1.00000
    135     -13.0541      1.00000
    136     -13.0540      1.00000
    137     -13.0423      1.00000
    138     -13.0422      1.00000
    139     -13.0410      1.00000
    140     -13.0408      1.00000
    141     -13.0188      1.00000
    142     -13.0186      1.00000
    143     -13.0184      1.00000
    144     -13.0184      1.00000
    145      -7.6149      1.00000
    146      -7.4115      1.00000
    147      -7.3757      1.00000
    148      -7.3751      1.00000
    149      -7.3749      1.00000
    150      -7.3745      1.00000
    151      -7.1814      1.00000
    152      -7.1812      1.00000
    153      -7.1718      1.00000
    154      -7.1715      1.00000
    155      -7.1529      1.00000
    156      -7.1513      1.00000
    157      -7.1513      1.00000
    158      -7.1497      1.00000
    159      -6.9847      1.00000
    160      -6.9657      1.00000
    161      -6.9646      1.00000
    162      -6.9309      1.00000
    163      -6.9299      1.00000
    164      -6.8730      1.00000
    165      -6.8715      1.00000
    166      -6.8714      1.00000
    167      -6.8697      1.00000
    168      -6.8079      1.00000
    169      -6.8066      1.00000
    170      -6.7810      1.00000
    171      -6.7798      1.00000
    172      -1.8368      1.00000
    173      -1.8367      1.00000
    174      -1.8366      1.00000
    175      -1.8365      1.00000
    176      -1.8162      1.00000
    177      -1.8161      1.00000
    178      -1.8035      1.00000
    179      -1.8035      1.00000
    180      -1.7662      1.00000
    181      -1.7662      1.00000
    182      -1.7535      1.00000
    183      -1.7534      1.00000
    184      -1.2808      1.00000
    185      -1.1977      1.00000
    186      -1.1974      1.00000
    187      -1.1971      1.00000
    188      -1.1968      1.00000
    189      -1.0052      1.00000
    190      -1.0049      1.00000
    191      -0.9742      1.00000
    192      -0.9739      1.00000
    193      -0.9588      1.00000
    194      -0.9586      1.00000
    195      -0.9468      1.00000
    196      -0.9384      1.00000
    197      -0.9311      1.00000
    198      -0.9282      1.00000
    199      -0.9280      1.00000
    200      -0.8851      1.00000
    201      -0.8843      1.00000
    202      -0.8843      1.00000
    203      -0.8838      1.00000
    204      -0.8716      1.00000
    205      -0.8711      1.00000
    206      -0.8675      1.00000
    207      -0.8672      1.00000
    208      -0.8672      1.00000
    209      -0.8669      1.00000
    210      -0.8594      1.00000
    211      -0.8592      1.00000
    212      -0.7005      1.00000
    213      -0.7001      1.00000
    214      -0.6999      1.00000
    215      -0.6998      1.00000
    216      -0.6713      1.00000
    217      -0.6710      1.00000
    218      -0.6231      1.00000
    219      -0.6228      1.00000
    220      -0.6228      1.00000
    221      -0.6222      1.00000
    222      -0.6220      1.00000
    223      -0.6218      1.00000
    224      -0.3523      1.00000
    225      -0.3522      1.00000
    226      -0.3521      1.00000
    227      -0.3517      1.00000
    228      -0.3218      1.00000
    229      -0.3215      1.00000
    230      -0.2916      1.00000
    231      -0.2912      1.00000
    232      -0.2649      1.00000
    233      -0.2640      1.00000
    234      -0.2639      1.00000
    235      -0.2635      1.00000
    236      -0.2608      1.00000
    237      -0.2604      1.00000
    238      -0.2579      1.00000
    239      -0.2489      1.00000
    240      -0.2484      1.00000
    241      -0.2426      1.00000
    242      -0.2203      1.00000
    243      -0.1406      1.00000
    244      -0.1405      1.00000
    245      -0.1403      1.00000
    246      -0.1397      1.00000
    247      -0.1393      1.00000
    248      -0.1389      1.00000
    249      -0.1234      1.00000
    250      -0.1228      1.00000
    251      -0.1227      1.00000
    252      -0.1223      1.00000
    253      -0.1203      1.00000
    254      -0.1197      1.00000
    255      -0.0777      1.00000
    256      -0.0773      1.00000
    257      -0.0595      1.00000
    258      -0.0119      1.00000
    259      -0.0115      1.00000
    260       0.0157      1.00000
    261       0.0159      1.00000
    262       0.0261      1.00000
    263       0.0262      1.00000
    264       0.0421      1.00000
    265       0.0432      1.00000
    266       0.0433      1.00000
    267       0.0440      1.00000
    268       0.0605      1.00000
    269       0.0608      1.00000
    270       0.1492      1.00000
    271       0.1502      1.00000
    272       0.1503      1.00000
    273       0.1508      1.00000
    274       0.1583      1.00000
    275       0.1639      1.00000
    276       0.1656      1.00000
    277       0.1825      1.00000
    278       0.1827      1.00000
    279       0.1924      1.00000
    280       0.1966      1.00000
    281       0.1968      1.00000
    282       0.2077      1.00000
    283       0.2082      1.00000
    284       0.2581      1.00000
    285       0.2582      1.00000
    286       0.2583      1.00000
    287       0.2587      1.00000
    288       0.2784      1.00000
    289       0.2786      1.00000
    290       0.3393      1.00000
    291       0.3393      1.00000
    292       0.3595      1.00000
    293       0.3600      1.00000
    294       0.3600      1.00000
    295       0.3602      1.00000
    296       0.3801      1.00000
    297       0.3832      1.00000
    298       0.4898      1.00000
    299       0.4898      1.00000
    300       0.4898      1.00000
    301       0.4900      1.00000
    302       0.5158      1.00000
    303       0.5171      1.00000
    304       0.5172      1.00000
    305       0.5181      1.00000
    306       0.5587      1.00000
    307       0.5591      1.00000
    308       0.6089      1.00000
    309       0.6091      1.00000
    310       0.6147      1.00000
    311       0.6302      1.00000
    312       0.6311      1.00000
    313       0.6312      1.00000
    314       0.6316      1.00000
    315       0.7522      1.00000
    316       0.7523      1.00000
    317       0.7610      1.00000
    318       0.7612      1.00000
    319       0.7621      1.00000
    320       0.7624      1.00000
    321       0.7905      1.00000
    322       0.7909      1.00000
    323       0.7931      1.00000
    324       0.8462      1.00000
    325       0.8462      1.00000
    326       0.8549      1.00000
    327       0.8551      1.00000
    328       0.9687      1.00000
    329       0.9691      1.00000
    330       0.9692      1.00000
    331       0.9693      1.00000
    332       0.9793      1.00000
    333       1.2395      1.00000
    334       1.2401      1.00000
    335       1.2402      1.00000
    336       1.2404      1.00000
    337       1.2637      1.00000
    338       1.2926      1.00000
    339       1.2928      1.00000
    340       1.3305      1.00000
    341       1.3308      1.00000
    342       1.3585      1.00000
    343       1.3588      1.00000
    344       1.3590      1.00000
    345       1.3596      1.00000
    346       1.4361      1.00000
    347       1.4370      1.00000
    348       1.4641      1.00000
    349       1.4754      1.00000
    350       1.4870      1.00000
    351       1.4880      1.00000
    352       1.5476      1.00000
    353       1.6788      1.00000
    354       1.6801      1.00000
    355       1.6804      1.00000
    356       1.7235      1.00000
    357       1.7237      1.00000
    358       1.7238      1.00000
    359       1.7241      1.00000
    360       1.7656      1.00000
    361       1.7658      1.00000
    362       1.8143      1.00000
    363       1.8143      1.00000
    364       1.8144      1.00000
    365       1.8151      1.00000
    366       1.8264      1.00000
    367       1.8271      1.00000
    368       1.8277      1.00000
    369       1.8283      1.00000
    370       1.8394      1.00000
    371       1.8760      1.00000
    372       1.8867      1.00000
    373       1.9029      1.00000
    374       1.9032      1.00000
    375       1.9176      1.00000
    376       1.9177      1.00000
    377       1.9631      1.00000
    378       1.9633      1.00000
    379       1.9899      1.00000
    380       1.9899      1.00000
    381       1.9990      1.00000
    382       1.9992      1.00000
    383       1.9996      1.00000
    384       1.9998      1.00000
    385       2.0711      1.00000
    386       2.0716      1.00000
    387       2.0811      1.00000
    388       2.0815      1.00000
    389       2.0816      1.00000
    390       2.0822      1.00000
    391       2.0941      1.00000
    392       2.0948      1.00000
    393       2.1160      1.00000
    394       2.1163      1.00000
    395       2.1163      1.00000
    396       2.1169      1.00000
    397       2.1953      1.00000
    398       2.1959      1.00000
    399       2.2884      1.00000
    400       2.2888      1.00000
    401       2.4162      1.00000
    402       2.4166      1.00000
    403       2.4406      1.00000
    404       2.4407      1.00000
    405       2.4409      1.00000
    406       2.4411      1.00000
    407       2.4997      1.00000
    408       2.5160      1.00000
    409       2.5166      1.00000
    410       2.5168      1.00000
    411       2.5172      1.00000
    412       2.5594      1.00000
    413       2.5603      1.00000
    414       2.5653      1.00000
    415       2.7185      1.00000
[...]
   -.234E+01 0.676E+01 -.124E+03   0.242E+01 -.705E+01 0.129E+03   -.801E-01 0.285E+00 -.454E+01   -.110E-03 0.684E-05 0.127E-03
   -.228E+01 0.668E+01 -.124E+03   0.236E+01 -.697E+01 0.129E+03   -.778E-01 0.286E+00 -.454E+01   -.209E-04 -.712E-04 0.122E-03
   -.220E+01 0.672E+01 -.124E+03   0.227E+01 -.701E+01 0.129E+03   -.741E-01 0.286E+00 -.454E+01   -.254E-04 0.790E-04 0.113E-03
   -.232E+01 0.668E+01 -.125E+03   0.240E+01 -.697E+01 0.129E+03   -.798E-01 0.286E+00 -.454E+01   -.112E-03 -.227E-04 0.157E-03
   -.229E+01 0.677E+01 -.124E+03   0.236E+01 -.705E+01 0.129E+03   -.779E-01 0.285E+00 -.454E+01   -.594E-04 0.563E-04 0.155E-03
   -.220E+01 0.672E+01 -.124E+03   0.228E+01 -.700E+01 0.129E+03   -.742E-01 0.285E+00 -.454E+01   0.268E-04 -.640E-04 0.141E-03
   -.231E+01 0.672E+01 -.124E+03   0.239E+01 -.701E+01 0.129E+03   -.790E-01 0.285E+00 -.454E+01   -.760E-04 -.634E-04 0.153E-03
   -.228E+01 0.672E+01 -.124E+03   0.235E+01 -.700E+01 0.129E+03   -.776E-01 0.285E+00 -.454E+01   -.722E-04 -.255E-04 0.159E-03
   -.224E+01 0.673E+01 -.124E+03   0.231E+01 -.701E+01 0.129E+03   -.738E-01 0.286E+00 -.454E+01   -.185E-04 -.596E-04 0.142E-03
   0.487E+01 -.113E+02 -.320E+02   -.496E+01 0.114E+02 0.325E+02   0.856E-01 -.134E+00 -.501E+00   0.228E-04 -.113E-04 0.671E-04
   0.385E+01 -.113E+02 -.318E+02   -.392E+01 0.114E+02 0.323E+02   0.716E-01 -.135E+00 -.501E+00   -.258E-03 -.130E-04 0.901E-04
   0.488E+01 -.113E+02 -.317E+02   -.496E+01 0.114E+02 0.322E+02   0.857E-01 -.135E+00 -.497E+00   0.533E-04 -.932E-05 0.101E-03
   0.472E+01 -.113E+02 -.319E+02   -.481E+01 0.115E+02 0.324E+02   0.850E-01 -.135E+00 -.501E+00   -.112E-04 -.277E-04 0.101E-03
   0.456E+01 -.113E+02 -.319E+02   -.465E+01 0.114E+02 0.324E+02   0.807E-01 -.134E+00 -.499E+00   -.787E-05 0.808E-05 0.104E-03
   0.473E+01 -.112E+02 -.318E+02   -.482E+01 0.114E+02 0.323E+02   0.851E-01 -.133E+00 -.497E+00   -.474E-05 -.114E-04 0.639E-04
   0.472E+01 -.112E+02 -.319E+02   -.480E+01 0.114E+02 0.324E+02   0.849E-01 -.133E+00 -.500E+00   0.573E-05 0.184E-04 0.923E-04
   0.457E+01 -.113E+02 -.319E+02   -.465E+01 0.114E+02 0.324E+02   0.810E-01 -.135E+00 -.499E+00   -.359E-05 -.194E-04 0.895E-04
   0.474E+01 -.113E+02 -.318E+02   -.482E+01 0.115E+02 0.323E+02   0.850E-01 -.135E+00 -.497E+00   0.972E-06 -.127E-04 0.721E-04
   0.116E+02 -.554E+01 0.320E+02   -.118E+02 0.564E+01 -.325E+02   0.137E+00 -.958E-01 0.499E+00   0.720E-05 -.510E-04 -.624E-04
   0.117E+02 -.385E+01 0.318E+02   -.118E+02 0.392E+01 -.323E+02   0.141E+00 -.679E-01 0.499E+00   0.187E-04 0.728E-04 -.157E-03
   0.115E+02 -.464E+01 0.319E+02   -.116E+02 0.473E+01 -.324E+02   0.139E+00 -.829E-01 0.499E+00   0.241E-04 0.217E-05 -.894E-04
   0.113E+02 -.464E+01 0.319E+02   -.114E+02 0.473E+01 -.324E+02   0.134E+00 -.829E-01 0.499E+00   0.814E-05 0.130E-04 -.111E-03
   0.113E+02 -.464E+01 0.319E+02   -.114E+02 0.472E+01 -.324E+02   0.133E+00 -.828E-01 0.499E+00   0.641E-04 -.495E-05 -.109E-03
   0.114E+02 -.464E+01 0.319E+02   -.115E+02 0.472E+01 -.324E+02   0.138E+00 -.828E-01 0.499E+00   -.190E-04 -.474E-05 -.948E-04
   0.116E+02 -.381E+01 0.320E+02   -.117E+02 0.388E+01 -.325E+02   0.139E+00 -.680E-01 0.499E+00   0.799E-05 0.735E-04 -.565E-04
   0.116E+02 -.537E+01 0.318E+02   -.117E+02 0.546E+01 -.323E+02   0.141E+00 -.983E-01 0.498E+00   -.686E-05 -.504E-04 -.152E-03
   0.115E+02 -.464E+01 0.319E+02   -.116E+02 0.472E+01 -.324E+02   0.139E+00 -.828E-01 0.499E+00   0.204E-04 0.952E-05 -.912E-04
   -.313E-01 -.309E-01 0.703E-01   0.350E-01 0.276E-01 -.710E-01   -.398E-02 0.329E-02 0.111E-02   -.159E-04 0.871E-05 0.131E-04
   -.702E-01 0.602E-01 -.969E-01   0.738E-01 -.635E-01 0.978E-01   -.390E-02 0.333E-02 -.132E-02   0.501E-05 0.253E-04 0.328E-04
   0.690E-01 0.133E-01 0.278E-01   -.665E-01 -.166E-01 -.281E-01   -.198E-02 0.323E-02 0.421E-03   -.171E-04 -.213E-05 0.107E-04
   -.221E-01 0.867E-02 0.521E-02   0.256E-01 -.120E-01 -.516E-02   -.364E-02 0.326E-02 0.402E-04   -.209E-04 0.193E-04 -.199E-04
   -.464E-01 0.151E-01 -.190E-01   0.500E-01 -.184E-01 0.192E-01   -.393E-02 0.329E-02 -.352E-03   0.490E-05 0.154E-04 0.840E-06
   0.251E-01 0.194E-01 0.138E-01   -.225E-01 -.227E-01 -.141E-01   -.212E-02 0.328E-02 0.370E-03   -.209E-04 0.397E-04 0.937E-05
   -.383E-01 0.641E-01 0.810E-01   0.420E-01 -.674E-01 -.817E-01   -.397E-02 0.323E-02 0.107E-02   -.125E-04 0.282E-04 0.265E-04
   -.550E-01 -.308E-01 -.949E-01   0.587E-01 0.276E-01 0.958E-01   -.401E-02 0.314E-02 -.146E-02   -.124E-04 -.147E-04 0.561E-05
   0.609E-01 0.107E-01 0.152E-01   -.583E-01 -.140E-01 -.154E-01   -.205E-02 0.329E-02 0.341E-03   -.162E-04 0.142E-04 0.368E-05
   -.540E+01 0.424E+01 -.185E+03   0.471E+01 -.385E+01 0.183E+03   0.717E+00 -.390E+00 0.229E+01   -.288E-02 0.938E-04 -.344E-03
   -.165E+01 0.423E+01 -.185E+03   0.943E+00 -.384E+01 0.183E+03   0.701E+00 -.390E+00 0.230E+01   0.307E-03 0.105E-03 -.153E-03
   -.164E+01 0.423E+01 -.185E+03   0.936E+00 -.384E+01 0.183E+03   0.701E+00 -.389E+00 0.230E+01   0.302E-03 0.629E-04 -.121E-03
   -.313E+01 0.423E+01 -.185E+03   0.246E+01 -.384E+01 0.183E+03   0.676E+00 -.390E+00 0.230E+01   -.271E-03 -.105E-03 -.148E-03
   -.255E+01 0.439E+01 -.185E+03   0.184E+01 -.402E+01 0.183E+03   0.701E+00 -.378E+00 0.230E+01   0.171E-03 0.571E-04 -.247E-03
   -.254E+01 0.406E+01 -.185E+03   0.184E+01 -.366E+01 0.183E+03   0.700E+00 -.398E+00 0.229E+01   0.179E-03 -.154E-03 -.159E-03
   -.313E+01 0.422E+01 -.185E+03   0.246E+01 -.383E+01 0.183E+03   0.675E+00 -.388E+00 0.230E+01   -.280E-03 0.620E-04 -.243E-03
   -.255E+01 0.407E+01 -.185E+03   0.184E+01 -.366E+01 0.183E+03   0.702E+00 -.400E+00 0.230E+01   0.163E-03 -.114E-03 -.182E-03
   -.255E+01 0.440E+01 -.185E+03   0.184E+01 -.402E+01 0.183E+03   0.701E+00 -.381E+00 0.229E+01   0.175E-03 0.100E-03 -.200E-03
   -.424E+01 0.329E+01 0.185E+03   0.385E+01 -.261E+01 -.182E+03   0.390E+00 -.687E+00 -.231E+01   -.789E-04 0.128E-03 -.125E-03
   -.418E+01 0.212E+01 0.186E+03   0.379E+01 -.143E+01 -.184E+03   0.390E+00 -.688E+00 -.228E+01   0.828E-04 -.220E-03 0.273E-03
   -.392E+01 0.270E+01 0.185E+03   0.352E+01 -.202E+01 -.183E+03   0.395E+00 -.687E+00 -.230E+01   0.294E-04 -.147E-04 0.170E-03
   -.423E+01 0.212E+01 0.185E+03   0.384E+01 -.143E+01 -.182E+03   0.390E+00 -.689E+00 -.231E+01   -.662E-04 -.156E-03 -.105E-03
   -.420E+01 0.327E+01 0.186E+03   0.381E+01 -.259E+01 -.184E+03   0.390E+00 -.686E+00 -.228E+01   0.890E-04 0.203E-03 0.382E-03
   -.392E+01 0.269E+01 0.185E+03   0.353E+01 -.201E+01 -.183E+03   0.395E+00 -.687E+00 -.230E+01   0.413E-04 0.168E-04 0.140E-03
   -.431E+01 0.270E+01 0.185E+03   0.392E+01 -.201E+01 -.183E+03   0.390E+00 -.687E+00 -.230E+01   -.329E-04 0.247E-04 0.129E-03
   -.428E+01 0.269E+01 0.185E+03   0.389E+01 -.201E+01 -.183E+03   0.390E+00 -.687E+00 -.229E+01   0.405E-04 0.266E-04 0.217E-03
   -.412E+01 0.270E+01 0.185E+03   0.372E+01 -.202E+01 -.183E+03   0.395E+00 -.687E+00 -.230E+01   -.207E-04 0.161E-04 0.775E-04
   0.381E+01 0.511E+01 -.201E+03   -.389E+01 -.512E+01 0.203E+03   0.806E-01 0.131E-01 -.198E+01   -.180E-04 0.326E-04 0.262E-03
   0.357E+01 0.506E+01 -.202E+03   -.365E+01 -.508E+01 0.204E+03   0.793E-01 0.120E-01 -.198E+01   -.456E-04 -.318E-04 0.283E-03
   0.395E+01 0.503E+01 -.201E+03   -.403E+01 -.504E+01 0.203E+03   0.814E-01 0.122E-01 -.198E+01   0.957E-04 -.191E-04 0.310E-03
   0.383E+01 0.501E+01 -.202E+03   -.391E+01 -.502E+01 0.204E+03   0.809E-01 0.118E-01 -.198E+01   -.297E-05 0.102E-04 0.258E-03
   0.358E+01 0.509E+01 -.202E+03   -.366E+01 -.510E+01 0.204E+03   0.790E-01 0.137E-01 -.198E+01   0.524E-04 0.118E-03 0.290E-03
   0.391E+01 0.511E+01 -.201E+03   -.400E+01 -.512E+01 0.203E+03   0.815E-01 0.129E-01 -.198E+01   -.434E-04 0.447E-04 0.297E-03
   0.378E+01 0.509E+01 -.201E+03   -.386E+01 -.510E+01 0.203E+03   0.806E-01 0.130E-01 -.198E+01   0.705E-04 -.899E-04 0.290E-03
   0.369E+01 0.505E+01 -.202E+03   -.377E+01 -.506E+01 0.204E+03   0.795E-01 0.121E-01 -.198E+01   0.451E-04 -.103E-03 0.265E-03
   0.386E+01 0.507E+01 -.201E+03   -.394E+01 -.508E+01 0.203E+03   0.810E-01 0.127E-01 -.198E+01   -.907E-04 -.633E-04 0.321E-03
   -.593E+01 -.376E+01 0.201E+03   0.596E+01 0.384E+01 -.203E+03   -.223E-01 -.789E-01 0.198E+01   -.174E-03 -.967E-04 -.186E-03
   -.477E+01 -.363E+01 0.201E+03   0.478E+01 0.371E+01 -.203E+03   -.810E-02 -.804E-01 0.198E+01   0.537E-04 0.187E-03 -.287E-03
   -.474E+01 -.398E+01 0.202E+03   0.475E+01 0.406E+01 -.204E+03   -.758E-02 -.808E-01 0.199E+01   0.122E-03 -.124E-04 -.135E-03
   -.520E+01 -.380E+01 0.201E+03   0.521E+01 0.388E+01 -.203E+03   -.141E-01 -.804E-01 0.198E+01   -.977E-07 0.946E-04 -.296E-03
   -.499E+01 -.379E+01 0.201E+03   0.501E+01 0.387E+01 -.203E+03   -.120E-01 -.801E-01 0.198E+01   -.472E-04 -.768E-04 -.223E-03
   -.498E+01 -.380E+01 0.202E+03   0.499E+01 0.388E+01 -.204E+03   -.112E-01 -.805E-01 0.198E+01   0.469E-04 0.312E-04 -.275E-03
   -.589E+01 -.383E+01 0.201E+03   0.591E+01 0.391E+01 -.203E+03   -.213E-01 -.820E-01 0.198E+01   -.132E-03 0.140E-04 -.199E-03
   -.478E+01 -.396E+01 0.201E+03   0.478E+01 0.404E+01 -.203E+03   -.865E-02 -.807E-01 0.198E+01   0.641E-04 -.965E-04 -.302E-03
   -.476E+01 -.362E+01 0.202E+03   0.477E+01 0.370E+01 -.204E+03   -.807E-02 -.799E-01 0.199E+01   0.929E-04 0.532E-05 -.183E-03
 -----------------------------------------------------------------------------------------------
   -.948E+01 0.941E+01 0.121E-01   0.568E-13 0.504E-12 -.711E-12   0.948E+01 -.941E+01 -.122E-01   -.232E-02 0.411E-03 0.722E-04
 
 
 POSITION                                       TOTAL-FORCE (eV/Angst)
 -----------------------------------------------------------------------------------
      0.69431      1.16678      8.50361         0.000862      0.000499     -0.000065
      4.62006      1.16961      8.52669         0.000328      0.000534      0.000355
      8.54582      1.17244      8.54977        -0.000555      0.000541      0.000092
      0.68421      5.09252      8.52669         0.000334     -0.000551      0.000029
      4.60997      5.09535      8.54977         0.000147     -0.000642     -0.000076
      8.53573      5.09818      8.57285        -0.000466     -0.000593     -0.000090
      0.67412      9.01827      8.54977         0.000424      0.000375      0.000183
      4.59988      9.02110      8.57285         0.000065      0.000433      0.000115
      8.52563      9.02393      8.59592        -0.000468      0.000371      0.000032
      0.73117      1.20377      1.72829        -0.002216      0.000003     -0.005222
      4.65693      1.20660      1.75137        -0.001222      0.000171      0.004615
      8.58269      1.20942      1.77444        -0.001198      0.000077     -0.000127
      0.72108      5.12951      1.75137         0.000033      0.000679     -0.001080
      4.64684      5.13234      1.77444         0.001059     -0.000740      0.001108
      8.57259      5.13517      1.79752        -0.001138     -0.000051     -0.000116
      0.71099      9.05525      1.77444        -0.000002     -0.000709     -0.001064
      4.63674      9.05808      1.79752         0.001030      0.000536      0.001073
      8.56250      9.06091      1.82060        -0.001097     -0.000062     -0.000133
      2.69694      1.20483      2.03281        -0.007303      0.000034      0.002135
      6.62270      1.20766      2.05588         0.001336     -0.000089     -0.000877
     10.54845      1.21049      2.07896         0.001245      0.000060      0.001026
      2.68685      5.13057      2.05588        -0.001941     -0.000036      0.000054
      6.61260      5.13340      2.07896         0.001264      0.001227     -0.001143
     10.53836      5.13623      2.10204         0.001095     -0.001198      0.001143
      2.67675      9.05632      2.07896        -0.001880      0.000002      0.000075
      6.60251      9.05915      2.10204         0.001163     -0.001086     -0.001062
     10.52827      9.06198      2.12512         0.001025      0.001066      0.001126
      0.69972     -0.79898      8.19910        -0.001069      0.000099     -0.000520
      4.62547     -0.79615      8.22217        -0.000282      0.000590      0.000369
      8.55123     -0.79332      8.24525         0.001013      0.000395      0.000102
      0.68962      3.12676      8.22217        -0.000955      0.000453     -0.000621
      4.61538      3.12959      8.24525        -0.000299     -0.000012      0.000472
      8.54114      3.13242      8.26833         0.000995      0.000144      0.000068
      0.67953      7.05251      8.24525        -0.000680      0.000236     -0.000106
      4.60529      7.05534      8.26833        -0.000216      0.000206      0.000008
      8.53104      7.05817      8.29141         0.001135      0.000255      0.000068
     -1.24734      1.15770      6.42338         0.000956      0.000148     -0.000985
      2.67842      1.16053      6.44646        -0.002521      0.000133     -0.001400
      6.60417      1.16336      6.46954         0.001027      0.000032      0.000970
     -1.25744      5.08344      6.44646         0.000792     -0.000476     -0.000937
      2.66832      5.08627      6.46954        -0.001247      0.000096     -0.000152
      6.59408      5.08910      6.49262         0.000848      0.000663      0.000987
     -1.26753      9.00919      6.46954         0.000733      0.000674     -0.000821
      2.65823      9.01202      6.49262        -0.001127      0.000076     -0.000203
      6.58398      9.01484      6.51569         0.000776     -0.000452      0.000880
      0.73386      3.14543      3.80852        -0.002087     -0.000028     -0.000955
      4.65962      3.14826      3.83160         0.000706      0.003092      0.000647
      8.58538      3.15109      3.85467         0.001922      0.000005      0.000102
      0.72377      7.07118      3.83160        -0.000634      0.000012     -0.000125
      4.64953      7.07401      3.85467        -0.000715      0.000090      0.000175
      8.57528      7.07684      3.87775         0.001453      0.000078      0.000089
      0.71368     10.99692      3.85467        -0.000186      0.001748     -0.000709
      4.63943     10.99975      3.87775         0.001805     -0.003572      0.000509
      8.56519     11.00258      3.90083         0.001878      0.000095      0.000096
      0.73979      3.17832      0.02308        -0.000293      0.000016      0.000384
      4.66555      3.18115      0.04616        -0.000286      0.000035     -0.000473
      8.59130      3.18398      0.06923         0.000564     -0.000013      0.000162
      0.72970      7.10407      0.04616        -0.000128     -0.000015      0.000073
      4.65545      7.10690      0.06923        -0.000266      0.000007     -0.000190
      8.58121      7.10973      0.09231         0.000477     -0.000007      0.000149
      0.71960     11.02981      0.06923        -0.000287     -0.000043      0.000384
      4.64536     11.03264      0.09231        -0.000321     -0.000058     -0.000534
      8.57112     11.03547      0.11539         0.000526     -0.000006      0.000134
      2.60849      1.23236      4.04027         0.019080     -0.001234     -0.000018
      6.54425      1.23520      4.06340        -0.004133     -0.000095     -0.000464
     10.47001      1.23803      4.08648        -0.004291     -0.000150      0.000124
      2.60840      5.15812      4.06340         0.003444     -0.000030     -0.000001
      6.53415      5.16095      4.08648        -0.003069     -0.002503     -0.000586
     10.45991      5.16378      4.10956        -0.003171      0.001817      0.000199
      2.59830      9.08386      4.08648         0.003449      0.000029      0.000030
      6.52406      9.08669      4.10956        -0.003054      0.002128     -0.000519
     10.44982      9.08952      4.13264        -0.003194     -0.001737      0.000194
      0.67192     -0.72062      6.19157        -0.000494     -0.001424      0.005190
      4.59767     -0.71779      6.21465        -0.000391      0.001142     -0.004399
      8.52343     -0.71497      6.23773        -0.001003     -0.000146      0.000071
      0.66182      3.20512      6.21465        -0.000397      0.000989      0.005226
      4.58758      3.20795      6.23773        -0.000267     -0.001508     -0.004639
      8.51333      3.21078      6.26081        -0.000981     -0.000234      0.000041
      0.65173      7.13086      6.23773         0.000353     -0.000280      0.000671
      4.57748      7.13369      6.26081         0.000445     -0.000237     -0.000437
      8.50324      7.13652      6.28389        -0.001022     -0.000278      0.000059
     -1.26712     -0.80254      8.61927         0.000033     -0.000195      0.000099
      2.65864     -0.79971      8.64235         0.000326      0.000097      0.000163
      6.58440     -0.79688      8.66542        -0.000069      0.000013     -0.000302
     -1.27721      3.12320      8.64235        -0.000041      0.000122      0.000170
      2.64854      3.12603      8.66542         0.000416     -0.000318      0.000136
      6.57430      3.12886      8.68850        -0.000056     -0.000108     -0.000288
     -1.28731      7.04895      8.66542         0.000074     -0.000131      0.000170
      2.63845      7.05177      8.68850         0.000285      0.000023      0.000200
      6.56421      7.05460      8.71158         0.000113     -0.000085     -0.000345
      2.69403      3.17166      1.61263         0.003525     -0.000717     -0.000018
      6.61978      3.17449      1.63571        -0.001333     -0.000134      0.001200
     10.54554      3.17732      1.65879        -0.001468     -0.000195     -0.001543
      2.68393      7.09741      1.63571         0.000627     -0.000076     -0.000075
      6.60969      7.10024      1.65879        -0.000111     -0.000173      0.000209
     10.53545      7.10307      1.68187        -0.000249     -0.000076     -0.000439
      2.67384     11.02315      1.65879         0.003207      0.000400      0.000003
      6.59960     11.02598      1.68187        -0.001204     -0.000100      0.001127
     10.52535     11.02881      1.70494        -0.001305     -0.000140     -0.001410
 -----------------------------------------------------------------------------------
    total drift:                               -0.000140     -0.000132     -0.000031


--------------------------------------------------------------------------------------------------------



  FREE ENERGIE OF THE ION-ELECTRON SYSTEM (eV)
  ---------------------------------------------------
  free  energy   TOTEN  =      -550.33917236 eV

  energy  without entropy=     -550.33917236  energy(sigma->0) =     -550.33917236
 


--------------------------------------------------------------------------------------------------------


    POTLOK:  cpu time    3.6935: real time    3.7167


--------------------------------------------------------------------------------------------------------


     LOOP+:  cpu time 8991.1724: real time 9076.8560
    4ORBIT:  cpu time    0.0000: real time    0.0000

 total amount of memory used by VASP MPI-rank0  1508757. kBytes
=======================================================================

   base      :      30000. kBytes
   nonl-proj :      85790. kBytes
   fftplans  :      89726. kBytes
   grid      :      70158. kBytes
   one-center:        528. kBytes
   wavefun   :    1232555. kBytes
 
  
  
 General timing and accounting informations for this job:
 ========================================================
  
                  Total CPU time used (sec):     9112.824
                            User time (sec):     9010.557
                          System time (sec):      102.267
                         Elapsed time (sec):     9201.270
  
                   Maximum memory used (kb):     1707588.
                   Average memory used (kb):           0.
  
                          Minor page faults:      1168653
                          Major page faults:           24
                 Voluntary context switches:        87918
