 vasp.5.4.4.18Apr17-6-g9f103f2a35 (build Oct 25 2017 14:42:18) complex          
  
 executed on             LinuxIFC date 2021.06.02  16:57:02
 running on   24 total cores
 distrk:  each k-point on   12 cores,    2 groups
 distr:  one band on NCORES_PER_BAND=   6 cores,    2 groups


--------------------------------------------------------------------------------------------------------


 INCAR:
 POTCAR:    PAW_PBE Li_sv 10Sep2004               
 POTCAR:    PAW_PBE O 08Apr2002                   
 POTCAR:    PAW_PBE S 06Sep2000                   
 POTCAR:    PAW_PBE Fe_pv 02Aug2007               

 ----------------------------------------------------------------------------- 
|                                                                             |
|           W    W    AA    RRRRR   N    N  II  N    N   GGGG   !!!           |
|           W    W   A  A   R    R  NN   N  II  NN   N  G    G  !!!           |
|           W    W  A    A  R    R  N N  N  II  N N  N  G       !!!           |
|           W WW W  AAAAAA  RRRRR   N  N N  II  N  N N  G  GGG   !            |
|           WW  WW  A    A  R   R   N   NN  II  N   NN  G    G                |
|           W    W  A    A  R    R  N    N  II  N    N   GGGG   !!!           |
|                                                                             |
|      You have enabled k-point parallelism (KPAR>1).                         |
|      This developmental code was originally  written by Paul Kent at ORNL,  |
|      and carefully double checked in Vienna.                                |
|      GW as well as linear response parallelism added by Martijn Marsman     |
|      and Georg Kresse.                                                      |
|      Carefully verify results versus KPAR=1.                                |
|      Report problems to Paul Kent and Vienna.                               |
|                                                                             |
 ----------------------------------------------------------------------------- 

 POTCAR:    PAW_PBE Li_sv 10Sep2004               
  local pseudopotential read in
  atomic valenz-charges read in
  non local Contribution for L=           0  read in
    real space projection operators read in
  non local Contribution for L=           0  read in
    real space projection operators read in
  non local Contribution for L=           1  read in
    real space projection operators read in
    PAW grid and wavefunctions read in
 
   number of l-projection  operators is LMAX  =           3
   number of lm-projection operators is LMMAX =           5
 
 POTCAR:    PAW_PBE O 08Apr2002                   
  local pseudopotential read in
  partial core-charges read in
  partial kinetic energy density read in
  kinetic energy density of atom read in
  atomic valenz-charges read in
  non local Contribution for L=           0  read in
    real space projection operators read in
  non local Contribution for L=           0  read in
    real space projection operators read in
  non local Contribution for L=           1  read in
    real space projection operators read in
  non local Contribution for L=           1  read in
    real space projection operators read in
    PAW grid and wavefunctions read in
 
   number of l-projection  operators is LMAX  =           4
   number of lm-projection operators is LMMAX =           8
 
 POTCAR:    PAW_PBE S 06Sep2000                   
  local pseudopotential read in
  partial core-charges read in
  partial kinetic energy density read in
  atomic valenz-charges read in
  non local Contribution for L=           0  read in
    real space projection operators read in
  non local Contribution for L=           0  read in
    real space projection operators read in
  non local Contribution for L=           1  read in
    real space projection operators read in
  non local Contribution for L=           1  read in
    real space projection operators read in
    PAW grid and wavefunctions read in
 
   number of l-projection  operators is LMAX  =           4
   number of lm-projection operators is LMMAX =           8
 
 POTCAR:    PAW_PBE Fe_pv 02Aug2007               
  local pseudopotential read in
  partial core-charges read in
  partial kinetic energy density read in
  atomic valenz-charges read in
  non local Contribution for L=           1  read in
    real space projection operators read in
  non local Contribution for L=           1  read in
    real space projection operators read in
  non local Contribution for L=           2  read in
    real space projection operators read in
  non local Contribution for L=           2  read in
    real space projection operators read in
  non local Contribution for L=           0  read in
    real space projection operators read in
  non local Contribution for L=           0  read in
    real space projection operators read in
    PAW grid and wavefunctions read in
 
   number of l-projection  operators is LMAX  =           6
   number of lm-projection operators is LMMAX =          18
 

 ----------------------------------------------------------------------------- 
|                                                                             |
|  ADVICE TO THIS USER RUNNING 'VASP/VAMP'   (HEAR YOUR MASTER'S VOICE ...):  |
|                                                                             |
|      You have a (more or less) 'large supercell' and for larger cells       |
|      it might be more efficient to use real space projection opertators     |
|      So try LREAL= Auto  in the INCAR   file.                               |
|      Mind:          For very  accurate calculation you might also keep the  |
|      reciprocal projection scheme          (i.e. LREAL=.FALSE.)             |
|                                                                             |
 ----------------------------------------------------------------------------- 

  PAW_PBE Li_sv 10Sep2004               :
 energy of atom  1       EATOM= -202.7858
 kinetic energy error for atom=    0.0072 (will be added to EATOM!!)
  PAW_PBE O 08Apr2002                   :
 energy of atom  2       EATOM= -432.3788
 kinetic energy error for atom=    0.0129 (will be added to EATOM!!)
  PAW_PBE S 06Sep2000                   :
 energy of atom  3       EATOM= -276.8230
 kinetic energy error for atom=    0.0008 (will be added to EATOM!!)
  PAW_PBE Fe_pv 02Aug2007               :
 energy of atom  4       EATOM=-2457.4239
 kinetic energy error for atom=    0.0041 (will be added to EATOM!!)
 
 
 POSCAR: # Compound: Li16O16S24Fe32. Old comment:
  positions in direct lattice
  No initial velocities read in
 exchange correlation table for  LEXCH =        8
   RHO(1)=    0.500       N(1)  =     2000
   RHO(2)=  100.500       N(2)  =     4000
 


--------------------------------------------------------------------------------------------------------


 ion  position               nearest neighbor table
   1  0.289  0.469  0.156-  27 2.00  29 2.00  55 2.53  49 2.53
   2  0.789  0.469  0.156-  28 2.00  30 2.00  56 2.53  50 2.53
   3  0.289  0.969  0.156-  25 2.00  31 2.00  53 2.53  51 2.53
   4  0.789  0.969  0.156-  26 2.00  32 2.00  54 2.53  52 2.53
   5  0.046  0.219  0.186-  30 1.98  25 1.98
   6  0.546  0.219  0.186-  29 1.98  26 1.98
   7  0.046  0.719  0.186-  32 1.98  27 1.98
   8  0.546  0.719  0.186-  31 1.98  28 1.98
   9  0.454  0.469  0.814-  20 1.98  21 1.98
  10  0.954  0.469  0.814-  19 1.98  22 1.98
  11  0.454  0.969  0.814-  18 1.98  23 1.98
  12  0.954  0.969  0.814-  17 1.98  24 1.98
  13  0.211  0.219  0.844-  21 2.00  17 2.00  49 2.53  53 2.53
  14  0.711  0.219  0.844-  22 2.00  18 2.00  50 2.53  54 2.53
  15  0.211  0.719  0.844-  23 2.00  19 2.00  51 2.53  55 2.53
  16  0.711  0.719  0.844-  24 2.00  20 2.00  52 2.53  56 2.53
  17  0.077  0.095  0.803-  12 1.98  13 2.00  57 2.01  83 2.01  86 2.01
  18  0.577  0.095  0.803-  11 1.98  14 2.00  58 2.01  84 2.01  85 2.01
  19  0.077  0.595  0.803-  10 1.98  15 2.00  59 2.01  81 2.01  88 2.01
  20  0.577  0.595  0.803-   9 1.98  16 2.00  60 2.01  82 2.01  87 2.01
  21  0.325  0.343  0.803-   9 1.98  13 2.00  61 2.01  81 2.01  85 2.01
  22  0.825  0.343  0.803-  10 1.98  14 2.00  62 2.01  82 2.01  86 2.01
  23  0.325  0.843  0.803-  11 1.98  15 2.00  63 2.01  83 2.01  87 2.01
  24  0.825  0.843  0.803-  12 1.98  16 2.00  64 2.01  84 2.01  88 2.01
  25  0.175  0.093  0.197-   5 1.98   3 2.00  65 2.01  77 2.01  75 2.01
  26  0.675  0.093  0.197-   6 1.98   4 2.00  66 2.01  78 2.01  76 2.01
  27  0.175  0.593  0.197-   7 1.98   1 2.00  67 2.01  79 2.01  73 2.01
  28  0.675  0.593  0.197-   8 1.98   2 2.00  68 2.01  80 2.01  74 2.01
  29  0.423  0.345  0.197-   6 1.98   1 2.00  69 2.01  77 2.01  74 2.01
  30  0.923  0.345  0.197-   5 1.98   2 2.00  70 2.01  78 2.01  73 2.01
  31  0.423  0.845  0.197-   8 1.98   3 2.00  71 2.01  79 2.01  76 2.01
  32  0.923  0.845  0.197-   7 1.98   4 2.00  72 2.01  80 2.01  75 2.01
  33  0.219  0.345  0.370-  61 2.42  67 2.65  69 2.65
  34  0.719  0.345  0.371-  62 2.41  68 2.65  70 2.65
  35  0.219  0.845  0.371-  63 2.41  65 2.65  71 2.65
  36  0.719  0.845  0.371-  64 2.41  66 2.65  72 2.65
  37  0.467  0.093  0.371-  58 2.41  71 2.65  65 2.65
  38  0.967  0.093  0.371-  57 2.41  72 2.65  66 2.65
  39  0.467  0.593  0.371-  60 2.41  69 2.65  67 2.65
  40  0.967  0.593  0.371-  59 2.41  70 2.65  68 2.65
  41  0.033  0.343  0.629-  70 2.41  57 2.65  61 2.65
  42  0.533  0.343  0.629-  69 2.41  58 2.65  62 2.65
  43  0.033  0.843  0.629-  72 2.41  59 2.65  63 2.65
  44  0.533  0.843  0.629-  71 2.41  60 2.65  64 2.65
  45  0.281  0.095  0.629-  65 2.41  61 2.65  57 2.65
  46  0.781  0.095  0.629-  66 2.41  62 2.65  58 2.65
  47  0.281  0.595  0.629-  67 2.41  63 2.65  59 2.65
  48  0.781  0.595  0.629-  68 2.41  64 2.65  60 2.65
  49  0.124  0.344  0.000-  73 2.51  86 2.51  81 2.52  77 2.52  13 2.53   1 2.53
  50  0.624  0.344  0.000-  74 2.51  85 2.51  82 2.52  78 2.52  14 2.53   2 2.53
  51  0.124  0.844  0.000-  75 2.51  88 2.51  83 2.52  79 2.52  15 2.53   3 2.53
  52  0.624  0.844  0.000-  76 2.51  87 2.51  84 2.52  80 2.52  16 2.53   4 2.53
  53  0.376  0.094  1.000-  85 2.51  76 2.51  77 2.52  83 2.52   3 2.53  13 2.53
  54  0.876  0.094  1.000-  86 2.51  75 2.51  78 2.52  84 2.52   4 2.53  14 2.53
  55  0.376  0.594  1.000-  87 2.51  74 2.51  79 2.52  81 2.52   1 2.53  15 2.53
  56  0.876  0.594  1.000-  88 2.51  73 2.51  80 2.52  82 2.52   2 2.53  16 2.53
  57  0.038  0.106  0.606-  17 2.01  38 2.41  41 2.65  45 2.65
  58  0.538  0.106  0.606-  18 2.01  37 2.41  42 2.65  46 2.65
  59  0.038  0.606  0.606-  19 2.01  40 2.41  43 2.65  47 2.65
  60  0.538  0.606  0.606-  20 2.01  39 2.41  44 2.65  48 2.65
  61  0.265  0.332  0.606-  21 2.01  33 2.42  45 2.65  41 2.65
  62  0.765  0.332  0.606-  22 2.01  34 2.41  46 2.65  42 2.65
  63  0.265  0.832  0.606-  23 2.01  35 2.41  47 2.65  43 2.65
  64  0.765  0.832  0.606-  24 2.01  36 2.41  48 2.65  44 2.65
  65  0.235  0.082  0.394-  25 2.01  45 2.41  35 2.65  37 2.65
  66  0.735  0.082  0.394-  26 2.01  46 2.41  36 2.65  38 2.65
  67  0.235  0.582  0.394-  27 2.01  47 2.41  33 2.65  39 2.65
  68  0.735  0.582  0.394-  28 2.01  48 2.41  34 2.65  40 2.65
  69  0.462  0.356  0.394-  29 2.01  42 2.41  39 2.65  33 2.65
  70  0.962  0.356  0.394-  30 2.01  41 2.41  40 2.65  34 2.65
  71  0.462  0.856  0.394-  31 2.01  44 2.41  37 2.65  35 2.65
  72  0.962  0.856  0.394-  32 2.01  43 2.41  38 2.65  36 2.65
  73  0.038  0.469  0.154-  30 2.01  27 2.01  49 2.51  56 2.51
  74  0.538  0.469  0.154-  29 2.01  28 2.01  50 2.51  55 2.51
  75  0.038  0.969  0.154-  32 2.01  25 2.01  51 2.51  54 2.51
  76  0.538  0.969  0.154-  31 2.01  26 2.01  52 2.51  53 2.51
  77  0.289  0.219  0.154-  25 2.01  29 2.01  53 2.52  49 2.52
  78  0.789  0.219  0.154-  26 2.01  30 2.01  54 2.52  50 2.52
  79  0.289  0.719  0.154-  27 2.01  31 2.01  55 2.52  51 2.52
  80  0.789  0.719  0.154-  28 2.01  32 2.01  56 2.52  52 2.52
  81  0.211  0.469  0.846-  21 2.01  19 2.01  49 2.52  55 2.52
  82  0.711  0.469  0.846-  22 2.01  20 2.01  50 2.52  56 2.52
  83  0.211  0.969  0.846-  23 2.01  17 2.01  51 2.52  53 2.52
  84  0.711  0.969  0.846-  24 2.01  18 2.01  52 2.52  54 2.52
  85  0.462  0.219  0.846-  18 2.01  21 2.01  53 2.51  50 2.51
  86  0.962  0.219  0.846-  17 2.01  22 2.01  54 2.51  49 2.51
  87  0.462  0.719  0.846-  20 2.01  23 2.01  55 2.51  52 2.51
  88  0.962  0.719  0.846-  19 2.01  24 2.01  56 2.51  51 2.51
 

IMPORTANT INFORMATION: All symmetrisations will be switched off!
NOSYMM: (Re-)initialisation of all symmetry stuff for point group C_1.

 
 
 KPOINTS: # No comment                            

Automatic generation of k-mesh.
Space group operators:
 irot       det(A)        alpha          n_x          n_y          n_z        tau_x        tau_y        tau_z
    1     1.000000     0.000000     1.000000     0.000000     0.000000     0.000000     0.000000     0.000000
 
 Subroutine IBZKPT returns following result:
 ===========================================
 
 Found     14 irreducible k-points:
 
 Following reciprocal coordinates:
            Coordinates               Weight
  0.000000  0.000000  0.000000      1.000000
  0.333333  0.000000  0.000000      2.000000
  0.000000  0.333333  0.000000      2.000000
  0.333333  0.333333  0.000000      2.000000
 -0.333333  0.333333 -0.000000      2.000000
  0.000000  0.000000  0.333333      2.000000
  0.333333  0.000000  0.333333      2.000000
 -0.333333  0.000000  0.333333      2.000000
  0.000000  0.333333  0.333333      2.000000
  0.333333  0.333333  0.333333      2.000000
 -0.333333  0.333333  0.333333      2.000000
  0.000000 -0.333333  0.333333      2.000000
  0.333333 -0.333333  0.333333      2.000000
 -0.333333 -0.333333  0.333333      2.000000
 
 Following cartesian coordinates:
            Coordinates               Weight
  0.000000  0.000000  0.000000      1.000000
  0.029997  0.000000  0.008162      2.000000
  0.000000  0.029983  0.000000      2.000000
  0.029997  0.029983  0.008162      2.000000
 -0.029997  0.029983 -0.008162      2.000000
  0.000001  0.000000  0.032684      2.000000
  0.029998  0.000000  0.040846      2.000000
 -0.029996  0.000000  0.024522      2.000000
  0.000001  0.029983  0.032684      2.000000
  0.029998  0.029983  0.040846      2.000000
 -0.029996  0.029983  0.024522      2.000000
  0.000001 -0.029983  0.032684      2.000000
  0.029998 -0.029983  0.040846      2.000000
 -0.029996 -0.029983  0.024522      2.000000
 


--------------------------------------------------------------------------------------------------------




 Dimension of arrays:
   k-points           NKPTS =     14   k-points in BZ     NKDIM =     14   number of bands    NBANDS=    538
   number of dos      NEDOS =    301   number of ions     NIONS =     88
   non local maximal  LDIM  =      6   non local SUM 2l+1 LMDIM =     18
   total plane-waves  NPLWV = 829440
   max r-space proj   IRMAX =      1   max aug-charges    IRDMAX= 166102
   dimension x,y,z NGX =    96 NGY =   96 NGZ =   90
   dimension x,y,z NGXF=   192 NGYF=  192 NGZF=  180
   support grid    NGXF=   384 NGYF=  384 NGZF=  360
   ions per type =              16  16  24  32
   NGX,Y,Z   is equivalent  to a cutoff of  14.36, 14.36, 14.16 a.u.
   NGXF,Y,Z  is equivalent  to a cutoff of  28.72, 28.71, 28.31 a.u.

 SYSTEM =  unknown system                          
 POSCAR =  # Compound: Li16O16S24Fe32. Old comment:

 Startparameter for this run:
   NWRITE =      1    write-flag & timer
   PREC   = accura    normal or accurate (medium, high low for compatibility)
   ISTART =      0    job   : 0-new  1-cont  2-samecut
   ICHARG =      1    charge: 1-file 2-atom 10-const
   ISPIN  =      2    spin polarized calculation?
   LNONCOLLINEAR =      F non collinear calculations
   LSORBIT =      F    spin-orbit coupling
   INIWAV =      1    electr: 0-lowe 1-rand  2-diag
   LASPH  =      T    aspherical Exc in radial PAW
   METAGGA=      F    non-selfconsistent MetaGGA calc.

 Electronic Relaxation 1
   ENCUT  =  650.0 eV  47.77 Ry    6.91 a.u.  23.10 23.11 21.97*2*pi/ulx,y,z
   ENINI  =  650.0     initial cutoff
   ENAUG  =  628.9 eV  augmentation charge cutoff
   NELM   =    200;   NELMIN=  8; NELMDL=  0     # of ELM steps 
   EDIFF  = 0.1E-05   stopping-criterion for ELM
   LREAL  =      F    real-space projection
   NLSPLINE    = F    spline interpolate recip. space projectors
   LCOMPAT=      F    compatible to vasp.4.4
   GGA_COMPAT  = T    GGA compatible to vasp.4.4-vasp.4.6
   LMAXPAW     = -100 max onsite density
   LMAXMIX     =    4 max onsite mixed and CHGCAR
   VOSKOWN=      0    Vosko Wilk Nusair interpolation
   ROPT   =    0.00000   0.00000   0.00000   0.00000
 Ionic relaxation
   EDIFFG = 0.1E-04   stopping-criterion for IOM
   NSW    =      0    number of steps for IOM
   NBLOCK =      1;   KBLOCK =      1    inner block; outer block 
   IBRION =     -1    ionic relax: 0-MD 1-quasi-New 2-CG
   NFREE  =      0    steps in history (QN), initial steepest desc. (CG)
   ISIF   =      2    stress and relaxation
   IWAVPR =     10    prediction:  0-non 1-charg 2-wave 3-comb
   ISYM   =      0    0-nonsym 1-usesym 2-fastsym
   LCORR  =      T    Harris-Foulkes like correction to forces

   POTIM  = 0.5000    time-step for ionic-motion
   TEIN   =    0.0    initial temperature
   TEBEG  =    0.0;   TEEND  =   0.0 temperature during run
   SMASS  =  -3.00    Nose mass-parameter (am)
   estimated Nose-frequenzy (Omega)   =  0.10E-29 period in steps =****** mass=  -0.282E-26a.u.
   SCALEE = 1.0000    scale energy and forces
   NPACO  =    256;   APACO  = 16.0  distance and # of slots for P.C.
   PSTRESS=    0.0 pullay stress

  Mass of Ions in am
   POMASS =   7.01 16.00 32.07 55.85
  Ionic Valenz
   ZVAL   =   3.00  6.00  6.00 14.00
  Atomic Wigner-Seitz radii
   RWIGS  =  -1.00 -1.00 -1.00 -1.00
  virtual crystal weights 
   VCA    =   1.00  1.00  1.00  1.00
   NELECT =     736.0000    total number of electrons
   NUPDOWN=      -1.0000    fix difference up-down

 DOS related values:
   EMIN   =  10.00;   EMAX   =-10.00  energy-range for DOS
   EFERMI =   0.00
   ISMEAR =     0;   SIGMA  =   0.05  broadening in eV -4-tet -1-fermi 0-gaus

 Electronic relaxation 2 (details)
   IALGO  =     38    algorithm
   LDIAG  =      T    sub-space diagonalisation (order eigenvalues)
   LSUBROT=      F    optimize rotation matrix (better conditioning)
   TURBO    =      0    0=normal 1=particle mesh
   IRESTART =      0    0=no restart 2=restart with 2 vectors
   NREBOOT  =      0    no. of reboots
   NMIN     =      0    reboot dimension
   EREF     =   0.00    reference energy to select bands
   IMIX   =      4    mixing-type and parameters
     AMIX     =   0.40;   BMIX     =  1.00
     AMIX_MAG =   1.60;   BMIX_MAG =  1.00
     AMIN     =   0.10
     WC   =   100.;   INIMIX=   1;  MIXPRE=   1;  MAXMIX= -45

 Intra band minimization:
   WEIMIN = 0.0000     energy-eigenvalue tresh-hold
   EBREAK =  0.46E-09  absolut break condition
   DEPER  =   0.30     relativ break condition  

   TIME   =   0.40     timestep for ELM

  volume/ion in A,a.u.               =      14.32        96.62
  Fermi-wavevector in a.u.,A,eV,Ry     =   1.368520  2.586127 25.481613  1.872846
  Thomas-Fermi vector in A             =   2.494476
 
 Write flags
   LWAVE        =      F    write WAVECAR
   LDOWNSAMPLE  =      F    k-point downsampling of WAVECAR
   LCHARG       =      T    write CHGCAR
   LVTOT        =      F    write LOCPOT, total local potential
   LVHAR        =      F    write LOCPOT, Hartree potential only
   LELF         =      F    write electronic localiz. function (ELF)
   LORBIT       =      0    0 simple, 1 ext, 2 COOP (PROOUT), +10 PAW based schemes


 Dipole corrections
   LMONO  =      F    monopole corrections only (constant potential shift)
   LDIPOL =      F    correct potential (dipole corrections)
   IDIPOL =      0    1-x, 2-y, 3-z, 4-all directions 
   EPSILON=  1.0000000 bulk dielectric constant

 LDA+U is selected, type is set to LDAUTYPE =  2
   angular momentum for each species LDAUL =    -1   -1   -1    2
   U (eV)           for each species LDAUU =   0.0  0.0  0.0  4.0
   J (eV)           for each species LDAUJ =   0.0  0.0  0.0  0.0
 Exchange correlation treatment:
   GGA     =    PE    GGA type
   LEXCH   =     8    internal setting for exchange type
   VOSKOWN=      0    Vosko Wilk Nusair interpolation
   LHFCALC =     F    Hartree Fock is set to
   LHFONE  =     F    Hartree Fock one center treatment
   AEXX    =    0.0000 exact exchange contribution

 Linear response parameters
   LEPSILON=     F    determine dielectric tensor
   LRPA    =     F    only Hartree local field effects (RPA)
   LNABLA  =     F    use nabla operator in PAW spheres
   LVEL    =     F    velocity operator in full k-point grid
   LINTERFAST=   F  fast interpolation
   KINTER  =     0    interpolate to denser k-point grid
   CSHIFT  =0.1000    complex shift for real part using Kramers Kronig
   OMEGAMAX=  -1.0    maximum frequency
   DEG_THRESHOLD= 0.2000000E-02 threshold for treating states as degnerate
   RTIME   =   -0.100 relaxation time in fs
  (WPLASMAI=    0.000 imaginary part of plasma frequency in eV, 0.658/RTIME)
   DFIELD  = 0.0000000 0.0000000 0.0000000 field for delta impulse in time
 
 Orbital magnetization related:
   ORBITALMAG=     F  switch on orbital magnetization
   LCHIMAG   =     F  perturbation theory with respect to B field
   DQ        =  0.001000  dq finite difference perturbation B field
   LLRAUG    =     F  two centre corrections for induced B field



--------------------------------------------------------------------------------------------------------


 Static calculation
 charge density and potential will be updated during run
 spin polarized calculation
 Variant of blocked Davidson
 Davidson routine will perform the subspace rotation
 perform sub-space diagonalisation
    after iterative eigenvector-optimisation
 modified Broyden-mixing scheme, WC =      100.0
 initial mixing is a Kerker type mixing with AMIX =  0.4000 and BMIX =      1.0000
 Hartree-type preconditioning will be used
 using additional bands          170
 reciprocal scheme for non local part
 use partial core corrections
 calculate Harris-corrections to forces 
   (improved forces if not selfconsistent)
 use gradient corrections 
 use of overlap-Matrix (Vanderbilt PP)
 Gauss-broadening in eV      SIGMA  =   0.05


--------------------------------------------------------------------------------------------------------


  energy-cutoff  :      650.00
  volume of cell :     1259.94
      direct lattice vectors                 reciprocal lattice vectors
    11.112233740  0.000000000 -0.000290340     0.089991547  0.000000000  0.024487024
     0.000000000 11.117451940  0.000000000     0.000000000  0.089948669  0.000000000
    -2.775108980  0.000000000 10.198722210     0.000002562  0.000000000  0.098052196

  length of vectors
    11.112233744 11.117451940 10.569539468     0.093263567  0.089948669  0.098052196


 
 k-points in units of 2pi/SCALE and weight: # No comment                            
   0.00000000  0.00000000  0.00000000       0.037
   0.02999718  0.00000000  0.00816234       0.074
   0.00000000  0.02998289  0.00000000       0.074
   0.02999718  0.02998289  0.00816234       0.074
  -0.02999718  0.02998289 -0.00816234       0.074
   0.00000085  0.00000000  0.03268407       0.074
   0.02999804  0.00000000  0.04084641       0.074
  -0.02999633  0.00000000  0.02452172       0.074
   0.00000085  0.02998289  0.03268407       0.074
   0.02999804  0.02998289  0.04084641       0.074
  -0.02999633  0.02998289  0.02452172       0.074
   0.00000085 -0.02998289  0.03268407       0.074
   0.02999804 -0.02998289  0.04084641       0.074
  -0.02999633 -0.02998289  0.02452172       0.074
 
 k-points in reciprocal lattice and weights: # No comment                            
   0.00000000  0.00000000  0.00000000       0.037
   0.33333333  0.00000000  0.00000000       0.074
   0.00000000  0.33333333  0.00000000       0.074
   0.33333333  0.33333333  0.00000000       0.074
  -0.33333333  0.33333333 -0.00000000       0.074
   0.00000000  0.00000000  0.33333333       0.074
   0.33333333  0.00000000  0.33333333       0.074
  -0.33333333  0.00000000  0.33333333       0.074
   0.00000000  0.33333333  0.33333333       0.074
   0.33333333  0.33333333  0.33333333       0.074
  -0.33333333  0.33333333  0.33333333       0.074
   0.00000000 -0.33333333  0.33333333       0.074
   0.33333333 -0.33333333  0.33333333       0.074
  -0.33333333 -0.33333333  0.33333333       0.074
 
 position of ions in fractional coordinates (direct lattice) 
   0.28894969  0.46933910  0.15583616
   0.78894969  0.46933910  0.15583616
   0.28894969  0.96933910  0.15583616
   0.78894969  0.96933910  0.15583616
   0.04646972  0.21934976  0.18586770
   0.54646972  0.21934976  0.18586770
   0.04646972  0.71934976  0.18586770
   0.54646972  0.71934976  0.18586770
   0.45353028  0.46934976  0.81413230
   0.95353028  0.46934976  0.81413230
   0.45353028  0.96934976  0.81413230
   0.95353028  0.96934976  0.81413230
   0.21105031  0.21933910  0.84416384
   0.71105031  0.21933910  0.84416384
   0.21105031  0.71933910  0.84416384
   0.71105031  0.71933910  0.84416384
   0.07654971  0.09530995  0.80250593
   0.57654971  0.09530995  0.80250593
   0.07654971  0.59530995  0.80250593
   0.57654971  0.59530995  0.80250593
   0.32470466  0.34338175  0.80250383
   0.82470466  0.34338175  0.80250383
   0.32470466  0.84338175  0.80250383
   0.82470466  0.84338175  0.80250383
   0.17529534  0.09338175  0.19749617
   0.67529534  0.09338175  0.19749617
   0.17529534  0.59338175  0.19749617
   0.67529534  0.59338175  0.19749617
   0.42345029  0.34530995  0.19749407
   0.92345029  0.34530995  0.19749407
   0.42345029  0.84530995  0.19749407
   0.92345029  0.84530995  0.19749407
   0.21868463  0.34523395  0.37007864
   0.71868463  0.34523395  0.37102476
   0.21868463  0.84523395  0.37102476
   0.71868463  0.84523395  0.37102476
   0.46681660  0.09344897  0.37102399
   0.96681660  0.09344897  0.37102399
   0.46681660  0.59344897  0.37102399
   0.96681660  0.59344897  0.37102399
   0.03318340  0.34344897  0.62897601
   0.53318340  0.34344897  0.62897601
   0.03318340  0.84344897  0.62897601
   0.53318340  0.84344897  0.62897601
   0.28131537  0.09523395  0.62897524
   0.78131537  0.09523395  0.62897524
   0.28131537  0.59523395  0.62897524
   0.78131537  0.59523395  0.62897524
   0.12439279  0.34434306  0.00000412
   0.62439279  0.34434306  0.00000412
   0.12439279  0.84434306  0.00000412
   0.62439279  0.84434306  0.00000412
   0.37560721  0.09434306  0.99999588
   0.87560721  0.09434306  0.99999588
   0.37560721  0.59434306  0.99999588
   0.87560721  0.59434306  0.99999588
   0.03824426  0.10634799  0.60632306
   0.53824426  0.10634799  0.60632306
   0.03824426  0.60634799  0.60632306
   0.53824426  0.60634799  0.60632306
   0.26492712  0.33232651  0.60632763
   0.76492712  0.33232651  0.60632763
   0.26492712  0.83232651  0.60632763
   0.76492712  0.83232651  0.60632763
   0.23507288  0.08232651  0.39367237
   0.73507288  0.08232651  0.39367237
   0.23507288  0.58232651  0.39367237
   0.73507288  0.58232651  0.39367237
   0.46175574  0.35634799  0.39367694
   0.96175574  0.35634799  0.39367694
   0.46175574  0.85634799  0.39367694
   0.96175574  0.85634799  0.39367694
   0.03848398  0.46936404  0.15397331
   0.53848398  0.46936404  0.15397331
   0.03848398  0.96936404  0.15397331
   0.53848398  0.96936404  0.15397331
   0.28861657  0.21935690  0.15447525
   0.78861657  0.21935690  0.15447525
   0.28861657  0.71935690  0.15447525
   0.78861657  0.71935690  0.15447525
   0.21138343  0.46935690  0.84552475
   0.71138343  0.46935690  0.84552475
   0.21138343  0.96935690  0.84552475
   0.71138343  0.96935690  0.84552475
   0.46151602  0.21936404  0.84602669
   0.96151602  0.21936404  0.84602669
   0.46151602  0.71936404  0.84602669
   0.96151602  0.71936404  0.84602669
 
 position of ions in cartesian coordinates  (Angst):
   2.77841422  5.21785483  1.58924581
   8.33453109  5.21785483  1.58910064
   2.77841422 10.77658080  1.58924581
   8.33453109 10.77658080  1.58910064
   0.00057921  2.43861041  1.89559955
   5.55669608  2.43861041  1.89545438
   0.00057921  7.99733638  1.89559955
   5.55669608  7.99733638  1.89545438
   2.78042868  5.21797340  8.30297749
   8.33654555  5.21797340  8.30283232
   2.78042868 10.77669937  8.30297749
   8.33654555 10.77669937  8.30283232
   0.00259367  2.43849185  8.60933123
   5.55871054  2.43849185  8.60918606
   0.00259367  7.99721782  8.60933123
   5.55871054  7.99721782  8.60918606
  -1.37640314  1.05960384  8.18451283
   4.17971373  1.05960384  8.18436766
  -1.37640314  6.61832981  8.18451283
   4.17971373  6.61832981  8.18436766
   1.38115855  3.81753010  8.18441936
   6.93727542  3.81753010  8.18427419
   1.38115855  9.37625607  8.18441936
   6.93727542  9.37625607  8.18427419
   1.39984934  1.03816712  2.01415768
   6.95596621  1.03816712  2.01401251
   1.39984934  6.59689309  2.01415768
   6.95596621  6.59689309  2.01401251
   4.15741103  3.83896683  2.01406421
   9.71352790  3.83896683  2.01391904
   4.15741103  9.39769280  2.01406421
   9.71352790  9.39769280  2.01391904
   1.40306615  3.83812185  3.77426580
   6.95655745  3.83812185  3.78376980
   1.40044058  9.39684782  3.78391497
   6.95655745  9.39684782  3.78376980
   4.15774317  1.03891443  3.78383507
   9.71386004  1.03891443  3.78368990
   4.15774317  6.59764040  3.78383507
   9.71386004  6.59764040  3.78368990
  -1.37673528  3.81827742  6.41474197
   4.17938159  3.81827742  6.41459680
  -1.37673528  9.37700339  6.41474197
   4.17938159  9.37700339  6.41459680
   1.38056731  1.05875886  6.41466207
   6.93668418  1.05875886  6.41451690
   1.38056731  6.61748483  6.41466207
   6.93668418  6.61748483  6.41451690
   1.38227032  3.82821742  0.00000590
   6.93838719  3.82821742 -0.00013927
   1.38227032  9.38694339  0.00000590
   6.93838719  9.38694339 -0.00013927
   1.39873757  1.04885444 10.19857114
   6.95485444  1.04885444 10.19842597
   1.39873757  6.60758041 10.19857114
   6.95485444  6.60758041 10.19842597
  -1.25763347  1.18231867  6.18370935
   4.29848340  1.18231867  6.18356418
  -1.25763347  6.74104464  6.18370935
   4.29848340  6.74104464  6.18356418
   1.26130689  3.69462400  6.18369015
   6.81742376  3.69462400  6.18354498
   1.26130689  9.25334997  6.18369015
   6.81742376  9.25334997  6.18354498
   1.51970100  0.91526102  4.01488689
   7.07581787  0.91526102  4.01474172
   1.51970100  6.47398699  4.01488689
   7.07581787  6.47398699  4.01474172
   4.03864136  3.96168165  4.01486769
   9.59475823  3.96168165  4.01472252
   4.03864136  9.52040762  4.01486769
   9.59475823  9.52040762  4.01472252
   0.00035027  5.21813216  1.57031984
   5.55646714  5.21813216  1.57017467
   0.00035027 10.77685813  1.57031984
   5.55646714 10.77685813  1.57017467
   2.77848919  2.43868979  1.57536637
   8.33460606  2.43868979  1.57522120
   2.77848919  7.99741576  1.57536637
   8.33460606  7.99741576  1.57522120
   0.00251870  5.21805278  8.62321067
   5.55863557  5.21805278  8.62306550
   0.00251870 10.77677875  8.62321067
   5.55863557 10.77677875  8.62306550
   2.78065762  2.43876917  8.62825720
   8.33677449  2.43876917  8.62811203
   2.78065762  7.99749514  8.62825720
   8.33677449  7.99749514  8.62811203
 


--------------------------------------------------------------------------------------------------------


 k-point  1 :   0.0000 0.0000 0.0000  plane waves:   47369
 k-point  2 :   0.3333 0.0000 0.0000  plane waves:   47373
 k-point  3 :   0.0000 0.3333 0.0000  plane waves:   47370
 k-point  4 :   0.3333 0.3333 0.0000  plane waves:   47404
 k-point  5 :  -0.3333 0.3333-0.0000  plane waves:   47404
 k-point  6 :   0.0000 0.0000 0.3333  plane waves:   47419
 k-point  7 :   0.3333 0.0000 0.3333  plane waves:   47399
 k-point  8 :  -0.3333 0.0000 0.3333  plane waves:   47417
 k-point  9 :   0.0000 0.3333 0.3333  plane waves:   47409
 k-point 10 :   0.3333 0.3333 0.3333  plane waves:   47422
 k-point 11 :  -0.3333 0.3333 0.3333  plane waves:   47440
 k-point 12 :   0.0000-0.3333 0.3333  plane waves:   47409
 k-point 13 :   0.3333-0.3333 0.3333  plane waves:   47422
 k-point 14 :  -0.3333-0.3333 0.3333  plane waves:   47440

 maximum and minimum number of plane-waves per node :      7942     7858

 maximum number of plane-waves:     47440
 maximum index in each direction: 
   IXMAX=   23   IYMAX=   23   IZMAX=   21
   IXMIN=  -23   IYMIN=  -23   IZMIN=  -22


 parallel 3D FFT for wavefunctions:
    minimum data exchange during FFTs selected (reduces bandwidth)
 parallel 3D FFT for charge:
    minimum data exchange during FFTs selected (reduces bandwidth)


 total amount of memory used by VASP MPI-rank0  1233264. kBytes
=======================================================================

   base      :      30000. kBytes
   nonl-proj :      75226. kBytes
   fftplans  :      85054. kBytes
   grid      :      64684. kBytes
   one-center:        466. kBytes
   wavefun   :     977834. kBytes
 
     INWAV:  cpu time    0.0000: real time    0.0000
 Broyden mixing: mesh for mixing (old mesh)
   NGX = 47   NGY = 47   NGZ = 43
  (NGX  =192   NGY  =192   NGZ  =180)
  gives a total of  94987 points

 initial charge density was supplied:
 number of electron     736.0000016 magnetization     127.9999885
 keeping initial charge density in first step


--------------------------------------------------------------------------------------------------------


 Maximum index for augmentation-charges        13229 (set IRDMAX)


--------------------------------------------------------------------------------------------------------


 First call to EWALD:  gamma=   0.164
 Maximum number of real-space cells 3x 3x 3
 Maximum number of reciprocal cells 3x 3x 3

    FEWALD:  cpu time    0.0046: real time    0.0049


--------------------------------------- Iteration      1(   1)  ---------------------------------------


    POTLOK:  cpu time    1.0418: real time    1.0838
    SETDIJ:  cpu time    2.3038: real time    2.3310
     EDDAV:  cpu time  316.6037: real time  319.4957
       DOS:  cpu time    0.0080: real time    0.0080
    --------------------------------------------
      LOOP:  cpu time  319.9572: real time  322.9185

 eigenvalue-minimisations  : 30944
 total energy-change (2. order) : 0.1040962E+05  (-0.4118844E+05)
 number of electron     736.0000016 magnetization     127.9999885
 augmentation part      736.0000016 magnetization     127.9999885

 Free energy of the ion-electron system (eV)
  ---------------------------------------------------
  alpha Z        PSCENC =      2314.49656628
  Ewald energy   TEWEN  =    -57723.28515709
  -Hartree energ DENC   =    -30348.68831218
  -exchange      EXHF   =         0.00000000
  -V(xc)+E(xc)   XCENC  =      3229.29531941
  PAW double counting   =     92679.89207989   -95535.38516353
  entropy T*S    EENTRO =        -0.01852473
  eigenvalues    EBANDS =       349.83245404
  atomic energy  EATOM  =     95443.47970955
  Solvation  Ediel_sol  =         0.00000000
  ---------------------------------------------------
  free energy    TOTEN  =     10409.61897165 eV

  energy without entropy =    10409.63749637  energy(sigma->0) =    10409.62823401


--------------------------------------------------------------------------------------------------------




--------------------------------------- Iteration      1(   2)  ---------------------------------------


     EDDAV:  cpu time  310.1099: real time  313.2751
       DOS:  cpu time    0.0075: real time    0.0077
    --------------------------------------------
      LOOP:  cpu time  310.1174: real time  313.2828

 eigenvalue-minimisations  : 30128
 total energy-change (2. order) :-0.9232135E+04  (-0.8658341E+04)
 number of electron     736.0000016 magnetization     127.9999885
 augmentation part      736.0000016 magnetization     127.9999885

 Free energy of the ion-electron system (eV)
  ---------------------------------------------------
  alpha Z        PSCENC =      2314.49656628
  Ewald energy   TEWEN  =    -57723.28515709
  -Hartree energ DENC   =    -30348.68831218
  -exchange      EXHF   =         0.00000000
  -V(xc)+E(xc)   XCENC  =      3229.29531941
  PAW double counting   =     92679.89207989   -95535.38516353
  entropy T*S    EENTRO =        -0.06584777
  eigenvalues    EBANDS =     -8882.25503051
  atomic energy  EATOM  =     95443.47970955
  Solvation  Ediel_sol  =         0.00000000
  ---------------------------------------------------
  free energy    TOTEN  =      1177.48416406 eV

  energy without entropy =     1177.55001182  energy(sigma->0) =     1177.51708794


--------------------------------------------------------------------------------------------------------




--------------------------------------- Iteration      1(   3)  ---------------------------------------


     EDDAV:  cpu time  327.2300: real time  330.7313
       DOS:  cpu time    0.0026: real time    0.0026
    --------------------------------------------
      LOOP:  cpu time  327.2326: real time  330.7339

 eigenvalue-minimisations  : 32384
 total energy-change (2. order) :-0.1485633E+04  (-0.1278925E+04)
 number of electron     736.0000016 magnetization     127.9999885
 augmentation part      736.0000016 magnetization     127.9999885

 Free energy of the ion-electron system (eV)
  ---------------------------------------------------
  alpha Z        PSCENC =      2314.49656628
  Ewald energy   TEWEN  =    -57723.28515709
  -Hartree energ DENC   =    -30348.68831218
  -exchange      EXHF   =         0.00000000
  -V(xc)+E(xc)   XCENC  =      3229.29531941
  PAW double counting   =     92679.89207989   -95535.38516353
  entropy T*S    EENTRO =        -0.00000000
  eigenvalues    EBANDS =    -10367.95349771
  atomic energy  EATOM  =     95443.47970955
  Solvation  Ediel_sol  =         0.00000000
  ---------------------------------------------------
  free energy    TOTEN  =      -308.14845538 eV

  energy without entropy =     -308.14845538  energy(sigma->0) =     -308.14845538


--------------------------------------------------------------------------------------------------------




--------------------------------------- Iteration      1(   4)  ---------------------------------------


     EDDAV:  cpu time  349.2988: real time  353.0679
       DOS:  cpu time    0.0024: real time    0.0024
    --------------------------------------------
      LOOP:  cpu time  349.3012: real time  353.0703

 eigenvalue-minimisations  : 35008
 total energy-change (2. order) :-0.1681557E+03  (-0.1654055E+03)
 number of electron     736.0000016 magnetization     127.9999885
 augmentation part      736.0000016 magnetization     127.9999885

 Free energy of the ion-electron system (eV)
  ---------------------------------------------------
  alpha Z        PSCENC =      2314.49656628
  Ewald energy   TEWEN  =    -57723.28515709
  -Hartree energ DENC   =    -30348.68831218
  -exchange      EXHF   =         0.00000000
  -V(xc)+E(xc)   XCENC  =      3229.29531941
  PAW double counting   =     92679.89207989   -95535.38516353
  entropy T*S    EENTRO =        -0.00000000
  eigenvalues    EBANDS =    -10536.10923951
  atomic energy  EATOM  =     95443.47970955
  Solvation  Ediel_sol  =         0.00000000
  ---------------------------------------------------
  free energy    TOTEN  =      -476.30419717 eV

  energy without entropy =     -476.30419717  energy(sigma->0) =     -476.30419717


--------------------------------------------------------------------------------------------------------




--------------------------------------- Iteration      1(   5)  ---------------------------------------


     EDDAV:  cpu time  463.5141: real time  467.8800
       DOS:  cpu time    0.0025: real time    0.0026
    CHARGE:  cpu time    9.1657: real time    9.4157
    MIXING:  cpu time    0.0329: real time    0.0364
    --------------------------------------------
      LOOP:  cpu time  472.7153: real time  477.3347

 eigenvalue-minimisations  : 49824
 total energy-change (2. order) :-0.1243005E+02  (-0.1230690E+02)
 number of electron     736.0000016 magnetization     127.9999932
 augmentation part      278.4626768 magnetization      84.1357509

 Broyden mixing:
  rms(total) = 0.20765E+00    rms(broyden)= 0.20748E+00
  rms(prec ) = 0.21111E+00
  weight for this iteration     100.00

 Free energy of the ion-electron system (eV)
  ---------------------------------------------------
  alpha Z        PSCENC =      2314.49656628
  Ewald energy   TEWEN  =    -57723.28515709
  -Hartree energ DENC   =    -30348.68831218
  -exchange      EXHF   =         0.00000000
  -V(xc)+E(xc)   XCENC  =      3229.29531941
  PAW double counting   =     92679.89207989   -95535.38516353
  entropy T*S    EENTRO =        -0.00000000
  eigenvalues    EBANDS =    -10548.53929244
  atomic energy  EATOM  =     95443.47970955
  Solvation  Ediel_sol  =         0.00000000
  ---------------------------------------------------
  free energy    TOTEN  =      -488.73425011 eV

  energy without entropy =     -488.73425011  energy(sigma->0) =     -488.73425011


--------------------------------------------------------------------------------------------------------




--------------------------------------- Iteration      1(   6)  ---------------------------------------


    POTLOK:  cpu time    1.0456: real time    1.0643
    SETDIJ:  cpu time    2.2589: real time    2.2832
     EDDAV:  cpu time  402.8291: real time  407.1244
       DOS:  cpu time    0.0026: real time    0.0026
    CHARGE:  cpu time    9.1974: real time    9.3386
    MIXING:  cpu time    0.0349: real time    0.0365
    --------------------------------------------
      LOOP:  cpu time  415.3685: real time  419.8497

 eigenvalue-minimisations  : 41984
 total energy-change (2. order) :-0.4661786E+00  (-0.4803439E+00)
 number of electron     736.0000016 magnetization     127.9999951
 augmentation part      277.9612908 magnetization      84.1641766

 Broyden mixing:
  rms(total) = 0.10183E+00    rms(broyden)= 0.10167E+00
  rms(prec ) = 0.10253E+00
  weight for this iteration     100.00

 eigenvalues of (default mixing * dielectric matrix)
  average eigenvalue GAMMA=   0.6633
  0.6633

 Free energy of the ion-electron system (eV)
  ---------------------------------------------------
  alpha Z        PSCENC =      2314.49656628
  Ewald energy   TEWEN  =    -57723.28515709
  -Hartree energ DENC   =    -30346.84275061
  -exchange      EXHF   =         0.00000000
  -V(xc)+E(xc)   XCENC  =      3228.99733732
  PAW double counting   =     92521.34873353   -95375.17442822
  entropy T*S    EENTRO =        -0.00000000
  eigenvalues    EBANDS =    -10552.22043943
  atomic energy  EATOM  =     95443.47970955
  Solvation  Ediel_sol  =         0.00000000
  ---------------------------------------------------
  free energy    TOTEN  =      -489.20042867 eV

  energy without entropy =     -489.20042867  energy(sigma->0) =     -489.20042867


--------------------------------------------------------------------------------------------------------




--------------------------------------- Iteration      1(   7)  ---------------------------------------


    POTLOK:  cpu time    1.0373: real time    1.0647
    SETDIJ:  cpu time    2.2573: real time    2.2905
     EDDAV:  cpu time  436.4632: real time  441.1460
       DOS:  cpu time    0.0026: real time    0.0026
    CHARGE:  cpu time    9.3826: real time    9.4061
    MIXING:  cpu time    0.0316: real time    0.0316
    --------------------------------------------
      LOOP:  cpu time  449.1746: real time  453.9415

 eigenvalue-minimisations  : 46320
 total energy-change (2. order) :-0.1669633E-01  (-0.1756113E-01)
 number of electron     736.0000016 magnetization     127.9999959
 augmentation part      277.8794843 magnetization      84.1560947

 Broyden mixing:
  rms(total) = 0.59029E-01    rms(broyden)= 0.58987E-01
  rms(prec ) = 0.60451E-01
  weight for this iteration     100.00

 eigenvalues of (default mixing * dielectric matrix)
  average eigenvalue GAMMA=   0.5716
  0.5716  0.5716

 Free energy of the ion-electron system (eV)
  ---------------------------------------------------
  alpha Z        PSCENC =      2314.49656628
  Ewald energy   TEWEN  =    -57723.28515709
  -Hartree energ DENC   =    -30347.79221318
  -exchange      EXHF   =         0.00000000
  -V(xc)+E(xc)   XCENC  =      3229.08274821
  PAW double counting   =     92579.19845519   -95433.60769670
  entropy T*S    EENTRO =        -0.00000000
  eigenvalues    EBANDS =    -10550.78953725
  atomic energy  EATOM  =     95443.47970955
  Solvation  Ediel_sol  =         0.00000000
  ---------------------------------------------------
  free energy    TOTEN  =      -489.21712499 eV

  energy without entropy =     -489.21712499  energy(sigma->0) =     -489.21712499


--------------------------------------------------------------------------------------------------------




--------------------------------------- Iteration      1(   8)  ---------------------------------------


    POTLOK:  cpu time    1.0510: real time    1.0939
    SETDIJ:  cpu time    2.2680: real time    2.2727
     EDDAV:  cpu time  409.1849: real time  413.5624
       DOS:  cpu time    0.0030: real time    0.0030
    CHARGE:  cpu time    9.2624: real time    9.3492
    MIXING:  cpu time    0.0360: real time    0.0360
    --------------------------------------------
      LOOP:  cpu time  421.8052: real time  426.3171

 eigenvalue-minimisations  : 42808
 total energy-change (2. order) : 0.4762032E-03  (-0.3588886E-03)
 number of electron     736.0000016 magnetization     127.9999963
 augmentation part      277.8713775 magnetization      84.1579792

 Broyden mixing:
  rms(total) = 0.52770E-01    rms(broyden)= 0.52767E-01
  rms(prec ) = 0.54020E-01
  weight for this iteration     100.00

 eigenvalues of (default mixing * dielectric matrix)
  average eigenvalue GAMMA=   0.5475
  0.6005  0.6005  0.4414

 Free energy of the ion-electron system (eV)
  ---------------------------------------------------
  alpha Z        PSCENC =      2314.49656628
  Ewald energy   TEWEN  =    -57723.28515709
  -Hartree energ DENC   =    -30347.74389175
  -exchange      EXHF   =         0.00000000
  -V(xc)+E(xc)   XCENC  =      3229.11097734
  PAW double counting   =     92592.50745910   -95447.04656597
  entropy T*S    EENTRO =        -0.00000000
  eigenvalues    EBANDS =    -10550.73574625
  atomic energy  EATOM  =     95443.47970955
  Solvation  Ediel_sol  =         0.00000000
  ---------------------------------------------------
  free energy    TOTEN  =      -489.21664879 eV

  energy without entropy =     -489.21664879  energy(sigma->0) =     -489.21664879


--------------------------------------------------------------------------------------------------------




--------------------------------------- Iteration      1(   9)  ---------------------------------------


    POTLOK:  cpu time    1.0505: real time    1.0531
    SETDIJ:  cpu time    2.2845: real time    2.2858
     EDDAV:  cpu time  448.7136: real time  453.4536
       DOS:  cpu time    0.0028: real time    0.0028
    CHARGE:  cpu time    9.2754: real time    9.3086
    MIXING:  cpu time    0.0369: real time    0.0370
    --------------------------------------------
      LOOP:  cpu time  461.3636: real time  466.1409

 eigenvalue-minimisations  : 47920
 total energy-change (2. order) : 0.3915662E-03  (-0.2138371E-04)
 number of electron     736.0000016 magnetization     127.9999973
 augmentation part      277.8735889 magnetization      84.1579883

 Broyden mixing:
  rms(total) = 0.47066E-01    rms(broyden)= 0.47065E-01
  rms(prec ) = 0.48151E-01
  weight for this iteration     100.00

 eigenvalues of (default mixing * dielectric matrix)
  average eigenvalue GAMMA=   0.6150
  0.7408  0.7408  0.4893  0.4893

 Free energy of the ion-electron system (eV)
  ---------------------------------------------------
  alpha Z        PSCENC =      2314.49656628
  Ewald energy   TEWEN  =    -57723.28515709
  -Hartree energ DENC   =    -30347.81129487
  -exchange      EXHF   =         0.00000000
  -V(xc)+E(xc)   XCENC  =      3229.13192307
  PAW double counting   =     92599.68096390   -95454.31683751
  entropy T*S    EENTRO =        -0.00000000
  eigenvalues    EBANDS =    -10550.59213056
  atomic energy  EATOM  =     95443.47970955
  Solvation  Ediel_sol  =         0.00000000
  ---------------------------------------------------
  free energy    TOTEN  =      -489.21625723 eV

  energy without entropy =     -489.21625723  energy(sigma->0) =     -489.21625723


--------------------------------------------------------------------------------------------------------




--------------------------------------- Iteration      1(  10)  ---------------------------------------


    POTLOK:  cpu time    1.0495: real time    1.0544
    SETDIJ:  cpu time    2.2832: real time    2.2940
     EDDAV:  cpu time  440.9533: real time  445.6552
       DOS:  cpu time    0.0029: real time    0.0031
    CHARGE:  cpu time    9.2977: real time    9.3913
    MIXING:  cpu time    0.0360: real time    0.0438
    --------------------------------------------
      LOOP:  cpu time  453.6225: real time  458.4418

 eigenvalue-minimisations  : 46904
 total energy-change (2. order) : 0.6382031E-03  (-0.2572388E-04)
 number of electron     736.0000016 magnetization     127.9999991
 augmentation part      277.8802618 magnetization      84.1585919

 Broyden mixing:
  rms(total) = 0.34738E-01    rms(broyden)= 0.34738E-01
  rms(prec ) = 0.35423E-01
  weight for this iteration     100.00

 eigenvalues of (default mixing * dielectric matrix)
  average eigenvalue GAMMA=   0.8549
  1.3213  1.3213  0.5865  0.5865  0.4592

 Free energy of the ion-electron system (eV)
  ---------------------------------------------------
  alpha Z        PSCENC =      2314.49656628
  Ewald energy   TEWEN  =    -57723.28515709
  -Hartree energ DENC   =    -30348.05619733
  -exchange      EXHF   =         0.00000000
  -V(xc)+E(xc)   XCENC  =      3229.18246953
  PAW double counting   =     92617.68013172   -95472.55703797
  entropy T*S    EENTRO =        -0.00000000
  eigenvalues    EBANDS =    -10550.15610372
  atomic energy  EATOM  =     95443.47970955
  Solvation  Ediel_sol  =         0.00000000
  ---------------------------------------------------
  free energy    TOTEN  =      -489.21561902 eV

  energy without entropy =     -489.21561902  energy(sigma->0) =     -489.21561902


--------------------------------------------------------------------------------------------------------




--------------------------------------- Iteration      1(  11)  ---------------------------------------


    POTLOK:  cpu time    1.0412: real time    1.0662
    SETDIJ:  cpu time    2.2670: real time    2.2899
     EDDAV:  cpu time  395.8041: real time  399.8533
       DOS:  cpu time    0.0026: real time    0.0026
    CHARGE:  cpu time    9.0815: real time    9.3391
    MIXING:  cpu time    0.0387: real time    0.0388
    --------------------------------------------
      LOOP:  cpu time  408.2351: real time  412.5897

 eigenvalue-minimisations  : 41072
 total energy-change (2. order) : 0.5189130E-03  (-0.4922820E-04)
 number of electron     736.0000016 magnetization     127.9999995
 augmentation part      277.8884566 magnetization      84.1593949

 Broyden mixing:
  rms(total) = 0.14790E-01    rms(broyden)= 0.14789E-01
  rms(prec ) = 0.14919E-01
  weight for this iteration     100.00

 eigenvalues of (default mixing * dielectric matrix)
  average eigenvalue GAMMA=   0.8768
  1.4434  1.4434  0.6705  0.6705  0.5166  0.5166

 Free energy of the ion-electron system (eV)
  ---------------------------------------------------
  alpha Z        PSCENC =      2314.49656628
  Ewald energy   TEWEN  =    -57723.28515709
  -Hartree energ DENC   =    -30348.43887277
  -exchange      EXHF   =         0.00000000
  -V(xc)+E(xc)   XCENC  =      3229.26133511
  PAW double counting   =     92649.45812486   -95504.72460503
  entropy T*S    EENTRO =        -0.00000000
  eigenvalues    EBANDS =    -10549.46220102
  atomic energy  EATOM  =     95443.47970955
  Solvation  Ediel_sol  =         0.00000000
  ---------------------------------------------------
  free energy    TOTEN  =      -489.21510011 eV

  energy without entropy =     -489.21510011  energy(sigma->0) =     -489.21510011


--------------------------------------------------------------------------------------------------------




--------------------------------------- Iteration      1(  12)  ---------------------------------------


    POTLOK:  cpu time    1.0455: real time    1.0518
    SETDIJ:  cpu time    2.2791: real time    2.3046
     EDDAV:  cpu time  376.9531: real time  381.5263
       DOS:  cpu time    0.0025: real time    0.0025
    CHARGE:  cpu time    9.4248: real time    9.4341
    MIXING:  cpu time    0.0369: real time    0.0370
    --------------------------------------------
      LOOP:  cpu time  389.7419: real time  394.3563

 eigenvalue-minimisations  : 38744
 total energy-change (2. order) : 0.1351182E-04  (-0.1720776E-04)
 number of electron     736.0000016 magnetization     127.9999996
 augmentation part      277.8904225 magnetization      84.1592504

 Broyden mixing:
  rms(total) = 0.10014E-01    rms(broyden)= 0.10013E-01
  rms(prec ) = 0.10068E-01
  weight for this iteration     100.00

 eigenvalues of (default mixing * dielectric matrix)
  average eigenvalue GAMMA=   0.9105
  1.5766  1.5766  0.8119  0.8119  0.5558  0.5558  0.4849

 Free energy of the ion-electron system (eV)
  ---------------------------------------------------
  alpha Z        PSCENC =      2314.49656628
  Ewald energy   TEWEN  =    -57723.28515709
  -Hartree energ DENC   =    -30348.51556775
  -exchange      EXHF   =         0.00000000
  -V(xc)+E(xc)   XCENC  =      3229.27602808
  PAW double counting   =     92657.95948304   -95513.30180893
  entropy T*S    EENTRO =        -0.00000000
  eigenvalues    EBANDS =    -10549.32433978
  atomic energy  EATOM  =     95443.47970955
  Solvation  Ediel_sol  =         0.00000000
  ---------------------------------------------------
  free energy    TOTEN  =      -489.21508660 eV

  energy without entropy =     -489.21508660  energy(sigma->0) =     -489.21508660


--------------------------------------------------------------------------------------------------------




--------------------------------------- Iteration      1(  13)  ---------------------------------------


    POTLOK:  cpu time    1.0493: real time    1.0507
    SETDIJ:  cpu time    2.1922: real time    2.2903
     EDDAV:  cpu time  376.9924: real time  380.9550
       DOS:  cpu time    0.0027: real time    0.0027
    CHARGE:  cpu time    9.3419: real time    9.3968
    MIXING:  cpu time    0.0416: real time    0.0418
    --------------------------------------------
      LOOP:  cpu time  389.6202: real time  393.7373

 eigenvalue-minimisations  : 38776
 total energy-change (2. order) :-0.5985319E-05  (-0.2219895E-05)
 number of electron     736.0000016 magnetization     128.0000000
 augmentation part      277.8919504 magnetization      84.1592257

 Broyden mixing:
  rms(total) = 0.89839E-02    rms(broyden)= 0.89831E-02
  rms(prec ) = 0.90369E-02
  weight for this iteration     100.00

 eigenvalues of (default mixing * dielectric matrix)
  average eigenvalue GAMMA=   1.0456
  2.1269  2.1269  0.9580  0.9580  0.6122  0.6122  0.4852  0.4852

 Free energy of the ion-electron system (eV)
  ---------------------------------------------------
  alpha Z        PSCENC =      2314.49656628
  Ewald energy   TEWEN  =    -57723.28515709
  -Hartree energ DENC   =    -30348.52409271
  -exchange      EXHF   =         0.00000000
  -V(xc)+E(xc)   XCENC  =      3229.27666310
  PAW double counting   =     92660.13305958   -95515.48018549
  entropy T*S    EENTRO =        -0.00000000
  eigenvalues    EBANDS =    -10549.31165580
  atomic energy  EATOM  =     95443.47970955
  Solvation  Ediel_sol  =         0.00000000
  ---------------------------------------------------
  free energy    TOTEN  =      -489.21509258 eV

  energy without entropy =     -489.21509258  energy(sigma->0) =     -489.21509258


--------------------------------------------------------------------------------------------------------




--------------------------------------- Iteration      1(  14)  ---------------------------------------


    POTLOK:  cpu time    1.0508: real time    1.0526
    SETDIJ:  cpu time    2.2893: real time    2.2907
     EDDAV:  cpu time  248.6354: real time  251.2658
       DOS:  cpu time    0.0025: real time    0.0025
    CHARGE:  cpu time    9.2064: real time    9.3929
    MIXING:  cpu time    0.0459: real time    0.0482
    --------------------------------------------
      LOOP:  cpu time  261.2304: real time  264.0528

 eigenvalue-minimisations  : 22248
 total energy-change (2. order) : 0.1857334E-05  (-0.1727162E-06)
 number of electron     736.0000016 magnetization     128.0000004
 augmentation part      277.8919017 magnetization      84.1591937

 Broyden mixing:
  rms(total) = 0.51294E-02    rms(broyden)= 0.51282E-02
  rms(prec ) = 0.51842E-02
  weight for this iteration     100.00

 eigenvalues of (default mixing * dielectric matrix)
  average eigenvalue GAMMA=   1.1112
  2.3175  2.3175  1.1099  1.1099  0.7323  0.7323  0.5740  0.5740  0.5334

 Free energy of the ion-electron system (eV)
  ---------------------------------------------------
  alpha Z        PSCENC =      2314.49656628
  Ewald energy   TEWEN  =    -57723.28515709
  -Hartree energ DENC   =    -30348.58047735
  -exchange      EXHF   =         0.00000000
  -V(xc)+E(xc)   XCENC  =      3229.28360429
  PAW double counting   =     92668.23024344   -95523.62298465
  entropy T*S    EENTRO =        -0.00000000
  eigenvalues    EBANDS =    -10549.21659520
  atomic energy  EATOM  =     95443.47970955
  Solvation  Ediel_sol  =         0.00000000
  ---------------------------------------------------
  free energy    TOTEN  =      -489.21509073 eV

  energy without entropy =     -489.21509073  energy(sigma->0) =     -489.21509073


--------------------------------------------------------------------------------------------------------




--------------------------------------- Iteration      1(  15)  ---------------------------------------


    POTLOK:  cpu time    1.0421: real time    1.0548
    SETDIJ:  cpu time    2.3086: real time    2.3284
     EDDAV:  cpu time  309.9898: real time  313.6749
       DOS:  cpu time    0.0026: real time    0.0026
    CHARGE:  cpu time    9.3193: real time    9.4064
    MIXING:  cpu time    0.0385: real time    0.0387
    --------------------------------------------
      LOOP:  cpu time  322.7009: real time  326.5058

 eigenvalue-minimisations  : 30000
 total energy-change (2. order) : 0.7988463E-05  (-0.1038926E-05)
 number of electron     736.0000016 magnetization     128.0000004
 augmentation part      277.8925322 magnetization      84.1593134

 Broyden mixing:
  rms(total) = 0.92802E-03    rms(broyden)= 0.92131E-03
  rms(prec ) = 0.92976E-03
  weight for this iteration     100.00

 eigenvalues of (default mixing * dielectric matrix)
  average eigenvalue GAMMA=   1.0670
  2.3190  2.3190  1.1633  1.1633  0.7719  0.7719  0.5872  0.5872  0.5147  0.4724

 Free energy of the ion-electron system (eV)
  ---------------------------------------------------
  alpha Z        PSCENC =      2314.49656628
  Ewald energy   TEWEN  =    -57723.28515709
  -Hartree energ DENC   =    -30348.66059144
  -exchange      EXHF   =         0.00000000
  -V(xc)+E(xc)   XCENC  =      3229.29628378
  PAW double counting   =     92676.50088146   -95531.96696407
  entropy T*S    EENTRO =        -0.00000000
  eigenvalues    EBANDS =    -10549.07581121
  atomic energy  EATOM  =     95443.47970955
  Solvation  Ediel_sol  =         0.00000000
  ---------------------------------------------------
  free energy    TOTEN  =      -489.21508274 eV

  energy without entropy =     -489.21508274  energy(sigma->0) =     -489.21508274


--------------------------------------------------------------------------------------------------------




--------------------------------------- Iteration      1(  16)  ---------------------------------------


    POTLOK:  cpu time    1.0521: real time    1.0536
    SETDIJ:  cpu time    2.2655: real time    2.2753
     EDDAV:  cpu time  295.8067: real time  298.8485
       DOS:  cpu time    0.0024: real time    0.0024
    --------------------------------------------
      LOOP:  cpu time  299.1267: real time  302.1798

 eigenvalue-minimisations  : 28288
 total energy-change (2. order) :-0.5265028E-06  (-0.4796152E-06)
 number of electron     736.0000016 magnetization     128.0000004
 augmentation part      277.8925322 magnetization      84.1593134

 Free energy of the ion-electron system (eV)
  ---------------------------------------------------
  alpha Z        PSCENC =      2314.49656628
  Ewald energy   TEWEN  =    -57723.28515709
  -Hartree energ DENC   =    -30348.66104765
  -exchange      EXHF   =         0.00000000
  -V(xc)+E(xc)   XCENC  =      3229.29635661
  PAW double counting   =     92676.75950854   -95532.22769320
  entropy T*S    EENTRO =        -0.00000000
  eigenvalues    EBANDS =    -10549.07332630
  atomic energy  EATOM  =     95443.47970955
  Solvation  Ediel_sol  =         0.00000000
  ---------------------------------------------------
  free energy    TOTEN  =      -489.21508326 eV

  energy without entropy =     -489.21508326  energy(sigma->0) =     -489.21508326


--------------------------------------------------------------------------------------------------------




 average (electrostatic) potential at core
  the test charge radii are     0.7079  0.7215  0.9698  0.9500
  (the norm of the test charge is              1.0000)
       1 -58.9446       2 -58.9481       3 -58.9479       4 -58.9487       5 -58.9439
       6 -58.9466       7 -58.9470       8 -58.9475       9 -58.9487      10 -58.9480
      11 -58.9484      12 -58.9478      13 -58.9488      14 -58.9490      15 -58.9492
      16 -58.9486      17 -69.8165      18 -69.8167      19 -69.8165      20 -69.8167
      21 -69.8183      22 -69.8170      23 -69.8173      24 -69.8164      25 -69.8136
      26 -69.8161      27 -69.8133      28 -69.8160      29 -69.8122      30 -69.8147
      31 -69.8159      32 -69.8162      33 -85.5787      34 -85.5798      35 -85.5798
      36 -85.5798      37 -85.5791      38 -85.5801      39 -85.5792      40 -85.5801
      41 -85.5828      42 -85.5816      43 -85.5803      44 -85.5801      45 -85.5823
      46 -85.5802      47 -85.5823      48 -85.5801      49 -85.6354      50 -85.6385
      51 -85.6383      52 -85.6387      53 -85.6382      54 -85.6384      55 -85.6385
      56 -85.6382      57 -78.5750      58 -78.5746      59 -78.5748      60 -78.5745
      61 -78.5842      62 -78.5751      63 -78.5753      64 -78.5743      65 -78.5742
      66 -78.5740      67 -78.5742      68 -78.5740      69 -78.5725      70 -78.5755
      71 -78.5739      72 -78.5743      73 -78.5786      74 -78.5809      75 -78.5812
      76 -78.5817      77 -78.5873      78 -78.5911      79 -78.5906      80 -78.5914
      81 -78.5915      82 -78.5918      83 -78.5919      84 -78.5916      85 -78.5826
      86 -78.5817      87 -78.5824      88 -78.5819
 
 
 
 E-fermi :   5.2077     XC(G=0): -10.4850     alpha+bet :-11.8156


 spin component 1

 k-point     1 :       0.0000    0.0000    0.0000
  band No.  band energies     occupation 
      1     -51.0639      1.00000
      2     -51.0554      1.00000
      3     -51.0549      1.00000
      4     -51.0546      1.00000
      5     -51.0544      1.00000
      6     -51.0544      1.00000
      7     -51.0540      1.00000
      8     -51.0536      1.00000
      9     -51.0534      1.00000
     10     -51.0529      1.00000
     11     -51.0527      1.00000
     12     -51.0526      1.00000
     13     -51.0521      1.00000
     14     -51.0520      1.00000
     15     -51.0511      1.00000
     16     -51.0503      1.00000
     17     -51.0447      1.00000
     18     -51.0446      1.00000
     19     -51.0442      1.00000
     20     -51.0441      1.00000
     21     -51.0439      1.00000
     22     -51.0437      1.00000
     23     -51.0432      1.00000
     24     -51.0405      1.00000
     25     -51.0403      1.00000
     26     -51.0399      1.00000
     27     -51.0394      1.00000
     28     -51.0392      1.00000
     29     -51.0391      1.00000
     30     -51.0386      1.00000
     31     -51.0382      1.00000
     32     -51.0365      1.00000
     33     -49.7020      1.00000
     34     -49.7019      1.00000
     35     -49.7018      1.00000
     36     -49.7016      1.00000
     37     -49.7014      1.00000
     38     -49.7011      1.00000
     39     -49.7007      1.00000
     40     -49.6972      1.00000
     41     -49.6947      1.00000
     42     -49.6945      1.00000
     43     -49.6940      1.00000
     44     -49.6939      1.00000
     45     -49.6937      1.00000
     46     -49.6933      1.00000
     47     -49.6929      1.00000
     48     -49.6907      1.00000
     49     -49.6071      1.00000
     50     -49.5989      1.00000
     51     -49.5984      1.00000
     52     -49.5979      1.00000
     53     -49.5979      1.00000
     54     -49.5977      1.00000
     55     -49.5976      1.00000
     56     -49.5970      1.00000
     57     -49.5970      1.00000
     58     -49.5968      1.00000
     59     -49.5964      1.00000
     60     -49.5964      1.00000
     61     -49.5963      1.00000
     62     -49.5962      1.00000
     63     -49.5960      1.00000
     64     -49.5947      1.00000
     65     -49.5753      1.00000
     66     -49.5676      1.00000
     67     -49.5670      1.00000
     68     -49.5667      1.00000
     69     -49.5666      1.00000
     70     -49.5664      1.00000
     71     -49.5660      1.00000
     72     -49.5658      1.00000
     73     -49.5653      1.00000
     74     -49.5652      1.00000
     75     -49.5649      1.00000
     76     -49.5645      1.00000
     77     -49.5645      1.00000
     78     -49.5643      1.00000
     79     -49.5641      1.00000
     80     -49.5632      1.00000
     81     -49.5544      1.00000
     82     -49.5543      1.00000
     83     -49.5542      1.00000
     84     -49.5539      1.00000
     85     -49.5538      1.00000
     86     -49.5537      1.00000
     87     -49.5533      1.00000
     88     -49.5500      1.00000
     89     -49.5399      1.00000
     90     -49.5398      1.00000
     91     -49.5393      1.00000
     92     -49.5392      1.00000
     93     -49.5389      1.00000
     94     -49.5387      1.00000
     95     -49.5385      1.00000
     96     -49.5359      1.00000
     97     -39.8660      1.00000
     98     -39.8656      1.00000
     99     -39.8653      1.00000
    100     -39.8651      1.00000
    101     -39.8651      1.00000
    102     -39.8651      1.00000
    103     -39.8649      1.00000
    104     -39.8647      1.00000
    105     -39.8647      1.00000
    106     -39.8644      1.00000
    107     -39.8643      1.00000
    108     -39.8640      1.00000
    109     -39.8638      1.00000
    110     -39.8634      1.00000
    111     -39.8609      1.00000
    112     -39.8607      1.00000
    113     -13.2254      1.00000
    114     -13.2234      1.00000
    115     -13.2101      1.00000
    116     -13.1831      1.00000
    117     -13.1007      1.00000
    118     -13.0990      1.00000
    119     -13.0982      1.00000
    120     -13.0927      1.00000
    121     -13.0857      1.00000
    122     -13.0800      1.00000
    123     -13.0792      1.00000
    124     -13.0772      1.00000
    125     -12.9878      1.00000
    126     -12.9769      1.00000
    127     -12.9424      1.00000
    128     -12.9404      1.00000
    129      -7.6452      1.00000
    130      -7.4061      1.00000
    131      -7.3261      1.00000
    132      -7.3257      1.00000
    133      -7.3091      1.00000
    134      -7.3089      1.00000
    135      -7.3084      1.00000
    136      -7.3069      1.00000
    137      -7.1699      1.00000
    138      -7.1566      1.00000
    139      -7.1239      1.00000
    140      -7.1229      1.00000
    141      -7.0361      1.00000
    142      -7.0225      1.00000
    143      -7.0030      1.00000
    144      -7.0018      1.00000
    145      -6.9414      1.00000
    146      -6.9402      1.00000
    147      -6.8878      1.00000
    148      -6.8876      1.00000
    149      -6.8660      1.00000
    150      -6.8620      1.00000
    151      -6.8348      1.00000
    152      -6.8038      1.00000
    153      -1.9359      1.00000
    154      -1.9341      1.00000
    155      -1.9102      1.00000
    156      -1.8932      1.00000
    157      -1.6662      1.00000
    158      -1.6660      1.00000
    159      -1.6585      1.00000
    160      -1.6568      1.00000
    161      -1.5995      1.00000
    162      -1.5976      1.00000
    163      -1.5860      1.00000
    164      -1.5858      1.00000
    165      -1.2981      1.00000
    166      -1.1746      1.00000
    167      -1.1745      1.00000
    168      -1.1134      1.00000
    169      -1.1130      1.00000
    170      -1.1070      1.00000
    171      -1.0492      1.00000
    172      -0.9809      1.00000
    173      -0.9647      1.00000
    174      -0.9595      1.00000
    175      -0.9579      1.00000
    176      -0.9575      1.00000
    177      -0.9468      1.00000
    178      -0.9453      1.00000
    179      -0.9227      1.00000
    180      -0.8718      1.00000
    181      -0.8702      1.00000
    182      -0.8035      1.00000
    183      -0.8031      1.00000
    184      -0.8015      1.00000
    185      -0.7749      1.00000
    186      -0.7742      1.00000
    187      -0.7737      1.00000
    188      -0.7610      1.00000
    189      -0.7167      1.00000
    190      -0.7163      1.00000
    191      -0.7064      1.00000
    192      -0.7050      1.00000
    193      -0.6995      1.00000
    194      -0.6990      1.00000
    195      -0.6098      1.00000
    196      -0.6086      1.00000
    197      -0.5619      1.00000
    198      -0.5615      1.00000
    199      -0.5495      1.00000
    200      -0.5485      1.00000
    201      -0.4080      1.00000
    202      -0.4079      1.00000
    203      -0.3573      1.00000
    204      -0.3478      1.00000
    205      -0.3296      1.00000
    206      -0.3292      1.00000
    207      -0.2989      1.00000
    208      -0.2984      1.00000
    209      -0.2813      1.00000
    210      -0.2697      1.00000
    211      -0.2632      1.00000
    212      -0.2560      1.00000
    213      -0.2554      1.00000
    214      -0.2090      1.00000
    215      -0.2088      1.00000
    216      -0.1887      1.00000
    217      -0.1868      1.00000
    218      -0.1861      1.00000
    219      -0.1761      1.00000
    220      -0.1583      1.00000
    221      -0.1257      1.00000
    222      -0.1253      1.00000
    223      -0.1092      1.00000
    224      -0.0704      1.00000
    225      -0.0699      1.00000
    226      -0.0607      1.00000
    227      -0.0434      1.00000
    228      -0.0180      1.00000
    229      -0.0174      1.00000
    230      -0.0112      1.00000
    231       0.0014      1.00000
    232       0.0021      1.00000
    233       0.0464      1.00000
    234       0.0491      1.00000
    235       0.0500      1.00000
    236       0.0914      1.00000
    237       0.0938      1.00000
    238       0.1180      1.00000
    239       0.1187      1.00000
    240       0.1583      1.00000
    241       0.1629      1.00000
    242       0.1771      1.00000
    243       0.1793      1.00000
    244       0.1817      1.00000
    245       0.1819      1.00000
    246       0.1851      1.00000
    247       0.1888      1.00000
    248       0.1939      1.00000
    249       0.1945      1.00000
    250       0.2010      1.00000
    251       0.2013      1.00000
    252       0.2391      1.00000
    253       0.2511      1.00000
    254       0.2566      1.00000
    255       0.2572      1.00000
    256       0.2763      1.00000
    257       0.3371      1.00000
    258       0.3473      1.00000
    259       0.3591      1.00000
    260       0.3593      1.00000
    261       0.3604      1.00000
    262       0.3607      1.00000
    263       0.3885      1.00000
    264       0.4020      1.00000
    265       0.4520      1.00000
    266       0.4522      1.00000
    267       0.5789      1.00000
    268       0.5792      1.00000
    269       0.5846      1.00000
    270       0.6014      1.00000
    271       0.6016      1.00000
    272       0.6067      1.00000
    273       0.6072      1.00000
    274       0.6402      1.00000
    275       0.6512      1.00000
    276       0.6516      1.00000
    277       0.6617      1.00000
    278       0.6622      1.00000
    279       0.6647      1.00000
    280       0.6725      1.00000
    281       0.6743      1.00000
    282       0.6745      1.00000
    283       0.6967      1.00000
    284       0.7225      1.00000
    285       0.7825      1.00000
    286       0.8194      1.00000
    287       0.8297      1.00000
    288       0.8317      1.00000
    289       0.8323      1.00000
    290       0.8606      1.00000
    291       0.8614      1.00000
    292       0.9082      1.00000
    293       0.9405      1.00000
    294       0.9482      1.00000
    295       0.9486      1.00000
    296       0.9831      1.00000
    297       1.0257      1.00000
    298       1.0700      1.00000
    299       1.2689      1.00000
    300       1.2978      1.00000
    301       1.2980      1.00000
    302       1.3112      1.00000
    303       1.3325      1.00000
    304       1.3336      1.00000
    305       1.3377      1.00000
    306       1.3842      1.00000
    307       1.4049      1.00000
    308       1.4284      1.00000
    309       1.4670      1.00000
    310       1.4673      1.00000
    311       1.4681      1.00000
    312       1.4808      1.00000
    313       1.5109      1.00000
    314       1.5115      1.00000
    315       1.5406      1.00000
    316       1.5614      1.00000
    317       1.5773      1.00000
    318       1.6455      1.00000
    319       1.6553      1.00000
    320       1.7554      1.00000
    321       1.7562      1.00000
    322       1.7623      1.00000
    323       1.7783      1.00000
    324       1.8030      1.00000
    325       1.8036      1.00000
    326       1.8114      1.00000
    327       1.8231      1.00000
    328       1.8364      1.00000
    329       1.8373      1.00000
    330       1.8461      1.00000
    331       1.8470      1.00000
    332       1.8789      1.00000
    333       1.8900      1.00000
    334       1.9467      1.00000
    335       1.9929      1.00000
    336       1.9940      1.00000
    337       2.0061      1.00000
    338       2.0065      1.00000
    339       2.0095      1.00000
    340       2.0182      1.00000
    341       2.0196      1.00000
    342       2.0203      1.00000
    343       2.0393      1.00000
    344       2.0451      1.00000
    345       2.0470      1.00000
    346       2.0573      1.00000
    347       2.0681      1.00000
    348       2.0689      1.00000
    349       2.0913      1.00000
    350       2.1128      1.00000
    351       2.1903      1.00000
    352       2.1920      1.00000
    353       2.2474      1.00000
    354       2.2474      1.00000
    355       2.2710      1.00000
    356       2.2734      1.00000
    357       2.2842      1.00000
    358       2.4272      1.00000
    359       2.4662      1.00000
    360       2.4670      1.00000
    361       2.4777      1.00000
    362       2.5040      1.00000
    363       2.5276      1.00000
    364       2.5547      1.00000
    365       2.5925      1.00000
    366       2.6271      1.00000
    367       2.6273      1.00000
    368       2.6561      1.00000
    369       2.7383      1.00000
    370       2.7394      1.00000
    371       2.7609      1.00000
    372       2.7619      1.00000
    373       2.8339      1.00000
    374       2.8726      1.00000
    375       2.9267      1.00000
    376       2.9344      1.00000
    377       2.9353      1.00000
    378       2.9702      1.00000
    379       3.0275      1.00000
    380       3.0279      1.00000
    381       3.0622      1.00000
    382       3.0970      1.00000
    383       3.3075      1.00000
    384       3.3102      1.00000
    385       3.3484      1.00000
    386       3.3757      1.00000
    387       3.4218      1.00000
    388       3.4222      1.00000
    389       3.4404      1.00000
    390       3.4578      1.00000
    391       3.4586      1.00000
    392       3.5317      1.00000
    393       3.7489      1.00000
    394       3.8085      1.00000
    395       3.8092      1.00000
    396       3.8151      1.00000
    397       3.8158      1.00000
    398       3.8829      1.00000
    399       3.8832      1.00000
    400       3.9326      1.00000
    401       3.9356      1.00000
    402       3.9405      1.00000
    403       3.9407      1.00000
    404       4.0392      1.00000
    405       4.0396      1.00000
    406       4.0710      1.00000
    407       4.1390      1.00000
    408       4.1487      1.00000
    409       4.1507      1.00000
    410       4.3152      1.00000
    411       4.3181      1.00000
    412       4.3386      1.00000
    413       4.3587      1.00000
    414       4.3590      1.00000
    415       4.4285      1.00000
    416       4.4448      1.00000
    417       4.4465      1.00000
    418       4.4531      1.00000
    419       4.4557      1.00000
    420       4.4562      1.00000
    421       4.6353      1.00000
    422       4.6358      1.00000
    423       4.7312      1.00000
    424       4.7324      1.00000
    425       4.7628      1.00000
    426       4.7634      1.00000
    427       4.7682      1.00000
    428       4.7688      1.00000
    429       4.8097      1.00000
    430       4.8524      1.00000
    431       4.8539      1.00000
    432       4.8563      1.00000
    433       7.3433      0.00000
    434       8.1275      0.00000
    435       8.4434      0.00000
    436       8.6419      0.00000
    437       8.6435      0.00000
    438       8.8564      0.00000
    439       9.0842      0.00000
    440       9.0846      0.00000
    441       9.2616      0.00000
    442       9.2728      0.00000
    443       9.2881      0.00000
    444       9.2893      0.00000
    445       9.7262      0.00000
    446       9.7713      0.00000
    447       9.7722      0.00000
    448       9.7906      0.00000
    449       9.8539      0.00000
    450       9.8543      0.00000
    451       9.8591      0.00000
    452       9.8799      0.00000
    453       9.8902      0.00000
    454      10.0586      0.00000
    455      10.0826      0.00000
    456      10.1346      0.00000
    457      10.1370      0.00000
    458      10.3055      0.00000
    459      10.3064      0.00000
    460      10.4164      0.00000
    461      10.5260      0.00000
    462      10.5694      0.00000
    463      10.5719      0.00000
    464      10.5724      0.00000
    465      10.5769      0.00000
    466      10.5775      0.00000
    467      10.6747      0.00000
    468      10.9759      0.00000
    469      11.0160      0.00000
    470      11.0183      0.00000
    471      11.0389      0.00000
    472      11.0408      0.00000
    473      11.0769      0.00000
    474      11.1281      0.00000
    475      11.1786      0.00000
[...]
   -.441E-02 0.118E-02 -.259E+02   0.487E-02 -.305E-03 0.256E+02   -.258E-03 -.737E-03 0.249E+00   0.550E-06 0.124E-04 0.235E-04
   0.262E-02 -.398E-02 -.259E+02   -.155E-02 0.440E-02 0.257E+02   -.637E-03 -.487E-03 0.250E+00   0.792E-06 0.216E-05 0.272E-04
   -.243E-02 0.207E-02 -.259E+02   0.249E-02 -.163E-02 0.257E+02   -.221E-04 -.452E-03 0.250E+00   -.111E-04 0.380E-05 0.342E-04
   -.120E-01 0.919E-02 -.420E+02   0.103E-01 -.776E-02 0.420E+02   0.935E-03 -.132E-02 0.909E-02   -.117E-04 -.263E-04 0.354E-04
   0.154E-01 0.120E-01 -.420E+02   -.150E-01 -.113E-01 0.420E+02   -.385E-03 -.937E-03 0.102E-01   0.314E-05 -.665E-05 0.382E-05
   -.509E-04 0.152E-01 -.420E+02   -.531E-03 -.140E-01 0.420E+02   0.135E-03 -.111E-02 0.100E-01   -.620E-05 -.904E-05 0.537E-05
   0.102E-01 0.135E-01 -.421E+02   -.945E-02 -.124E-01 0.420E+02   -.667E-03 -.107E-02 0.104E-01   -.265E-05 0.383E-05 -.718E-05
   0.159E+02 0.149E+02 -.126E+03   -.162E+02 -.153E+02 0.131E+03   0.388E+00 0.380E+00 -.463E+01   -.681E-05 0.773E-04 0.957E-04
   0.159E+02 0.149E+02 -.126E+03   -.163E+02 -.153E+02 0.131E+03   0.385E+00 0.381E+00 -.463E+01   0.643E-05 0.611E-04 0.970E-04
   0.159E+02 0.149E+02 -.126E+03   -.162E+02 -.153E+02 0.131E+03   0.388E+00 0.380E+00 -.463E+01   -.256E-04 0.515E-04 0.714E-04
   0.159E+02 0.149E+02 -.126E+03   -.163E+02 -.153E+02 0.131E+03   0.385E+00 0.380E+00 -.463E+01   -.113E-04 0.881E-04 0.896E-04
   -.159E+02 -.149E+02 -.126E+03   0.163E+02 0.153E+02 0.130E+03   -.388E+00 -.380E+00 -.464E+01   0.474E-04 0.203E-04 0.301E-03
   -.159E+02 -.149E+02 -.126E+03   0.163E+02 0.153E+02 0.131E+03   -.390E+00 -.379E+00 -.463E+01   -.214E-04 -.563E-04 0.848E-04
   -.159E+02 -.149E+02 -.126E+03   0.163E+02 0.153E+02 0.131E+03   -.389E+00 -.380E+00 -.463E+01   0.284E-04 -.383E-04 0.607E-04
   -.159E+02 -.149E+02 -.126E+03   0.163E+02 0.153E+02 0.131E+03   -.389E+00 -.379E+00 -.463E+01   -.255E-04 -.997E-04 0.829E-04
   0.160E+02 -.147E+02 0.126E+03   -.163E+02 0.151E+02 -.131E+03   0.386E+00 -.401E+00 0.462E+01   -.142E-05 0.234E-04 -.980E-04
   0.159E+02 -.149E+02 0.126E+03   -.163E+02 0.153E+02 -.131E+03   0.390E+00 -.380E+00 0.463E+01   -.613E-04 0.204E-04 -.121E-03
   0.160E+02 -.151E+02 0.126E+03   -.163E+02 0.155E+02 -.131E+03   0.389E+00 -.355E+00 0.462E+01   -.468E-04 -.159E-03 -.128E-03
   0.159E+02 -.149E+02 0.126E+03   -.163E+02 0.153E+02 -.131E+03   0.390E+00 -.379E+00 0.463E+01   -.372E-04 -.522E-04 -.125E-03
   -.161E+02 0.149E+02 0.126E+03   0.165E+02 -.153E+02 -.131E+03   -.356E+00 0.381E+00 0.462E+01   -.436E-04 0.473E-05 -.840E-04
   -.157E+02 0.149E+02 0.126E+03   0.161E+02 -.153E+02 -.131E+03   -.402E+00 0.379E+00 0.463E+01   0.652E-04 0.673E-04 -.154E-03
   -.159E+02 0.149E+02 0.126E+03   0.163E+02 -.153E+02 -.131E+03   -.386E+00 0.380E+00 0.463E+01   0.307E-04 0.308E-04 -.121E-03
   -.159E+02 0.149E+02 0.126E+03   0.163E+02 -.153E+02 -.131E+03   -.387E+00 0.380E+00 0.463E+01   0.576E-04 0.596E-04 -.896E-04
   0.286E+02 0.282E+02 0.311E+02   -.289E+02 -.285E+02 -.316E+02   0.334E+00 0.350E+00 0.620E+00   -.121E-04 -.205E-04 -.123E-03
   0.280E+02 0.282E+02 0.333E+02   -.283E+02 -.285E+02 -.338E+02   0.352E+00 0.353E+00 0.521E+00   -.714E-04 -.137E-04 -.123E-04
   0.280E+02 0.282E+02 0.333E+02   -.284E+02 -.285E+02 -.338E+02   0.350E+00 0.353E+00 0.521E+00   -.378E-04 0.127E-04 -.209E-04
   0.280E+02 0.282E+02 0.333E+02   -.283E+02 -.285E+02 -.338E+02   0.351E+00 0.353E+00 0.519E+00   -.229E-04 -.472E-05 -.247E-05
   -.279E+02 -.282E+02 0.332E+02   0.283E+02 0.285E+02 -.338E+02   -.347E+00 -.357E+00 0.522E+00   -.135E-04 0.227E-04 -.490E-04
   -.279E+02 -.283E+02 0.333E+02   0.283E+02 0.286E+02 -.338E+02   -.349E+00 -.353E+00 0.521E+00   0.390E-04 -.534E-04 -.279E-04
   -.279E+02 -.283E+02 0.332E+02   0.283E+02 0.286E+02 -.338E+02   -.347E+00 -.351E+00 0.521E+00   0.133E-04 -.531E-04 -.378E-04
   -.279E+02 -.282E+02 0.333E+02   0.283E+02 0.285E+02 -.338E+02   -.348E+00 -.355E+00 0.521E+00   0.357E-04 0.231E-05 -.450E-04
   0.278E+02 -.282E+02 -.332E+02   -.281E+02 0.286E+02 0.337E+02   0.361E+00 -.354E+00 -.529E+00   -.156E-03 -.438E-05 0.800E-04
   0.280E+02 -.282E+02 -.333E+02   -.284E+02 0.286E+02 0.338E+02   0.341E+00 -.354E+00 -.522E+00   0.111E-03 0.708E-05 0.284E-04
   0.279E+02 -.282E+02 -.333E+02   -.283E+02 0.286E+02 0.338E+02   0.350E+00 -.354E+00 -.519E+00   -.220E-05 -.291E-04 0.281E-04
   0.279E+02 -.282E+02 -.333E+02   -.283E+02 0.286E+02 0.338E+02   0.348E+00 -.354E+00 -.518E+00   -.290E-04 -.102E-04 0.437E-04
   -.280E+02 0.281E+02 -.333E+02   0.283E+02 -.284E+02 0.338E+02   -.351E+00 0.363E+00 -.524E+00   0.419E-04 -.160E-03 0.589E-04
   -.280E+02 0.282E+02 -.333E+02   0.284E+02 -.285E+02 0.339E+02   -.350E+00 0.354E+00 -.518E+00   0.228E-04 0.105E-04 0.449E-04
   -.280E+02 0.283E+02 -.333E+02   0.283E+02 -.287E+02 0.338E+02   -.351E+00 0.343E+00 -.525E+00   0.506E-04 0.153E-03 0.804E-04
   -.280E+02 0.282E+02 -.333E+02   0.284E+02 -.285E+02 0.339E+02   -.350E+00 0.352E+00 -.518E+00   0.284E-04 0.701E-05 0.606E-04
   0.991E+01 0.473E-01 0.223E+00   -.100E+02 -.482E-01 -.211E+00   0.114E+00 0.777E-03 -.194E-01   0.158E-04 0.181E-04 0.957E-04
   0.990E+01 0.472E-01 0.230E-01   -.100E+02 -.475E-01 -.220E-01   0.115E+00 0.242E-03 -.184E-02   -.705E-05 0.177E-04 -.622E-06
   0.990E+01 0.468E-01 0.118E-01   -.100E+02 -.473E-01 -.112E-01   0.115E+00 0.516E-03 -.131E-02   -.203E-04 0.525E-05 0.197E-04
   0.990E+01 0.471E-01 0.258E-02   -.100E+02 -.475E-01 -.222E-02   0.115E+00 0.350E-03 -.466E-03   -.339E-04 0.119E-05 -.434E-04
   -.993E+01 0.703E-01 0.625E-01   0.100E+02 -.701E-01 -.614E-01   -.113E+00 -.857E-03 -.260E-02   -.223E-04 0.330E-04 0.263E-04
   -.987E+01 0.663E-01 0.317E-01   0.999E+01 -.665E-01 -.315E-01   -.116E+00 -.439E-04 -.685E-03   0.420E-04 0.390E-04 -.201E-04
   -.993E+01 0.240E-01 0.626E-01   0.100E+02 -.248E-01 -.618E-01   -.114E+00 0.121E-02 -.201E-02   -.799E-05 0.880E-05 0.113E-04
   -.987E+01 0.275E-01 0.321E-01   0.999E+01 -.284E-01 -.317E-01   -.116E+00 0.131E-02 -.108E-02   0.332E-04 -.662E-05 0.803E-05
   0.189E+02 0.188E+02 0.185E+03   -.178E+02 -.177E+02 -.183E+03   -.106E+01 -.108E+01 -.241E+01   -.107E-04 -.232E-04 -.221E-04
   0.191E+02 0.189E+02 0.185E+03   -.180E+02 -.178E+02 -.183E+03   -.106E+01 -.108E+01 -.241E+01   0.498E-04 0.237E-04 -.480E-06
   0.189E+02 0.191E+02 0.185E+03   -.179E+02 -.180E+02 -.183E+03   -.106E+01 -.109E+01 -.241E+01   0.128E-04 0.108E-03 0.388E-04
   0.191E+02 0.190E+02 0.185E+03   -.180E+02 -.179E+02 -.183E+03   -.106E+01 -.109E+01 -.241E+01   0.210E-04 0.423E-04 0.336E-04
   -.188E+02 -.190E+02 0.187E+03   0.178E+02 0.179E+02 -.184E+03   0.107E+01 0.110E+01 -.253E+01   -.147E-04 -.326E-04 -.274E-04
   -.189E+02 -.189E+02 0.185E+03   0.179E+02 0.178E+02 -.183E+03   0.106E+01 0.109E+01 -.240E+01   -.620E-04 -.914E-05 -.510E-04
   -.189E+02 -.189E+02 0.185E+03   0.178E+02 0.178E+02 -.183E+03   0.106E+01 0.108E+01 -.240E+01   -.203E-04 -.240E-04 -.330E-04
   -.189E+02 -.189E+02 0.185E+03   0.178E+02 0.178E+02 -.183E+03   0.106E+01 0.108E+01 -.241E+01   -.560E-04 -.270E-04 -.136E-04
   0.190E+02 -.190E+02 -.185E+03   -.180E+02 0.179E+02 0.183E+03   -.107E+01 0.109E+01 0.242E+01   0.451E-04 -.609E-04 -.652E-04
   0.189E+02 -.189E+02 -.185E+03   -.178E+02 0.178E+02 0.183E+03   -.106E+01 0.108E+01 0.241E+01   0.141E-04 0.861E-05 0.164E-03
   0.191E+02 -.187E+02 -.186E+03   -.180E+02 0.176E+02 0.183E+03   -.107E+01 0.108E+01 0.243E+01   0.343E-04 0.741E-04 -.106E-03
   0.189E+02 -.189E+02 -.185E+03   -.178E+02 0.178E+02 0.183E+03   -.106E+01 0.109E+01 0.241E+01   0.276E-04 -.740E-05 0.118E-03
   -.192E+02 0.189E+02 -.186E+03   0.181E+02 -.178E+02 0.183E+03   0.108E+01 -.108E+01 0.243E+01   0.516E-04 0.243E-04 -.662E-04
   -.194E+02 0.190E+02 -.185E+03   0.183E+02 -.179E+02 0.183E+03   0.108E+01 -.109E+01 0.242E+01   -.808E-04 0.693E-04 0.234E-04
   -.190E+02 0.189E+02 -.185E+03   0.180E+02 -.179E+02 0.183E+03   0.106E+01 -.109E+01 0.241E+01   -.251E-04 0.670E-04 0.824E-04
   -.190E+02 0.189E+02 -.185E+03   0.180E+02 -.179E+02 0.183E+03   0.106E+01 -.108E+01 0.241E+01   0.124E-06 0.430E-04 0.865E-04
   0.537E+00 -.470E+00 0.209E+03   -.517E+00 0.452E+00 -.211E+03   -.163E-01 0.151E-01 0.205E+01   0.102E-03 0.242E-04 -.349E-03
   -.120E+00 -.128E+00 0.209E+03   0.110E+00 0.116E+00 -.211E+03   0.765E-02 0.104E-01 0.206E+01   -.927E-04 -.988E-04 -.412E-03
   0.739E-01 0.463E-02 0.209E+03   -.672E-01 -.125E-02 -.211E+03   -.549E-02 -.233E-02 0.206E+01   0.782E-04 0.284E-04 -.399E-03
   -.150E-01 -.448E-01 0.209E+03   0.132E-01 0.428E-01 -.211E+03   0.157E-02 0.207E-02 0.206E+01   -.771E-04 -.738E-04 -.430E-03
   -.439E+00 0.523E+00 0.200E+03   0.420E+00 -.501E+00 -.202E+03   0.158E-01 -.178E-01 0.204E+01   0.545E-05 0.158E-04 -.328E-03
   0.716E-01 -.299E-01 0.199E+03   -.682E-01 0.319E-01 -.201E+03   -.279E-02 -.146E-02 0.206E+01   0.646E-04 0.891E-04 -.457E-03
   -.101E-01 -.158E+00 0.199E+03   0.294E-02 0.151E+00 -.201E+03   0.596E-02 0.644E-02 0.206E+01   -.132E-04 -.834E-04 -.451E-03
   0.336E-01 -.659E-01 0.199E+03   -.336E-01 0.632E-01 -.201E+03   -.617E-04 0.251E-02 0.206E+01   0.500E-04 0.137E-04 -.388E-03
   -.106E+00 -.359E-01 -.199E+03   0.971E-01 0.328E-01 0.201E+03   0.722E-02 0.315E-02 -.207E+01   -.631E-04 0.152E-03 0.476E-03
   0.225E-01 -.479E-01 -.199E+03   -.216E-01 0.483E-01 0.201E+03   -.726E-03 0.959E-04 -.207E+01   -.363E-04 -.116E-04 0.356E-03
   -.491E-01 -.619E-01 -.199E+03   0.459E-01 0.602E-01 0.201E+03   0.246E-02 0.169E-02 -.207E+01   -.233E-05 0.398E-04 0.355E-03
   -.323E-02 -.554E-01 -.199E+03   0.458E-02 0.533E-01 0.201E+03   -.114E-02 0.196E-02 -.206E+01   -.623E-04 0.139E-05 0.366E-03
   0.138E-01 -.109E+00 -.209E+03   -.983E-02 0.103E+00 0.211E+03   -.318E-02 0.510E-02 -.207E+01   0.744E-04 -.695E-04 0.469E-03
   -.153E-01 -.542E-01 -.209E+03   0.199E-01 0.539E-01 0.211E+03   -.404E-02 0.370E-03 -.207E+01   -.654E-04 -.694E-04 0.369E-03
   -.989E-02 -.522E-01 -.209E+03   0.132E-01 0.495E-01 0.211E+03   -.270E-02 0.263E-02 -.207E+01   0.325E-04 -.108E-04 0.372E-03
   -.213E-01 -.791E-01 -.209E+03   0.214E-01 0.769E-01 0.211E+03   -.182E-03 0.224E-02 -.207E+01   0.137E-04 -.578E-04 0.350E-03
 -----------------------------------------------------------------------------------------------
   -.482E-01 -.353E-01 0.130E+00   0.115E-12 0.863E-13 -.625E-12   0.482E-01 0.339E-01 -.130E+00   -.471E-04 0.224E-03 0.145E-03
 
 
 POSITION                                       TOTAL-FORCE (eV/Angst)
 -----------------------------------------------------------------------------------
      2.77841      5.21785      1.58925        -0.001655     -0.002130      0.001937
      8.33453      5.21785      1.58910         0.000316     -0.000169     -0.000130
      2.77841     10.77658      1.58925        -0.000302      0.000469     -0.000008
      8.33453     10.77658      1.58910         0.000081      0.000057     -0.000152
      0.00058      2.43861      1.89560         0.001536      0.001012     -0.000345
      5.55670      2.43861      1.89545        -0.000759      0.000610     -0.000021
      0.00058      7.99734      1.89560         0.000438     -0.000424     -0.000190
      5.55670      7.99734      1.89545        -0.000149     -0.000043      0.000052
      2.78043      5.21797      8.30298         0.000442      0.000299      0.000759
      8.33655      5.21797      8.30283         0.000200      0.000164      0.001219
      2.78043     10.77670      8.30298         0.000428     -0.000042      0.000663
      8.33655     10.77670      8.30283         0.000022     -0.000002      0.000265
      0.00259      2.43849      8.60933        -0.000767      0.000101      0.001380
      5.55871      2.43849      8.60919         0.000037     -0.000169      0.000526
      0.00259      7.99722      8.60933        -0.000453      0.000077      0.000706
      5.55871      7.99722      8.60919         0.000076     -0.000022      0.000273
     -1.37640      1.05960      8.18451         0.000618     -0.000144     -0.001221
      4.17971      1.05960      8.18437        -0.000270      0.000343     -0.000623
     -1.37640      6.61833      8.18451         0.000566     -0.000008     -0.001209
      4.17971      6.61833      8.18437        -0.000257     -0.000142     -0.000577
      1.38116      3.81753      8.18442         0.000238     -0.000100     -0.003669
      6.93728      3.81753      8.18427        -0.000230      0.000047     -0.001891
      1.38116      9.37626      8.18442        -0.000120     -0.000111     -0.001562
      6.93728      9.37626      8.18427        -0.000216      0.000109     -0.000523
      1.39985      1.03817      2.01416        -0.001681     -0.007885     -0.001097
      6.95597      1.03817      2.01401         0.000276     -0.000117      0.000269
      1.39985      6.59689      2.01416         0.000961      0.008734     -0.001662
      6.95597      6.59689      2.01401         0.000528      0.000327      0.000332
      4.15741      3.83897      2.01406         0.011232      0.001441     -0.003836
      9.71353      3.83897      2.01392        -0.005564     -0.001177      0.000717
      4.15741      9.39769      2.01406         0.000082      0.000140      0.000138
      9.71353      9.39769      2.01392        -0.000424     -0.000121      0.000456
      1.40307      3.83812      3.77427        -0.011197     -0.002198      0.070130
      6.95656      3.83812      3.78377         0.000722     -0.000158      0.001309
      1.40044      9.39685      3.78391        -0.000258     -0.000121      0.001403
      6.95656      9.39685      3.78377         0.000202     -0.000118      0.000420
      4.15774      1.03891      3.78384         0.000691     -0.000997      0.001731
      9.71386      1.03891      3.78369         0.000229      0.000585      0.001278
      4.15774      6.59764      3.78384         0.000788      0.001237      0.001711
      9.71386      6.59764      3.78369         0.000405     -0.000459      0.001593
     -1.37674      3.81828      6.41474         0.006262      0.000259     -0.004970
      4.17938      3.81828      6.41460        -0.004264      0.000043     -0.001376
     -1.37674      9.37700      6.41474         0.000411      0.000153     -0.000144
      4.17938      9.37700      6.41460        -0.000500      0.000113      0.000226
      1.38057      1.05876      6.41466        -0.000088      0.005019     -0.002697
      6.93668      1.05876      6.41452         0.000177      0.000289      0.000067
      1.38057      6.61748      6.41466        -0.000228     -0.005423     -0.002743
      6.93668      6.61748      6.41452         0.000146     -0.000467      0.000058
      1.38227      3.82822      0.00001        -0.000170     -0.000038     -0.007808
      6.93839      3.82822     -0.00014         0.000177     -0.000063     -0.000904
      1.38227      9.38694      0.00001         0.000072      0.000014     -0.000686
      6.93839      9.38694     -0.00014        -0.000078     -0.000037     -0.000153
      1.39874      1.04885     10.19857         0.000565     -0.000571     -0.001388
      6.95485      1.04885     10.19843        -0.000344     -0.000215     -0.000531
      1.39874      6.60758     10.19857         0.000415      0.000381     -0.001185
      6.95485      6.60758     10.19843        -0.000542      0.000379     -0.000663
     -1.25763      1.18232      6.18371        -0.001099     -0.000887      0.000003
      4.29848      1.18232      6.18356         0.000306     -0.000526     -0.000605
     -1.25763      6.74104      6.18371        -0.000992      0.000635      0.000031
      4.29848      6.74104      6.18356         0.000295      0.000440     -0.000587
      1.26131      3.69462      6.18369         0.002669      0.001835     -0.037880
      6.81742      3.69462      6.18354        -0.000049     -0.000133     -0.000386
      1.26131      9.25335      6.18369         0.000147      0.000235     -0.000642
      6.81742      9.25335      6.18354         0.000172     -0.000049      0.000109
      1.51970      0.91526      4.01489         0.000197      0.000385     -0.004055
      7.07582      0.91526      4.01474        -0.000509     -0.000014     -0.000393
      1.51970      6.47399      4.01489         0.000616     -0.001065     -0.005185
      7.07582      6.47399      4.01474        -0.000554     -0.000009     -0.000429
      4.03864      3.96168      4.01487         0.000324      0.000427     -0.004840
      9.59476      3.96168      4.01472        -0.001038      0.000103     -0.003739
      4.03864      9.52041      4.01487         0.000370      0.000046     -0.000460
      9.59476      9.52041      4.01472         0.000299      0.000024     -0.000429
      0.00035      5.21813      1.57032         0.004062     -0.002614      0.001589
      5.55647      5.21813      1.57017        -0.001775     -0.001842      0.000415
      0.00035     10.77686      1.57032         0.001329      0.001094      0.000024
      5.55647     10.77686      1.57017        -0.000225      0.000020     -0.000001
      2.77849      2.43869      1.57537        -0.002669      0.004058      0.002418
      8.33461      2.43869      1.57522         0.000692      0.000700     -0.000113
      2.77849      7.99742      1.57537        -0.001259     -0.001217      0.000146
      8.33461      7.99742      1.57522         0.000011     -0.000119     -0.000369
      0.00252      5.21805      8.62321        -0.001667      0.000228      0.002207
      5.55864      5.21805      8.62307         0.000145      0.000451      0.001020
      0.00252     10.77678      8.62321        -0.000732      0.000012      0.001332
      5.55864     10.77678      8.62307         0.000152     -0.000100      0.000424
      2.78066      2.43877      8.62826         0.000867     -0.000823      0.001351
      8.33677      2.43877      8.62811         0.000497      0.000018      0.001866
      2.78066      7.99750      8.62826         0.000686     -0.000012      0.001002
      8.33677      7.99750      8.62811        -0.000094     -0.000033      0.000520
 -----------------------------------------------------------------------------------
    total drift:                                0.000000     -0.001189      0.000057


--------------------------------------------------------------------------------------------------------



  FREE ENERGIE OF THE ION-ELECTRON SYSTEM (eV)
  ---------------------------------------------------
  free  energy   TOTEN  =      -489.21508326 eV

  energy  without entropy=     -489.21508326  energy(sigma->0) =     -489.21508326
 


--------------------------------------------------------------------------------------------------------


    POTLOK:  cpu time    3.3297: real time    3.3344


--------------------------------------------------------------------------------------------------------


     LOOP+:  cpu time 6586.3269: real time 6655.3593
    4ORBIT:  cpu time    0.0000: real time    0.0000

 total amount of memory used by VASP MPI-rank0  1233264. kBytes
=======================================================================

   base      :      30000. kBytes
   nonl-proj :      75226. kBytes
   fftplans  :      85054. kBytes
   grid      :      64684. kBytes
   one-center:        466. kBytes
   wavefun   :     977834. kBytes
 
  
  
 General timing and accounting informations for this job:
 ========================================================
  
                  Total CPU time used (sec):     6684.608
                            User time (sec):     6615.984
                          System time (sec):       68.624
                         Elapsed time (sec):     6755.442
  
                   Maximum memory used (kb):     1433728.
                   Average memory used (kb):           0.
  
                          Minor page faults:      1027757
                          Major page faults:            0
                 Voluntary context switches:        64370
