 120 120   0   0
  0.1228332E+02  0.1173587E-08  0.1121847E-08  0.1119562E-08  0.5000000E-15
  1.000000000000000E-004
  CAR 
 unknown system                          
     16.74212145    -54.73264065  301      4.41272499      1.00000000
    -54.733  0.0000E+00  0.0000E+00  0.0000E+00  0.0000E+00
    -54.494  0.0000E+00  0.0000E+00  0.0000E+00  0.0000E+00
    -54.256  0.0000E+00  0.0000E+00  0.0000E+00  0.0000E+00
    -54.018  0.0000E+00  0.0000E+00  0.0000E+00  0.0000E+00
    -53.780  0.0000E+00  0.0000E+00  0.0000E+00  0.0000E+00
    -53.541  0.0000E+00  0.0000E+00  0.0000E+00  0.0000E+00
    -53.303  0.0000E+00  0.0000E+00  0.0000E+00  0.0000E+00
    -53.065  0.0000E+00  0.0000E+00  0.0000E+00  0.0000E+00
    -52.827  0.0000E+00  0.0000E+00  0.0000E+00  0.0000E+00
    -52.588  0.0000E+00  0.0000E+00  0.0000E+00  0.0000E+00
    -52.350  0.0000E+00  0.0000E+00  0.0000E+00  0.0000E+00
    -52.112  0.0000E+00  0.0000E+00  0.0000E+00  0.0000E+00
    -51.874  0.0000E+00  0.0000E+00  0.0000E+00  0.0000E+00
    -51.635  0.2243E-03  0.0000E+00  0.5344E-04  0.0000E+00
    -51.397  0.9761E+02  0.0000E+00  0.2326E+02  0.0000E+00
    -51.159  0.3122E+01  0.0000E+00  0.2400E+02  0.0000E+00
    -50.921  0.0000E+00  0.0000E+00  0.2400E+02  0.0000E+00
    -50.682  0.0000E+00  0.0000E+00  0.2400E+02  0.0000E+00
    -50.444  0.2177E-09  0.0000E+00  0.2400E+02  0.0000E+00
    -50.206  0.4195E+02  0.0000E+00  0.3399E+02  0.0000E+00
    -49.968  0.1323E+03  0.0000E+00  0.6552E+02  0.0000E+00
    -49.729  0.2718E+02  0.0000E+00  0.7200E+02  0.0000E+00
    -49.491  0.0000E+00  0.0000E+00  0.7200E+02  0.0000E+00
    -49.253  0.0000E+00  0.0000E+00  0.7200E+02  0.0000E+00
    -49.015  0.0000E+00  0.0000E+00  0.7200E+02  0.0000E+00
    -48.776  0.0000E+00  0.0000E+00  0.7200E+02  0.0000E+00
    -48.538  0.0000E+00  0.0000E+00  0.7200E+02  0.0000E+00
    -48.300  0.0000E+00  0.0000E+00  0.7200E+02  0.0000E+00
    -48.062  0.0000E+00  0.0000E+00  0.7200E+02  0.0000E+00
    -47.823  0.0000E+00  0.0000E+00  0.7200E+02  0.0000E+00
    -47.585  0.0000E+00  0.0000E+00  0.7200E+02  0.0000E+00
    -47.347  0.0000E+00  0.0000E+00  0.7200E+02  0.0000E+00
    -47.109  0.0000E+00  0.0000E+00  0.7200E+02  0.0000E+00
    -46.870  0.0000E+00  0.6117E-01  0.7200E+02  0.1457E-01
    -46.632  0.0000E+00  0.1006E+03  0.7200E+02  0.2397E+02
    -46.394  0.0000E+00  0.9526E+02  0.7200E+02  0.4667E+02
    -46.156  0.0000E+00  0.1063E+03  0.7200E+02  0.7200E+02
    -45.917  0.0000E+00  0.0000E+00  0.7200E+02  0.7200E+02
    -45.679  0.0000E+00  0.0000E+00  0.7200E+02  0.7200E+02
    -45.441  0.0000E+00  0.0000E+00  0.7200E+02  0.7200E+02
    -45.203  0.0000E+00  0.0000E+00  0.7200E+02  0.7200E+02
    -44.964  0.0000E+00  0.0000E+00  0.7200E+02  0.7200E+02
    -44.726  0.0000E+00  0.0000E+00  0.7200E+02  0.7200E+02
    -44.488  0.0000E+00  0.0000E+00  0.7200E+02  0.7200E+02
    -44.250  0.0000E+00  0.0000E+00  0.7200E+02  0.7200E+02
    -44.011  0.0000E+00  0.0000E+00  0.7200E+02  0.7200E+02
    -43.773  0.0000E+00  0.0000E+00  0.7200E+02  0.7200E+02
    -43.535  0.0000E+00  0.0000E+00  0.7200E+02  0.7200E+02
    -43.297  0.0000E+00  0.0000E+00  0.7200E+02  0.7200E+02
    -43.058  0.0000E+00  0.0000E+00  0.7200E+02  0.7200E+02
    -42.820  0.0000E+00  0.0000E+00  0.7200E+02  0.7200E+02
    -42.582  0.0000E+00  0.0000E+00  0.7200E+02  0.7200E+02
    -42.344  0.0000E+00  0.0000E+00  0.7200E+02  0.7200E+02
    -42.105  0.0000E+00  0.0000E+00  0.7200E+02  0.7200E+02
    -41.867  0.0000E+00  0.0000E+00  0.7200E+02  0.7200E+02
    -41.629  0.0000E+00  0.0000E+00  0.7200E+02  0.7200E+02
    -41.391  0.0000E+00  0.0000E+00  0.7200E+02  0.7200E+02
    -41.152  0.0000E+00  0.0000E+00  0.7200E+02  0.7200E+02
    -40.914  0.0000E+00  0.0000E+00  0.7200E+02  0.7200E+02
    -40.676  0.3080E-03  0.9508E-04  0.7200E+02  0.7200E+02
    -40.438  0.9899E+02  0.9765E+02  0.9559E+02  0.9526E+02
    -40.199  0.1023E+03  0.1037E+03  0.1200E+03  0.1200E+03
    -39.961  0.1438E+00  0.1469E+00  0.1200E+03  0.1200E+03
    -39.723  0.0000E+00  0.0000E+00  0.1200E+03  0.1200E+03
    -39.485  0.0000E+00  0.0000E+00  0.1200E+03  0.1200E+03
    -39.246  0.0000E+00  0.0000E+00  0.1200E+03  0.1200E+03
    -39.008  0.0000E+00  0.0000E+00  0.1200E+03  0.1200E+03
    -38.770  0.0000E+00  0.0000E+00  0.1200E+03  0.1200E+03
    -38.532  0.0000E+00  0.0000E+00  0.1200E+03  0.1200E+03
    -38.293  0.0000E+00  0.0000E+00  0.1200E+03  0.1200E+03
    -38.055  0.0000E+00  0.0000E+00  0.1200E+03  0.1200E+03
    -37.817  0.0000E+00  0.0000E+00  0.1200E+03  0.1200E+03
    -37.579  0.0000E+00  0.0000E+00  0.1200E+03  0.1200E+03
    -37.340  0.0000E+00  0.0000E+00  0.1200E+03  0.1200E+03
    -37.102  0.0000E+00  0.0000E+00  0.1200E+03  0.1200E+03
    -36.864  0.0000E+00  0.0000E+00  0.1200E+03  0.1200E+03
    -36.626  0.0000E+00  0.0000E+00  0.1200E+03  0.1200E+03
    -36.387  0.0000E+00  0.0000E+00  0.1200E+03  0.1200E+03
    -36.149  0.0000E+00  0.0000E+00  0.1200E+03  0.1200E+03
    -35.911  0.0000E+00  0.0000E+00  0.1200E+03  0.1200E+03
    -35.673  0.0000E+00  0.0000E+00  0.1200E+03  0.1200E+03
    -35.434  0.0000E+00  0.0000E+00  0.1200E+03  0.1200E+03
    -35.196  0.0000E+00  0.0000E+00  0.1200E+03  0.1200E+03
    -34.958  0.0000E+00  0.0000E+00  0.1200E+03  0.1200E+03
    -34.720  0.0000E+00  0.0000E+00  0.1200E+03  0.1200E+03
    -34.481  0.0000E+00  0.0000E+00  0.1200E+03  0.1200E+03
    -34.243  0.0000E+00  0.0000E+00  0.1200E+03  0.1200E+03
    -34.005  0.0000E+00  0.0000E+00  0.1200E+03  0.1200E+03
    -33.767  0.0000E+00  0.0000E+00  0.1200E+03  0.1200E+03
    -33.528  0.0000E+00  0.0000E+00  0.1200E+03  0.1200E+03
    -33.290  0.0000E+00  0.0000E+00  0.1200E+03  0.1200E+03
    -33.052  0.0000E+00  0.0000E+00  0.1200E+03  0.1200E+03
    -32.814  0.0000E+00  0.0000E+00  0.1200E+03  0.1200E+03
    -32.575  0.0000E+00  0.0000E+00  0.1200E+03  0.1200E+03
    -32.337  0.0000E+00  0.0000E+00  0.1200E+03  0.1200E+03
    -32.099  0.0000E+00  0.0000E+00  0.1200E+03  0.1200E+03
    -31.861  0.0000E+00  0.0000E+00  0.1200E+03  0.1200E+03
    -31.622  0.0000E+00  0.0000E+00  0.1200E+03  0.1200E+03
    -31.384  0.0000E+00  0.0000E+00  0.1200E+03  0.1200E+03
    -31.146  0.0000E+00  0.0000E+00  0.1200E+03  0.1200E+03
    -30.908  0.0000E+00  0.0000E+00  0.1200E+03  0.1200E+03
    -30.669  0.0000E+00  0.0000E+00  0.1200E+03  0.1200E+03
    -30.431  0.0000E+00  0.0000E+00  0.1200E+03  0.1200E+03
    -30.193  0.0000E+00  0.0000E+00  0.1200E+03  0.1200E+03
    -29.955  0.0000E+00  0.0000E+00  0.1200E+03  0.1200E+03
    -29.716  0.0000E+00  0.0000E+00  0.1200E+03  0.1200E+03
    -29.478  0.0000E+00  0.0000E+00  0.1200E+03  0.1200E+03
    -29.240  0.0000E+00  0.0000E+00  0.1200E+03  0.1200E+03
    -29.002  0.0000E+00  0.0000E+00  0.1200E+03  0.1200E+03
    -28.763  0.0000E+00  0.0000E+00  0.1200E+03  0.1200E+03
    -28.525  0.0000E+00  0.0000E+00  0.1200E+03  0.1200E+03
    -28.287  0.0000E+00  0.0000E+00  0.1200E+03  0.1200E+03
    -28.049  0.0000E+00  0.0000E+00  0.1200E+03  0.1200E+03
    -27.810  0.0000E+00  0.0000E+00  0.1200E+03  0.1200E+03
    -27.572  0.0000E+00  0.0000E+00  0.1200E+03  0.1200E+03
    -27.334  0.0000E+00  0.0000E+00  0.1200E+03  0.1200E+03
    -27.096  0.0000E+00  0.0000E+00  0.1200E+03  0.1200E+03
    -26.857  0.0000E+00  0.0000E+00  0.1200E+03  0.1200E+03
    -26.619  0.0000E+00  0.0000E+00  0.1200E+03  0.1200E+03
    -26.381  0.0000E+00  0.0000E+00  0.1200E+03  0.1200E+03
    -26.143  0.0000E+00  0.0000E+00  0.1200E+03  0.1200E+03
    -25.904  0.0000E+00  0.0000E+00  0.1200E+03  0.1200E+03
    -25.666  0.0000E+00  0.0000E+00  0.1200E+03  0.1200E+03
    -25.428  0.0000E+00  0.0000E+00  0.1200E+03  0.1200E+03
    -25.190  0.0000E+00  0.0000E+00  0.1200E+03  0.1200E+03
    -24.951  0.0000E+00  0.0000E+00  0.1200E+03  0.1200E+03
    -24.713  0.0000E+00  0.0000E+00  0.1200E+03  0.1200E+03
    -24.475  0.0000E+00  0.0000E+00  0.1200E+03  0.1200E+03
    -24.237  0.0000E+00  0.0000E+00  0.1200E+03  0.1200E+03
    -23.998  0.0000E+00  0.0000E+00  0.1200E+03  0.1200E+03
    -23.760  0.0000E+00  0.0000E+00  0.1200E+03  0.1200E+03
    -23.522  0.0000E+00  0.0000E+00  0.1200E+03  0.1200E+03
    -23.284  0.0000E+00  0.0000E+00  0.1200E+03  0.1200E+03
    -23.045  0.0000E+00  0.0000E+00  0.1200E+03  0.1200E+03
    -22.807  0.0000E+00  0.0000E+00  0.1200E+03  0.1200E+03
    -22.569  0.0000E+00  0.0000E+00  0.1200E+03  0.1200E+03
    -22.331  0.0000E+00  0.0000E+00  0.1200E+03  0.1200E+03
    -22.092  0.0000E+00  0.0000E+00  0.1200E+03  0.1200E+03
    -21.854  0.0000E+00  0.0000E+00  0.1200E+03  0.1200E+03
    -21.616  0.0000E+00  0.0000E+00  0.1200E+03  0.1200E+03
    -21.378  0.0000E+00  0.0000E+00  0.1200E+03  0.1200E+03
    -21.140  0.0000E+00  0.0000E+00  0.1200E+03  0.1200E+03
    -20.901  0.0000E+00  0.0000E+00  0.1200E+03  0.1200E+03
    -20.663  0.0000E+00  0.0000E+00  0.1200E+03  0.1200E+03
    -20.425  0.0000E+00  0.0000E+00  0.1200E+03  0.1200E+03
    -20.187  0.0000E+00  0.0000E+00  0.1200E+03  0.1200E+03
    -19.948  0.0000E+00  0.0000E+00  0.1200E+03  0.1200E+03
    -19.710  0.0000E+00  0.0000E+00  0.1200E+03  0.1200E+03
    -19.472  0.0000E+00  0.0000E+00  0.1200E+03  0.1200E+03
    -19.234  0.0000E+00  0.0000E+00  0.1200E+03  0.1200E+03
    -18.995  0.0000E+00  0.0000E+00  0.1200E+03  0.1200E+03
    -18.757  0.0000E+00  0.0000E+00  0.1200E+03  0.1200E+03
    -18.519  0.0000E+00  0.0000E+00  0.1200E+03  0.1200E+03
    -18.281  0.0000E+00  0.0000E+00  0.1200E+03  0.1200E+03
    -18.042  0.0000E+00  0.0000E+00  0.1200E+03  0.1200E+03
    -17.804  0.0000E+00  0.0000E+00  0.1200E+03  0.1200E+03
    -17.566  0.0000E+00  0.0000E+00  0.1200E+03  0.1200E+03
    -17.328  0.0000E+00  0.0000E+00  0.1200E+03  0.1200E+03
    -17.089  0.0000E+00  0.0000E+00  0.1200E+03  0.1200E+03
    -16.851  0.0000E+00  0.0000E+00  0.1200E+03  0.1200E+03
    -16.613  0.0000E+00  0.0000E+00  0.1200E+03  0.1200E+03
    -16.375  0.0000E+00  0.0000E+00  0.1200E+03  0.1200E+03
    -16.136  0.0000E+00  0.0000E+00  0.1200E+03  0.1200E+03
    -15.898  0.0000E+00  0.0000E+00  0.1200E+03  0.1200E+03
    -15.660  0.0000E+00  0.0000E+00  0.1200E+03  0.1200E+03
    -15.422  0.0000E+00  0.0000E+00  0.1200E+03  0.1200E+03
    -15.183  0.0000E+00  0.0000E+00  0.1200E+03  0.1200E+03
    -14.945  0.0000E+00  0.0000E+00  0.1200E+03  0.1200E+03
    -14.707  0.0000E+00  0.0000E+00  0.1200E+03  0.1200E+03
    -14.469  0.0000E+00  0.0000E+00  0.1200E+03  0.1200E+03
    -14.230  0.0000E+00  0.0000E+00  0.1200E+03  0.1200E+03
    -13.992  0.0000E+00  0.0000E+00  0.1200E+03  0.1200E+03
    -13.754  0.3809E-08  0.0000E+00  0.1200E+03  0.1200E+03
    -13.516  0.1047E+02  0.9924E-15  0.1225E+03  0.1200E+03
    -13.277  0.5992E+02  0.4851E+00  0.1368E+03  0.1201E+03
    -13.039  0.3034E+02  0.6909E+02  0.1440E+03  0.1366E+03
    -12.801  0.1386E-03  0.3116E+02  0.1440E+03  0.1440E+03
    -12.563  0.0000E+00  0.1389E-04  0.1440E+03  0.1440E+03
    -12.324  0.0000E+00  0.0000E+00  0.1440E+03  0.1440E+03
    -12.086  0.0000E+00  0.0000E+00  0.1440E+03  0.1440E+03
    -11.848  0.0000E+00  0.0000E+00  0.1440E+03  0.1440E+03
    -11.610  0.0000E+00  0.0000E+00  0.1440E+03  0.1440E+03
    -11.371  0.0000E+00  0.0000E+00  0.1440E+03  0.1440E+03
    -11.133  0.0000E+00  0.0000E+00  0.1440E+03  0.1440E+03
    -10.895  0.0000E+00  0.0000E+00  0.1440E+03  0.1440E+03
    -10.657  0.0000E+00  0.0000E+00  0.1440E+03  0.1440E+03
    -10.418  0.0000E+00  0.0000E+00  0.1440E+03  0.1440E+03
    -10.180  0.0000E+00  0.0000E+00  0.1440E+03  0.1440E+03
     -9.942  0.0000E+00  0.0000E+00  0.1440E+03  0.1440E+03
     -9.704  0.0000E+00  0.0000E+00  0.1440E+03  0.1440E+03
     -9.465  0.0000E+00  0.0000E+00  0.1440E+03  0.1440E+03
     -9.227  0.0000E+00  0.0000E+00  0.1440E+03  0.1440E+03
     -8.989  0.0000E+00  0.0000E+00  0.1440E+03  0.1440E+03
     -8.751  0.0000E+00  0.0000E+00  0.1440E+03  0.1440E+03
     -8.512  0.0000E+00  0.0000E+00  0.1440E+03  0.1440E+03
     -8.274  0.0000E+00  0.0000E+00  0.1440E+03  0.1440E+03
     -8.036  0.0000E+00  0.0000E+00  0.1440E+03  0.1440E+03
     -7.798  0.1926E-01  0.1079E-14  0.1440E+03  0.1440E+03
     -7.559  0.1932E+02  0.1952E+00  0.1486E+03  0.1440E+03
     -7.321  0.4872E+02  0.3009E+02  0.1602E+03  0.1512E+03
     -7.083  0.3199E+02  0.4931E+02  0.1678E+03  0.1630E+03
     -6.845  0.6811E+00  0.2062E+02  0.1680E+03  0.1679E+03
     -6.606  0.0000E+00  0.5259E+00  0.1680E+03  0.1680E+03
     -6.368  0.0000E+00  0.0000E+00  0.1680E+03  0.1680E+03
     -6.130  0.0000E+00  0.0000E+00  0.1680E+03  0.1680E+03
     -5.892  0.0000E+00  0.0000E+00  0.1680E+03  0.1680E+03
     -5.653  0.0000E+00  0.0000E+00  0.1680E+03  0.1680E+03
     -5.415  0.0000E+00  0.0000E+00  0.1680E+03  0.1680E+03
     -5.177  0.0000E+00  0.0000E+00  0.1680E+03  0.1680E+03
     -4.939  0.0000E+00  0.0000E+00  0.1680E+03  0.1680E+03
     -4.700  0.0000E+00  0.0000E+00  0.1680E+03  0.1680E+03
     -4.462  0.0000E+00  0.0000E+00  0.1680E+03  0.1680E+03
     -4.224  0.0000E+00  0.0000E+00  0.1680E+03  0.1680E+03
     -3.986  0.0000E+00  0.0000E+00  0.1680E+03  0.1680E+03
     -3.747  0.0000E+00  0.0000E+00  0.1680E+03  0.1680E+03
     -3.509  0.0000E+00  0.0000E+00  0.1680E+03  0.1680E+03
     -3.271  0.0000E+00  0.0000E+00  0.1680E+03  0.1680E+03
     -3.033  0.0000E+00  0.0000E+00  0.1680E+03  0.1680E+03
     -2.794  0.0000E+00  0.0000E+00  0.1680E+03  0.1680E+03
     -2.556  0.0000E+00  0.0000E+00  0.1680E+03  0.1680E+03
     -2.318  0.0000E+00  0.0000E+00  0.1680E+03  0.1680E+03
     -2.080  0.6638E-05  0.0000E+00  0.1680E+03  0.1680E+03
     -1.841  0.9363E+01  0.0000E+00  0.1702E+03  0.1680E+03
     -1.603  0.5931E+02  0.0000E+00  0.1844E+03  0.1680E+03
     -1.365  0.3983E+02  0.0000E+00  0.1939E+03  0.1680E+03
     -1.127  0.3292E+02  0.0000E+00  0.2017E+03  0.1680E+03
     -0.888  0.5480E+02  0.8841E-08  0.2148E+03  0.1680E+03
     -0.650  0.5299E+02  0.2126E+01  0.2274E+03  0.1685E+03
     -0.412  0.6753E+02  0.1795E+02  0.2435E+03  0.1728E+03
     -0.174  0.5331E+02  0.3891E+02  0.2562E+03  0.1821E+03
      0.065  0.3471E+02  0.3435E+02  0.2644E+03  0.1902E+03
      0.303  0.5547E+02  0.2390E+02  0.2776E+03  0.1959E+03
      0.541  0.4717E+02  0.4871E+02  0.2889E+03  0.2075E+03
      0.779  0.3240E+02  0.4889E+02  0.2966E+03  0.2192E+03
      1.018  0.5012E+02  0.6852E+02  0.3086E+03  0.2355E+03
      1.256  0.4982E+02  0.2453E+02  0.3204E+03  0.2414E+03
      1.494  0.5399E+02  0.2365E+02  0.3333E+03  0.2470E+03
      1.732  0.6174E+02  0.3864E+02  0.3480E+03  0.2562E+03
      1.971  0.3335E+02  0.4584E+02  0.3559E+03  0.2671E+03
      2.209  0.2354E+02  0.2905E+02  0.3615E+03  0.2740E+03
      2.447  0.1420E+02  0.3565E+02  0.3649E+03  0.2825E+03
      2.685  0.3758E+02  0.2553E+02  0.3739E+03  0.2886E+03
      2.924  0.3875E+02  0.4567E+02  0.3831E+03  0.2995E+03
      3.162  0.3070E+02  0.4173E+02  0.3904E+03  0.3094E+03
      3.400  0.4407E+02  0.1381E+02  0.4009E+03  0.3127E+03
      3.638  0.5380E+02  0.3201E+02  0.4137E+03  0.3204E+03
      3.877  0.4665E+02  0.5644E+02  0.4249E+03  0.3338E+03
      4.115  0.2831E+02  0.9246E+01  0.4316E+03  0.3360E+03
      4.353  0.1645E+01  0.1804E-05  0.4320E+03  0.3360E+03
      4.591  0.0000E+00  0.0000E+00  0.4320E+03  0.3360E+03
      4.830  0.0000E+00  0.0000E+00  0.4320E+03  0.3360E+03
      5.068  0.0000E+00  0.0000E+00  0.4320E+03  0.3360E+03
      5.306  0.0000E+00  0.0000E+00  0.4320E+03  0.3360E+03
      5.544  0.0000E+00  0.0000E+00  0.4320E+03  0.3360E+03
      5.783  0.0000E+00  0.0000E+00  0.4320E+03  0.3360E+03
      6.021  0.0000E+00  0.6871E-02  0.4320E+03  0.3360E+03
      6.259  0.0000E+00  0.2032E+01  0.4320E+03  0.3365E+03
      6.497  0.0000E+00  0.1398E+02  0.4320E+03  0.3398E+03
      6.736  0.0000E+00  0.2703E+02  0.4320E+03  0.3463E+03
      6.974  0.0000E+00  0.2559E+02  0.4320E+03  0.3524E+03
      7.212  0.2244E-04  0.5905E+02  0.4320E+03  0.3664E+03
      7.450  0.1553E+00  0.7435E+02  0.4320E+03  0.3841E+03
      7.689  0.7850E+00  0.2918E+02  0.4322E+03  0.3911E+03
      7.927  0.1589E+01  0.4152E+02  0.4326E+03  0.4010E+03
      8.165  0.4831E+01  0.7905E+02  0.4338E+03  0.4198E+03
      8.403  0.7367E+01  0.4820E+02  0.4355E+03  0.4313E+03
      8.642  0.1572E+02  0.3396E+01  0.4393E+03  0.4321E+03
      8.880  0.2409E+02  0.1236E+01  0.4450E+03  0.4324E+03
      9.118  0.1995E+02  0.4537E+01  0.4497E+03  0.4335E+03
      9.356  0.1935E+02  0.1107E+02  0.4544E+03  0.4361E+03
      9.595  0.1975E+02  0.2145E+02  0.4591E+03  0.4412E+03
      9.833  0.2450E+02  0.2895E+02  0.4649E+03  0.4481E+03
     10.071  0.2190E+02  0.3014E+02  0.4701E+03  0.4553E+03
     10.309  0.1804E+02  0.2994E+02  0.4744E+03  0.4624E+03
     10.548  0.2483E+02  0.2573E+02  0.4803E+03  0.4686E+03
     10.786  0.1463E+02  0.2578E+02  0.4838E+03  0.4747E+03
     11.024  0.2817E+02  0.2390E+02  0.4905E+03  0.4804E+03
     11.262  0.4563E+02  0.1057E+02  0.5014E+03  0.4829E+03
     11.501  0.4850E+02  0.2604E+02  0.5130E+03  0.4891E+03
     11.739  0.3472E+02  0.3128E+02  0.5212E+03  0.4966E+03
     11.977  0.2043E+02  0.5609E+02  0.5261E+03  0.5099E+03
     12.215  0.2073E+02  0.4422E+02  0.5310E+03  0.5205E+03
     12.454  0.3068E+02  0.2662E+02  0.5383E+03  0.5268E+03
     12.692  0.3177E+02  0.2387E+02  0.5459E+03  0.5325E+03
     12.930  0.1815E+02  0.2731E+02  0.5502E+03  0.5390E+03
     13.168  0.7324E+01  0.3297E+02  0.5520E+03  0.5469E+03
     13.407  0.8171E-01  0.1766E+02  0.5520E+03  0.5511E+03
     13.645  0.0000E+00  0.3890E+01  0.5520E+03  0.5520E+03
     13.883  0.0000E+00  0.4379E-05  0.5520E+03  0.5520E+03
     14.121  0.0000E+00  0.0000E+00  0.5520E+03  0.5520E+03
     14.360  0.0000E+00  0.0000E+00  0.5520E+03  0.5520E+03
     14.598  0.0000E+00  0.0000E+00  0.5520E+03  0.5520E+03
     14.836  0.0000E+00  0.0000E+00  0.5520E+03  0.5520E+03
     15.074  0.0000E+00  0.0000E+00  0.5520E+03  0.5520E+03
     15.313  0.0000E+00  0.0000E+00  0.5520E+03  0.5520E+03
     15.551  0.0000E+00  0.0000E+00  0.5520E+03  0.5520E+03
     15.789  0.0000E+00  0.0000E+00  0.5520E+03  0.5520E+03
     16.027  0.0000E+00  0.0000E+00  0.5520E+03  0.5520E+03
     16.266  0.0000E+00  0.0000E+00  0.5520E+03  0.5520E+03
     16.504  0.0000E+00  0.0000E+00  0.5520E+03  0.5520E+03
     16.742  0.0000E+00  0.0000E+00  0.5520E+03  0.5520E+03
