 126 126   0   0
  0.1357194E+02  0.1157659E-08  0.1157660E-08  0.1387803E-08  0.5000000E-15
  1.000000000000000E-004
  CAR 
 unknown system                          
     17.61873826    -54.41602761  301      5.43285703      1.00000000
    -54.416  0.0000E+00  0.0000E+00  0.0000E+00  0.0000E+00
    -54.176  0.0000E+00  0.0000E+00  0.0000E+00  0.0000E+00
    -53.936  0.0000E+00  0.0000E+00  0.0000E+00  0.0000E+00
    -53.696  0.0000E+00  0.0000E+00  0.0000E+00  0.0000E+00
    -53.456  0.0000E+00  0.0000E+00  0.0000E+00  0.0000E+00
    -53.215  0.0000E+00  0.0000E+00  0.0000E+00  0.0000E+00
    -52.975  0.0000E+00  0.0000E+00  0.0000E+00  0.0000E+00
    -52.735  0.0000E+00  0.0000E+00  0.0000E+00  0.0000E+00
    -52.495  0.0000E+00  0.0000E+00  0.0000E+00  0.0000E+00
    -52.255  0.0000E+00  0.0000E+00  0.0000E+00  0.0000E+00
    -52.015  0.0000E+00  0.0000E+00  0.0000E+00  0.0000E+00
    -51.775  0.0000E+00  0.0000E+00  0.0000E+00  0.0000E+00
    -51.535  0.0000E+00  0.0000E+00  0.0000E+00  0.0000E+00
    -51.295  0.8591E-03  0.0000E+00  0.2063E-03  0.0000E+00
    -51.054  0.1487E+03  0.0000E+00  0.3571E+02  0.0000E+00
    -50.814  0.1227E+01  0.0000E+00  0.3600E+02  0.0000E+00
    -50.574  0.0000E+00  0.0000E+00  0.3600E+02  0.0000E+00
    -50.334  0.0000E+00  0.0000E+00  0.3600E+02  0.0000E+00
    -50.094  0.0000E+00  0.0000E+00  0.3600E+02  0.0000E+00
    -49.854  0.2115E-05  0.0000E+00  0.3600E+02  0.0000E+00
    -49.614  0.2600E+03  0.0000E+00  0.9844E+02  0.0000E+00
    -49.374  0.3981E+02  0.0000E+00  0.1080E+03  0.0000E+00
    -49.133  0.0000E+00  0.0000E+00  0.1080E+03  0.0000E+00
    -48.893  0.0000E+00  0.0000E+00  0.1080E+03  0.0000E+00
    -48.653  0.0000E+00  0.0000E+00  0.1080E+03  0.0000E+00
    -48.413  0.0000E+00  0.0000E+00  0.1080E+03  0.0000E+00
    -48.173  0.0000E+00  0.0000E+00  0.1080E+03  0.0000E+00
    -47.933  0.0000E+00  0.0000E+00  0.1080E+03  0.0000E+00
    -47.693  0.0000E+00  0.0000E+00  0.1080E+03  0.0000E+00
    -47.453  0.0000E+00  0.0000E+00  0.1080E+03  0.0000E+00
    -47.213  0.0000E+00  0.0000E+00  0.1080E+03  0.0000E+00
    -46.972  0.0000E+00  0.0000E+00  0.1080E+03  0.0000E+00
    -46.732  0.0000E+00  0.0000E+00  0.1080E+03  0.0000E+00
    -46.492  0.0000E+00  0.3643E+00  0.1080E+03  0.8746E-01
    -46.252  0.0000E+00  0.1496E+03  0.1080E+03  0.3600E+02
    -46.012  0.0000E+00  0.4875E+01  0.1080E+03  0.3717E+02
    -45.772  0.0000E+00  0.2950E+03  0.1080E+03  0.1080E+03
    -45.532  0.0000E+00  0.0000E+00  0.1080E+03  0.1080E+03
    -45.292  0.0000E+00  0.0000E+00  0.1080E+03  0.1080E+03
    -45.052  0.0000E+00  0.0000E+00  0.1080E+03  0.1080E+03
    -44.811  0.0000E+00  0.0000E+00  0.1080E+03  0.1080E+03
    -44.571  0.0000E+00  0.0000E+00  0.1080E+03  0.1080E+03
    -44.331  0.0000E+00  0.0000E+00  0.1080E+03  0.1080E+03
    -44.091  0.0000E+00  0.0000E+00  0.1080E+03  0.1080E+03
    -43.851  0.0000E+00  0.0000E+00  0.1080E+03  0.1080E+03
    -43.611  0.0000E+00  0.0000E+00  0.1080E+03  0.1080E+03
    -43.371  0.0000E+00  0.0000E+00  0.1080E+03  0.1080E+03
    -43.131  0.0000E+00  0.0000E+00  0.1080E+03  0.1080E+03
    -42.890  0.0000E+00  0.0000E+00  0.1080E+03  0.1080E+03
    -42.650  0.0000E+00  0.0000E+00  0.1080E+03  0.1080E+03
    -42.410  0.0000E+00  0.0000E+00  0.1080E+03  0.1080E+03
    -42.170  0.0000E+00  0.0000E+00  0.1080E+03  0.1080E+03
    -41.930  0.0000E+00  0.0000E+00  0.1080E+03  0.1080E+03
    -41.690  0.0000E+00  0.0000E+00  0.1080E+03  0.1080E+03
    -41.450  0.0000E+00  0.0000E+00  0.1080E+03  0.1080E+03
    -41.210  0.0000E+00  0.0000E+00  0.1080E+03  0.1080E+03
    -40.970  0.0000E+00  0.0000E+00  0.1080E+03  0.1080E+03
    -40.729  0.0000E+00  0.0000E+00  0.1080E+03  0.1080E+03
    -40.489  0.0000E+00  0.0000E+00  0.1080E+03  0.1080E+03
    -40.249  0.0000E+00  0.0000E+00  0.1080E+03  0.1080E+03
    -40.009  0.0000E+00  0.0000E+00  0.1080E+03  0.1080E+03
    -39.769  0.1951E-02  0.1803E-02  0.1080E+03  0.1080E+03
    -39.529  0.1478E+03  0.1477E+03  0.1435E+03  0.1435E+03
    -39.289  0.2127E+01  0.2205E+01  0.1440E+03  0.1440E+03
    -39.049  0.0000E+00  0.0000E+00  0.1440E+03  0.1440E+03
    -38.808  0.0000E+00  0.0000E+00  0.1440E+03  0.1440E+03
    -38.568  0.0000E+00  0.0000E+00  0.1440E+03  0.1440E+03
    -38.328  0.0000E+00  0.0000E+00  0.1440E+03  0.1440E+03
    -38.088  0.0000E+00  0.0000E+00  0.1440E+03  0.1440E+03
    -37.848  0.0000E+00  0.0000E+00  0.1440E+03  0.1440E+03
    -37.608  0.0000E+00  0.0000E+00  0.1440E+03  0.1440E+03
    -37.368  0.0000E+00  0.0000E+00  0.1440E+03  0.1440E+03
    -37.128  0.0000E+00  0.0000E+00  0.1440E+03  0.1440E+03
    -36.888  0.0000E+00  0.0000E+00  0.1440E+03  0.1440E+03
    -36.647  0.0000E+00  0.0000E+00  0.1440E+03  0.1440E+03
    -36.407  0.0000E+00  0.0000E+00  0.1440E+03  0.1440E+03
    -36.167  0.0000E+00  0.0000E+00  0.1440E+03  0.1440E+03
    -35.927  0.0000E+00  0.0000E+00  0.1440E+03  0.1440E+03
    -35.687  0.0000E+00  0.0000E+00  0.1440E+03  0.1440E+03
    -35.447  0.0000E+00  0.0000E+00  0.1440E+03  0.1440E+03
    -35.207  0.0000E+00  0.0000E+00  0.1440E+03  0.1440E+03
    -34.967  0.0000E+00  0.0000E+00  0.1440E+03  0.1440E+03
    -34.727  0.0000E+00  0.0000E+00  0.1440E+03  0.1440E+03
    -34.486  0.0000E+00  0.0000E+00  0.1440E+03  0.1440E+03
    -34.246  0.0000E+00  0.0000E+00  0.1440E+03  0.1440E+03
    -34.006  0.0000E+00  0.0000E+00  0.1440E+03  0.1440E+03
    -33.766  0.0000E+00  0.0000E+00  0.1440E+03  0.1440E+03
    -33.526  0.0000E+00  0.0000E+00  0.1440E+03  0.1440E+03
    -33.286  0.0000E+00  0.0000E+00  0.1440E+03  0.1440E+03
    -33.046  0.0000E+00  0.0000E+00  0.1440E+03  0.1440E+03
    -32.806  0.0000E+00  0.0000E+00  0.1440E+03  0.1440E+03
    -32.565  0.0000E+00  0.0000E+00  0.1440E+03  0.1440E+03
    -32.325  0.0000E+00  0.0000E+00  0.1440E+03  0.1440E+03
    -32.085  0.0000E+00  0.0000E+00  0.1440E+03  0.1440E+03
    -31.845  0.0000E+00  0.0000E+00  0.1440E+03  0.1440E+03
    -31.605  0.0000E+00  0.0000E+00  0.1440E+03  0.1440E+03
    -31.365  0.0000E+00  0.0000E+00  0.1440E+03  0.1440E+03
    -31.125  0.0000E+00  0.0000E+00  0.1440E+03  0.1440E+03
    -30.885  0.0000E+00  0.0000E+00  0.1440E+03  0.1440E+03
    -30.645  0.0000E+00  0.0000E+00  0.1440E+03  0.1440E+03
    -30.404  0.0000E+00  0.0000E+00  0.1440E+03  0.1440E+03
    -30.164  0.0000E+00  0.0000E+00  0.1440E+03  0.1440E+03
    -29.924  0.0000E+00  0.0000E+00  0.1440E+03  0.1440E+03
    -29.684  0.0000E+00  0.0000E+00  0.1440E+03  0.1440E+03
    -29.444  0.0000E+00  0.0000E+00  0.1440E+03  0.1440E+03
    -29.204  0.0000E+00  0.0000E+00  0.1440E+03  0.1440E+03
    -28.964  0.0000E+00  0.0000E+00  0.1440E+03  0.1440E+03
    -28.724  0.0000E+00  0.0000E+00  0.1440E+03  0.1440E+03
    -28.484  0.0000E+00  0.0000E+00  0.1440E+03  0.1440E+03
    -28.243  0.0000E+00  0.0000E+00  0.1440E+03  0.1440E+03
    -28.003  0.0000E+00  0.0000E+00  0.1440E+03  0.1440E+03
    -27.763  0.0000E+00  0.0000E+00  0.1440E+03  0.1440E+03
    -27.523  0.0000E+00  0.0000E+00  0.1440E+03  0.1440E+03
    -27.283  0.0000E+00  0.0000E+00  0.1440E+03  0.1440E+03
    -27.043  0.0000E+00  0.0000E+00  0.1440E+03  0.1440E+03
    -26.803  0.0000E+00  0.0000E+00  0.1440E+03  0.1440E+03
    -26.563  0.0000E+00  0.0000E+00  0.1440E+03  0.1440E+03
    -26.322  0.0000E+00  0.0000E+00  0.1440E+03  0.1440E+03
    -26.082  0.0000E+00  0.0000E+00  0.1440E+03  0.1440E+03
    -25.842  0.0000E+00  0.0000E+00  0.1440E+03  0.1440E+03
    -25.602  0.0000E+00  0.0000E+00  0.1440E+03  0.1440E+03
    -25.362  0.0000E+00  0.0000E+00  0.1440E+03  0.1440E+03
    -25.122  0.0000E+00  0.0000E+00  0.1440E+03  0.1440E+03
    -24.882  0.0000E+00  0.0000E+00  0.1440E+03  0.1440E+03
    -24.642  0.0000E+00  0.0000E+00  0.1440E+03  0.1440E+03
    -24.402  0.0000E+00  0.0000E+00  0.1440E+03  0.1440E+03
    -24.161  0.0000E+00  0.0000E+00  0.1440E+03  0.1440E+03
    -23.921  0.0000E+00  0.0000E+00  0.1440E+03  0.1440E+03
    -23.681  0.0000E+00  0.0000E+00  0.1440E+03  0.1440E+03
    -23.441  0.0000E+00  0.0000E+00  0.1440E+03  0.1440E+03
    -23.201  0.0000E+00  0.0000E+00  0.1440E+03  0.1440E+03
    -22.961  0.0000E+00  0.0000E+00  0.1440E+03  0.1440E+03
    -22.721  0.0000E+00  0.0000E+00  0.1440E+03  0.1440E+03
    -22.481  0.0000E+00  0.0000E+00  0.1440E+03  0.1440E+03
    -22.240  0.0000E+00  0.0000E+00  0.1440E+03  0.1440E+03
    -22.000  0.0000E+00  0.0000E+00  0.1440E+03  0.1440E+03
    -21.760  0.0000E+00  0.0000E+00  0.1440E+03  0.1440E+03
    -21.520  0.0000E+00  0.0000E+00  0.1440E+03  0.1440E+03
    -21.280  0.0000E+00  0.0000E+00  0.1440E+03  0.1440E+03
    -21.040  0.0000E+00  0.0000E+00  0.1440E+03  0.1440E+03
    -20.800  0.0000E+00  0.0000E+00  0.1440E+03  0.1440E+03
    -20.560  0.0000E+00  0.0000E+00  0.1440E+03  0.1440E+03
    -20.320  0.0000E+00  0.0000E+00  0.1440E+03  0.1440E+03
    -20.079  0.0000E+00  0.0000E+00  0.1440E+03  0.1440E+03
    -19.839  0.0000E+00  0.0000E+00  0.1440E+03  0.1440E+03
    -19.599  0.0000E+00  0.0000E+00  0.1440E+03  0.1440E+03
    -19.359  0.0000E+00  0.0000E+00  0.1440E+03  0.1440E+03
    -19.119  0.0000E+00  0.0000E+00  0.1440E+03  0.1440E+03
    -18.879  0.0000E+00  0.0000E+00  0.1440E+03  0.1440E+03
    -18.639  0.0000E+00  0.0000E+00  0.1440E+03  0.1440E+03
    -18.399  0.0000E+00  0.0000E+00  0.1440E+03  0.1440E+03
    -18.159  0.0000E+00  0.0000E+00  0.1440E+03  0.1440E+03
    -17.918  0.0000E+00  0.0000E+00  0.1440E+03  0.1440E+03
    -17.678  0.0000E+00  0.0000E+00  0.1440E+03  0.1440E+03
    -17.438  0.0000E+00  0.0000E+00  0.1440E+03  0.1440E+03
    -17.198  0.0000E+00  0.0000E+00  0.1440E+03  0.1440E+03
    -16.958  0.0000E+00  0.0000E+00  0.1440E+03  0.1440E+03
    -16.718  0.0000E+00  0.0000E+00  0.1440E+03  0.1440E+03
    -16.478  0.0000E+00  0.0000E+00  0.1440E+03  0.1440E+03
    -16.238  0.0000E+00  0.0000E+00  0.1440E+03  0.1440E+03
    -15.997  0.0000E+00  0.0000E+00  0.1440E+03  0.1440E+03
    -15.757  0.0000E+00  0.0000E+00  0.1440E+03  0.1440E+03
    -15.517  0.0000E+00  0.0000E+00  0.1440E+03  0.1440E+03
    -15.277  0.0000E+00  0.0000E+00  0.1440E+03  0.1440E+03
    -15.037  0.0000E+00  0.0000E+00  0.1440E+03  0.1440E+03
    -14.797  0.0000E+00  0.0000E+00  0.1440E+03  0.1440E+03
    -14.557  0.0000E+00  0.0000E+00  0.1440E+03  0.1440E+03
    -14.317  0.0000E+00  0.0000E+00  0.1440E+03  0.1440E+03
    -14.077  0.0000E+00  0.0000E+00  0.1440E+03  0.1440E+03
    -13.836  0.0000E+00  0.0000E+00  0.1440E+03  0.1440E+03
    -13.596  0.0000E+00  0.0000E+00  0.1440E+03  0.1440E+03
    -13.356  0.0000E+00  0.0000E+00  0.1440E+03  0.1440E+03
    -13.116  0.0000E+00  0.0000E+00  0.1440E+03  0.1440E+03
    -12.876  0.2463E-01  0.0000E+00  0.1440E+03  0.1440E+03
    -12.636  0.7291E+02  0.4369E-03  0.1615E+03  0.1440E+03
    -12.396  0.2026E+01  0.6360E+02  0.1620E+03  0.1593E+03
    -12.156  0.0000E+00  0.1136E+02  0.1620E+03  0.1620E+03
    -11.916  0.0000E+00  0.0000E+00  0.1620E+03  0.1620E+03
    -11.675  0.0000E+00  0.0000E+00  0.1620E+03  0.1620E+03
    -11.435  0.0000E+00  0.0000E+00  0.1620E+03  0.1620E+03
    -11.195  0.0000E+00  0.0000E+00  0.1620E+03  0.1620E+03
    -10.955  0.0000E+00  0.0000E+00  0.1620E+03  0.1620E+03
    -10.715  0.0000E+00  0.0000E+00  0.1620E+03  0.1620E+03
    -10.475  0.0000E+00  0.0000E+00  0.1620E+03  0.1620E+03
    -10.235  0.0000E+00  0.0000E+00  0.1620E+03  0.1620E+03
     -9.995  0.0000E+00  0.0000E+00  0.1620E+03  0.1620E+03
     -9.754  0.0000E+00  0.0000E+00  0.1620E+03  0.1620E+03
     -9.514  0.0000E+00  0.0000E+00  0.1620E+03  0.1620E+03
     -9.274  0.0000E+00  0.0000E+00  0.1620E+03  0.1620E+03
     -9.034  0.0000E+00  0.0000E+00  0.1620E+03  0.1620E+03
     -8.794  0.0000E+00  0.0000E+00  0.1620E+03  0.1620E+03
     -8.554  0.0000E+00  0.0000E+00  0.1620E+03  0.1620E+03
     -8.314  0.0000E+00  0.0000E+00  0.1620E+03  0.1620E+03
     -8.074  0.0000E+00  0.0000E+00  0.1620E+03  0.1620E+03
     -7.834  0.6482E-02  0.8605E-15  0.1620E+03  0.1620E+03
     -7.593  0.7823E+01  0.7656E-01  0.1639E+03  0.1620E+03
     -7.353  0.1430E+02  0.9588E+01  0.1673E+03  0.1643E+03
     -7.113  0.2442E+02  0.1707E+02  0.1732E+03  0.1684E+03
     -6.873  0.7349E+02  0.2407E+02  0.1908E+03  0.1742E+03
     -6.633  0.2989E+02  0.6963E+02  0.1980E+03  0.1909E+03
     -6.393  0.1955E-03  0.2947E+02  0.1980E+03  0.1980E+03
     -6.153  0.0000E+00  0.1443E-01  0.1980E+03  0.1980E+03
     -5.913  0.0000E+00  0.0000E+00  0.1980E+03  0.1980E+03
     -5.673  0.0000E+00  0.0000E+00  0.1980E+03  0.1980E+03
     -5.432  0.0000E+00  0.0000E+00  0.1980E+03  0.1980E+03
     -5.192  0.0000E+00  0.0000E+00  0.1980E+03  0.1980E+03
     -4.952  0.0000E+00  0.0000E+00  0.1980E+03  0.1980E+03
     -4.712  0.0000E+00  0.0000E+00  0.1980E+03  0.1980E+03
     -4.472  0.0000E+00  0.0000E+00  0.1980E+03  0.1980E+03
     -4.232  0.0000E+00  0.0000E+00  0.1980E+03  0.1980E+03
     -3.992  0.0000E+00  0.0000E+00  0.1980E+03  0.1980E+03
     -3.752  0.0000E+00  0.0000E+00  0.1980E+03  0.1980E+03
     -3.511  0.0000E+00  0.0000E+00  0.1980E+03  0.1980E+03
     -3.271  0.0000E+00  0.0000E+00  0.1980E+03  0.1980E+03
     -3.031  0.0000E+00  0.0000E+00  0.1980E+03  0.1980E+03
     -2.791  0.0000E+00  0.0000E+00  0.1980E+03  0.1980E+03
     -2.551  0.0000E+00  0.0000E+00  0.1980E+03  0.1980E+03
     -2.311  0.0000E+00  0.0000E+00  0.1980E+03  0.1980E+03
     -2.071  0.0000E+00  0.0000E+00  0.1980E+03  0.1980E+03
     -1.831  0.1798E-15  0.0000E+00  0.1980E+03  0.1980E+03
     -1.591  0.1197E+00  0.0000E+00  0.1980E+03  0.1980E+03
     -1.350  0.4551E+02  0.0000E+00  0.2090E+03  0.1980E+03
     -1.110  0.2934E+02  0.0000E+00  0.2160E+03  0.1980E+03
     -0.870  0.2925E+01  0.0000E+00  0.2167E+03  0.1980E+03
     -0.630  0.3954E+02  0.3028E-10  0.2262E+03  0.1980E+03
     -0.390  0.1074E+03  0.1211E+01  0.2520E+03  0.1983E+03
     -0.150  0.1173E+03  0.1253E+02  0.2802E+03  0.2013E+03
      0.090  0.1056E+03  0.1987E+02  0.3055E+03  0.2061E+03
      0.330  0.8739E+02  0.2738E+02  0.3265E+03  0.2126E+03
      0.571  0.7737E+02  0.3055E+02  0.3451E+03  0.2200E+03
      0.811  0.3510E+02  0.3800E+02  0.3535E+03  0.2291E+03
      1.051  0.3005E+02  0.3553E+02  0.3607E+03  0.2376E+03
      1.291  0.5006E+02  0.4702E+02  0.3727E+03  0.2489E+03
      1.531  0.3186E+02  0.3083E+02  0.3804E+03  0.2563E+03
      1.771  0.5622E+02  0.6118E+02  0.3939E+03  0.2710E+03
      2.011  0.1234E+03  0.4774E+02  0.4235E+03  0.2825E+03
      2.251  0.7921E+02  0.1856E+02  0.4425E+03  0.2869E+03
      2.491  0.5344E+02  0.2998E+02  0.4554E+03  0.2941E+03
      2.732  0.3975E+02  0.5974E+02  0.4649E+03  0.3085E+03
      2.972  0.2559E+02  0.5011E+02  0.4711E+03  0.3205E+03
      3.212  0.1585E+02  0.5585E+02  0.4749E+03  0.3339E+03
      3.452  0.2724E+02  0.7525E+02  0.4814E+03  0.3520E+03
      3.692  0.4055E+02  0.2727E+02  0.4911E+03  0.3585E+03
      3.932  0.4239E+02  0.1923E+02  0.5013E+03  0.3632E+03
      4.172  0.4499E+02  0.9240E+02  0.5121E+03  0.3853E+03
      4.412  0.4540E+02  0.4254E+02  0.5230E+03  0.3956E+03
      4.652  0.2504E+02  0.1821E+01  0.5290E+03  0.3960E+03
      4.893  0.2760E+02  0.3684E-05  0.5357E+03  0.3960E+03
      5.133  0.1803E+02  0.0000E+00  0.5400E+03  0.3960E+03
      5.373  0.4710E-01  0.0000E+00  0.5400E+03  0.3960E+03
      5.613  0.0000E+00  0.0000E+00  0.5400E+03  0.3960E+03
      5.853  0.0000E+00  0.0000E+00  0.5400E+03  0.3960E+03
      6.093  0.0000E+00  0.1544E-13  0.5400E+03  0.3960E+03
      6.333  0.0000E+00  0.1486E+00  0.5400E+03  0.3960E+03
      6.573  0.0000E+00  0.4340E+01  0.5400E+03  0.3971E+03
      6.814  0.0000E+00  0.1357E+02  0.5400E+03  0.4003E+03
      7.054  0.0000E+00  0.2962E+02  0.5400E+03  0.4074E+03
      7.294  0.4054E-05  0.5608E+02  0.5400E+03  0.4209E+03
      7.534  0.4994E+00  0.7974E+02  0.5401E+03  0.4401E+03
      7.774  0.2304E+01  0.6793E+02  0.5407E+03  0.4564E+03
      8.014  0.1596E+01  0.8224E+02  0.5411E+03  0.4761E+03
      8.254  0.7090E+01  0.9962E+02  0.5428E+03  0.5000E+03
      8.494  0.7724E+01  0.3951E+02  0.5446E+03  0.5095E+03
      8.734  0.4743E+01  0.4396E+02  0.5458E+03  0.5201E+03
      8.975  0.1112E+02  0.4068E+02  0.5484E+03  0.5298E+03
      9.215  0.2024E+02  0.3959E+02  0.5533E+03  0.5394E+03
      9.455  0.2060E+02  0.1504E+02  0.5582E+03  0.5430E+03
      9.695  0.3062E+02  0.1593E+02  0.5656E+03  0.5468E+03
      9.935  0.2776E+02  0.1309E+02  0.5722E+03  0.5499E+03
     10.175  0.1749E+02  0.2504E+02  0.5764E+03  0.5559E+03
     10.415  0.1458E+02  0.2274E+02  0.5799E+03  0.5614E+03
     10.655  0.1879E+02  0.2729E+02  0.5845E+03  0.5680E+03
     10.895  0.2361E+02  0.2508E+02  0.5901E+03  0.5740E+03
     11.136  0.2854E+02  0.2516E+02  0.5970E+03  0.5800E+03
     11.376  0.2940E+02  0.2007E+02  0.6040E+03  0.5848E+03
     11.616  0.3029E+02  0.2448E+02  0.6113E+03  0.5907E+03
     11.856  0.2983E+02  0.2664E+02  0.6185E+03  0.5971E+03
     12.096  0.4149E+02  0.2671E+02  0.6284E+03  0.6035E+03
     12.336  0.5039E+02  0.3631E+02  0.6405E+03  0.6122E+03
     12.576  0.2580E+02  0.3784E+02  0.6467E+03  0.6213E+03
     12.816  0.2725E+02  0.4671E+02  0.6533E+03  0.6325E+03
     13.057  0.3288E+02  0.3569E+02  0.6612E+03  0.6411E+03
     13.297  0.3693E+02  0.2964E+02  0.6700E+03  0.6482E+03
     13.537  0.2475E+02  0.4854E+02  0.6760E+03  0.6599E+03
     13.777  0.1261E+02  0.3882E+02  0.6790E+03  0.6692E+03
     14.017  0.4139E+01  0.2100E+02  0.6800E+03  0.6743E+03
     14.257  0.3122E-02  0.1806E+02  0.6800E+03  0.6786E+03
     14.497  0.0000E+00  0.5872E+01  0.6800E+03  0.6800E+03
     14.737  0.0000E+00  0.6327E-05  0.6800E+03  0.6800E+03
     14.977  0.0000E+00  0.0000E+00  0.6800E+03  0.6800E+03
     15.218  0.0000E+00  0.0000E+00  0.6800E+03  0.6800E+03
     15.458  0.0000E+00  0.0000E+00  0.6800E+03  0.6800E+03
     15.698  0.0000E+00  0.0000E+00  0.6800E+03  0.6800E+03
     15.938  0.0000E+00  0.0000E+00  0.6800E+03  0.6800E+03
     16.178  0.0000E+00  0.0000E+00  0.6800E+03  0.6800E+03
     16.418  0.0000E+00  0.0000E+00  0.6800E+03  0.6800E+03
     16.658  0.0000E+00  0.0000E+00  0.6800E+03  0.6800E+03
     16.898  0.0000E+00  0.0000E+00  0.6800E+03  0.6800E+03
     17.139  0.0000E+00  0.0000E+00  0.6800E+03  0.6800E+03
     17.379  0.0000E+00  0.0000E+00  0.6800E+03  0.6800E+03
     17.619  0.0000E+00  0.0000E+00  0.6800E+03  0.6800E+03
