 vasp.5.4.4.18Apr17-6-g9f103f2a35 (build Oct 25 2017 14:42:18) complex          
  
 executed on             LinuxIFC date 2021.04.17  03:53:54
 running on   48 total cores
 distrk:  each k-point on   24 cores,    2 groups
 distr:  one band on NCORES_PER_BAND=   6 cores,    4 groups


--------------------------------------------------------------------------------------------------------


 INCAR:
 POTCAR:    PAW_PBE Li_sv 10Sep2004               
 POTCAR:    PAW_PBE O 08Apr2002                   
 POTCAR:    PAW_PBE S 06Sep2000                   
 POTCAR:    PAW_PBE Fe_pv 02Aug2007               

 ----------------------------------------------------------------------------- 
|                                                                             |
|           W    W    AA    RRRRR   N    N  II  N    N   GGGG   !!!           |
|           W    W   A  A   R    R  NN   N  II  NN   N  G    G  !!!           |
|           W    W  A    A  R    R  N N  N  II  N N  N  G       !!!           |
|           W WW W  AAAAAA  RRRRR   N  N N  II  N  N N  G  GGG   !            |
|           WW  WW  A    A  R   R   N   NN  II  N   NN  G    G                |
|           W    W  A    A  R    R  N    N  II  N    N   GGGG   !!!           |
|                                                                             |
|      You have enabled k-point parallelism (KPAR>1).                         |
|      This developmental code was originally  written by Paul Kent at ORNL,  |
|      and carefully double checked in Vienna.                                |
|      GW as well as linear response parallelism added by Martijn Marsman     |
|      and Georg Kresse.                                                      |
|      Carefully verify results versus KPAR=1.                                |
|      Report problems to Paul Kent and Vienna.                               |
|                                                                             |
 ----------------------------------------------------------------------------- 

 POTCAR:    PAW_PBE Li_sv 10Sep2004               
  local pseudopotential read in
  atomic valenz-charges read in
  non local Contribution for L=           0  read in
    real space projection operators read in
  non local Contribution for L=           0  read in
    real space projection operators read in
  non local Contribution for L=           1  read in
    real space projection operators read in
    PAW grid and wavefunctions read in
 
   number of l-projection  operators is LMAX  =           3
   number of lm-projection operators is LMMAX =           5
 
 POTCAR:    PAW_PBE O 08Apr2002                   
  local pseudopotential read in
  partial core-charges read in
  partial kinetic energy density read in
  kinetic energy density of atom read in
  atomic valenz-charges read in
  non local Contribution for L=           0  read in
    real space projection operators read in
  non local Contribution for L=           0  read in
    real space projection operators read in
  non local Contribution for L=           1  read in
    real space projection operators read in
  non local Contribution for L=           1  read in
    real space projection operators read in
    PAW grid and wavefunctions read in
 
   number of l-projection  operators is LMAX  =           4
   number of lm-projection operators is LMMAX =           8
 
 POTCAR:    PAW_PBE S 06Sep2000                   
  local pseudopotential read in
  partial core-charges read in
  partial kinetic energy density read in
  atomic valenz-charges read in
  non local Contribution for L=           0  read in
    real space projection operators read in
  non local Contribution for L=           0  read in
    real space projection operators read in
  non local Contribution for L=           1  read in
    real space projection operators read in
  non local Contribution for L=           1  read in
    real space projection operators read in
    PAW grid and wavefunctions read in
 
   number of l-projection  operators is LMAX  =           4
   number of lm-projection operators is LMMAX =           8
 
 POTCAR:    PAW_PBE Fe_pv 02Aug2007               
  local pseudopotential read in
  partial core-charges read in
  partial kinetic energy density read in
  atomic valenz-charges read in
  non local Contribution for L=           1  read in
    real space projection operators read in
  non local Contribution for L=           1  read in
    real space projection operators read in
  non local Contribution for L=           2  read in
    real space projection operators read in
  non local Contribution for L=           2  read in
    real space projection operators read in
  non local Contribution for L=           0  read in
    real space projection operators read in
  non local Contribution for L=           0  read in
    real space projection operators read in
    PAW grid and wavefunctions read in
 
   number of l-projection  operators is LMAX  =           6
   number of lm-projection operators is LMMAX =          18
 

 ----------------------------------------------------------------------------- 
|                                                                             |
|  ADVICE TO THIS USER RUNNING 'VASP/VAMP'   (HEAR YOUR MASTER'S VOICE ...):  |
|                                                                             |
|      You have a (more or less) 'large supercell' and for larger cells       |
|      it might be more efficient to use real space projection opertators     |
|      So try LREAL= Auto  in the INCAR   file.                               |
|      Mind:          For very  accurate calculation you might also keep the  |
|      reciprocal projection scheme          (i.e. LREAL=.FALSE.)             |
|                                                                             |
 ----------------------------------------------------------------------------- 

  PAW_PBE Li_sv 10Sep2004               :
 energy of atom  1       EATOM= -202.7858
 kinetic energy error for atom=    0.0072 (will be added to EATOM!!)
  PAW_PBE O 08Apr2002                   :
 energy of atom  2       EATOM= -432.3788
 kinetic energy error for atom=    0.0129 (will be added to EATOM!!)
  PAW_PBE S 06Sep2000                   :
 energy of atom  3       EATOM= -276.8230
 kinetic energy error for atom=    0.0008 (will be added to EATOM!!)
  PAW_PBE Fe_pv 02Aug2007               :
 energy of atom  4       EATOM=-2457.4239
 kinetic energy error for atom=    0.0041 (will be added to EATOM!!)
 
 
 POSCAR: # Compound: Li36O18S36Fe36. Old comment:
  positions in direct lattice
  No initial velocities read in
 exchange correlation table for  LEXCH =        8
   RHO(1)=    0.500       N(1)  =     2000
   RHO(2)=  100.500       N(2)  =     4000
 


--------------------------------------------------------------------------------------------------------


 ion  position               nearest neighbor table
   1  0.149  0.017  0.000-  37 1.93  39 1.93
   2  0.483  0.017  0.000-  38 1.93  37 1.93
   3  0.816  0.017  0.000-  39 1.93  38 1.93
   4  0.149  0.351  0.000-  40 1.93  42 1.93
   5  0.483  0.351  0.000-  41 1.93  40 1.93
   6  0.816  0.351  0.000-  42 1.93  41 1.93
   7  0.149  0.684  0.000-  43 1.93  45 1.93
   8  0.483  0.684  0.000-  44 1.93  43 1.93
   9  0.816  0.684  0.000-  45 1.93  44 1.93
  10  0.149  0.017  0.500-  46 1.93  48 1.93
  11  0.483  0.017  0.500-  47 1.93  46 1.93
  12  0.816  0.017  0.500-  48 1.93  47 1.93
  13  0.149  0.351  0.500-  49 1.93  51 1.93
  14  0.483  0.351  0.500-  50 1.93  49 1.93
  15  0.816  0.351  0.500-  51 1.93  50 1.93
  16  0.149  0.684  0.500-  52 1.93  54 1.93
  17  0.483  0.684  0.500-  53 1.93  52 1.93
  18  0.816  0.684  0.500-  54 1.93  53 1.93
  19  0.316  0.184  0.500-  46 1.93  49 1.93
  20  0.649  0.184  0.500-  47 1.93  50 1.93
  21  0.983  0.184  0.500-  48 1.93  51 1.93
  22  0.316  0.517  0.500-  49 1.93  52 1.93
  23  0.649  0.517  0.500-  50 1.93  53 1.93
  24  0.983  0.517  0.500-  51 1.93  54 1.93
  25  0.316  0.851  0.500-  52 1.93  46 1.93
  26  0.649  0.851  0.500-  53 1.93  47 1.93
  27  0.983  0.851  0.500-  54 1.93  48 1.93
  28  0.316  0.184  1.000-  37 1.93  40 1.93
  29  0.649  0.184  1.000-  38 1.93  41 1.93
  30  0.983  0.184  1.000-  39 1.93  42 1.93
  31  0.316  0.517  1.000-  40 1.93  43 1.93
  32  0.649  0.517  1.000-  41 1.93  44 1.93
  33  0.983  0.517  1.000-  42 1.93  45 1.93
  34  0.316  0.851  1.000-  43 1.93  37 1.93
  35  0.649  0.851  1.000-  44 1.93  38 1.93
  36  0.983  0.851  1.000-  45 1.93  39 1.93
  37  0.316  0.017  0.000-  28 1.93   1 1.93   2 1.93  34 1.93  92 2.04 124 2.04
  38  0.649  0.017  0.000-  29 1.93   2 1.93   3 1.93  35 1.93  93 2.04 125 2.04
  39  0.983  0.017  0.000-  30 1.93   3 1.93   1 1.93  36 1.93 126 2.04  91 2.04
  40  0.316  0.351  0.000-  31 1.93   4 1.93   5 1.93  28 1.93  95 2.04 118 2.04
  41  0.649  0.351  0.000-  32 1.93   5 1.93   6 1.93  29 1.93  96 2.04 119 2.04
  42  0.983  0.351  0.000-  33 1.93   6 1.93   4 1.93  30 1.93  94 2.04 120 2.04
  43  0.316  0.684  0.000-  34 1.93   7 1.93   8 1.93  31 1.93  98 2.04 121 2.04
  44  0.649  0.684  0.000-  35 1.93   8 1.93   9 1.93  32 1.93  99 2.04 122 2.04
  45  0.983  0.684  0.000-  36 1.93   9 1.93   7 1.93  33 1.93  97 2.04 123 2.04
  46  0.316  0.017  0.500-  19 1.93  10 1.93  11 1.93  25 1.93 101 2.04 115 2.04
  47  0.649  0.017  0.500-  20 1.93  11 1.93  12 1.93  26 1.93 102 2.04 116 2.04
  48  0.983  0.017  0.500-  21 1.93  12 1.93  10 1.93  27 1.93 100 2.04 117 2.04
  49  0.316  0.351  0.500-  22 1.93  13 1.93  14 1.93  19 1.93 104 2.04 109 2.04
  50  0.649  0.351  0.500-  23 1.93  14 1.93  15 1.93  20 1.93 105 2.04 110 2.04
  51  0.983  0.351  0.500-  24 1.93  15 1.93  13 1.93  21 1.93 103 2.04 111 2.04
  52  0.316  0.684  0.500-  25 1.93  16 1.93  17 1.93  22 1.93 107 2.04 112 2.04
  53  0.649  0.684  0.500-  26 1.93  17 1.93  18 1.93  23 1.93 108 2.04 113 2.04
  54  0.983  0.684  0.500-  27 1.93  18 1.93  16 1.93  24 1.93 106 2.04 114 2.04
  55  0.199  0.234  0.150- 109 2.43  94 2.73  92 2.73  95 2.73  91 2.74
  56  0.533  0.234  0.150- 110 2.43  92 2.73  95 2.73  93 2.73  96 2.73
  57  0.866  0.234  0.150- 111 2.43  91 2.72  93 2.73  96 2.73  94 2.73
  58  0.199  0.567  0.150- 112 2.43  94 2.73  97 2.73  95 2.73  98 2.73
  59  0.533  0.567  0.150- 113 2.43  95 2.73  98 2.73  96 2.73  99 2.73
  60  0.866  0.567  0.150- 114 2.43  96 2.73  99 2.73  94 2.73  97 2.73
  61  0.199  0.901  0.150- 115 2.43  97 2.73  98 2.73  92 2.73  91 2.74
  62  0.533  0.901  0.150- 116 2.43  98 2.73  92 2.73  99 2.73  93 2.73
  63  0.866  0.901  0.150- 117 2.43  91 2.72  99 2.73  93 2.73  97 2.73
  64  0.199  0.234  0.650- 118 2.43 100 2.73 103 2.73 101 2.73 104 2.73
  65  0.533  0.234  0.650- 119 2.43 101 2.73 104 2.73 102 2.73 105 2.73
  66  0.866  0.234  0.650- 120 2.43 102 2.73 105 2.73 100 2.73 103 2.73
  67  0.199  0.567  0.650- 121 2.43 103 2.73 106 2.73 104 2.73 107 2.73
  68  0.533  0.567  0.650- 122 2.43 104 2.73 107 2.73 105 2.73 108 2.73
  69  0.866  0.567  0.650- 123 2.43 105 2.73 108 2.73 103 2.73 106 2.73
  70  0.199  0.901  0.650- 124 2.43 106 2.73 100 2.73 107 2.73 101 2.73
  71  0.533  0.901  0.650- 125 2.43 107 2.73 101 2.73 108 2.73 102 2.73
  72  0.866  0.901  0.650- 126 2.43 108 2.73 102 2.73 106 2.73 100 2.73
  73  0.099  0.134  0.350-  91 2.43 109 2.73 111 2.73 115 2.73 117 2.73
  74  0.433  0.134  0.350-  92 2.43 110 2.73 109 2.73 116 2.73 115 2.73
  75  0.766  0.134  0.350-  93 2.43 111 2.73 110 2.73 117 2.73 116 2.73
  76  0.099  0.467  0.350-  94 2.43 112 2.73 114 2.73 109 2.73 111 2.73
  77  0.433  0.467  0.350-  95 2.43 113 2.73 112 2.73 110 2.73 109 2.73
  78  0.766  0.467  0.350-  96 2.43 114 2.73 113 2.73 111 2.73 110 2.73
  79  0.099  0.801  0.350-  97 2.43 115 2.73 117 2.73 112 2.73 114 2.73
  80  0.433  0.801  0.350-  98 2.43 116 2.73 115 2.73 113 2.73 112 2.73
  81  0.766  0.801  0.350-  99 2.43 117 2.73 116 2.73 114 2.73 113 2.73
  82  0.099  0.134  0.850- 100 2.43 118 2.73 120 2.73 124 2.73 126 2.73
  83  0.433  0.134  0.850- 101 2.43 119 2.73 118 2.73 125 2.73 124 2.73
  84  0.766  0.134  0.850- 102 2.43 120 2.73 119 2.73 126 2.73 125 2.73
  85  0.099  0.467  0.850- 103 2.43 121 2.73 123 2.73 118 2.73 120 2.73
  86  0.433  0.467  0.850- 104 2.43 122 2.73 121 2.73 119 2.73 118 2.73
  87  0.766  0.467  0.850- 105 2.43 123 2.73 122 2.73 120 2.73 119 2.73
  88  0.099  0.801  0.850- 106 2.43 124 2.73 126 2.73 121 2.73 123 2.73
  89  0.433  0.801  0.850- 107 2.43 125 2.73 124 2.73 122 2.73 121 2.73
  90  0.766  0.801  0.850- 108 2.43 126 2.73 125 2.73 123 2.73 122 2.73
  91  0.035  0.071  0.160-  39 2.04  73 2.43  57 2.72  63 2.72  55 2.74  61 2.74
  92  0.369  0.071  0.160-  37 2.04  74 2.43  56 2.73  62 2.73  55 2.73  61 2.73
  93  0.703  0.071  0.160-  38 2.04  75 2.43  57 2.73  63 2.73  56 2.73  62 2.73
  94  0.036  0.404  0.160-  42 2.04  76 2.43  58 2.73  55 2.73  60 2.73  57 2.73
  95  0.369  0.404  0.160-  40 2.04  77 2.43  59 2.73  56 2.73  58 2.73  55 2.73
  96  0.703  0.404  0.160-  41 2.04  78 2.43  60 2.73  57 2.73  59 2.73  56 2.73
  97  0.036  0.737  0.160-  45 2.04  79 2.43  61 2.73  58 2.73  63 2.73  60 2.73
  98  0.369  0.737  0.160-  43 2.04  80 2.43  62 2.73  59 2.73  61 2.73  58 2.73
  99  0.703  0.737  0.160-  44 2.04  81 2.43  63 2.73  60 2.73  62 2.73  59 2.73
 100  0.036  0.071  0.660-  48 2.04  82 2.43  64 2.73  70 2.73  66 2.73  72 2.73
 101  0.369  0.071  0.660-  46 2.04  83 2.43  65 2.73  71 2.73  64 2.73  70 2.73
 102  0.703  0.071  0.660-  47 2.04  84 2.43  66 2.73  72 2.73  65 2.73  71 2.73
 103  0.036  0.404  0.660-  51 2.04  85 2.43  67 2.73  64 2.73  69 2.73  66 2.73
 104  0.369  0.404  0.660-  49 2.04  86 2.43  68 2.73  65 2.73  67 2.73  64 2.73
 105  0.703  0.404  0.660-  50 2.04  87 2.43  69 2.73  66 2.73  68 2.73  65 2.73
 106  0.036  0.737  0.660-  54 2.04  88 2.43  70 2.73  67 2.73  72 2.73  69 2.73
 107  0.369  0.737  0.660-  52 2.04  89 2.43  71 2.73  68 2.73  70 2.73  67 2.73
 108  0.703  0.737  0.660-  53 2.04  90 2.43  72 2.73  69 2.73  71 2.73  68 2.73
 109  0.263  0.297  0.340-  49 2.04  55 2.43  73 2.73  74 2.73  76 2.73  77 2.73
 110  0.596  0.297  0.340-  50 2.04  56 2.43  74 2.73  75 2.73  77 2.73  78 2.73
 111  0.929  0.297  0.340-  51 2.04  57 2.43  75 2.73  73 2.73  78 2.73  76 2.73
 112  0.263  0.631  0.340-  52 2.04  58 2.43  76 2.73  77 2.73  79 2.73  80 2.73
 113  0.596  0.631  0.340-  53 2.04  59 2.43  77 2.73  78 2.73  80 2.73  81 2.73
 114  0.929  0.631  0.340-  54 2.04  60 2.43  78 2.73  76 2.73  81 2.73  79 2.73
 115  0.263  0.964  0.340-  46 2.04  61 2.43  79 2.73  80 2.73  73 2.73  74 2.73
 116  0.596  0.964  0.340-  47 2.04  62 2.43  80 2.73  81 2.73  74 2.73  75 2.73
 117  0.929  0.964  0.340-  48 2.04  63 2.43  81 2.73  79 2.73  75 2.73  73 2.73
 118  0.263  0.297  0.840-  40 2.04  64 2.43  82 2.73  83 2.73  85 2.73  86 2.73
 119  0.596  0.297  0.840-  41 2.04  65 2.43  83 2.73  84 2.73  86 2.73  87 2.73
 120  0.929  0.297  0.840-  42 2.04  66 2.43  84 2.73  82 2.73  87 2.73  85 2.73
 121  0.263  0.631  0.840-  43 2.04  67 2.43  85 2.73  86 2.73  88 2.73  89 2.73
 122  0.596  0.631  0.840-  44 2.04  68 2.43  86 2.73  87 2.73  89 2.73  90 2.73
 123  0.929  0.631  0.840-  45 2.04  69 2.43  87 2.73  85 2.73  90 2.73  88 2.73
 124  0.263  0.964  0.840-  37 2.04  70 2.43  88 2.73  89 2.73  82 2.73  83 2.73
 125  0.596  0.964  0.840-  38 2.04  71 2.43  89 2.73  90 2.73  83 2.73  84 2.73
 126  0.929  0.964  0.840-  39 2.04  72 2.43  90 2.73  88 2.73  84 2.73  82 2.73
 

IMPORTANT INFORMATION: All symmetrisations will be switched off!
NOSYMM: (Re-)initialisation of all symmetry stuff for point group C_1.

 
 
 KPOINTS: # No comment                            

Automatic generation of k-mesh.
Space group operators:
 irot       det(A)        alpha          n_x          n_y          n_z        tau_x        tau_y        tau_z
    1     1.000000     0.000000     1.000000     0.000000     0.000000     0.000000     0.000000     0.000000
 
 Subroutine IBZKPT returns following result:
 ===========================================
 
 Found     10 irreducible k-points:
 
 Following reciprocal coordinates:
            Coordinates               Weight
  0.000000  0.000000  0.000000      1.000000
  0.333333  0.000000 -0.000000      2.000000
 -0.000000  0.333333  0.000000      2.000000
  0.333333  0.333333 -0.000000      2.000000
 -0.333333  0.333333  0.000000      2.000000
  0.000000 -0.000000  0.500000      1.000000
  0.333333 -0.000000  0.500000      2.000000
  0.000000  0.333333  0.500000      2.000000
  0.333333  0.333333  0.500000      2.000000
 -0.333333  0.333333  0.500000      2.000000
 
 Following cartesian coordinates:
            Coordinates               Weight
  0.000000  0.000000  0.000000      1.000000
  0.028801  0.000012  0.008684      2.000000
  0.000002  0.028801  0.008684      2.000000
  0.028803  0.028813  0.017368      2.000000
 -0.028799  0.028789 -0.000000      2.000000
  0.000032  0.000032  0.039185      1.000000
  0.028833  0.000044  0.047869      2.000000
  0.000034  0.028833  0.047869      2.000000
  0.028835  0.028845  0.056553      2.000000
 -0.028767  0.028821  0.039185      2.000000
 


--------------------------------------------------------------------------------------------------------




 Dimension of arrays:
   k-points           NKPTS =     10   k-points in BZ     NKDIM =     10   number of bands    NBANDS=    680
   number of dos      NEDOS =    301   number of ions     NIONS =    126
   non local maximal  LDIM  =      6   non local SUM 2l+1 LMDIM =     18
   total plane-waves  NPLWV = ******
   max r-space proj   IRMAX =      1   max aug-charges    IRDMAX= 163177
   dimension x,y,z NGX =    96 NGY =   96 NGZ =  120
   dimension x,y,z NGXF=   192 NGYF=  192 NGZF=  240
   support grid    NGXF=   384 NGYF=  384 NGZF=  480
   ions per type =              36  18  36  36
   NGX,Y,Z   is equivalent  to a cutoff of  13.79, 13.79, 14.37 a.u.
   NGXF,Y,Z  is equivalent  to a cutoff of  27.57, 27.57, 28.75 a.u.

 SYSTEM =  unknown system                          
 POSCAR =  # Compound: Li36O18S36Fe36. Old comment:

 Startparameter for this run:
   NWRITE =      1    write-flag & timer
   PREC   = accura    normal or accurate (medium, high low for compatibility)
   ISTART =      0    job   : 0-new  1-cont  2-samecut
   ICHARG =      1    charge: 1-file 2-atom 10-const
   ISPIN  =      2    spin polarized calculation?
   LNONCOLLINEAR =      F non collinear calculations
   LSORBIT =      F    spin-orbit coupling
   INIWAV =      1    electr: 0-lowe 1-rand  2-diag
   LASPH  =      T    aspherical Exc in radial PAW
   METAGGA=      F    non-selfconsistent MetaGGA calc.

 Electronic Relaxation 1
   ENCUT  =  650.0 eV  47.77 Ry    6.91 a.u.  24.07 24.07 28.85*2*pi/ulx,y,z
   ENINI  =  650.0     initial cutoff
   ENAUG  =  628.9 eV  augmentation charge cutoff
   NELM   =    200;   NELMIN=  8; NELMDL=  0     # of ELM steps 
   EDIFF  = 0.1E-05   stopping-criterion for ELM
   LREAL  =      F    real-space projection
   NLSPLINE    = F    spline interpolate recip. space projectors
   LCOMPAT=      F    compatible to vasp.4.4
   GGA_COMPAT  = T    GGA compatible to vasp.4.4-vasp.4.6
   LMAXPAW     = -100 max onsite density
   LMAXMIX     =    4 max onsite mixed and CHGCAR
   VOSKOWN=      0    Vosko Wilk Nusair interpolation
   ROPT   =    0.00000   0.00000   0.00000   0.00000
 Ionic relaxation
   EDIFFG = 0.1E-04   stopping-criterion for IOM
   NSW    =      0    number of steps for IOM
   NBLOCK =      1;   KBLOCK =      1    inner block; outer block 
   IBRION =     -1    ionic relax: 0-MD 1-quasi-New 2-CG
   NFREE  =      0    steps in history (QN), initial steepest desc. (CG)
   ISIF   =      3    stress and relaxation
   IWAVPR =     10    prediction:  0-non 1-charg 2-wave 3-comb
   ISYM   =      0    0-nonsym 1-usesym 2-fastsym
   LCORR  =      T    Harris-Foulkes like correction to forces

   POTIM  = 0.5000    time-step for ionic-motion
   TEIN   =    0.0    initial temperature
   TEBEG  =    0.0;   TEEND  =   0.0 temperature during run
   SMASS  =  -3.00    Nose mass-parameter (am)
   estimated Nose-frequenzy (Omega)   =  0.10E-29 period in steps =****** mass=  -0.306E-26a.u.
   SCALEE = 1.0000    scale energy and forces
   NPACO  =    256;   APACO  = 16.0  distance and # of slots for P.C.
   PSTRESS=    0.0 pullay stress

  Mass of Ions in am
   POMASS =   7.01 16.00 32.07 55.85
  Ionic Valenz
   ZVAL   =   3.00  6.00  6.00 14.00
  Atomic Wigner-Seitz radii
   RWIGS  =  -1.00 -1.00 -1.00 -1.00
  virtual crystal weights 
   VCA    =   1.00  1.00  1.00  1.00
   NELECT =     936.0000    total number of electrons
   NUPDOWN=      -1.0000    fix difference up-down

 DOS related values:
   EMIN   =  10.00;   EMAX   =-10.00  energy-range for DOS
   EFERMI =   0.00
   ISMEAR =     0;   SIGMA  =   0.05  broadening in eV -4-tet -1-fermi 0-gaus

 Electronic relaxation 2 (details)
   IALGO  =     58    algorithm
   LDIAG  =      T    sub-space diagonalisation (order eigenvalues)
   LSUBROT=      F    optimize rotation matrix (better conditioning)
   TURBO    =      0    0=normal 1=particle mesh
   IRESTART =      0    0=no restart 2=restart with 2 vectors
   NREBOOT  =      0    no. of reboots
   NMIN     =      0    reboot dimension
   EREF     =   0.00    reference energy to select bands
   IMIX   =      4    mixing-type and parameters
     AMIX     =   0.40;   BMIX     =  1.00
     AMIX_MAG =   1.60;   BMIX_MAG =  1.00
     AMIN     =   0.10
     WC   =   100.;   INIMIX=   1;  MIXPRE=   1;  MAXMIX= -45

 Intra band minimization:
   WEIMIN = 0.0000     energy-eigenvalue tresh-hold
   EBREAK =  0.37E-09  absolut break condition
   DEPER  =   0.30     relativ break condition  

   TIME   =   0.40     timestep for ELM

  volume/ion in A,a.u.               =      13.57        91.59
  Fermi-wavevector in a.u.,A,eV,Ry     =   1.339150  2.530627 24.399639  1.793323
  Thomas-Fermi vector in A             =   2.467565
 
 Write flags
   LWAVE        =      F    write WAVECAR
   LDOWNSAMPLE  =      F    k-point downsampling of WAVECAR
   LCHARG       =      T    write CHGCAR
   LVTOT        =      F    write LOCPOT, total local potential
   LVHAR        =      F    write LOCPOT, Hartree potential only
   LELF         =      F    write electronic localiz. function (ELF)
   LORBIT       =      0    0 simple, 1 ext, 2 COOP (PROOUT), +10 PAW based schemes


 Dipole corrections
   LMONO  =      F    monopole corrections only (constant potential shift)
   LDIPOL =      F    correct potential (dipole corrections)
   IDIPOL =      0    1-x, 2-y, 3-z, 4-all directions 
   EPSILON=  1.0000000 bulk dielectric constant

 LDA+U is selected, type is set to LDAUTYPE =  2
   angular momentum for each species LDAUL =    -1   -1   -1    2
   U (eV)           for each species LDAUU =   0.0  0.0  0.0  4.0
   J (eV)           for each species LDAUJ =   0.0  0.0  0.0  0.0
 Exchange correlation treatment:
   GGA     =    PE    GGA type
   LEXCH   =     8    internal setting for exchange type
   VOSKOWN=      0    Vosko Wilk Nusair interpolation
   LHFCALC =     F    Hartree Fock is set to
   LHFONE  =     F    Hartree Fock one center treatment
   AEXX    =    0.0000 exact exchange contribution

 Linear response parameters
   LEPSILON=     F    determine dielectric tensor
   LRPA    =     F    only Hartree local field effects (RPA)
   LNABLA  =     F    use nabla operator in PAW spheres
   LVEL    =     F    velocity operator in full k-point grid
   LINTERFAST=   F  fast interpolation
   KINTER  =     0    interpolate to denser k-point grid
   CSHIFT  =0.1000    complex shift for real part using Kramers Kronig
   OMEGAMAX=  -1.0    maximum frequency
   DEG_THRESHOLD= 0.2000000E-02 threshold for treating states as degnerate
   RTIME   =   -0.100 relaxation time in fs
  (WPLASMAI=    0.000 imaginary part of plasma frequency in eV, 0.658/RTIME)
   DFIELD  = 0.0000000 0.0000000 0.0000000 field for delta impulse in time
 
 Orbital magnetization related:
   ORBITALMAG=     F  switch on orbital magnetization
   LCHIMAG   =     F  perturbation theory with respect to B field
   DQ        =  0.001000  dq finite difference perturbation B field
   LLRAUG    =     F  two centre corrections for induced B field



--------------------------------------------------------------------------------------------------------


 Static calculation
 charge density and potential will be updated during run
 spin polarized calculation
 Conjugate gradient for all bands (Freysoldt, et al. PRB 79, 241103 (2009))
 preconditioned conjugated gradient                                        
 perform sub-space diagonalisation
    before iterative eigenvector-optimisation
 modified Broyden-mixing scheme, WC =      100.0
 initial mixing is a Kerker type mixing with AMIX =  0.4000 and BMIX =      1.0000
 Hartree-type preconditioning will be used
 using additional bands          212
 reciprocal scheme for non local part
 use partial core corrections
 no Harris-corrections to forces 
 use gradient corrections 
 use of overlap-Matrix (Vanderbilt PP)
 Gauss-broadening in eV      SIGMA  =   0.05


--------------------------------------------------------------------------------------------------------


  energy-cutoff  :      650.00
  volume of cell :     1710.06
      direct lattice vectors                 reciprocal lattice vectors
    11.576583240  0.002066280 -0.009542910     0.086402742  0.000036295  0.026052044
    -0.001985520 11.576599830 -0.009542940     0.000006054  0.086402626  0.026052036
    -3.847679420 -3.849030720 12.766359180     0.000064591  0.000064614  0.078369816

  length of vectors
    11.576587358 11.576603934 13.878025836     0.090244912  0.090244792  0.078369870


 
 k-points in units of 2pi/SCALE and weight: # No comment                            
   0.00000000  0.00000000  0.00000000       0.056
   0.02880091  0.00001210  0.00868401       0.111
   0.00000202  0.02880088  0.00868401       0.111
   0.02880293  0.02881297  0.01736803       0.111
  -0.02879890  0.02878878 -0.00000000       0.111
   0.00003230  0.00003231  0.03918491       0.056
   0.02883321  0.00004441  0.04786892       0.111
   0.00003431  0.02883318  0.04786892       0.111
   0.02883523  0.02884528  0.05655294       0.111
  -0.02876660  0.02882108  0.03918491       0.111
 
 k-points in reciprocal lattice and weights: # No comment                            
   0.00000000  0.00000000  0.00000000       0.056
   0.33333333  0.00000000 -0.00000000       0.111
  -0.00000000  0.33333333  0.00000000       0.111
   0.33333333  0.33333333 -0.00000000       0.111
  -0.33333333  0.33333333  0.00000000       0.111
   0.00000000 -0.00000000  0.50000000       0.056
   0.33333333 -0.00000000  0.50000000       0.111
   0.00000000  0.33333333  0.50000000       0.111
   0.33333333  0.33333333  0.50000000       0.111
  -0.33333333  0.33333333  0.50000000       0.111
 
 position of ions in fractional coordinates (direct lattice) 
   0.14940024  0.01727802  0.00000711
   0.48273357  0.01727802  0.00000711
   0.81606690  0.01727802  0.00000711
   0.14940024  0.35061135  0.00000711
   0.48273357  0.35061135  0.00000711
   0.81606690  0.35061135  0.00000711
   0.14940024  0.68394468  0.00000711
   0.48273357  0.68394468  0.00000711
   0.81606690  0.68394468  0.00000711
   0.14940024  0.01727802  0.50000711
   0.48273357  0.01727802  0.50000711
   0.81606690  0.01727802  0.50000711
   0.14940024  0.35061135  0.50000711
   0.48273357  0.35061135  0.50000711
   0.81606690  0.35061135  0.50000711
   0.14940024  0.68394468  0.50000711
   0.48273357  0.68394468  0.50000711
   0.81606690  0.68394468  0.50000711
   0.31605532  0.18393310  0.49999289
   0.64938865  0.18393310  0.49999289
   0.98272198  0.18393310  0.49999289
   0.31605532  0.51726643  0.49999289
   0.64938865  0.51726643  0.49999289
   0.98272198  0.51726643  0.49999289
   0.31605532  0.85059976  0.49999289
   0.64938865  0.85059976  0.49999289
   0.98272198  0.85059976  0.49999289
   0.31605532  0.18393310  0.99999289
   0.64938865  0.18393310  0.99999289
   0.98272198  0.18393310  0.99999289
   0.31605532  0.51726643  0.99999289
   0.64938865  0.51726643  0.99999289
   0.98272198  0.51726643  0.99999289
   0.31605532  0.85059976  0.99999289
   0.64938865  0.85059976  0.99999289
   0.98272198  0.85059976  0.99999289
   0.31606288  0.01727079  0.00000000
   0.64939621  0.01727079  0.00000000
   0.98272954  0.01727079  0.00000000
   0.31606288  0.35060413  0.00000000
   0.64939621  0.35060413  0.00000000
   0.98272954  0.35060413  0.00000000
   0.31606288  0.68393746  0.00000000
   0.64939621  0.68393746  0.00000000
   0.98272954  0.68393746  0.00000000
   0.31606288  0.01727079  0.50000000
   0.64939621  0.01727079  0.50000000
   0.98272954  0.01727079  0.50000000
   0.31606288  0.35060413  0.50000000
   0.64939621  0.35060413  0.50000000
   0.98272954  0.35060413  0.50000000
   0.31606288  0.68393746  0.50000000
   0.64939621  0.68393746  0.50000000
   0.98272954  0.68393746  0.50000000
   0.19934057  0.23388678  0.14983771
   0.53267391  0.23388678  0.14983771
   0.86600724  0.23388678  0.14983771
   0.19934057  0.56722011  0.14983771
   0.53267391  0.56722011  0.14983771
   0.86600724  0.56722011  0.14983771
   0.19934057  0.90055344  0.14983771
   0.53267391  0.90055344  0.14983771
   0.86600724  0.90055344  0.14983771
   0.19934057  0.23388678  0.64983771
   0.53267391  0.23388678  0.64983771
   0.86600724  0.23388678  0.64983771
   0.19934057  0.56722011  0.64983771
   0.53267391  0.56722011  0.64983771
   0.86600724  0.56722011  0.64983771
   0.19934057  0.90055344  0.64983771
   0.53267391  0.90055344  0.64983771
   0.86600724  0.90055344  0.64983771
   0.09944656  0.13399276  0.35016229
   0.43277989  0.13399276  0.35016229
   0.76611322  0.13399276  0.35016229
   0.09944656  0.46732609  0.35016229
   0.43277989  0.46732609  0.35016229
   0.76611322  0.46732609  0.35016229
   0.09944656  0.80065943  0.35016229
   0.43277989  0.80065943  0.35016229
   0.76611322  0.80065943  0.35016229
   0.09944656  0.13399276  0.85016229
   0.43277989  0.13399276  0.85016229
   0.76611322  0.13399276  0.85016229
   0.09944656  0.46732609  0.85016229
   0.43277989  0.46732609  0.85016229
   0.76611322  0.46732609  0.85016229
   0.09944656  0.80065943  0.85016229
   0.43277989  0.80065943  0.85016229
   0.76611322  0.80065943  0.85016229
   0.03516827  0.07057630  0.15990037
   0.36936541  0.07057630  0.15990037
   0.70269875  0.07057630  0.15990037
   0.03603208  0.40390964  0.15990037
   0.36936541  0.40390964  0.15990037
   0.70269875  0.40390964  0.15990037
   0.03603208  0.73724297  0.15990037
   0.36936541  0.73724297  0.15990037
   0.70269875  0.73724297  0.15990037
   0.03603208  0.07057630  0.65990037
   0.36936541  0.07057630  0.65990037
   0.70269875  0.07057630  0.65990037
   0.03603208  0.40390964  0.65990037
   0.36936541  0.40390964  0.65990037
   0.70269875  0.40390964  0.65990037
   0.03603208  0.73724297  0.65990037
   0.36936541  0.73724297  0.65990037
   0.70269875  0.73724297  0.65990037
   0.26275703  0.29730125  0.34009963
   0.59609036  0.29730125  0.34009963
   0.92942370  0.29730125  0.34009963
   0.26275703  0.63063459  0.34009963
   0.59609036  0.63063459  0.34009963
   0.92942370  0.63063459  0.34009963
   0.26275703  0.96396792  0.34009963
   0.59609036  0.96396792  0.34009963
   0.92942370  0.96396792  0.34009963
   0.26275703  0.29730125  0.84009963
   0.59609036  0.29730125  0.84009963
   0.92942370  0.29730125  0.84009963
   0.26275703  0.63063459  0.84009963
   0.59609036  0.63063459  0.84009963
   0.92942370  0.63063459  0.84009963
   0.26275703  0.96396792  0.84009963
   0.59609036  0.96396792  0.84009963
   0.92942370  0.96396792  0.84009963
 
 position of ions in cartesian coordinates  (Angst):
   1.72948263  0.20030204 -0.00149989
   5.58834371  0.20099080 -0.00468086
   9.44720479  0.20167956 -0.00786183
   1.72882079  4.05916865 -0.00468087
   5.58768187  4.05985741 -0.00786184
   9.44654295  4.06054617 -0.01104281
   1.72815895  7.91803526 -0.00786185
   5.58702003  7.91872402 -0.01104282
   9.44588111  7.91941278 -0.01422379
  -0.19435708 -1.72421332  6.38167970
   3.66450400 -1.72352456  6.37849873
   7.52336508 -1.72283580  6.37531776
  -0.19501892  2.13465329  6.37849872
   3.66384216  2.13534205  6.37531775
   7.52270324  2.13603081  6.37213678
  -0.19568076  5.99351990  6.37531774
   3.66318032  5.99420866  6.37213677
   7.52204140  5.99489742  6.36895580
   1.73466311  0.20548490  6.37831754
   5.59352419  0.20617366  6.37513657
   9.45238527  0.20686242  6.37195560
   1.73400127  4.06435151  6.37513656
   5.59286235  4.06504027  6.37195559
   9.45172343  4.06572903  6.36877462
   1.73333943  7.92321812  6.37195558
   5.59220051  7.92390688  6.36877461
   9.45106159  7.92459564  6.36559364
  -0.18917660 -1.71903046 12.76149713
   3.66968448 -1.71834170 12.75831616
   7.52854556 -1.71765294 12.75513519
  -0.18983844  2.13983615 12.75831615
   3.66902264  2.14052491 12.75513518
   7.52788372  2.14121367 12.75195421
  -0.19050028  5.99870276 12.75513517
   3.66836080  5.99939152 12.75195420
   7.52722188  6.00008028 12.74877323
   3.65889391  0.20059014 -0.00318097
   7.51775499  0.20127890 -0.00636194
  11.37661607  0.20196766 -0.00954291
   3.65823207  4.05945675 -0.00636195
   7.51709315  4.06014551 -0.00954292
  11.37595423  4.06083427 -0.01272389
   3.65757023  7.91832336 -0.00954293
   7.51643131  7.91901212 -0.01272390
  11.37529239  7.91970088 -0.01590487
   1.73505420 -1.72392522  6.37999862
   5.59391528 -1.72323646  6.37681765
   9.45277636 -1.72254770  6.37363668
   1.73439236  2.13494139  6.37681764
   5.59325344  2.13563015  6.37363667
   9.45211452  2.13631891  6.37045570
   1.73373052  5.99380800  6.37363666
   5.59259160  5.99449676  6.37045569
   9.45145268  5.99518552  6.36727472
   1.73069086  2.13129554  1.90874783
   5.58955194  2.13198430  1.90556686
   9.44841302  2.13267306  1.90238589
   1.73002902  5.99016215  1.90556685
   5.58889010  5.99085091  1.90238588
   9.44775118  5.99153967  1.89920491
   1.72936718  9.84902876  1.90238587
   5.58822826  9.84971752  1.89920490
   9.44708934  9.85040628  1.89602393
  -0.19314885  0.20678018  8.29192742
   3.66571223  0.20746894  8.28874645
   7.52457331  0.20815770  8.28556548
  -0.19381069  4.06564679  8.28874644
   3.66505039  4.06633555  8.28556547
   7.52391147  4.06702431  8.28238450
  -0.19447253  7.92451340  8.28556546
   3.66438855  7.92520216  8.28238449
   7.52324963  7.92589092  8.27920352
  -0.19632692  0.20360066  4.46806981
   3.66253416  0.20428942  4.46488884
   7.52139524  0.20497818  4.46170787
  -0.19698876  4.06246726  4.46488883
   3.66187232  4.06315602  4.46170786
   7.52073340  4.06384478  4.45852689
  -0.19765060  7.92133388  4.46170785
   3.66121048  7.92202264  4.45852688
   7.52007156  7.92271140  4.45534591
  -2.12016663 -1.72091470 10.85124940
   1.73869445 -1.72022594 10.84806843
   5.59755553 -1.71953718 10.84488746
  -2.12082847  2.13795190 10.84806842
   1.73803261  2.13864066 10.84488745
   5.59689369  2.13932942 10.84170648
  -2.12149031  5.99681852 10.84488744
   1.73737077  5.99750728 10.84170647
   5.59623185  5.99819604 10.83852550
  -0.20825714  0.20164483  2.04033651
   3.66060394  0.20233538  2.03714729
   7.51946502  0.20302414  2.03396632
  -0.19891898  4.06051323  2.03714728
   3.65994210  4.06120199  2.03396631
   7.51880318  4.06189075  2.03078534
  -0.19958082  7.91937984  2.03396630
   3.65928026  7.92006860  2.03078533
   7.51814134  7.92075736  2.02760436
  -2.12209685 -1.72286874  8.42350785
   1.73676423 -1.72217998  8.42032688
   5.59562531 -1.72149122  8.41714591
  -2.12275869  2.13599787  8.42032687
   1.73610239  2.13668663  8.41714590
   5.59496347  2.13737539  8.41396493
  -2.12342053  5.99486448  8.41714589
   1.73544055  5.99555324  8.41396492
   5.59430163  5.99624200  8.41078395
   1.73264400  2.13322666  4.33648938
   5.59150508  2.13391542  4.33330841
   9.45036616  2.13460418  4.33012744
   1.73198216  5.99209327  4.33330840
   5.59084324  5.99278203  4.33012743
   9.44970432  5.99347079  4.32694646
   1.73132032  9.85095988  4.33012742
   5.59018140  9.85164864  4.32694645
   9.44904248  9.85233740  4.32376548
  -0.19119571  0.20871130 10.71966897
   3.66766537  0.20940006 10.71648800
   7.52652645  0.21008882 10.71330703
  -0.19185755  4.06757791 10.71648799
   3.66700353  4.06826667 10.71330702
   7.52586461  4.06895543 10.71012605
  -0.19251939  7.92644452 10.71330701
   3.66634169  7.92713328 10.71012604
   7.52520277  7.92782204 10.70694507
 


--------------------------------------------------------------------------------------------------------


 k-point  1 :   0.0000 0.0000 0.0000  plane waves:   64263
 k-point  2 :   0.3333 0.0000-0.0000  plane waves:   64335
 k-point  3 :  -0.0000 0.3333 0.0000  plane waves:   64335
 k-point  4 :   0.3333 0.3333-0.0000  plane waves:   64357
 k-point  5 :  -0.3333 0.3333 0.0000  plane waves:   64358
 k-point  6 :   0.0000-0.0000 0.5000  plane waves:   64288
 k-point  7 :   0.3333-0.0000 0.5000  plane waves:   64351
 k-point  8 :   0.0000 0.3333 0.5000  plane waves:   64351
 k-point  9 :   0.3333 0.3333 0.5000  plane waves:   64367
 k-point 10 :  -0.3333 0.3333 0.5000  plane waves:   64380

 maximum and minimum number of plane-waves per node :     10768    10677

 maximum number of plane-waves:     64380
 maximum index in each direction: 
   IXMAX=   24   IYMAX=   24   IZMAX=   28
   IXMIN=  -24   IYMIN=  -24   IZMIN=  -29


 parallel 3D FFT for wavefunctions:
    minimum data exchange during FFTs selected (reduces bandwidth)
 parallel 3D FFT for charge:
    minimum data exchange during FFTs selected (reduces bandwidth)


 total amount of memory used by VASP MPI-rank0  2010615. kBytes
=======================================================================

   base      :      30000. kBytes
   nonl-proj :      83483. kBytes
   fftplans  :      59337. kBytes
   grid      :      50429. kBytes
   one-center:        653. kBytes
   wavefun   :    1786713. kBytes
 
     INWAV:  cpu time    0.0000: real time    0.0000
 Broyden mixing: mesh for mixing (old mesh)
   NGX = 49   NGY = 49   NGZ = 57
  (NGX  =192   NGY  =192   NGZ  =240)
  gives a total of 136857 points

 initial charge density was supplied:
 number of electron     936.0000012 magnetization     144.0000005
 charge density for first step will be calculated from the start-wavefunctions


--------------------------------------------------------------------------------------------------------


 Maximum index for augmentation-charges         6958 (set IRDMAX)


--------------------------------------------------------------------------------------------------------


 First call to EWALD:  gamma=   0.148
 Maximum number of real-space cells 3x 3x 3
 Maximum number of reciprocal cells 3x 3x 3

    FEWALD:  cpu time    0.0399: real time    0.0399


--------------------------------------- Iteration      1(   1)  ---------------------------------------


    POTLOK:  cpu time    0.6514: real time    0.6558
    SETDIJ:  cpu time    1.5812: real time    1.5827
    TRIAL :  cpu time  255.5299: real time  258.3193
    CORREC:  cpu time    0.0044: real time    0.0046
    --------------------------------------------
      LOOP:  cpu time  258.3248: real time  261.1275

 eigenvalue-minimisations  : 28328
 total energy-change (2. order) : 0.1264847E+05  (-0.5394366E+05)
 number of electron     936.0000012 magnetization     144.0000005
 augmentation part      936.0000012 magnetization     144.0000005

 Free energy of the ion-electron system (eV)
  ---------------------------------------------------
  alpha Z        PSCENC =      2639.27042227
  Ewald energy   TEWEN  =    -69235.14658112
  -Hartree energ DENC   =    -34827.60485836
  -exchange      EXHF   =         0.00000000
  -V(xc)+E(xc)   XCENC  =      3975.73410213
  PAW double counting   =    109952.41695739  -113408.94482908
  entropy T*S    EENTRO =        -0.02303064
  eigenvalues    EBANDS =        37.44133212
  atomic energy  EATOM  =    113515.32941094
  ---------------------------------------------------
  free energy    TOTEN  =     12648.47292565 eV

  energy without entropy =    12648.49595629  energy(sigma->0) =    12648.48444097


--------------------------------------------------------------------------------------------------------




--------------------------------------- Iteration      1(   2)  ---------------------------------------


    TRIAL :  cpu time  246.9982: real time  249.3552
    CORREC:  cpu time    0.0041: real time    0.0043
    --------------------------------------------
      LOOP:  cpu time  247.0121: real time  249.3697

 eigenvalue-minimisations  : 27200
 total energy-change (2. order) :-0.1127353E+05  (-0.1054569E+05)
 number of electron     936.0000012 magnetization     144.0000005
 augmentation part      936.0000012 magnetization     144.0000005

 Free energy of the ion-electron system (eV)
  ---------------------------------------------------
  alpha Z        PSCENC =      2639.27042227
  Ewald energy   TEWEN  =    -69235.14658112
  -Hartree energ DENC   =    -34827.60485836
  -exchange      EXHF   =         0.00000000
  -V(xc)+E(xc)   XCENC  =      3975.73410213
  PAW double counting   =    109952.41695739  -113408.94482908
  entropy T*S    EENTRO =        -0.08211257
  eigenvalues    EBANDS =    -11236.02793365
  atomic energy  EATOM  =    113515.32941094
  ---------------------------------------------------
  free energy    TOTEN  =      1374.94457795 eV

  energy without entropy =     1375.02669052  energy(sigma->0) =     1374.98563423


--------------------------------------------------------------------------------------------------------




--------------------------------------- Iteration      1(   3)  ---------------------------------------


    TRIAL :  cpu time  265.1221: real time  267.2448
    CORREC:  cpu time    0.0028: real time    0.0030
    --------------------------------------------
      LOOP:  cpu time  265.1330: real time  267.2593

 eigenvalue-minimisations  : 29864
 total energy-change (2. order) :-0.1785648E+04  (-0.1558335E+04)
 number of electron     936.0000012 magnetization     144.0000005
 augmentation part      936.0000012 magnetization     144.0000005

 Free energy of the ion-electron system (eV)
  ---------------------------------------------------
  alpha Z        PSCENC =      2639.27042227
  Ewald energy   TEWEN  =    -69235.14658112
  -Hartree energ DENC   =    -34827.60485836
  -exchange      EXHF   =         0.00000000
  -V(xc)+E(xc)   XCENC  =      3975.73410213
  PAW double counting   =    109952.41695739  -113408.94482908
  entropy T*S    EENTRO =        -0.00000000
  eigenvalues    EBANDS =    -13021.75759065
  atomic energy  EATOM  =    113515.32941094
  ---------------------------------------------------
  free energy    TOTEN  =      -410.70296648 eV

  energy without entropy =     -410.70296648  energy(sigma->0) =     -410.70296648


--------------------------------------------------------------------------------------------------------




--------------------------------------- Iteration      1(   4)  ---------------------------------------


    TRIAL :  cpu time  289.0063: real time  291.6109
    CORREC:  cpu time    0.0018: real time    0.0020
    --------------------------------------------
      LOOP:  cpu time  289.0131: real time  291.6194

 eigenvalue-minimisations  : 33256
 total energy-change (2. order) :-0.2220450E+03  (-0.2191088E+03)
 number of electron     936.0000012 magnetization     144.0000005
 augmentation part      936.0000012 magnetization     144.0000005

 Free energy of the ion-electron system (eV)
  ---------------------------------------------------
  alpha Z        PSCENC =      2639.27042227
  Ewald energy   TEWEN  =    -69235.14658112
  -Hartree energ DENC   =    -34827.60485836
  -exchange      EXHF   =         0.00000000
  -V(xc)+E(xc)   XCENC  =      3975.73410213
  PAW double counting   =    109952.41695739  -113408.94482908
  entropy T*S    EENTRO =        -0.00000000
  eigenvalues    EBANDS =    -13243.80259358
  atomic energy  EATOM  =    113515.32941094
  ---------------------------------------------------
  free energy    TOTEN  =      -632.74796940 eV

  energy without entropy =     -632.74796940  energy(sigma->0) =     -632.74796940


--------------------------------------------------------------------------------------------------------




--------------------------------------- Iteration      1(   5)  ---------------------------------------


    TRIAL :  cpu time  377.6183: real time  381.2572
    CORREC:  cpu time    0.0015: real time    0.0017
    CHARGE:  cpu time    7.2626: real time    7.3452
    --------------------------------------------
      LOOP:  cpu time  384.8865: real time  388.6103

 eigenvalue-minimisations  : 46096
 total energy-change (2. order) :-0.2418293E+02  (-0.2398832E+02)
 number of electron     936.0000012 magnetization     144.0000005
 augmentation part      323.4144961 magnetization      94.2658897

 Free energy of the ion-electron system (eV)
  ---------------------------------------------------
  alpha Z        PSCENC =      2639.27042227
  Ewald energy   TEWEN  =    -69235.14658112
  -Hartree energ DENC   =    -34827.60485836
  -exchange      EXHF   =         0.00000000
  -V(xc)+E(xc)   XCENC  =      3975.73410213
  PAW double counting   =    109952.41695739  -113408.94482908
  entropy T*S    EENTRO =        -0.00000000
  eigenvalues    EBANDS =    -13267.98551986
  atomic energy  EATOM  =    113515.32941094
  ---------------------------------------------------
  free energy    TOTEN  =      -656.93089568 eV

  energy without entropy =     -656.93089568  energy(sigma->0) =     -656.93089568


--------------------------------------------------------------------------------------------------------




--------------------------------------- Iteration      1(   6)  ---------------------------------------


    POTLOK:  cpu time    0.6221: real time    0.6317
    SETDIJ:  cpu time    1.5360: real time    1.5708
    TRIAL :  cpu time  126.3769: real time  127.7660
    CORREC:  cpu time   31.4434: real time   31.8228
    CHARGE:  cpu time    7.2315: real time    7.3177
    --------------------------------------------
      LOOP:  cpu time  167.2142: real time  169.1150

 eigenvalue-minimisations  :     0
 total energy-change (2. order) : 0.4515208E-01  (-0.5202227E+00)
 number of electron     936.0000012 magnetization     144.0000005
 augmentation part      323.0683902 magnetization      94.2317521

 Free energy of the ion-electron system (eV)
  ---------------------------------------------------
  alpha Z        PSCENC =      2639.27042227
  Ewald energy   TEWEN  =    -69235.14658112
  -Hartree energ DENC   =    -34813.92220242
  -exchange      EXHF   =         0.00000000
  -V(xc)+E(xc)   XCENC  =      3973.73873210
  PAW double counting   =    109391.83622207  -112839.43929837
  entropy T*S    EENTRO =        -0.00000000
  eigenvalues    EBANDS =    -13288.55244907
  atomic energy  EATOM  =    113515.32941094
  ---------------------------------------------------
  free energy    TOTEN  =      -656.88574360 eV

  energy without entropy =     -656.88574360  energy(sigma->0) =     -656.88574360


--------------------------------------------------------------------------------------------------------




--------------------------------------- Iteration      1(   7)  ---------------------------------------


    POTLOK:  cpu time    0.6215: real time    0.6292
    SETDIJ:  cpu time    1.5613: real time    1.5907
    TRIAL :  cpu time  126.9197: real time  127.9240
    CORREC:  cpu time   31.2835: real time   31.5680
    CHARGE:  cpu time    7.1307: real time    7.2525
    --------------------------------------------
      LOOP:  cpu time  167.5212: real time  168.9708

 eigenvalue-minimisations  :     0
 total energy-change (2. order) :-0.5204051E+00  (-0.3024596E+00)
 number of electron     936.0000012 magnetization     144.0000005
 augmentation part      322.6879887 magnetization      94.2113445

 Free energy of the ion-electron system (eV)
  ---------------------------------------------------
  alpha Z        PSCENC =      2639.27042227
  Ewald energy   TEWEN  =    -69235.14658112
  -Hartree energ DENC   =    -34822.86508995
  -exchange      EXHF   =         0.00000000
  -V(xc)+E(xc)   XCENC  =      3974.73553285
  PAW double counting   =    109629.51123795  -113080.02709482
  entropy T*S    EENTRO =        -0.00000000
  eigenvalues    EBANDS =    -13278.21398684
  atomic energy  EATOM  =    113515.32941094
  ---------------------------------------------------
  free energy    TOTEN  =      -657.40614872 eV

  energy without entropy =     -657.40614872  energy(sigma->0) =     -657.40614872


--------------------------------------------------------------------------------------------------------




--------------------------------------- Iteration      1(   8)  ---------------------------------------


    POTLOK:  cpu time    0.6150: real time    0.6264
    SETDIJ:  cpu time    1.5596: real time    1.5792
    TRIAL :  cpu time  127.1543: real time  128.3191
    CORREC:  cpu time   31.5158: real time   31.9112
    CHARGE:  cpu time    7.2620: real time    7.2681
    --------------------------------------------
      LOOP:  cpu time  168.1134: real time  169.7136

 eigenvalue-minimisations  :     0
 total energy-change (2. order) :-0.3025044E+00  (-0.1199644E+00)
 number of electron     936.0000012 magnetization     144.0000005
 augmentation part      322.4003290 magnetization      94.1916108

 Free energy of the ion-electron system (eV)
  ---------------------------------------------------
  alpha Z        PSCENC =      2639.27042227
  Ewald energy   TEWEN  =    -69235.14658112
  -Hartree energ DENC   =    -34827.14683403
  -exchange      EXHF   =         0.00000000
  -V(xc)+E(xc)   XCENC  =      3975.30420496
  PAW double counting   =    109906.13593103  -113360.14756380
  entropy T*S    EENTRO =        -0.00000000
  eigenvalues    EBANDS =    -13271.30764337
  atomic energy  EATOM  =    113515.32941094
  ---------------------------------------------------
  free energy    TOTEN  =      -657.70865313 eV

  energy without entropy =     -657.70865313  energy(sigma->0) =     -657.70865313


--------------------------------------------------------------------------------------------------------




--------------------------------------- Iteration      1(   9)  ---------------------------------------


    POTLOK:  cpu time    0.6141: real time    0.6328
    SETDIJ:  cpu time    1.5443: real time    1.5719
    TRIAL :  cpu time  126.5852: real time  127.8138
    CORREC:  cpu time   31.3952: real time   31.8085
    CHARGE:  cpu time    7.3049: real time    7.3288
    --------------------------------------------
      LOOP:  cpu time  167.4546: real time  169.1691

 eigenvalue-minimisations  :     0
 total energy-change (2. order) :-0.1199835E+00  (-0.4443065E-01)
 number of electron     936.0000012 magnetization     144.0000005
 augmentation part      322.2883793 magnetization      94.1805696

 Free energy of the ion-electron system (eV)
  ---------------------------------------------------
  alpha Z        PSCENC =      2639.27042227
  Ewald energy   TEWEN  =    -69235.14658112
  -Hartree energ DENC   =    -34823.53907292
  -exchange      EXHF   =         0.00000000
  -V(xc)+E(xc)   XCENC  =      3975.36047589
  PAW double counting   =    110029.47148654  -113484.63913726
  entropy T*S    EENTRO =        -0.00000000
  eigenvalues    EBANDS =    -13273.93564092
  atomic energy  EATOM  =    113515.32941094
  ---------------------------------------------------
  free energy    TOTEN  =      -657.82863658 eV

  energy without entropy =     -657.82863658  energy(sigma->0) =     -657.82863658


--------------------------------------------------------------------------------------------------------




--------------------------------------- Iteration      1(  10)  ---------------------------------------


    POTLOK:  cpu time    0.6436: real time    0.6596
    SETDIJ:  cpu time    1.5895: real time    1.5947
    TRIAL :  cpu time  126.5245: real time  127.5145
    CORREC:  cpu time   31.3500: real time   31.6660
    CHARGE:  cpu time    7.2096: real time    7.4184
    --------------------------------------------
      LOOP:  cpu time  167.3223: real time  168.8615

 eigenvalue-minimisations  :     0
 total energy-change (2. order) :-0.4442939E-01  (-0.1723273E-01)
 number of electron     936.0000012 magnetization     144.0000005
 augmentation part      322.2216762 magnetization      94.1691956

 Free energy of the ion-electron system (eV)
  ---------------------------------------------------
  alpha Z        PSCENC =      2639.27042227
  Ewald energy   TEWEN  =    -69235.14658112
  -Hartree energ DENC   =    -34828.05453702
  -exchange      EXHF   =         0.00000000
  -V(xc)+E(xc)   XCENC  =      3975.72069847
  PAW double counting   =    110049.76534141  -113506.18167747
  entropy T*S    EENTRO =        -0.00000000
  eigenvalues    EBANDS =    -13268.57614345
  atomic energy  EATOM  =    113515.32941094
  ---------------------------------------------------
  free energy    TOTEN  =      -657.87306597 eV

  energy without entropy =     -657.87306597  energy(sigma->0) =     -657.87306597


--------------------------------------------------------------------------------------------------------




--------------------------------------- Iteration      1(  11)  ---------------------------------------


    POTLOK:  cpu time    0.6150: real time    0.6154
    SETDIJ:  cpu time    1.6024: real time    1.6064
    TRIAL :  cpu time  126.4513: real time  127.6372
    CORREC:  cpu time   31.2118: real time   31.6830
    CHARGE:  cpu time    7.2861: real time    7.2946
    --------------------------------------------
      LOOP:  cpu time  167.1997: real time  168.8721

 eigenvalue-minimisations  :     0
 total energy-change (2. order) :-0.1723652E-01  (-0.5370761E-02)
 number of electron     936.0000012 magnetization     144.0000005
 augmentation part      322.2031974 magnetization      94.1636417

 Free energy of the ion-electron system (eV)
  ---------------------------------------------------
  alpha Z        PSCENC =      2639.27042227
  Ewald energy   TEWEN  =    -69235.14658112
  -Hartree energ DENC   =    -34827.81825597
  -exchange      EXHF   =         0.00000000
  -V(xc)+E(xc)   XCENC  =      3975.75883478
  PAW double counting   =    110012.46561888  -113469.07076813
  entropy T*S    EENTRO =        -0.00000000
  eigenvalues    EBANDS =    -13268.67898416
  atomic energy  EATOM  =    113515.32941094
  ---------------------------------------------------
  free energy    TOTEN  =      -657.89030250 eV

  energy without entropy =     -657.89030250  energy(sigma->0) =     -657.89030250


--------------------------------------------------------------------------------------------------------




--------------------------------------- Iteration      1(  12)  ---------------------------------------


    POTLOK:  cpu time    0.6147: real time    0.6154
    SETDIJ:  cpu time    1.5879: real time    1.5891
    TRIAL :  cpu time  126.5674: real time  127.6185
    CORREC:  cpu time   30.9325: real time   31.2809
    CHARGE:  cpu time    7.3432: real time    7.3950
    --------------------------------------------
      LOOP:  cpu time  167.0512: real time  168.5064

 eigenvalue-minimisations  :     0
 total energy-change (2. order) :-0.5371016E-02  (-0.2491936E-02)
 number of electron     936.0000012 magnetization     144.0000005
 augmentation part      322.2000585 magnetization      94.1578038

 Free energy of the ion-electron system (eV)
  ---------------------------------------------------
  alpha Z        PSCENC =      2639.27042227
  Ewald energy   TEWEN  =    -69235.14658112
  -Hartree energ DENC   =    -34827.54631141
  -exchange      EXHF   =         0.00000000
  -V(xc)+E(xc)   XCENC  =      3975.73719394
  PAW double counting   =    109975.26587955  -113432.02019404
  entropy T*S    EENTRO =        -0.00000000
  eigenvalues    EBANDS =    -13268.78549365
  atomic energy  EATOM  =    113515.32941094
  ---------------------------------------------------
  free energy    TOTEN  =      -657.89567351 eV

  energy without entropy =     -657.89567351  energy(sigma->0) =     -657.89567351


--------------------------------------------------------------------------------------------------------




--------------------------------------- Iteration      1(  13)  ---------------------------------------


    POTLOK:  cpu time    0.6090: real time    0.6238
    SETDIJ:  cpu time    1.5363: real time    1.5794
    TRIAL :  cpu time  126.4776: real time  127.7068
    CORREC:  cpu time   31.1144: real time   31.4326
    CHARGE:  cpu time    7.2192: real time    7.3109
    --------------------------------------------
      LOOP:  cpu time  166.9613: real time  168.6626

 eigenvalue-minimisations  :     0
 total energy-change (2. order) :-0.2495423E-02  (-0.1435789E-02)
 number of electron     936.0000012 magnetization     144.0000005
 augmentation part      322.2045758 magnetization      94.1552872

 Free energy of the ion-electron system (eV)
  ---------------------------------------------------
  alpha Z        PSCENC =      2639.27042227
  Ewald energy   TEWEN  =    -69235.14658112
  -Hartree energ DENC   =    -34827.72623364
  -exchange      EXHF   =         0.00000000
  -V(xc)+E(xc)   XCENC  =      3975.75943429
  PAW double counting   =    109945.84389198  -113402.48742589
  entropy T*S    EENTRO =        -0.00000000
  eigenvalues    EBANDS =    -13268.74108777
  atomic energy  EATOM  =    113515.32941094
  ---------------------------------------------------
  free energy    TOTEN  =      -657.89816894 eV

  energy without entropy =     -657.89816894  energy(sigma->0) =     -657.89816894


--------------------------------------------------------------------------------------------------------




--------------------------------------- Iteration      1(  14)  ---------------------------------------


    POTLOK:  cpu time    0.6153: real time    0.6157
    SETDIJ:  cpu time    1.5766: real time    1.5996
    TRIAL :  cpu time  126.7692: real time  127.7007
    CORREC:  cpu time   31.6547: real time   31.7644
    CHARGE:  cpu time    7.2908: real time    7.3385
    --------------------------------------------
      LOOP:  cpu time  167.9108: real time  169.0252

 eigenvalue-minimisations  :     0
 total energy-change (2. order) :-0.1435298E-02  (-0.8303949E-03)
 number of electron     936.0000012 magnetization     144.0000005
 augmentation part      322.2052716 magnetization      94.1509304

 Free energy of the ion-electron system (eV)
  ---------------------------------------------------
  alpha Z        PSCENC =      2639.27042227
  Ewald energy   TEWEN  =    -69235.14658112
  -Hartree energ DENC   =    -34827.95717115
  -exchange      EXHF   =         0.00000000
  -V(xc)+E(xc)   XCENC  =      3975.75008059
  PAW double counting   =    109935.91121131  -113392.64947994
  entropy T*S    EENTRO =        -0.00000000
  eigenvalues    EBANDS =    -13268.40749713
  atomic energy  EATOM  =    113515.32941094
  ---------------------------------------------------
  free energy    TOTEN  =      -657.89960424 eV

  energy without entropy =     -657.89960424  energy(sigma->0) =     -657.89960424


--------------------------------------------------------------------------------------------------------




--------------------------------------- Iteration      1(  15)  ---------------------------------------


    POTLOK:  cpu time    0.6143: real time    0.6175
    SETDIJ:  cpu time    1.5696: real time    1.5780
    TRIAL :  cpu time  125.9465: real time  126.9949
    CORREC:  cpu time   30.8844: real time   31.1304
    CHARGE:  cpu time    7.2285: real time    7.2678
    --------------------------------------------
      LOOP:  cpu time  166.2482: real time  167.5951

 eigenvalue-minimisations  :     0
 total energy-change (2. order) :-0.8338807E-03  (-0.4607039E-03)
 number of electron     936.0000012 magnetization     144.0000005
 augmentation part      322.2185861 magnetization      94.1520285

 Free energy of the ion-electron system (eV)
  ---------------------------------------------------
  alpha Z        PSCENC =      2639.27042227
  Ewald energy   TEWEN  =    -69235.14658112
  -Hartree energ DENC   =    -34827.26691908
  -exchange      EXHF   =         0.00000000
  -V(xc)+E(xc)   XCENC  =      3975.72578204
  PAW double counting   =    109936.80092575  -113393.30470599
  entropy T*S    EENTRO =        -0.00000000
  eigenvalues    EBANDS =    -13269.30877292
  atomic energy  EATOM  =    113515.32941094
  ---------------------------------------------------
  free energy    TOTEN  =      -657.90043812 eV

  energy without entropy =     -657.90043812  energy(sigma->0) =     -657.90043812


--------------------------------------------------------------------------------------------------------




--------------------------------------- Iteration      1(  16)  ---------------------------------------


    POTLOK:  cpu time    0.6145: real time    0.6205
    SETDIJ:  cpu time    1.5482: real time    1.5852
    TRIAL :  cpu time  126.6736: real time  127.5394
    CORREC:  cpu time   31.5626: real time   31.9039
    CHARGE:  cpu time    7.2809: real time    7.3731
    --------------------------------------------
      LOOP:  cpu time  167.6853: real time  169.0296

 eigenvalue-minimisations  :     0
 total energy-change (2. order) :-0.4595835E-03  (-0.2429516E-03)
 number of electron     936.0000012 magnetization     144.0000005
 augmentation part      322.2122084 magnetization      94.1490630

 Free energy of the ion-electron system (eV)
  ---------------------------------------------------
  alpha Z        PSCENC =      2639.27042227
  Ewald energy   TEWEN  =    -69235.14658112
  -Hartree energ DENC   =    -34828.34604683
  -exchange      EXHF   =         0.00000000
  -V(xc)+E(xc)   XCENC  =      3975.76045566
  PAW double counting   =    109950.18778808  -113406.87189110
  entropy T*S    EENTRO =        -0.00000000
  eigenvalues    EBANDS =    -13268.08445560
  atomic energy  EATOM  =    113515.32941094
  ---------------------------------------------------
  free energy    TOTEN  =      -657.90089770 eV

  energy without entropy =     -657.90089770  energy(sigma->0) =     -657.90089770


--------------------------------------------------------------------------------------------------------




--------------------------------------- Iteration      1(  17)  ---------------------------------------


    POTLOK:  cpu time    0.6172: real time    0.6179
    SETDIJ:  cpu time    1.5921: real time    1.5934
    TRIAL :  cpu time  126.7457: real time  127.8088
    CORREC:  cpu time   31.4831: real time   31.7748
    CHARGE:  cpu time    7.3295: real time    7.3378
    --------------------------------------------
      LOOP:  cpu time  167.7827: real time  169.1500

 eigenvalue-minimisations  :     0
 total energy-change (2. order) :-0.2466611E-03  (-0.1701782E-03)
 number of electron     936.0000012 magnetization     144.0000005
 augmentation part      322.2218735 magnetization      94.1521765

 Free energy of the ion-electron system (eV)
  ---------------------------------------------------
  alpha Z        PSCENC =      2639.27042227
  Ewald energy   TEWEN  =    -69235.14658112
  -Hartree energ DENC   =    -34826.84589298
  -exchange      EXHF   =         0.00000000
  -V(xc)+E(xc)   XCENC  =      3975.70127244
  PAW double counting   =    109953.41330940  -113409.78135793
  entropy T*S    EENTRO =        -0.00000000
  eigenvalues    EBANDS =    -13269.84172738
  atomic energy  EATOM  =    113515.32941094
  ---------------------------------------------------
  free energy    TOTEN  =      -657.90114436 eV

  energy without entropy =     -657.90114436  energy(sigma->0) =     -657.90114436


--------------------------------------------------------------------------------------------------------




--------------------------------------- Iteration      1(  18)  ---------------------------------------


    POTLOK:  cpu time    0.6153: real time    0.6156
    SETDIJ:  cpu time    1.5973: real time    1.5979
    TRIAL :  cpu time  126.6387: real time  127.7269
    CORREC:  cpu time   31.6738: real time   32.0666
    CHARGE:  cpu time    7.2022: real time    7.2954
    --------------------------------------------
      LOOP:  cpu time  167.7391: real time  169.3160

 eigenvalue-minimisations  :     0
 total energy-change (2. order) :-0.1691258E-03  (-0.1300421E-03)
 number of electron     936.0000012 magnetization     144.0000005
 augmentation part      322.2159004 magnetization      94.1511228

 Free energy of the ion-electron system (eV)
  ---------------------------------------------------
  alpha Z        PSCENC =      2639.27042227
  Ewald energy   TEWEN  =    -69235.14658112
  -Hartree energ DENC   =    -34828.19354328
  -exchange      EXHF   =         0.00000000
  -V(xc)+E(xc)   XCENC  =      3975.75224707
  PAW double counting   =    109960.00280492  -113416.62341362
  entropy T*S    EENTRO =        -0.00000000
  eigenvalues    EBANDS =    -13268.29266068
  atomic energy  EATOM  =    113515.32941094
  ---------------------------------------------------
  free energy    TOTEN  =      -657.90131349 eV

  energy without entropy =     -657.90131349  energy(sigma->0) =     -657.90131349


--------------------------------------------------------------------------------------------------------




--------------------------------------- Iteration      1(  19)  ---------------------------------------


    POTLOK:  cpu time    0.6170: real time    0.6172
    SETDIJ:  cpu time    1.5751: real time    1.5755
    TRIAL :  cpu time  126.6022: real time  128.1280
    CORREC:  cpu time   31.4056: real time   31.7730
    CHARGE:  cpu time    7.2090: real time    7.3159
    --------------------------------------------
      LOOP:  cpu time  167.4149: real time  169.4178

 eigenvalue-minimisations  :     0
 total energy-change (2. order) :-0.1313665E-03  (-0.8788321E-04)
 number of electron     936.0000012 magnetization     144.0000005
 augmentation part      322.2178678 magnetization      94.1531242

 Free energy of the ion-electron system (eV)
  ---------------------------------------------------
  alpha Z        PSCENC =      2639.27042227
  Ewald energy   TEWEN  =    -69235.14658112
  -Hartree energ DENC   =    -34827.27034107
  -exchange      EXHF   =         0.00000000
  -V(xc)+E(xc)   XCENC  =      3975.71932805
  PAW double counting   =    109955.24512737  -113411.68469383
  entropy T*S    EENTRO =        -0.00000000
  eigenvalues    EBANDS =    -13269.36411746
  atomic energy  EATOM  =    113515.32941094
  ---------------------------------------------------
  free energy    TOTEN  =      -657.90144485 eV

  energy without entropy =     -657.90144485  energy(sigma->0) =     -657.90144485


--------------------------------------------------------------------------------------------------------




--------------------------------------- Iteration      1(  20)  ---------------------------------------


    POTLOK:  cpu time    0.6767: real time    0.6771
    SETDIJ:  cpu time    1.5760: real time    1.5790
    TRIAL :  cpu time  127.1625: real time  128.4572
    CORREC:  cpu time   31.4678: real time   31.7778
    CHARGE:  cpu time    7.2778: real time    7.3251
    --------------------------------------------
      LOOP:  cpu time  168.1672: real time  169.8236

 eigenvalue-minimisations  :     0
 total energy-change (2. order) :-0.8741349E-04  (-0.4407751E-04)
 number of electron     936.0000012 magnetization     144.0000005
 augmentation part      322.2155032 magnetization      94.1529188

 Free energy of the ion-electron system (eV)
  ---------------------------------------------------
  alpha Z        PSCENC =      2639.27042227
  Ewald energy   TEWEN  =    -69235.14658112
  -Hartree energ DENC   =    -34827.72811825
  -exchange      EXHF   =         0.00000000
  -V(xc)+E(xc)   XCENC  =      3975.73364610
  PAW double counting   =    109953.39470366  -113409.93495366
  entropy T*S    EENTRO =        -0.00000000
  eigenvalues    EBANDS =    -13268.82006220
  atomic energy  EATOM  =    113515.32941094
  ---------------------------------------------------
  free energy    TOTEN  =      -657.90153227 eV

  energy without entropy =     -657.90153227  energy(sigma->0) =     -657.90153227


--------------------------------------------------------------------------------------------------------




--------------------------------------- Iteration      1(  21)  ---------------------------------------


    POTLOK:  cpu time    0.6208: real time    0.6216
    SETDIJ:  cpu time    1.6048: real time    1.6074
    TRIAL :  cpu time  126.5043: real time  127.4940
    CORREC:  cpu time   30.6428: real time   31.2687
    CHARGE:  cpu time    7.1154: real time    7.3236
    --------------------------------------------
      LOOP:  cpu time  166.4923: real time  168.3199

 eigenvalue-minimisations  :     0
 total energy-change (2. order) :-0.4410150E-04  (-0.2515681E-04)
 number of electron     936.0000012 magnetization     144.0000005
 augmentation part      322.2158806 magnetization      94.1537119

 Free energy of the ion-electron system (eV)
  ---------------------------------------------------
  alpha Z        PSCENC =      2639.27042227
  Ewald energy   TEWEN  =    -69235.14658112
  -Hartree energ DENC   =    -34827.51221292
  -exchange      EXHF   =         0.00000000
  -V(xc)+E(xc)   XCENC  =      3975.72972191
  PAW double counting   =    109950.53171616  -113407.01458174
  entropy T*S    EENTRO =        -0.00000000
  eigenvalues    EBANDS =    -13269.08947187
  atomic energy  EATOM  =    113515.32941094
  ---------------------------------------------------
  free energy    TOTEN  =      -657.90157637 eV

  energy without entropy =     -657.90157637  energy(sigma->0) =     -657.90157637


--------------------------------------------------------------------------------------------------------




--------------------------------------- Iteration      1(  22)  ---------------------------------------


    POTLOK:  cpu time    0.6051: real time    0.6187
    SETDIJ:  cpu time    1.5607: real time    1.5946
    TRIAL :  cpu time  125.1174: real time  127.4545
    CORREC:  cpu time   30.9545: real time   31.7378
    CHARGE:  cpu time    7.0659: real time    7.2876
    --------------------------------------------
      LOOP:  cpu time  165.3043: real time  168.6941

 eigenvalue-minimisations  :     0
 total energy-change (2. order) :-0.2484729E-04  (-0.1544752E-04)
 number of electron     936.0000012 magnetization     144.0000005
 augmentation part      322.2152596 magnetization      94.1535294

 Free energy of the ion-electron system (eV)
  ---------------------------------------------------
  alpha Z        PSCENC =      2639.27042227
  Ewald energy   TEWEN  =    -69235.14658112
  -Hartree energ DENC   =    -34827.63846798
  -exchange      EXHF   =         0.00000000
  -V(xc)+E(xc)   XCENC  =      3975.73181201
  PAW double counting   =    109951.08486984  -113407.61735473
  entropy T*S    EENTRO =        -0.00000000
  eigenvalues    EBANDS =    -13268.91571245
  atomic energy  EATOM  =    113515.32941094
  ---------------------------------------------------
  free energy    TOTEN  =      -657.90160122 eV

  energy without entropy =     -657.90160122  energy(sigma->0) =     -657.90160122


--------------------------------------------------------------------------------------------------------




--------------------------------------- Iteration      1(  23)  ---------------------------------------


    POTLOK:  cpu time    0.6337: real time    0.6564
    SETDIJ:  cpu time    1.5486: real time    1.5723
    TRIAL :  cpu time  125.9447: real time  128.1136
    CORREC:  cpu time   31.3660: real time   31.7042
    CHARGE:  cpu time    7.2040: real time    7.3447
    --------------------------------------------
      LOOP:  cpu time  166.6989: real time  169.3938

 eigenvalue-minimisations  :     0
 total energy-change (2. order) :-0.1546666E-04  (-0.9157783E-05)
 number of electron     936.0000012 magnetization     144.0000005
 augmentation part      322.2152121 magnetization      94.1535371

 Free energy of the ion-electron system (eV)
  ---------------------------------------------------
  alpha Z        PSCENC =      2639.27042227
  Ewald energy   TEWEN  =    -69235.14658112
  -Hartree energ DENC   =    -34827.59486039
  -exchange      EXHF   =         0.00000000
  -V(xc)+E(xc)   XCENC  =      3975.73233048
  PAW double counting   =    109951.56377128  -113408.07916584
  entropy T*S    EENTRO =        -0.00000000
  eigenvalues    EBANDS =    -13268.97694430
  atomic energy  EATOM  =    113515.32941094
  ---------------------------------------------------
  free energy    TOTEN  =      -657.90161668 eV

  energy without entropy =     -657.90161668  energy(sigma->0) =     -657.90161668


--------------------------------------------------------------------------------------------------------




--------------------------------------- Iteration      1(  24)  ---------------------------------------


    POTLOK:  cpu time    0.6052: real time    0.6190
    SETDIJ:  cpu time    1.5501: real time    1.5733
    TRIAL :  cpu time  126.6915: real time  128.0878
    CORREC:  cpu time   31.5126: real time   31.6851
    CHARGE:  cpu time    7.3392: real time    7.3763
    --------------------------------------------
      LOOP:  cpu time  167.7017: real time  169.3453

 eigenvalue-minimisations  :     0
 total energy-change (2. order) :-0.9114272E-05  (-0.4967984E-05)
 number of electron     936.0000012 magnetization     144.0000005
 augmentation part      322.2149903 magnetization      94.1534091

 Free energy of the ion-electron system (eV)
  ---------------------------------------------------
  alpha Z        PSCENC =      2639.27042227
  Ewald energy   TEWEN  =    -69235.14658112
  -Hartree energ DENC   =    -34827.61762751
  -exchange      EXHF   =         0.00000000
  -V(xc)+E(xc)   XCENC  =      3975.73264842
  PAW double counting   =    109952.45204643  -113408.97636806
  entropy T*S    EENTRO =        -0.00000000
  eigenvalues    EBANDS =    -13268.94557716
  atomic energy  EATOM  =    113515.32941094
  ---------------------------------------------------
  free energy    TOTEN  =      -657.90162580 eV

  energy without entropy =     -657.90162580  energy(sigma->0) =     -657.90162580


--------------------------------------------------------------------------------------------------------




--------------------------------------- Iteration      1(  25)  ---------------------------------------


    POTLOK:  cpu time    0.6235: real time    0.6306
    SETDIJ:  cpu time    1.5576: real time    1.5855
    TRIAL :  cpu time  126.7274: real time  128.0880
    CORREC:  cpu time   31.4426: real time   31.7851
    CHARGE:  cpu time    7.3211: real time    7.3282
    --------------------------------------------
      LOOP:  cpu time  167.6793: real time  169.4252

 eigenvalue-minimisations  :     0
 total energy-change (2. order) :-0.4963425E-05  (-0.3563009E-05)
 number of electron     936.0000012 magnetization     144.0000005
 augmentation part      322.2148900 magnetization      94.1533127

 Free energy of the ion-electron system (eV)
  ---------------------------------------------------
  alpha Z        PSCENC =      2639.27042227
  Ewald energy   TEWEN  =    -69235.14658112
  -Hartree energ DENC   =    -34827.60265283
  -exchange      EXHF   =         0.00000000
  -V(xc)+E(xc)   XCENC  =      3975.73226772
  PAW double counting   =    109952.78153414  -113409.30494795
  entropy T*S    EENTRO =        -0.00000000
  eigenvalues    EBANDS =    -13268.96108393
  atomic energy  EATOM  =    113515.32941094
  ---------------------------------------------------
  free energy    TOTEN  =      -657.90163076 eV

  energy without entropy =     -657.90163076  energy(sigma->0) =     -657.90163076


--------------------------------------------------------------------------------------------------------




--------------------------------------- Iteration      1(  26)  ---------------------------------------


    POTLOK:  cpu time    0.6146: real time    0.6150
    SETDIJ:  cpu time    1.5769: real time    1.5776
    TRIAL :  cpu time  127.1761: real time  128.2913
    CORREC:  cpu time   31.2546: real time   31.6002
    CHARGE:  cpu time    7.2784: real time    7.3305
    --------------------------------------------
      LOOP:  cpu time  167.9094: real time  169.4238

 eigenvalue-minimisations  :     0
 total energy-change (2. order) :-0.3561101E-05  (-0.3196263E-05)
 number of electron     936.0000012 magnetization     144.0000005
 augmentation part      322.2147723 magnetization      94.1532704

 Free energy of the ion-electron system (eV)
  ---------------------------------------------------
  alpha Z        PSCENC =      2639.27042227
  Ewald energy   TEWEN  =    -69235.14658112
  -Hartree energ DENC   =    -34827.60933406
  -exchange      EXHF   =         0.00000000
  -V(xc)+E(xc)   XCENC  =      3975.73304470
  PAW double counting   =    109952.84308940  -113409.36733523
  entropy T*S    EENTRO =        -0.00000000
  eigenvalues    EBANDS =    -13268.95435122
  atomic energy  EATOM  =    113515.32941094
  ---------------------------------------------------
  free energy    TOTEN  =      -657.90163432 eV

  energy without entropy =     -657.90163432  energy(sigma->0) =     -657.90163432


--------------------------------------------------------------------------------------------------------




--------------------------------------- Iteration      1(  27)  ---------------------------------------


    POTLOK:  cpu time    0.6165: real time    0.6180
    SETDIJ:  cpu time    1.5835: real time    1.5848
    TRIAL :  cpu time  126.5461: real time  127.8663
    CORREC:  cpu time   31.4098: real time   31.7924
    CHARGE:  cpu time    7.2902: real time    7.3570
    --------------------------------------------
      LOOP:  cpu time  167.4511: real time  169.2240

 eigenvalue-minimisations  :     0
 total energy-change (2. order) :-0.3153866E-05  (-0.2113662E-05)
 number of electron     936.0000012 magnetization     144.0000005
 augmentation part      322.2145263 magnetization      94.1531040

 Free energy of the ion-electron system (eV)
  ---------------------------------------------------
  alpha Z        PSCENC =      2639.27042227
  Ewald energy   TEWEN  =    -69235.14658112
  -Hartree energ DENC   =    -34827.61444251
  -exchange      EXHF   =         0.00000000
  -V(xc)+E(xc)   XCENC  =      3975.73283115
  PAW double counting   =    109952.66589585  -113409.19545133
  entropy T*S    EENTRO =        -0.00000000
  eigenvalues    EBANDS =    -13268.94372272
  atomic energy  EATOM  =    113515.32941094
  ---------------------------------------------------
  free energy    TOTEN  =      -657.90163747 eV

  energy without entropy =     -657.90163747  energy(sigma->0) =     -657.90163747


--------------------------------------------------------------------------------------------------------




--------------------------------------- Iteration      1(  28)  ---------------------------------------


    POTLOK:  cpu time    0.6161: real time    0.6169
    SETDIJ:  cpu time    1.5701: real time    1.5790
    TRIAL :  cpu time  125.0749: real time  127.6869
    CORREC:  cpu time   30.6408: real time   31.1895
    CHARGE:  cpu time    7.2738: real time    7.3229
[...]
   0.393E+00 0.931E+00 0.894E+02   -.399E+00 -.944E+00 -.899E+02   0.485E-02 0.143E-01 0.516E+00
   0.259E+00 0.668E-01 0.894E+02   -.262E+00 -.670E-01 -.899E+02   0.460E-02 0.628E-04 0.514E+00
   0.392E+00 -.803E+00 0.895E+02   -.397E+00 0.816E+00 -.900E+02   0.460E-02 -.140E-01 0.512E+00
   0.348E-01 0.671E-01 0.894E+02   -.347E-01 -.672E-01 -.899E+02   -.886E-03 0.630E-04 0.514E+00
   0.127E+00 0.672E-01 0.894E+02   -.129E+00 -.674E-01 -.899E+02   0.326E-02 0.607E-04 0.514E+00
   0.345E-01 0.671E-01 0.894E+02   -.344E-01 -.672E-01 -.899E+02   -.883E-03 0.693E-04 0.514E+00
   0.394E+00 -.797E+00 0.894E+02   -.399E+00 0.809E+00 -.899E+02   0.485E-02 -.142E-01 0.516E+00
   0.259E+00 0.674E-01 0.894E+02   -.262E+00 -.676E-01 -.899E+02   0.460E-02 0.762E-04 0.514E+00
   0.391E+00 0.938E+00 0.895E+02   -.397E+00 -.950E+00 -.900E+02   0.461E-02 0.141E-01 0.512E+00
   0.419E-01 0.709E-01 0.894E+02   -.422E-01 -.711E-01 -.899E+02   0.322E-03 0.122E-03 0.514E+00
   0.878E-01 0.632E-01 0.894E+02   -.883E-01 -.634E-01 -.900E+02   0.596E-03 0.165E-04 0.514E+00
   0.647E-01 0.671E-01 0.894E+02   -.649E-01 -.673E-01 -.899E+02   0.843E-04 0.645E-04 0.514E+00
   0.552E-01 0.633E-01 0.894E+02   -.553E-01 -.634E-01 -.899E+02   0.254E-03 0.511E-05 0.514E+00
   0.814E-01 0.757E-01 0.894E+02   -.819E-01 -.758E-01 -.899E+02   0.584E-03 0.124E-03 0.514E+00
   0.584E-01 0.625E-01 0.894E+02   -.586E-01 -.626E-01 -.899E+02   0.725E-04 0.545E-04 0.514E+00
   0.603E-01 0.671E-01 0.894E+02   -.605E-01 -.672E-01 -.899E+02   0.310E-03 0.610E-04 0.514E+00
   0.865E-01 0.626E-01 0.894E+02   -.871E-01 -.627E-01 -.900E+02   0.644E-03 0.573E-04 0.514E+00
   0.478E-01 0.718E-01 0.894E+02   -.480E-01 -.719E-01 -.899E+02   -.389E-04 0.674E-04 0.514E+00
   -.874E+00 -.650E-01 -.894E+02   0.880E+00 0.653E-01 0.899E+02   -.989E-02 -.302E-03 -.514E+00
   0.133E+00 -.652E-01 -.893E+02   -.134E+00 0.655E-01 0.898E+02   0.227E-02 -.303E-03 -.512E+00
   0.130E+00 -.652E-01 -.896E+02   -.131E+00 0.655E-01 0.901E+02   0.224E-02 -.303E-03 -.516E+00
   -.176E+00 -.651E-01 -.894E+02   0.177E+00 0.654E-01 0.899E+02   -.268E-02 -.305E-03 -.514E+00
   -.157E-01 -.197E-01 -.894E+02   0.153E-01 0.194E-01 0.899E+02   0.163E-02 0.822E-03 -.512E+00
   -.189E-01 -.111E+00 -.894E+02   0.184E-01 0.111E+00 0.900E+02   0.161E-02 -.142E-02 -.516E+00
   -.176E+00 -.654E-01 -.894E+02   0.177E+00 0.657E-01 0.899E+02   -.268E-02 -.298E-03 -.514E+00
   -.155E-01 -.110E+00 -.894E+02   0.150E-01 0.111E+00 0.899E+02   0.164E-02 -.142E-02 -.512E+00
   -.194E-01 -.196E-01 -.894E+02   0.189E-01 0.194E-01 0.900E+02   0.159E-02 0.820E-03 -.516E+00
   -.985E-01 -.169E-01 -.895E+02   0.991E-01 0.171E-01 0.900E+02   -.800E-03 -.316E-03 -.515E+00
   -.136E-03 -.660E-01 -.894E+02   -.312E-03 0.663E-01 0.899E+02   0.100E-02 -.309E-03 -.514E+00
   -.909E-01 -.113E+00 -.893E+02   0.913E-01 0.113E+00 0.898E+02   -.671E-03 -.259E-03 -.513E+00
   -.854E-01 -.659E-01 -.894E+02   0.859E-01 0.662E-01 0.899E+02   -.590E-03 -.314E-03 -.514E+00
   -.384E-01 -.643E-01 -.894E+02   0.379E-01 0.646E-01 0.899E+02   0.110E-02 -.283E-03 -.514E+00
   -.775E-01 -.651E-01 -.894E+02   0.778E-01 0.654E-01 0.899E+02   -.452E-03 -.307E-03 -.514E+00
   -.978E-01 -.113E+00 -.895E+02   0.984E-01 0.113E+00 0.900E+02   -.792E-03 -.284E-03 -.515E+00
   0.573E-03 -.650E-01 -.894E+02   -.101E-02 0.653E-01 0.899E+02   0.998E-03 -.304E-03 -.514E+00
   -.923E-01 -.175E-01 -.893E+02   0.927E-01 0.178E-01 0.898E+02   -.695E-03 -.338E-03 -.513E+00
   -.337E+01 -.498E-01 -.657E+02   0.336E+01 0.488E-01 0.646E+02   0.435E-01 0.925E-03 0.111E+01
   0.107E+01 -.494E-01 -.657E+02   -.109E+01 0.483E-01 0.646E+02   0.148E-01 0.971E-03 0.111E+01
   0.108E+01 -.493E-01 -.657E+02   -.110E+01 0.483E-01 0.646E+02   0.149E-01 0.958E-03 0.111E+01
   -.479E+00 -.479E-01 -.657E+02   0.497E+00 0.468E-01 0.646E+02   -.144E-01 0.994E-03 0.111E+01
   0.124E+00 0.124E+00 -.657E+02   -.143E+00 -.138E+00 0.646E+02   0.150E-01 0.121E-01 0.111E+01
   0.124E+00 -.224E+00 -.657E+02   -.143E+00 0.236E+00 0.646E+02   0.150E-01 -.101E-01 0.111E+01
   -.479E+00 -.514E-01 -.657E+02   0.497E+00 0.504E-01 0.646E+02   -.144E-01 0.960E-03 0.111E+01
   0.125E+00 -.223E+00 -.657E+02   -.143E+00 0.235E+00 0.646E+02   0.150E-01 -.102E-01 0.111E+01
   0.124E+00 0.125E+00 -.657E+02   -.142E+00 -.139E+00 0.646E+02   0.150E-01 0.120E-01 0.111E+01
   -.948E-01 -.232E-01 -.658E+02   0.948E-01 0.221E-01 0.647E+02   0.118E-03 0.991E-03 0.111E+01
   -.227E-01 -.627E-01 -.656E+02   0.219E-01 0.617E-01 0.645E+02   0.664E-03 0.948E-03 0.111E+01
   -.229E-01 -.626E-01 -.656E+02   0.222E-01 0.616E-01 0.645E+02   0.587E-03 0.962E-03 0.112E+01
   -.856E-01 -.627E-01 -.658E+02   0.856E-01 0.617E-01 0.646E+02   0.991E-04 0.942E-03 0.111E+01
   -.417E-01 -.362E-01 -.656E+02   0.410E-01 0.352E-01 0.645E+02   0.615E-03 0.100E-02 0.111E+01
   -.136E-01 -.495E-01 -.657E+02   0.129E-01 0.485E-01 0.645E+02   0.588E-03 0.968E-03 0.111E+01
   -.854E-01 -.627E-01 -.657E+02   0.854E-01 0.617E-01 0.646E+02   0.110E-03 0.919E-03 0.111E+01
   -.135E-01 -.494E-01 -.657E+02   0.128E-01 0.484E-01 0.645E+02   0.652E-03 0.950E-03 0.111E+01
   -.419E-01 -.362E-01 -.656E+02   0.413E-01 0.352E-01 0.645E+02   0.534E-03 0.961E-03 0.112E+01
   0.602E-01 0.574E+00 0.663E+02   -.571E-01 -.575E+00 -.652E+02   -.307E-02 0.162E-04 -.110E+01
   0.355E+00 0.472E-01 0.657E+02   -.360E+00 -.467E-01 -.646E+02   0.348E-02 -.451E-03 -.111E+01
   0.493E-01 -.480E+00 0.651E+02   -.462E-01 0.482E+00 -.639E+02   -.321E-02 -.853E-03 -.113E+01
   0.521E-03 0.476E-01 0.657E+02   0.332E-02 -.471E-01 -.646E+02   -.325E-02 -.439E-03 -.111E+01
   0.158E+00 0.481E-01 0.657E+02   -.163E+00 -.476E-01 -.646E+02   0.402E-02 -.439E-03 -.111E+01
   -.740E-02 0.470E-01 0.656E+02   0.113E-01 -.465E-01 -.645E+02   -.328E-02 -.431E-03 -.112E+01
   0.613E-01 -.478E+00 0.663E+02   -.583E-01 0.480E+00 -.652E+02   -.310E-02 -.891E-03 -.110E+01
   0.355E+00 0.475E-01 0.657E+02   -.360E+00 -.470E-01 -.646E+02   0.348E-02 -.441E-03 -.111E+01
   0.486E-01 0.575E+00 0.651E+02   -.455E-01 -.576E+00 -.639E+02   -.320E-02 -.700E-04 -.113E+01
   0.935E-01 0.925E-01 0.656E+02   -.929E-01 -.921E-01 -.645E+02   -.582E-03 -.458E-03 -.112E+01
   0.117E+00 0.239E-02 0.658E+02   -.116E+00 -.196E-02 -.646E+02   -.359E-03 -.389E-03 -.111E+01
   -.637E-01 0.477E-01 0.657E+02   0.665E-01 -.473E-01 -.645E+02   -.229E-02 -.416E-03 -.111E+01
   0.976E-01 0.257E-02 0.656E+02   -.971E-01 -.205E-02 -.645E+02   -.552E-03 -.423E-03 -.112E+01
   0.114E+00 0.947E-01 0.658E+02   -.114E+00 -.942E-01 -.646E+02   -.364E-03 -.505E-03 -.111E+01
   -.658E-01 0.455E-01 0.657E+02   0.685E-01 -.450E-01 -.646E+02   -.229E-02 -.465E-03 -.111E+01
   0.190E+00 0.474E-01 0.655E+02   -.190E+00 -.469E-01 -.644E+02   -.316E-03 -.454E-03 -.112E+01
   0.207E+00 0.459E-01 0.659E+02   -.207E+00 -.454E-01 -.648E+02   -.118E-03 -.447E-03 -.111E+01
   -.299E+00 0.494E-01 0.657E+02   0.300E+00 -.489E-01 -.646E+02   -.146E-03 -.457E-03 -.111E+01
 -----------------------------------------------------------------------------------------------
   -.381E-01 -.283E-01 0.118E-02   -.500E-14 -.299E-12 0.132E-11   0.458E-01 0.207E-01 -.112E-02
 
 
 POSITION                                       TOTAL-FORCE (eV/Angst)
 -----------------------------------------------------------------------------------
      1.72948      0.20030     -0.00150        -0.003883     -0.000040      0.007104
      5.58834      0.20099     -0.00468        -0.000576     -0.000047     -0.000007
      9.44720      0.20168     -0.00786        -0.003924     -0.000059     -0.007209
      1.72882      4.05917     -0.00468         0.000473     -0.000903      0.001204
      5.58768      4.05986     -0.00786        -0.000514     -0.000046     -0.000011
      9.44654      4.06055     -0.01104         0.000453      0.000801     -0.001210
      1.72816      7.91804     -0.00786         0.000474      0.000806      0.001211
      5.58702      7.91872     -0.01104        -0.000517     -0.000052     -0.000010
      9.44588      7.91941     -0.01422         0.000457     -0.000911     -0.001211
     -0.19436     -1.72421      6.38168         0.000014     -0.000046      0.000017
      3.66450     -1.72352      6.37850        -0.000019      0.000004     -0.000275
      7.52337     -1.72284      6.37532         0.000002     -0.000100      0.000271
     -0.19502      2.13465      6.37850         0.000035     -0.000058      0.000003
      3.66384      2.13534      6.37532        -0.000028     -0.000096     -0.000332
      7.52270      2.13603      6.37214        -0.000012     -0.000009      0.000250
     -0.19568      5.99352      6.37532         0.000060     -0.000043      0.000037
      3.66318      5.99421      6.37214         0.000025     -0.000059     -0.000292
      7.52204      5.99490      6.36896         0.000072     -0.000047      0.000272
      1.73466      0.20548      6.37832         0.000592     -0.000027      0.000155
      5.59352      0.20617      6.37514        -0.000388     -0.000016     -0.000025
      9.45239      0.20686      6.37196         0.000650     -0.000032     -0.000150
      1.73400      4.06435      6.37514         0.000194     -0.000074     -0.000005
      5.59286      4.06504      6.37196        -0.000316     -0.000040     -0.000022
      9.45172      4.06573      6.36877         0.000244      0.000020      0.000024
      1.73334      7.92322      6.37196         0.000178      0.000009      0.000006
      5.59220      7.92391      6.36877        -0.000303     -0.000015     -0.000001
      9.45106      7.92460      6.36559         0.000252     -0.000056      0.000048
     -0.18918     -1.71903     12.76150        -0.000926      0.000021      0.000807
      3.66968     -1.71834     12.75832        -0.000943     -0.000089     -0.000809
      7.52855     -1.71765     12.75514         0.003035     -0.000056      0.000022
     -0.18984      2.13984     12.75832        -0.000118     -0.000010      0.000110
      3.66902      2.14052     12.75514        -0.000140     -0.000014     -0.000114
      7.52788      2.14121     12.75195         0.000436     -0.000025      0.000002
     -0.19050      5.99870     12.75514        -0.000937     -0.000090      0.000809
      3.66836      5.99939     12.75195        -0.000941      0.000025     -0.000803
      7.52722      6.00008     12.74877         0.003045     -0.000005      0.000021
      3.65889      0.20059     -0.00318         0.001533     -0.000053     -0.001730
      7.51775      0.20128     -0.00636         0.001544     -0.000048      0.001693
     11.37662      0.20197     -0.00954        -0.007267     -0.000013      0.000116
      3.65823      4.05946     -0.00636         0.001217      0.000792     -0.001856
      7.51709      4.06015     -0.00954         0.001211     -0.000872      0.001844
     11.37595      4.06083     -0.01272        -0.001662     -0.000060      0.000084
      3.65757      7.91832     -0.00954         0.001228     -0.000857     -0.001782
      7.51643      7.91901     -0.01272         0.001193      0.000813      0.001816
     11.37529      7.91970     -0.01590        -0.001654     -0.000049      0.000019
      1.73505     -1.72393      6.38000        -0.000384      0.000204      0.000834
      5.59392     -1.72324      6.37682         0.000565     -0.000046      0.000072
      9.45278     -1.72255      6.37364        -0.000501     -0.000249     -0.000744
      1.73439      2.13494      6.37682        -0.000409     -0.000272      0.000681
      5.59325      2.13563      6.37364         0.000540     -0.000035     -0.000143
      9.45211      2.13632      6.37046        -0.000481      0.000176     -0.000861
      1.73373      5.99381      6.37364        -0.000248     -0.000052      0.000596
      5.59259      5.99450      6.37046         0.000719     -0.000023      0.000006
      9.45145      5.99519      6.36727        -0.000361     -0.000041     -0.000441
      1.73069      2.13130      1.90875        -0.000758      0.001493      0.001437
      5.58955      2.13198      1.90557         0.002009     -0.000056      0.000163
      9.44841      2.13267      1.90239        -0.000955     -0.001360     -0.001130
      1.73003      5.99016      1.90557        -0.000809     -0.000023      0.000102
      5.58889      5.99085      1.90239         0.001533     -0.000017      0.000109
      9.44775      5.99154      1.89920        -0.000823     -0.000058      0.000056
      1.72937      9.84903      1.90239        -0.000729     -0.001546      0.001414
      5.58823      9.84972      1.89920         0.001980     -0.000004      0.000107
      9.44709      9.85041      1.89602        -0.000954      0.001344     -0.001181
     -0.19315      0.20678      8.29193         0.000018     -0.000054      0.000080
      3.66571      0.20747      8.28875        -0.000004     -0.000123      0.000302
      7.52457      0.20816      8.28557        -0.000166     -0.000074     -0.000095
     -0.19381      4.06565      8.28875         0.000035     -0.000016      0.000078
      3.66505      4.06634      8.28557        -0.000015      0.000042      0.000265
      7.52391      4.06702      8.28238        -0.000165     -0.000021     -0.000072
     -0.19447      7.92451      8.28557         0.000071     -0.000006      0.000094
      3.66439      7.92520      8.28238         0.000005      0.000002      0.000360
      7.52325      7.92589      8.27920        -0.000234      0.000017     -0.000047
     -0.19633      0.20360      4.46807        -0.003628      0.000087     -0.000196
      3.66253      0.20429      4.46489         0.001185      0.000078      0.000842
      7.52140      0.20498      4.46171         0.001185      0.000098     -0.001118
     -0.19699      4.06247      4.46489        -0.001537     -0.000023     -0.000128
      3.66187      4.06316      4.46171         0.001066      0.000588      0.000922
      7.52073      4.06384      4.45853         0.001031     -0.000601     -0.001136
     -0.19765      7.92133      4.46171        -0.001520      0.000098     -0.000096
      3.66121      7.92202      4.45853         0.001049     -0.000508      0.000900
      7.52007      7.92271      4.45535         0.001021      0.000667     -0.001095
     -2.12017     -1.72091     10.85125        -0.000245     -0.000034     -0.000814
      1.73869     -1.72023     10.84807         0.000464      0.000018     -0.000207
      5.59756     -1.71954     10.84489        -0.000293      0.000091      0.000549
     -2.12083      2.13795     10.84807        -0.000154      0.000049     -0.000318
      1.73803      2.13864     10.84489         0.000517      0.000052     -0.000129
      5.59689      2.13933     10.84171        -0.000176      0.000044      0.000163
     -2.12149      5.99682     10.84489        -0.000244      0.000139     -0.000765
      1.73737      5.99751     10.84171         0.000470      0.000106     -0.000181
      5.59623      5.99820     10.83853        -0.000288      0.000027      0.000598
     -0.20826      0.20164      2.04034         0.027771      0.000002      0.000007
      3.66060      0.20234      2.03715        -0.004791     -0.000000     -0.000151
      7.51947      0.20302      2.03397        -0.004859      0.000014      0.000152
     -0.19892      4.06051      2.03715         0.003339     -0.000034     -0.000049
      3.65994      4.06120      2.03397        -0.003447     -0.002267     -0.000209
      7.51880      4.06189      2.03079        -0.003444      0.002197      0.000161
     -0.19958      7.91938      2.03397         0.003361      0.000033     -0.000102
      3.65928      7.92007      2.03079        -0.003455      0.002250     -0.000277
      7.51814      7.92076      2.02760        -0.003474     -0.002216      0.000101
     -2.12210     -1.72287      8.42351         0.000034     -0.000021      0.000416
      1.73676     -1.72218      8.42033        -0.000148     -0.000023     -0.000225
      5.59563     -1.72149      8.41715        -0.000167     -0.000007     -0.000357
     -2.12276      2.13600      8.42033         0.000025     -0.000021      0.000286
      1.73610      2.13669      8.41715        -0.000151      0.000012     -0.000265
      5.59496      2.13738      8.41396        -0.000132     -0.000021     -0.000232
     -2.12342      5.99486      8.41715         0.000054      0.000011      0.000356
      1.73544      5.99555      8.41396        -0.000159      0.000053     -0.000244
      5.59430      5.99624      8.41078        -0.000151      0.000030     -0.000343
      1.73264      2.13323      4.33649        -0.000101     -0.001029     -0.004942
      5.59151      2.13392      4.33331        -0.001109      0.000064      0.000074
      9.45037      2.13460      4.33013        -0.000102      0.001179      0.005102
      1.73198      5.99209      4.33331         0.000517      0.000085     -0.000509
      5.59084      5.99278      4.33013        -0.001136      0.000061      0.000043
      9.44970      5.99347      4.32695         0.000518      0.000079      0.000695
      1.73132      9.85096      4.33013        -0.000120      0.001175     -0.004978
      5.59018      9.85165      4.32695        -0.001125      0.000114      0.000034
      9.44904      9.85234      4.32377        -0.000082     -0.000949      0.005145
     -0.19120      0.20871     10.71967        -0.000124      0.000013      0.000746
      3.66767      0.20940     10.71649        -0.000243      0.000094     -0.000791
      7.52653      0.21009     10.71331         0.000359      0.000072      0.000123
     -0.19186      4.06758     10.71649        -0.000128      0.000159      0.000784
      3.66700      4.06827     10.71331        -0.000232      0.000048     -0.000711
      7.52586      4.06896     10.71013         0.000377      0.000093      0.000174
     -0.19252      7.92644     10.71331        -0.000174      0.000098      0.000819
      3.66634      7.92713     10.71013        -0.000285      0.000110     -0.000905
      7.52520      7.92782     10.70695         0.000053      0.000085      0.000148
 -----------------------------------------------------------------------------------
    total drift:                                0.007717     -0.007604      0.000059


--------------------------------------------------------------------------------------------------------



  FREE ENERGIE OF THE ION-ELECTRON SYSTEM (eV)
  ---------------------------------------------------
  free  energy   TOTEN  =      -657.90164460 eV

  energy  without entropy=     -657.90164460  energy(sigma->0) =     -657.90164460
 


--------------------------------------------------------------------------------------------------------


    POTLOK:  cpu time    2.2496: real time    2.2904


--------------------------------------------------------------------------------------------------------


     LOOP+:  cpu time 6412.0748: real time 6485.6935
    4ORBIT:  cpu time    0.0000: real time    0.0000

 total amount of memory used by VASP MPI-rank0  2010615. kBytes
=======================================================================

   base      :      30000. kBytes
   nonl-proj :      83483. kBytes
   fftplans  :      59337. kBytes
   grid      :      50429. kBytes
   one-center:        653. kBytes
   wavefun   :    1786713. kBytes
 
  
  
 General timing and accounting informations for this job:
 ========================================================
  
                  Total CPU time used (sec):     6521.199
                            User time (sec):     6437.905
                          System time (sec):       83.294
                         Elapsed time (sec):     6596.849
  
                   Maximum memory used (kb):     2457120.
                   Average memory used (kb):           0.
  
                          Minor page faults:      1096953
                          Major page faults:           14
                 Voluntary context switches:        53338
