 108 108   0   0
  0.1367340E+02  0.1151037E-08  0.1132740E-08  0.1132740E-08  0.5000000E-15
  1.000000000000000E-004
  CAR 
 unknown system                          
     17.82549440    -54.67275523  301      5.28933874      1.00000000
    -54.673  0.0000E+00  0.0000E+00  0.0000E+00  0.0000E+00
    -54.431  0.0000E+00  0.0000E+00  0.0000E+00  0.0000E+00
    -54.189  0.0000E+00  0.0000E+00  0.0000E+00  0.0000E+00
    -53.948  0.0000E+00  0.0000E+00  0.0000E+00  0.0000E+00
    -53.706  0.0000E+00  0.0000E+00  0.0000E+00  0.0000E+00
    -53.464  0.0000E+00  0.0000E+00  0.0000E+00  0.0000E+00
    -53.223  0.0000E+00  0.0000E+00  0.0000E+00  0.0000E+00
    -52.981  0.0000E+00  0.0000E+00  0.0000E+00  0.0000E+00
    -52.739  0.0000E+00  0.0000E+00  0.0000E+00  0.0000E+00
    -52.498  0.0000E+00  0.0000E+00  0.0000E+00  0.0000E+00
    -52.256  0.0000E+00  0.0000E+00  0.0000E+00  0.0000E+00
    -52.014  0.0000E+00  0.0000E+00  0.0000E+00  0.0000E+00
    -51.773  0.0000E+00  0.0000E+00  0.0000E+00  0.0000E+00
    -51.531  0.7653E-04  0.0000E+00  0.1849E-04  0.0000E+00
    -51.290  0.9661E+02  0.0000E+00  0.2335E+02  0.0000E+00
    -51.048  0.3937E+02  0.0000E+00  0.3286E+02  0.0000E+00
    -50.806  0.1299E+02  0.0000E+00  0.3600E+02  0.0000E+00
    -50.565  0.0000E+00  0.0000E+00  0.3600E+02  0.0000E+00
    -50.323  0.3573E-04  0.0000E+00  0.3600E+02  0.0000E+00
    -50.081  0.9554E+02  0.0000E+00  0.5909E+02  0.0000E+00
    -49.840  0.3860E+02  0.0000E+00  0.6842E+02  0.0000E+00
    -49.598  0.1305E+03  0.0000E+00  0.9994E+02  0.0000E+00
    -49.356  0.3333E+02  0.0000E+00  0.1080E+03  0.0000E+00
    -49.115  0.0000E+00  0.0000E+00  0.1080E+03  0.0000E+00
    -48.873  0.0000E+00  0.0000E+00  0.1080E+03  0.0000E+00
    -48.631  0.0000E+00  0.0000E+00  0.1080E+03  0.0000E+00
    -48.390  0.0000E+00  0.0000E+00  0.1080E+03  0.0000E+00
    -48.148  0.0000E+00  0.0000E+00  0.1080E+03  0.0000E+00
    -47.906  0.0000E+00  0.0000E+00  0.1080E+03  0.0000E+00
    -47.665  0.0000E+00  0.0000E+00  0.1080E+03  0.0000E+00
    -47.423  0.0000E+00  0.0000E+00  0.1080E+03  0.0000E+00
    -47.181  0.0000E+00  0.0000E+00  0.1080E+03  0.0000E+00
    -46.940  0.0000E+00  0.0000E+00  0.1080E+03  0.0000E+00
    -46.698  0.0000E+00  0.5369E+00  0.1080E+03  0.1297E+00
    -46.456  0.0000E+00  0.9878E+02  0.1080E+03  0.2400E+02
    -46.215  0.0000E+00  0.1649E+03  0.1080E+03  0.6386E+02
    -45.973  0.0000E+00  0.8931E+02  0.1080E+03  0.8544E+02
    -45.731  0.0000E+00  0.9334E+02  0.1080E+03  0.1080E+03
    -45.490  0.0000E+00  0.1921E-02  0.1080E+03  0.1080E+03
    -45.248  0.0000E+00  0.0000E+00  0.1080E+03  0.1080E+03
    -45.006  0.0000E+00  0.0000E+00  0.1080E+03  0.1080E+03
    -44.765  0.0000E+00  0.0000E+00  0.1080E+03  0.1080E+03
    -44.523  0.0000E+00  0.0000E+00  0.1080E+03  0.1080E+03
    -44.281  0.0000E+00  0.0000E+00  0.1080E+03  0.1080E+03
    -44.040  0.0000E+00  0.0000E+00  0.1080E+03  0.1080E+03
    -43.798  0.0000E+00  0.0000E+00  0.1080E+03  0.1080E+03
    -43.556  0.0000E+00  0.0000E+00  0.1080E+03  0.1080E+03
    -43.315  0.0000E+00  0.0000E+00  0.1080E+03  0.1080E+03
    -43.073  0.0000E+00  0.0000E+00  0.1080E+03  0.1080E+03
    -42.831  0.0000E+00  0.0000E+00  0.1080E+03  0.1080E+03
    -42.590  0.0000E+00  0.0000E+00  0.1080E+03  0.1080E+03
    -42.348  0.0000E+00  0.0000E+00  0.1080E+03  0.1080E+03
    -42.106  0.0000E+00  0.0000E+00  0.1080E+03  0.1080E+03
    -41.865  0.0000E+00  0.0000E+00  0.1080E+03  0.1080E+03
    -41.623  0.0000E+00  0.0000E+00  0.1080E+03  0.1080E+03
    -41.381  0.0000E+00  0.0000E+00  0.1080E+03  0.1080E+03
    -41.140  0.0000E+00  0.0000E+00  0.1080E+03  0.1080E+03
    -40.898  0.0000E+00  0.0000E+00  0.1080E+03  0.1080E+03
    -40.656  0.0000E+00  0.0000E+00  0.1080E+03  0.1080E+03
    -40.415  0.2297E-13  0.4603E-13  0.1080E+03  0.1080E+03
    -40.173  0.9790E+01  0.1134E+02  0.1104E+03  0.1107E+03
    -39.931  0.8952E+02  0.8798E+02  0.1320E+03  0.1320E+03
    -39.690  0.0000E+00  0.0000E+00  0.1320E+03  0.1320E+03
    -39.448  0.0000E+00  0.0000E+00  0.1320E+03  0.1320E+03
    -39.206  0.0000E+00  0.0000E+00  0.1320E+03  0.1320E+03
    -38.965  0.0000E+00  0.0000E+00  0.1320E+03  0.1320E+03
    -38.723  0.0000E+00  0.0000E+00  0.1320E+03  0.1320E+03
    -38.481  0.0000E+00  0.0000E+00  0.1320E+03  0.1320E+03
    -38.240  0.0000E+00  0.0000E+00  0.1320E+03  0.1320E+03
    -37.998  0.0000E+00  0.0000E+00  0.1320E+03  0.1320E+03
    -37.756  0.0000E+00  0.0000E+00  0.1320E+03  0.1320E+03
    -37.515  0.0000E+00  0.0000E+00  0.1320E+03  0.1320E+03
    -37.273  0.0000E+00  0.0000E+00  0.1320E+03  0.1320E+03
    -37.032  0.0000E+00  0.0000E+00  0.1320E+03  0.1320E+03
    -36.790  0.0000E+00  0.0000E+00  0.1320E+03  0.1320E+03
    -36.548  0.0000E+00  0.0000E+00  0.1320E+03  0.1320E+03
    -36.307  0.0000E+00  0.0000E+00  0.1320E+03  0.1320E+03
    -36.065  0.0000E+00  0.0000E+00  0.1320E+03  0.1320E+03
    -35.823  0.0000E+00  0.0000E+00  0.1320E+03  0.1320E+03
    -35.582  0.0000E+00  0.0000E+00  0.1320E+03  0.1320E+03
    -35.340  0.0000E+00  0.0000E+00  0.1320E+03  0.1320E+03
    -35.098  0.0000E+00  0.0000E+00  0.1320E+03  0.1320E+03
    -34.857  0.0000E+00  0.0000E+00  0.1320E+03  0.1320E+03
    -34.615  0.0000E+00  0.0000E+00  0.1320E+03  0.1320E+03
    -34.373  0.0000E+00  0.0000E+00  0.1320E+03  0.1320E+03
    -34.132  0.0000E+00  0.0000E+00  0.1320E+03  0.1320E+03
    -33.890  0.0000E+00  0.0000E+00  0.1320E+03  0.1320E+03
    -33.648  0.0000E+00  0.0000E+00  0.1320E+03  0.1320E+03
    -33.407  0.0000E+00  0.0000E+00  0.1320E+03  0.1320E+03
    -33.165  0.0000E+00  0.0000E+00  0.1320E+03  0.1320E+03
    -32.923  0.0000E+00  0.0000E+00  0.1320E+03  0.1320E+03
    -32.682  0.0000E+00  0.0000E+00  0.1320E+03  0.1320E+03
    -32.440  0.0000E+00  0.0000E+00  0.1320E+03  0.1320E+03
    -32.198  0.0000E+00  0.0000E+00  0.1320E+03  0.1320E+03
    -31.957  0.0000E+00  0.0000E+00  0.1320E+03  0.1320E+03
    -31.715  0.0000E+00  0.0000E+00  0.1320E+03  0.1320E+03
    -31.473  0.0000E+00  0.0000E+00  0.1320E+03  0.1320E+03
    -31.232  0.0000E+00  0.0000E+00  0.1320E+03  0.1320E+03
    -30.990  0.0000E+00  0.0000E+00  0.1320E+03  0.1320E+03
    -30.748  0.0000E+00  0.0000E+00  0.1320E+03  0.1320E+03
    -30.507  0.0000E+00  0.0000E+00  0.1320E+03  0.1320E+03
    -30.265  0.0000E+00  0.0000E+00  0.1320E+03  0.1320E+03
    -30.023  0.0000E+00  0.0000E+00  0.1320E+03  0.1320E+03
    -29.782  0.0000E+00  0.0000E+00  0.1320E+03  0.1320E+03
    -29.540  0.0000E+00  0.0000E+00  0.1320E+03  0.1320E+03
    -29.298  0.0000E+00  0.0000E+00  0.1320E+03  0.1320E+03
    -29.057  0.0000E+00  0.0000E+00  0.1320E+03  0.1320E+03
    -28.815  0.0000E+00  0.0000E+00  0.1320E+03  0.1320E+03
    -28.573  0.0000E+00  0.0000E+00  0.1320E+03  0.1320E+03
    -28.332  0.0000E+00  0.0000E+00  0.1320E+03  0.1320E+03
    -28.090  0.0000E+00  0.0000E+00  0.1320E+03  0.1320E+03
    -27.848  0.0000E+00  0.0000E+00  0.1320E+03  0.1320E+03
    -27.607  0.0000E+00  0.0000E+00  0.1320E+03  0.1320E+03
    -27.365  0.0000E+00  0.0000E+00  0.1320E+03  0.1320E+03
    -27.123  0.0000E+00  0.0000E+00  0.1320E+03  0.1320E+03
    -26.882  0.0000E+00  0.0000E+00  0.1320E+03  0.1320E+03
    -26.640  0.0000E+00  0.0000E+00  0.1320E+03  0.1320E+03
    -26.398  0.0000E+00  0.0000E+00  0.1320E+03  0.1320E+03
    -26.157  0.0000E+00  0.0000E+00  0.1320E+03  0.1320E+03
    -25.915  0.0000E+00  0.0000E+00  0.1320E+03  0.1320E+03
    -25.673  0.0000E+00  0.0000E+00  0.1320E+03  0.1320E+03
    -25.432  0.0000E+00  0.0000E+00  0.1320E+03  0.1320E+03
    -25.190  0.0000E+00  0.0000E+00  0.1320E+03  0.1320E+03
    -24.948  0.0000E+00  0.0000E+00  0.1320E+03  0.1320E+03
    -24.707  0.0000E+00  0.0000E+00  0.1320E+03  0.1320E+03
    -24.465  0.0000E+00  0.0000E+00  0.1320E+03  0.1320E+03
    -24.223  0.0000E+00  0.0000E+00  0.1320E+03  0.1320E+03
    -23.982  0.0000E+00  0.0000E+00  0.1320E+03  0.1320E+03
    -23.740  0.0000E+00  0.0000E+00  0.1320E+03  0.1320E+03
    -23.499  0.0000E+00  0.0000E+00  0.1320E+03  0.1320E+03
    -23.257  0.0000E+00  0.0000E+00  0.1320E+03  0.1320E+03
    -23.015  0.0000E+00  0.0000E+00  0.1320E+03  0.1320E+03
    -22.774  0.0000E+00  0.0000E+00  0.1320E+03  0.1320E+03
    -22.532  0.0000E+00  0.0000E+00  0.1320E+03  0.1320E+03
    -22.290  0.0000E+00  0.0000E+00  0.1320E+03  0.1320E+03
    -22.049  0.0000E+00  0.0000E+00  0.1320E+03  0.1320E+03
    -21.807  0.0000E+00  0.0000E+00  0.1320E+03  0.1320E+03
    -21.565  0.0000E+00  0.0000E+00  0.1320E+03  0.1320E+03
    -21.324  0.0000E+00  0.0000E+00  0.1320E+03  0.1320E+03
    -21.082  0.0000E+00  0.0000E+00  0.1320E+03  0.1320E+03
    -20.840  0.0000E+00  0.0000E+00  0.1320E+03  0.1320E+03
    -20.599  0.0000E+00  0.0000E+00  0.1320E+03  0.1320E+03
    -20.357  0.0000E+00  0.0000E+00  0.1320E+03  0.1320E+03
    -20.115  0.0000E+00  0.0000E+00  0.1320E+03  0.1320E+03
    -19.874  0.0000E+00  0.0000E+00  0.1320E+03  0.1320E+03
    -19.632  0.0000E+00  0.0000E+00  0.1320E+03  0.1320E+03
    -19.390  0.0000E+00  0.0000E+00  0.1320E+03  0.1320E+03
    -19.149  0.0000E+00  0.0000E+00  0.1320E+03  0.1320E+03
    -18.907  0.0000E+00  0.0000E+00  0.1320E+03  0.1320E+03
    -18.665  0.0000E+00  0.0000E+00  0.1320E+03  0.1320E+03
    -18.424  0.0000E+00  0.0000E+00  0.1320E+03  0.1320E+03
    -18.182  0.0000E+00  0.0000E+00  0.1320E+03  0.1320E+03
    -17.940  0.0000E+00  0.0000E+00  0.1320E+03  0.1320E+03
    -17.699  0.0000E+00  0.0000E+00  0.1320E+03  0.1320E+03
    -17.457  0.0000E+00  0.0000E+00  0.1320E+03  0.1320E+03
    -17.215  0.0000E+00  0.0000E+00  0.1320E+03  0.1320E+03
    -16.974  0.0000E+00  0.0000E+00  0.1320E+03  0.1320E+03
    -16.732  0.0000E+00  0.0000E+00  0.1320E+03  0.1320E+03
    -16.490  0.0000E+00  0.0000E+00  0.1320E+03  0.1320E+03
    -16.249  0.0000E+00  0.0000E+00  0.1320E+03  0.1320E+03
    -16.007  0.0000E+00  0.0000E+00  0.1320E+03  0.1320E+03
    -15.765  0.0000E+00  0.0000E+00  0.1320E+03  0.1320E+03
    -15.524  0.0000E+00  0.0000E+00  0.1320E+03  0.1320E+03
    -15.282  0.0000E+00  0.0000E+00  0.1320E+03  0.1320E+03
    -15.040  0.0000E+00  0.0000E+00  0.1320E+03  0.1320E+03
    -14.799  0.0000E+00  0.0000E+00  0.1320E+03  0.1320E+03
    -14.557  0.0000E+00  0.0000E+00  0.1320E+03  0.1320E+03
    -14.315  0.0000E+00  0.0000E+00  0.1320E+03  0.1320E+03
    -14.074  0.0000E+00  0.0000E+00  0.1320E+03  0.1320E+03
    -13.832  0.4201E-12  0.0000E+00  0.1320E+03  0.1320E+03
    -13.590  0.1797E+01  0.0000E+00  0.1324E+03  0.1320E+03
    -13.349  0.5635E+02  0.6999E-06  0.1461E+03  0.1320E+03
    -13.107  0.4096E+02  0.1746E+02  0.1559E+03  0.1362E+03
    -12.865  0.2071E+00  0.7693E+02  0.1560E+03  0.1548E+03
    -12.624  0.0000E+00  0.4923E+01  0.1560E+03  0.1560E+03
    -12.382  0.0000E+00  0.0000E+00  0.1560E+03  0.1560E+03
    -12.140  0.0000E+00  0.0000E+00  0.1560E+03  0.1560E+03
    -11.899  0.0000E+00  0.0000E+00  0.1560E+03  0.1560E+03
    -11.657  0.0000E+00  0.0000E+00  0.1560E+03  0.1560E+03
    -11.415  0.0000E+00  0.0000E+00  0.1560E+03  0.1560E+03
    -11.174  0.0000E+00  0.0000E+00  0.1560E+03  0.1560E+03
    -10.932  0.0000E+00  0.0000E+00  0.1560E+03  0.1560E+03
    -10.690  0.0000E+00  0.0000E+00  0.1560E+03  0.1560E+03
    -10.449  0.0000E+00  0.0000E+00  0.1560E+03  0.1560E+03
    -10.207  0.0000E+00  0.0000E+00  0.1560E+03  0.1560E+03
     -9.966  0.0000E+00  0.0000E+00  0.1560E+03  0.1560E+03
     -9.724  0.0000E+00  0.0000E+00  0.1560E+03  0.1560E+03
     -9.482  0.0000E+00  0.0000E+00  0.1560E+03  0.1560E+03
     -9.241  0.0000E+00  0.0000E+00  0.1560E+03  0.1560E+03
     -8.999  0.0000E+00  0.0000E+00  0.1560E+03  0.1560E+03
     -8.757  0.0000E+00  0.0000E+00  0.1560E+03  0.1560E+03
     -8.516  0.0000E+00  0.0000E+00  0.1560E+03  0.1560E+03
     -8.274  0.0000E+00  0.0000E+00  0.1560E+03  0.1560E+03
     -8.032  0.0000E+00  0.0000E+00  0.1560E+03  0.1560E+03
     -7.791  0.1177E-13  0.0000E+00  0.1560E+03  0.1560E+03
     -7.549  0.1759E+00  0.1702E-16  0.1560E+03  0.1560E+03
     -7.307  0.2174E+02  0.4935E-01  0.1613E+03  0.1560E+03
     -7.066  0.4682E+02  0.2379E+02  0.1726E+03  0.1618E+03
     -6.824  0.3027E+02  0.4639E+02  0.1799E+03  0.1730E+03
     -6.582  0.3087E+00  0.2742E+02  0.1800E+03  0.1796E+03
     -6.341  0.0000E+00  0.1665E+01  0.1800E+03  0.1800E+03
     -6.099  0.0000E+00  0.0000E+00  0.1800E+03  0.1800E+03
     -5.857  0.0000E+00  0.0000E+00  0.1800E+03  0.1800E+03
     -5.616  0.0000E+00  0.0000E+00  0.1800E+03  0.1800E+03
     -5.374  0.0000E+00  0.0000E+00  0.1800E+03  0.1800E+03
     -5.132  0.0000E+00  0.0000E+00  0.1800E+03  0.1800E+03
     -4.891  0.0000E+00  0.0000E+00  0.1800E+03  0.1800E+03
     -4.649  0.0000E+00  0.0000E+00  0.1800E+03  0.1800E+03
     -4.407  0.0000E+00  0.0000E+00  0.1800E+03  0.1800E+03
     -4.166  0.0000E+00  0.0000E+00  0.1800E+03  0.1800E+03
     -3.924  0.0000E+00  0.0000E+00  0.1800E+03  0.1800E+03
     -3.682  0.0000E+00  0.0000E+00  0.1800E+03  0.1800E+03
     -3.441  0.0000E+00  0.0000E+00  0.1800E+03  0.1800E+03
     -3.199  0.0000E+00  0.0000E+00  0.1800E+03  0.1800E+03
     -2.957  0.0000E+00  0.0000E+00  0.1800E+03  0.1800E+03
     -2.716  0.0000E+00  0.0000E+00  0.1800E+03  0.1800E+03
     -2.474  0.0000E+00  0.0000E+00  0.1800E+03  0.1800E+03
     -2.232  0.1069E-01  0.0000E+00  0.1800E+03  0.1800E+03
     -1.991  0.2639E+02  0.0000E+00  0.1864E+03  0.1800E+03
     -1.749  0.5055E+02  0.0000E+00  0.1986E+03  0.1800E+03
     -1.507  0.1609E+02  0.0000E+00  0.2025E+03  0.1800E+03
     -1.266  0.1874E+02  0.0000E+00  0.2070E+03  0.1800E+03
     -1.024  0.5826E+02  0.1133E-03  0.2211E+03  0.1800E+03
     -0.782  0.7392E+02  0.1840E+01  0.2390E+03  0.1804E+03
     -0.541  0.6448E+02  0.9870E+01  0.2545E+03  0.1828E+03
     -0.299  0.6353E+02  0.2024E+02  0.2699E+03  0.1877E+03
     -0.057  0.6193E+02  0.3411E+02  0.2849E+03  0.1960E+03
      0.184  0.5481E+02  0.2517E+02  0.2981E+03  0.2020E+03
      0.426  0.1064E+03  0.3696E+02  0.3238E+03  0.2110E+03
      0.668  0.5278E+02  0.3613E+02  0.3366E+03  0.2197E+03
      0.909  0.4697E+02  0.5698E+02  0.3479E+03  0.2335E+03
      1.151  0.5323E+02  0.5626E+02  0.3608E+03  0.2471E+03
      1.393  0.6405E+02  0.1987E+02  0.3763E+03  0.2519E+03
      1.634  0.5415E+02  0.2499E+02  0.3894E+03  0.2579E+03
      1.876  0.5833E+02  0.4740E+02  0.4035E+03  0.2694E+03
      2.118  0.4859E+02  0.3580E+02  0.4152E+03  0.2780E+03
      2.359  0.2772E+02  0.3008E+02  0.4219E+03  0.2853E+03
      2.601  0.3501E+02  0.3331E+02  0.4304E+03  0.2933E+03
      2.843  0.3398E+02  0.4474E+02  0.4386E+03  0.3042E+03
      3.084  0.3655E+02  0.3819E+02  0.4474E+03  0.3134E+03
      3.326  0.3371E+02  0.5927E+02  0.4555E+03  0.3277E+03
      3.568  0.2563E+02  0.2851E+02  0.4617E+03  0.3346E+03
      3.809  0.4113E+02  0.9251E+01  0.4717E+03  0.3368E+03
      4.051  0.4604E+02  0.1070E+02  0.4828E+03  0.3394E+03
      4.292  0.3580E+02  0.4090E+02  0.4915E+03  0.3493E+03
      4.534  0.3614E+02  0.2251E+02  0.5002E+03  0.3547E+03
      4.776  0.1576E+02  0.2013E+02  0.5040E+03  0.3596E+03
      5.017  0.1450E-01  0.1645E+01  0.5040E+03  0.3600E+03
      5.259  0.0000E+00  0.2377E-04  0.5040E+03  0.3600E+03
      5.501  0.0000E+00  0.0000E+00  0.5040E+03  0.3600E+03
      5.742  0.0000E+00  0.0000E+00  0.5040E+03  0.3600E+03
      5.984  0.0000E+00  0.1724E-07  0.5040E+03  0.3600E+03
      6.226  0.0000E+00  0.3115E+00  0.5040E+03  0.3601E+03
      6.467  0.0000E+00  0.3644E+01  0.5040E+03  0.3610E+03
      6.709  0.4245E-02  0.9686E+01  0.5040E+03  0.3633E+03
      6.951  0.1490E+00  0.3252E+02  0.5040E+03  0.3712E+03
      7.192  0.3119E+00  0.7758E+02  0.5041E+03  0.3899E+03
      7.434  0.7632E+00  0.6518E+02  0.5043E+03  0.4057E+03
      7.676  0.2520E+01  0.5164E+02  0.5049E+03  0.4181E+03
      7.917  0.2195E+01  0.8535E+02  0.5054E+03  0.4388E+03
      8.159  0.2117E+01  0.7848E+02  0.5059E+03  0.4577E+03
      8.401  0.5338E+01  0.5284E+02  0.5072E+03  0.4705E+03
      8.642  0.7884E+01  0.7281E+02  0.5091E+03  0.4881E+03
      8.884  0.1647E+02  0.4520E+02  0.5131E+03  0.4990E+03
      9.126  0.1350E+02  0.2224E+02  0.5164E+03  0.5044E+03
      9.367  0.1854E+02  0.4856E+01  0.5209E+03  0.5056E+03
      9.609  0.1987E+02  0.6605E+01  0.5257E+03  0.5072E+03
      9.851  0.1783E+02  0.1157E+02  0.5300E+03  0.5100E+03
     10.092  0.1799E+02  0.1440E+02  0.5343E+03  0.5134E+03
     10.334  0.1977E+02  0.1812E+02  0.5391E+03  0.5178E+03
     10.576  0.2426E+02  0.3197E+02  0.5450E+03  0.5255E+03
     10.817  0.2128E+02  0.2820E+02  0.5501E+03  0.5324E+03
     11.059  0.2850E+02  0.2194E+02  0.5570E+03  0.5377E+03
     11.301  0.2879E+02  0.2484E+02  0.5640E+03  0.5437E+03
     11.542  0.2220E+02  0.2208E+02  0.5693E+03  0.5490E+03
     11.784  0.2724E+02  0.2152E+02  0.5759E+03  0.5542E+03
     12.026  0.3937E+02  0.1859E+02  0.5854E+03  0.5587E+03
     12.267  0.3438E+02  0.3064E+02  0.5937E+03  0.5661E+03
     12.509  0.2812E+02  0.4272E+02  0.6005E+03  0.5764E+03
     12.751  0.2536E+02  0.3529E+02  0.6066E+03  0.5849E+03
     12.992  0.2861E+02  0.2853E+02  0.6136E+03  0.5918E+03
     13.234  0.2534E+02  0.2741E+02  0.6197E+03  0.5985E+03
     13.476  0.2166E+02  0.3661E+02  0.6249E+03  0.6073E+03
     13.717  0.1791E+02  0.2944E+02  0.6293E+03  0.6144E+03
     13.959  0.2914E+01  0.2309E+02  0.6300E+03  0.6200E+03
     14.201  0.1793E+00  0.2361E+02  0.6300E+03  0.6257E+03
     14.442  0.0000E+00  0.1638E+02  0.6300E+03  0.6297E+03
     14.684  0.0000E+00  0.1371E+01  0.6300E+03  0.6300E+03
     14.926  0.0000E+00  0.2090E-05  0.6300E+03  0.6300E+03
     15.167  0.0000E+00  0.0000E+00  0.6300E+03  0.6300E+03
     15.409  0.0000E+00  0.0000E+00  0.6300E+03  0.6300E+03
     15.651  0.0000E+00  0.0000E+00  0.6300E+03  0.6300E+03
     15.892  0.0000E+00  0.0000E+00  0.6300E+03  0.6300E+03
     16.134  0.0000E+00  0.0000E+00  0.6300E+03  0.6300E+03
     16.376  0.0000E+00  0.0000E+00  0.6300E+03  0.6300E+03
     16.617  0.0000E+00  0.0000E+00  0.6300E+03  0.6300E+03
     16.859  0.0000E+00  0.0000E+00  0.6300E+03  0.6300E+03
     17.101  0.0000E+00  0.0000E+00  0.6300E+03  0.6300E+03
     17.342  0.0000E+00  0.0000E+00  0.6300E+03  0.6300E+03
     17.584  0.0000E+00  0.0000E+00  0.6300E+03  0.6300E+03
     17.825  0.0000E+00  0.0000E+00  0.6300E+03  0.6300E+03
