 vasp.5.4.4.18Apr17-6-g9f103f2a35 (build Oct 25 2017 14:42:18) complex          
  
 executed on             LinuxIFC date 2021.06.02  14:02:26
 running on   24 total cores
 distrk:  each k-point on   12 cores,    2 groups
 distr:  one band on NCORES_PER_BAND=   6 cores,    2 groups


--------------------------------------------------------------------------------------------------------


 INCAR:
 POTCAR:    PAW_PBE Li_sv 10Sep2004               
 POTCAR:    PAW_PBE O 08Apr2002                   
 POTCAR:    PAW_PBE S 06Sep2000                   
 POTCAR:    PAW_PBE Fe_pv 02Aug2007               

 ----------------------------------------------------------------------------- 
|                                                                             |
|           W    W    AA    RRRRR   N    N  II  N    N   GGGG   !!!           |
|           W    W   A  A   R    R  NN   N  II  NN   N  G    G  !!!           |
|           W    W  A    A  R    R  N N  N  II  N N  N  G       !!!           |
|           W WW W  AAAAAA  RRRRR   N  N N  II  N  N N  G  GGG   !            |
|           WW  WW  A    A  R   R   N   NN  II  N   NN  G    G                |
|           W    W  A    A  R    R  N    N  II  N    N   GGGG   !!!           |
|                                                                             |
|      You have enabled k-point parallelism (KPAR>1).                         |
|      This developmental code was originally  written by Paul Kent at ORNL,  |
|      and carefully double checked in Vienna.                                |
|      GW as well as linear response parallelism added by Martijn Marsman     |
|      and Georg Kresse.                                                      |
|      Carefully verify results versus KPAR=1.                                |
|      Report problems to Paul Kent and Vienna.                               |
|                                                                             |
 ----------------------------------------------------------------------------- 

 POTCAR:    PAW_PBE Li_sv 10Sep2004               
  local pseudopotential read in
  atomic valenz-charges read in
  non local Contribution for L=           0  read in
    real space projection operators read in
  non local Contribution for L=           0  read in
    real space projection operators read in
  non local Contribution for L=           1  read in
    real space projection operators read in
    PAW grid and wavefunctions read in
 
   number of l-projection  operators is LMAX  =           3
   number of lm-projection operators is LMMAX =           5
 
 POTCAR:    PAW_PBE O 08Apr2002                   
  local pseudopotential read in
  partial core-charges read in
  partial kinetic energy density read in
  kinetic energy density of atom read in
  atomic valenz-charges read in
  non local Contribution for L=           0  read in
    real space projection operators read in
  non local Contribution for L=           0  read in
    real space projection operators read in
  non local Contribution for L=           1  read in
    real space projection operators read in
  non local Contribution for L=           1  read in
    real space projection operators read in
    PAW grid and wavefunctions read in
 
   number of l-projection  operators is LMAX  =           4
   number of lm-projection operators is LMMAX =           8
 
 POTCAR:    PAW_PBE S 06Sep2000                   
  local pseudopotential read in
  partial core-charges read in
  partial kinetic energy density read in
  atomic valenz-charges read in
  non local Contribution for L=           0  read in
    real space projection operators read in
  non local Contribution for L=           0  read in
    real space projection operators read in
  non local Contribution for L=           1  read in
    real space projection operators read in
  non local Contribution for L=           1  read in
    real space projection operators read in
    PAW grid and wavefunctions read in
 
   number of l-projection  operators is LMAX  =           4
   number of lm-projection operators is LMMAX =           8
 
 POTCAR:    PAW_PBE Fe_pv 02Aug2007               
  local pseudopotential read in
  partial core-charges read in
  partial kinetic energy density read in
  atomic valenz-charges read in
  non local Contribution for L=           1  read in
    real space projection operators read in
  non local Contribution for L=           1  read in
    real space projection operators read in
  non local Contribution for L=           2  read in
    real space projection operators read in
  non local Contribution for L=           2  read in
    real space projection operators read in
  non local Contribution for L=           0  read in
    real space projection operators read in
  non local Contribution for L=           0  read in
    real space projection operators read in
    PAW grid and wavefunctions read in
 
   number of l-projection  operators is LMAX  =           6
   number of lm-projection operators is LMMAX =          18
 

 ----------------------------------------------------------------------------- 
|                                                                             |
|  ADVICE TO THIS USER RUNNING 'VASP/VAMP'   (HEAR YOUR MASTER'S VOICE ...):  |
|                                                                             |
|      You have a (more or less) 'large supercell' and for larger cells       |
|      it might be more efficient to use real space projection opertators     |
|      So try LREAL= Auto  in the INCAR   file.                               |
|      Mind:          For very  accurate calculation you might also keep the  |
|      reciprocal projection scheme          (i.e. LREAL=.FALSE.)             |
|                                                                             |
 ----------------------------------------------------------------------------- 

  PAW_PBE Li_sv 10Sep2004               :
 energy of atom  1       EATOM= -202.7858
 kinetic energy error for atom=    0.0072 (will be added to EATOM!!)
  PAW_PBE O 08Apr2002                   :
 energy of atom  2       EATOM= -432.3788
 kinetic energy error for atom=    0.0129 (will be added to EATOM!!)
  PAW_PBE S 06Sep2000                   :
 energy of atom  3       EATOM= -276.8230
 kinetic energy error for atom=    0.0008 (will be added to EATOM!!)
  PAW_PBE Fe_pv 02Aug2007               :
 energy of atom  4       EATOM=-2457.4239
 kinetic energy error for atom=    0.0041 (will be added to EATOM!!)
 
 
 POSCAR: # Compound: Li16O16S24Fe32. Old comment:
  positions in direct lattice
  No initial velocities read in
 exchange correlation table for  LEXCH =        8
   RHO(1)=    0.500       N(1)  =     2000
   RHO(2)=  100.500       N(2)  =     4000
 


--------------------------------------------------------------------------------------------------------


 ion  position               nearest neighbor table
   1  0.289  0.469  0.156-  27 2.00  29 2.00  55 2.53  49 2.53
   2  0.789  0.469  0.156-  28 2.00  30 2.00  56 2.53  50 2.53
   3  0.289  0.969  0.156-  25 2.00  31 2.00  53 2.53  51 2.53
   4  0.789  0.969  0.156-  26 2.00  32 2.00  54 2.53  52 2.53
   5  0.046  0.220  0.186-  30 1.98  25 1.99
   6  0.546  0.219  0.186-  29 1.98  26 1.98
   7  0.046  0.719  0.186-  32 1.98  27 1.98
   8  0.546  0.719  0.186-  31 1.98  28 1.98
   9  0.454  0.469  0.814-  20 1.98  21 1.98
  10  0.954  0.469  0.814-  19 1.98  22 1.98
  11  0.454  0.969  0.814-  18 1.98  23 1.98
  12  0.954  0.969  0.814-  17 1.98  24 1.98
  13  0.211  0.219  0.844-  21 2.00  17 2.00  49 2.53  53 2.53
  14  0.711  0.219  0.844-  22 2.00  18 2.00  50 2.53  54 2.53
  15  0.211  0.719  0.844-  23 2.00  19 2.00  51 2.53  55 2.53
  16  0.711  0.719  0.844-  24 2.00  20 2.00  52 2.53  56 2.53
  17  0.077  0.095  0.803-  12 1.98  13 2.00  57 2.01  83 2.01  86 2.01
  18  0.577  0.095  0.803-  11 1.98  14 2.00  58 2.01  84 2.01  85 2.01
  19  0.077  0.595  0.803-  10 1.98  15 2.00  59 2.01  81 2.01  88 2.01
  20  0.577  0.595  0.803-   9 1.98  16 2.00  60 2.01  82 2.01  87 2.01
  21  0.325  0.343  0.803-   9 1.98  13 2.00  61 2.01  81 2.01  85 2.01
  22  0.825  0.343  0.803-  10 1.98  14 2.00  62 2.01  82 2.01  86 2.01
  23  0.325  0.843  0.803-  11 1.98  15 2.00  63 2.01  83 2.01  87 2.01
  24  0.825  0.843  0.803-  12 1.98  16 2.00  64 2.01  84 2.01  88 2.01
  25  0.175  0.093  0.197-   5 1.99   3 2.00  65 2.01  77 2.01  75 2.01
  26  0.675  0.093  0.197-   6 1.98   4 2.00  66 2.01  78 2.01  76 2.01
  27  0.175  0.593  0.197-   7 1.98   1 2.00  67 2.01  79 2.01  73 2.01
  28  0.675  0.593  0.197-   8 1.98   2 2.00  68 2.01  80 2.01  74 2.01
  29  0.423  0.345  0.197-   6 1.98   1 2.00  69 2.01  77 2.01  74 2.01
  30  0.923  0.345  0.197-   5 1.98   2 2.00  70 2.01  78 2.01  73 2.01
  31  0.423  0.845  0.197-   8 1.98   3 2.00  71 2.01  79 2.01  76 2.01
  32  0.923  0.845  0.197-   7 1.98   4 2.00  72 2.01  80 2.01  75 2.01
  33  0.219  0.345  0.371-  61 2.41  67 2.65  69 2.65
  34  0.719  0.345  0.371-  62 2.41  68 2.65  70 2.65
  35  0.219  0.845  0.371-  63 2.41  65 2.65  71 2.65
  36  0.719  0.845  0.371-  64 2.41  66 2.65  72 2.65
  37  0.467  0.093  0.371-  58 2.41  71 2.65  65 2.65
  38  0.967  0.093  0.371-  57 2.41  72 2.65  66 2.65
  39  0.467  0.593  0.371-  60 2.41  69 2.65  67 2.65
  40  0.967  0.593  0.371-  59 2.41  70 2.65  68 2.65
  41  0.033  0.343  0.629-  70 2.41  57 2.65  61 2.65
  42  0.533  0.343  0.629-  69 2.41  58 2.65  62 2.65
  43  0.033  0.843  0.629-  72 2.41  59 2.65  63 2.65
  44  0.533  0.843  0.629-  71 2.41  60 2.65  64 2.65
  45  0.281  0.095  0.629-  65 2.41  61 2.65  57 2.65
  46  0.781  0.095  0.629-  66 2.41  62 2.65  58 2.65
  47  0.281  0.595  0.629-  67 2.41  63 2.65  59 2.65
  48  0.781  0.595  0.629-  68 2.41  64 2.65  60 2.65
  49  0.124  0.344  0.000-  73 2.51  86 2.51  81 2.52  77 2.52  13 2.53   1 2.53
  50  0.624  0.344  0.000-  74 2.51  85 2.51  82 2.52  78 2.52  14 2.53   2 2.53
  51  0.124  0.844  0.000-  75 2.51  88 2.51  83 2.52  79 2.52  15 2.53   3 2.53
  52  0.624  0.844  0.000-  76 2.51  87 2.51  84 2.52  80 2.52  16 2.53   4 2.53
  53  0.376  0.094  1.000-  85 2.51  76 2.51  77 2.52  83 2.52   3 2.53  13 2.53
  54  0.876  0.094  1.000-  86 2.51  75 2.51  78 2.52  84 2.52   4 2.53  14 2.53
  55  0.376  0.594  1.000-  87 2.51  74 2.51  79 2.52  81 2.52   1 2.53  15 2.53
  56  0.876  0.594  1.000-  88 2.51  73 2.51  80 2.52  82 2.52   2 2.53  16 2.53
  57  0.038  0.106  0.606-  17 2.01  38 2.41  41 2.65  45 2.65
  58  0.538  0.106  0.606-  18 2.01  37 2.41  42 2.65  46 2.65
  59  0.038  0.606  0.606-  19 2.01  40 2.41  43 2.65  47 2.65
  60  0.538  0.606  0.606-  20 2.01  39 2.41  44 2.65  48 2.65
  61  0.265  0.332  0.606-  21 2.01  33 2.41  45 2.65  41 2.65
  62  0.765  0.332  0.606-  22 2.01  34 2.41  46 2.65  42 2.65
  63  0.265  0.832  0.606-  23 2.01  35 2.41  47 2.65  43 2.65
  64  0.765  0.832  0.606-  24 2.01  36 2.41  48 2.65  44 2.65
  65  0.235  0.082  0.394-  25 2.01  45 2.41  35 2.65  37 2.65
  66  0.735  0.082  0.394-  26 2.01  46 2.41  36 2.65  38 2.65
  67  0.235  0.582  0.394-  27 2.01  47 2.41  33 2.65  39 2.65
  68  0.735  0.582  0.394-  28 2.01  48 2.41  34 2.65  40 2.65
  69  0.462  0.356  0.394-  29 2.01  42 2.41  39 2.65  33 2.65
  70  0.962  0.356  0.394-  30 2.01  41 2.41  40 2.65  34 2.65
  71  0.462  0.856  0.394-  31 2.01  44 2.41  37 2.65  35 2.65
  72  0.962  0.856  0.394-  32 2.01  43 2.41  38 2.65  36 2.65
  73  0.038  0.469  0.154-  30 2.01  27 2.01  49 2.51  56 2.51
  74  0.538  0.469  0.154-  29 2.01  28 2.01  50 2.51  55 2.51
  75  0.038  0.969  0.154-  32 2.01  25 2.01  51 2.51  54 2.51
  76  0.538  0.969  0.154-  31 2.01  26 2.01  52 2.51  53 2.51
  77  0.289  0.219  0.154-  25 2.01  29 2.01  53 2.52  49 2.52
  78  0.789  0.219  0.154-  26 2.01  30 2.01  54 2.52  50 2.52
  79  0.289  0.719  0.154-  27 2.01  31 2.01  55 2.52  51 2.52
  80  0.789  0.719  0.154-  28 2.01  32 2.01  56 2.52  52 2.52
  81  0.211  0.469  0.846-  21 2.01  19 2.01  49 2.52  55 2.52
  82  0.711  0.469  0.846-  22 2.01  20 2.01  50 2.52  56 2.52
  83  0.211  0.969  0.846-  23 2.01  17 2.01  51 2.52  53 2.52
  84  0.711  0.969  0.846-  24 2.01  18 2.01  52 2.52  54 2.52
  85  0.462  0.219  0.846-  18 2.01  21 2.01  53 2.51  50 2.51
  86  0.962  0.219  0.846-  17 2.01  22 2.01  54 2.51  49 2.51
  87  0.462  0.719  0.846-  20 2.01  23 2.01  55 2.51  52 2.51
  88  0.962  0.719  0.846-  19 2.01  24 2.01  56 2.51  51 2.51
 

IMPORTANT INFORMATION: All symmetrisations will be switched off!
NOSYMM: (Re-)initialisation of all symmetry stuff for point group C_1.

 
 
 KPOINTS: # No comment                            

Automatic generation of k-mesh.
Space group operators:
 irot       det(A)        alpha          n_x          n_y          n_z        tau_x        tau_y        tau_z
    1     1.000000     0.000000     1.000000     0.000000     0.000000     0.000000     0.000000     0.000000
 
 Subroutine IBZKPT returns following result:
 ===========================================
 
 Found     14 irreducible k-points:
 
 Following reciprocal coordinates:
            Coordinates               Weight
  0.000000  0.000000  0.000000      1.000000
  0.333333  0.000000  0.000000      2.000000
  0.000000  0.333333  0.000000      2.000000
  0.333333  0.333333  0.000000      2.000000
 -0.333333  0.333333 -0.000000      2.000000
  0.000000  0.000000  0.333333      2.000000
  0.333333  0.000000  0.333333      2.000000
 -0.333333  0.000000  0.333333      2.000000
  0.000000  0.333333  0.333333      2.000000
  0.333333  0.333333  0.333333      2.000000
 -0.333333  0.333333  0.333333      2.000000
  0.000000 -0.333333  0.333333      2.000000
  0.333333 -0.333333  0.333333      2.000000
 -0.333333 -0.333333  0.333333      2.000000
 
 Following cartesian coordinates:
            Coordinates               Weight
  0.000000  0.000000  0.000000      1.000000
  0.029997  0.000000  0.008162      2.000000
  0.000000  0.029983  0.000000      2.000000
  0.029997  0.029983  0.008162      2.000000
 -0.029997  0.029983 -0.008162      2.000000
  0.000001  0.000000  0.032684      2.000000
  0.029998  0.000000  0.040846      2.000000
 -0.029996  0.000000  0.024522      2.000000
  0.000001  0.029983  0.032684      2.000000
  0.029998  0.029983  0.040846      2.000000
 -0.029996  0.029983  0.024522      2.000000
  0.000001 -0.029983  0.032684      2.000000
  0.029998 -0.029983  0.040846      2.000000
 -0.029996 -0.029983  0.024522      2.000000
 


--------------------------------------------------------------------------------------------------------




 Dimension of arrays:
   k-points           NKPTS =     14   k-points in BZ     NKDIM =     14   number of bands    NBANDS=    538
   number of dos      NEDOS =    301   number of ions     NIONS =     88
   non local maximal  LDIM  =      6   non local SUM 2l+1 LMDIM =     18
   total plane-waves  NPLWV = 829440
   max r-space proj   IRMAX =      1   max aug-charges    IRDMAX= 166102
   dimension x,y,z NGX =    96 NGY =   96 NGZ =   90
   dimension x,y,z NGXF=   192 NGYF=  192 NGZF=  180
   support grid    NGXF=   384 NGYF=  384 NGZF=  360
   ions per type =              16  16  24  32
   NGX,Y,Z   is equivalent  to a cutoff of  14.36, 14.36, 14.16 a.u.
   NGXF,Y,Z  is equivalent  to a cutoff of  28.72, 28.71, 28.31 a.u.

 SYSTEM =  unknown system                          
 POSCAR =  # Compound: Li16O16S24Fe32. Old comment:

 Startparameter for this run:
   NWRITE =      1    write-flag & timer
   PREC   = accura    normal or accurate (medium, high low for compatibility)
   ISTART =      0    job   : 0-new  1-cont  2-samecut
   ICHARG =      1    charge: 1-file 2-atom 10-const
   ISPIN  =      2    spin polarized calculation?
   LNONCOLLINEAR =      F non collinear calculations
   LSORBIT =      F    spin-orbit coupling
   INIWAV =      1    electr: 0-lowe 1-rand  2-diag
   LASPH  =      T    aspherical Exc in radial PAW
   METAGGA=      F    non-selfconsistent MetaGGA calc.

 Electronic Relaxation 1
   ENCUT  =  650.0 eV  47.77 Ry    6.91 a.u.  23.10 23.11 21.97*2*pi/ulx,y,z
   ENINI  =  650.0     initial cutoff
   ENAUG  =  628.9 eV  augmentation charge cutoff
   NELM   =    200;   NELMIN=  8; NELMDL=  0     # of ELM steps 
   EDIFF  = 0.1E-05   stopping-criterion for ELM
   LREAL  =      F    real-space projection
   NLSPLINE    = F    spline interpolate recip. space projectors
   LCOMPAT=      F    compatible to vasp.4.4
   GGA_COMPAT  = T    GGA compatible to vasp.4.4-vasp.4.6
   LMAXPAW     = -100 max onsite density
   LMAXMIX     =    4 max onsite mixed and CHGCAR
   VOSKOWN=      0    Vosko Wilk Nusair interpolation
   ROPT   =    0.00000   0.00000   0.00000   0.00000
 Ionic relaxation
   EDIFFG = 0.1E-04   stopping-criterion for IOM
   NSW    =      0    number of steps for IOM
   NBLOCK =      1;   KBLOCK =      1    inner block; outer block 
   IBRION =     -1    ionic relax: 0-MD 1-quasi-New 2-CG
   NFREE  =      0    steps in history (QN), initial steepest desc. (CG)
   ISIF   =      2    stress and relaxation
   IWAVPR =     10    prediction:  0-non 1-charg 2-wave 3-comb
   ISYM   =      0    0-nonsym 1-usesym 2-fastsym
   LCORR  =      T    Harris-Foulkes like correction to forces

   POTIM  = 0.5000    time-step for ionic-motion
   TEIN   =    0.0    initial temperature
   TEBEG  =    0.0;   TEEND  =   0.0 temperature during run
   SMASS  =  -3.00    Nose mass-parameter (am)
   estimated Nose-frequenzy (Omega)   =  0.10E-29 period in steps =****** mass=  -0.282E-26a.u.
   SCALEE = 1.0000    scale energy and forces
   NPACO  =    256;   APACO  = 16.0  distance and # of slots for P.C.
   PSTRESS=    0.0 pullay stress

  Mass of Ions in am
   POMASS =   7.01 16.00 32.07 55.85
  Ionic Valenz
   ZVAL   =   3.00  6.00  6.00 14.00
  Atomic Wigner-Seitz radii
   RWIGS  =  -1.00 -1.00 -1.00 -1.00
  virtual crystal weights 
   VCA    =   1.00  1.00  1.00  1.00
   NELECT =     736.0000    total number of electrons
   NUPDOWN=      -1.0000    fix difference up-down

 DOS related values:
   EMIN   =  10.00;   EMAX   =-10.00  energy-range for DOS
   EFERMI =   0.00
   ISMEAR =     0;   SIGMA  =   0.05  broadening in eV -4-tet -1-fermi 0-gaus

 Electronic relaxation 2 (details)
   IALGO  =     38    algorithm
   LDIAG  =      T    sub-space diagonalisation (order eigenvalues)
   LSUBROT=      F    optimize rotation matrix (better conditioning)
   TURBO    =      0    0=normal 1=particle mesh
   IRESTART =      0    0=no restart 2=restart with 2 vectors
   NREBOOT  =      0    no. of reboots
   NMIN     =      0    reboot dimension
   EREF     =   0.00    reference energy to select bands
   IMIX   =      4    mixing-type and parameters
     AMIX     =   0.40;   BMIX     =  1.00
     AMIX_MAG =   1.60;   BMIX_MAG =  1.00
     AMIN     =   0.10
     WC   =   100.;   INIMIX=   1;  MIXPRE=   1;  MAXMIX= -45

 Intra band minimization:
   WEIMIN = 0.0000     energy-eigenvalue tresh-hold
   EBREAK =  0.46E-09  absolut break condition
   DEPER  =   0.30     relativ break condition  

   TIME   =   0.40     timestep for ELM

  volume/ion in A,a.u.               =      14.32        96.62
  Fermi-wavevector in a.u.,A,eV,Ry     =   1.368520  2.586127 25.481613  1.872846
  Thomas-Fermi vector in A             =   2.494476
 
 Write flags
   LWAVE        =      F    write WAVECAR
   LDOWNSAMPLE  =      F    k-point downsampling of WAVECAR
   LCHARG       =      T    write CHGCAR
   LVTOT        =      F    write LOCPOT, total local potential
   LVHAR        =      F    write LOCPOT, Hartree potential only
   LELF         =      F    write electronic localiz. function (ELF)
   LORBIT       =      0    0 simple, 1 ext, 2 COOP (PROOUT), +10 PAW based schemes


 Dipole corrections
   LMONO  =      F    monopole corrections only (constant potential shift)
   LDIPOL =      F    correct potential (dipole corrections)
   IDIPOL =      0    1-x, 2-y, 3-z, 4-all directions 
   EPSILON=  1.0000000 bulk dielectric constant

 LDA+U is selected, type is set to LDAUTYPE =  2
   angular momentum for each species LDAUL =    -1   -1   -1    2
   U (eV)           for each species LDAUU =   0.0  0.0  0.0  4.0
   J (eV)           for each species LDAUJ =   0.0  0.0  0.0  0.0
 Exchange correlation treatment:
   GGA     =    PE    GGA type
   LEXCH   =     8    internal setting for exchange type
   VOSKOWN=      0    Vosko Wilk Nusair interpolation
   LHFCALC =     F    Hartree Fock is set to
   LHFONE  =     F    Hartree Fock one center treatment
   AEXX    =    0.0000 exact exchange contribution

 Linear response parameters
   LEPSILON=     F    determine dielectric tensor
   LRPA    =     F    only Hartree local field effects (RPA)
   LNABLA  =     F    use nabla operator in PAW spheres
   LVEL    =     F    velocity operator in full k-point grid
   LINTERFAST=   F  fast interpolation
   KINTER  =     0    interpolate to denser k-point grid
   CSHIFT  =0.1000    complex shift for real part using Kramers Kronig
   OMEGAMAX=  -1.0    maximum frequency
   DEG_THRESHOLD= 0.2000000E-02 threshold for treating states as degnerate
   RTIME   =   -0.100 relaxation time in fs
  (WPLASMAI=    0.000 imaginary part of plasma frequency in eV, 0.658/RTIME)
   DFIELD  = 0.0000000 0.0000000 0.0000000 field for delta impulse in time
 
 Orbital magnetization related:
   ORBITALMAG=     F  switch on orbital magnetization
   LCHIMAG   =     F  perturbation theory with respect to B field
   DQ        =  0.001000  dq finite difference perturbation B field
   LLRAUG    =     F  two centre corrections for induced B field



--------------------------------------------------------------------------------------------------------


 Static calculation
 charge density and potential will be updated during run
 spin polarized calculation
 Variant of blocked Davidson
 Davidson routine will perform the subspace rotation
 perform sub-space diagonalisation
    after iterative eigenvector-optimisation
 modified Broyden-mixing scheme, WC =      100.0
 initial mixing is a Kerker type mixing with AMIX =  0.4000 and BMIX =      1.0000
 Hartree-type preconditioning will be used
 using additional bands          170
 reciprocal scheme for non local part
 use partial core corrections
 calculate Harris-corrections to forces 
   (improved forces if not selfconsistent)
 use gradient corrections 
 use of overlap-Matrix (Vanderbilt PP)
 Gauss-broadening in eV      SIGMA  =   0.05


--------------------------------------------------------------------------------------------------------


  energy-cutoff  :      650.00
  volume of cell :     1259.94
      direct lattice vectors                 reciprocal lattice vectors
    11.112233740  0.000000000 -0.000290340     0.089991547  0.000000000  0.024487024
     0.000000000 11.117451940  0.000000000     0.000000000  0.089948669  0.000000000
    -2.775108980  0.000000000 10.198722210     0.000002562  0.000000000  0.098052196

  length of vectors
    11.112233744 11.117451940 10.569539468     0.093263567  0.089948669  0.098052196


 
 k-points in units of 2pi/SCALE and weight: # No comment                            
   0.00000000  0.00000000  0.00000000       0.037
   0.02999718  0.00000000  0.00816234       0.074
   0.00000000  0.02998289  0.00000000       0.074
   0.02999718  0.02998289  0.00816234       0.074
  -0.02999718  0.02998289 -0.00816234       0.074
   0.00000085  0.00000000  0.03268407       0.074
   0.02999804  0.00000000  0.04084641       0.074
  -0.02999633  0.00000000  0.02452172       0.074
   0.00000085  0.02998289  0.03268407       0.074
   0.02999804  0.02998289  0.04084641       0.074
  -0.02999633  0.02998289  0.02452172       0.074
   0.00000085 -0.02998289  0.03268407       0.074
   0.02999804 -0.02998289  0.04084641       0.074
  -0.02999633 -0.02998289  0.02452172       0.074
 
 k-points in reciprocal lattice and weights: # No comment                            
   0.00000000  0.00000000  0.00000000       0.037
   0.33333333  0.00000000  0.00000000       0.074
   0.00000000  0.33333333  0.00000000       0.074
   0.33333333  0.33333333  0.00000000       0.074
  -0.33333333  0.33333333 -0.00000000       0.074
   0.00000000  0.00000000  0.33333333       0.074
   0.33333333  0.00000000  0.33333333       0.074
  -0.33333333  0.00000000  0.33333333       0.074
   0.00000000  0.33333333  0.33333333       0.074
   0.33333333  0.33333333  0.33333333       0.074
  -0.33333333  0.33333333  0.33333333       0.074
   0.00000000 -0.33333333  0.33333333       0.074
   0.33333333 -0.33333333  0.33333333       0.074
  -0.33333333 -0.33333333  0.33333333       0.074
 
 position of ions in fractional coordinates (direct lattice) 
   0.28894969  0.46933910  0.15583616
   0.78894969  0.46933910  0.15583616
   0.28894969  0.96933910  0.15583616
   0.78894969  0.96933910  0.15583616
   0.04646972  0.22024925  0.18586770
   0.54646972  0.21934976  0.18586770
   0.04646972  0.71934976  0.18586770
   0.54646972  0.71934976  0.18586770
   0.45353028  0.46934976  0.81413230
   0.95353028  0.46934976  0.81413230
   0.45353028  0.96934976  0.81413230
   0.95353028  0.96934976  0.81413230
   0.21105031  0.21933910  0.84416384
   0.71105031  0.21933910  0.84416384
   0.21105031  0.71933910  0.84416384
   0.71105031  0.71933910  0.84416384
   0.07654971  0.09530995  0.80250593
   0.57654971  0.09530995  0.80250593
   0.07654971  0.59530995  0.80250593
   0.57654971  0.59530995  0.80250593
   0.32470466  0.34338175  0.80250383
   0.82470466  0.34338175  0.80250383
   0.32470466  0.84338175  0.80250383
   0.82470466  0.84338175  0.80250383
   0.17529534  0.09338175  0.19749617
   0.67529534  0.09338175  0.19749617
   0.17529534  0.59338175  0.19749617
   0.67529534  0.59338175  0.19749617
   0.42345029  0.34530995  0.19749407
   0.92345029  0.34530995  0.19749407
   0.42345029  0.84530995  0.19749407
   0.92345029  0.84530995  0.19749407
   0.21868463  0.34523395  0.37102476
   0.71868463  0.34523395  0.37102476
   0.21868463  0.84523395  0.37102476
   0.71868463  0.84523395  0.37102476
   0.46681660  0.09344897  0.37102399
   0.96681660  0.09344897  0.37102399
   0.46681660  0.59344897  0.37102399
   0.96681660  0.59344897  0.37102399
   0.03318340  0.34344897  0.62897601
   0.53318340  0.34344897  0.62897601
   0.03318340  0.84344897  0.62897601
   0.53318340  0.84344897  0.62897601
   0.28131537  0.09523395  0.62897524
   0.78131537  0.09523395  0.62897524
   0.28131537  0.59523395  0.62897524
   0.78131537  0.59523395  0.62897524
   0.12439279  0.34434306  0.00000412
   0.62439279  0.34434306  0.00000412
   0.12439279  0.84434306  0.00000412
   0.62439279  0.84434306  0.00000412
   0.37560721  0.09434306  0.99999588
   0.87560721  0.09434306  0.99999588
   0.37560721  0.59434306  0.99999588
   0.87560721  0.59434306  0.99999588
   0.03824426  0.10634799  0.60632306
   0.53824426  0.10634799  0.60632306
   0.03824426  0.60634799  0.60632306
   0.53824426  0.60634799  0.60632306
   0.26492712  0.33232651  0.60632763
   0.76492712  0.33232651  0.60632763
   0.26492712  0.83232651  0.60632763
   0.76492712  0.83232651  0.60632763
   0.23507288  0.08232651  0.39367237
   0.73507288  0.08232651  0.39367237
   0.23507288  0.58232651  0.39367237
   0.73507288  0.58232651  0.39367237
   0.46175574  0.35634799  0.39367694
   0.96175574  0.35634799  0.39367694
   0.46175574  0.85634799  0.39367694
   0.96175574  0.85634799  0.39367694
   0.03848398  0.46936404  0.15397331
   0.53848398  0.46936404  0.15397331
   0.03848398  0.96936404  0.15397331
   0.53848398  0.96936404  0.15397331
   0.28861657  0.21935690  0.15447525
   0.78861657  0.21935690  0.15447525
   0.28861657  0.71935690  0.15447525
   0.78861657  0.71935690  0.15447525
   0.21138343  0.46935690  0.84552475
   0.71138343  0.46935690  0.84552475
   0.21138343  0.96935690  0.84552475
   0.71138343  0.96935690  0.84552475
   0.46151602  0.21936404  0.84602669
   0.96151602  0.21936404  0.84602669
   0.46151602  0.71936404  0.84602669
   0.96151602  0.71936404  0.84602669
 
 position of ions in cartesian coordinates  (Angst):
   2.77841422  5.21785483  1.58924581
   8.33453109  5.21785483  1.58910064
   2.77841422 10.77658080  1.58924581
   8.33453109 10.77658080  1.58910064
   0.00057921  2.44861042  1.89559955
   5.55669608  2.43861041  1.89545438
   0.00057921  7.99733638  1.89559955
   5.55669608  7.99733638  1.89545438
   2.78042868  5.21797340  8.30297749
   8.33654555  5.21797340  8.30283232
   2.78042868 10.77669937  8.30297749
   8.33654555 10.77669937  8.30283232
   0.00259367  2.43849185  8.60933123
   5.55871054  2.43849185  8.60918606
   0.00259367  7.99721782  8.60933123
   5.55871054  7.99721782  8.60918606
  -1.37640314  1.05960384  8.18451283
   4.17971373  1.05960384  8.18436766
  -1.37640314  6.61832981  8.18451283
   4.17971373  6.61832981  8.18436766
   1.38115855  3.81753010  8.18441936
   6.93727542  3.81753010  8.18427419
   1.38115855  9.37625607  8.18441936
   6.93727542  9.37625607  8.18427419
   1.39984934  1.03816712  2.01415768
   6.95596621  1.03816712  2.01401251
   1.39984934  6.59689309  2.01415768
   6.95596621  6.59689309  2.01401251
   4.15741103  3.83896683  2.01406421
   9.71352790  3.83896683  2.01391904
   4.15741103  9.39769280  2.01406421
   9.71352790  9.39769280  2.01391904
   1.40044058  3.83812185  3.78391497
   6.95655745  3.83812185  3.78376980
   1.40044058  9.39684782  3.78391497
   6.95655745  9.39684782  3.78376980
   4.15774317  1.03891443  3.78383507
   9.71386004  1.03891443  3.78368990
   4.15774317  6.59764040  3.78383507
   9.71386004  6.59764040  3.78368990
  -1.37673528  3.81827742  6.41474197
   4.17938159  3.81827742  6.41459680
  -1.37673528  9.37700339  6.41474197
   4.17938159  9.37700339  6.41459680
   1.38056731  1.05875886  6.41466207
   6.93668418  1.05875886  6.41451690
   1.38056731  6.61748483  6.41466207
   6.93668418  6.61748483  6.41451690
   1.38227032  3.82821742  0.00000590
   6.93838719  3.82821742 -0.00013927
   1.38227032  9.38694339  0.00000590
   6.93838719  9.38694339 -0.00013927
   1.39873757  1.04885444 10.19857114
   6.95485444  1.04885444 10.19842597
   1.39873757  6.60758041 10.19857114
   6.95485444  6.60758041 10.19842597
  -1.25763347  1.18231867  6.18370935
   4.29848340  1.18231867  6.18356418
  -1.25763347  6.74104464  6.18370935
   4.29848340  6.74104464  6.18356418
   1.26130689  3.69462400  6.18369015
   6.81742376  3.69462400  6.18354498
   1.26130689  9.25334997  6.18369015
   6.81742376  9.25334997  6.18354498
   1.51970100  0.91526102  4.01488689
   7.07581787  0.91526102  4.01474172
   1.51970100  6.47398699  4.01488689
   7.07581787  6.47398699  4.01474172
   4.03864136  3.96168165  4.01486769
   9.59475823  3.96168165  4.01472252
   4.03864136  9.52040762  4.01486769
   9.59475823  9.52040762  4.01472252
   0.00035027  5.21813216  1.57031984
   5.55646714  5.21813216  1.57017467
   0.00035027 10.77685813  1.57031984
   5.55646714 10.77685813  1.57017467
   2.77848919  2.43868979  1.57536637
   8.33460606  2.43868979  1.57522120
   2.77848919  7.99741576  1.57536637
   8.33460606  7.99741576  1.57522120
   0.00251870  5.21805278  8.62321067
   5.55863557  5.21805278  8.62306550
   0.00251870 10.77677875  8.62321067
   5.55863557 10.77677875  8.62306550
   2.78065762  2.43876917  8.62825720
   8.33677449  2.43876917  8.62811203
   2.78065762  7.99749514  8.62825720
   8.33677449  7.99749514  8.62811203
 


--------------------------------------------------------------------------------------------------------


 k-point  1 :   0.0000 0.0000 0.0000  plane waves:   47369
 k-point  2 :   0.3333 0.0000 0.0000  plane waves:   47373
 k-point  3 :   0.0000 0.3333 0.0000  plane waves:   47370
 k-point  4 :   0.3333 0.3333 0.0000  plane waves:   47404
 k-point  5 :  -0.3333 0.3333-0.0000  plane waves:   47404
 k-point  6 :   0.0000 0.0000 0.3333  plane waves:   47419
 k-point  7 :   0.3333 0.0000 0.3333  plane waves:   47399
 k-point  8 :  -0.3333 0.0000 0.3333  plane waves:   47417
 k-point  9 :   0.0000 0.3333 0.3333  plane waves:   47409
 k-point 10 :   0.3333 0.3333 0.3333  plane waves:   47422
 k-point 11 :  -0.3333 0.3333 0.3333  plane waves:   47440
 k-point 12 :   0.0000-0.3333 0.3333  plane waves:   47409
 k-point 13 :   0.3333-0.3333 0.3333  plane waves:   47422
 k-point 14 :  -0.3333-0.3333 0.3333  plane waves:   47440

 maximum and minimum number of plane-waves per node :      7942     7858

 maximum number of plane-waves:     47440
 maximum index in each direction: 
   IXMAX=   23   IYMAX=   23   IZMAX=   21
   IXMIN=  -23   IYMIN=  -23   IZMIN=  -22


 parallel 3D FFT for wavefunctions:
    minimum data exchange during FFTs selected (reduces bandwidth)
 parallel 3D FFT for charge:
    minimum data exchange during FFTs selected (reduces bandwidth)


 total amount of memory used by VASP MPI-rank0  1233264. kBytes
=======================================================================

   base      :      30000. kBytes
   nonl-proj :      75226. kBytes
   fftplans  :      85054. kBytes
   grid      :      64684. kBytes
   one-center:        466. kBytes
   wavefun   :     977834. kBytes
 
     INWAV:  cpu time    0.0000: real time    0.0000
 Broyden mixing: mesh for mixing (old mesh)
   NGX = 47   NGY = 47   NGZ = 43
  (NGX  =192   NGY  =192   NGZ  =180)
  gives a total of  94987 points

 initial charge density was supplied:
 number of electron     736.0000016 magnetization     127.9999885
 keeping initial charge density in first step


--------------------------------------------------------------------------------------------------------


 Maximum index for augmentation-charges        13229 (set IRDMAX)


--------------------------------------------------------------------------------------------------------


 First call to EWALD:  gamma=   0.164
 Maximum number of real-space cells 3x 3x 3
 Maximum number of reciprocal cells 3x 3x 3

    FEWALD:  cpu time    0.0040: real time    0.0040


--------------------------------------- Iteration      1(   1)  ---------------------------------------


    POTLOK:  cpu time    1.0883: real time    1.0969
    SETDIJ:  cpu time    2.2903: real time    2.2976
     EDDAV:  cpu time  314.9441: real time  317.9577
       DOS:  cpu time    0.0078: real time    0.0085
    --------------------------------------------
      LOOP:  cpu time  318.3306: real time  321.3607

 eigenvalue-minimisations  : 30944
 total energy-change (2. order) : 0.1040963E+05  (-0.4118849E+05)
 number of electron     736.0000016 magnetization     127.9999885
 augmentation part      736.0000016 magnetization     127.9999885

 Free energy of the ion-electron system (eV)
  ---------------------------------------------------
  alpha Z        PSCENC =      2314.49656628
  Ewald energy   TEWEN  =    -57723.03677363
  -Hartree energ DENC   =    -30348.88277936
  -exchange      EXHF   =         0.00000000
  -V(xc)+E(xc)   XCENC  =      3229.29963469
  PAW double counting   =     92679.89207989   -95535.38516353
  entropy T*S    EENTRO =        -0.01839205
  eigenvalues    EBANDS =       349.78388173
  atomic energy  EATOM  =     95443.47970955
  Solvation  Ediel_sol  =         0.00000000
  ---------------------------------------------------
  free energy    TOTEN  =     10409.62876357 eV

  energy without entropy =    10409.64715562  energy(sigma->0) =    10409.63795959


--------------------------------------------------------------------------------------------------------




--------------------------------------- Iteration      1(   2)  ---------------------------------------


     EDDAV:  cpu time  308.8739: real time  311.6025
       DOS:  cpu time    0.0084: real time    0.0084
    --------------------------------------------
      LOOP:  cpu time  308.8823: real time  311.6109

 eigenvalue-minimisations  : 30128
 total energy-change (2. order) :-0.9232147E+04  (-0.8658356E+04)
 number of electron     736.0000016 magnetization     127.9999885
 augmentation part      736.0000016 magnetization     127.9999885

 Free energy of the ion-electron system (eV)
  ---------------------------------------------------
  alpha Z        PSCENC =      2314.49656628
  Ewald energy   TEWEN  =    -57723.03677363
  -Hartree energ DENC   =    -30348.88277936
  -exchange      EXHF   =         0.00000000
  -V(xc)+E(xc)   XCENC  =      3229.29963469
  PAW double counting   =     92679.89207989   -95535.38516353
  entropy T*S    EENTRO =        -0.06574725
  eigenvalues    EBANDS =     -8882.31559543
  atomic energy  EATOM  =     95443.47970955
  Solvation  Ediel_sol  =         0.00000000
  ---------------------------------------------------
  free energy    TOTEN  =      1177.48193120 eV

  energy without entropy =     1177.54767845  energy(sigma->0) =     1177.51480483


--------------------------------------------------------------------------------------------------------




--------------------------------------- Iteration      1(   3)  ---------------------------------------


     EDDAV:  cpu time  325.7030: real time  328.7019
       DOS:  cpu time    0.0025: real time    0.0025
    --------------------------------------------
      LOOP:  cpu time  325.7054: real time  328.7043

 eigenvalue-minimisations  : 32376
 total energy-change (2. order) :-0.1485610E+04  (-0.1278944E+04)
 number of electron     736.0000016 magnetization     127.9999885
 augmentation part      736.0000016 magnetization     127.9999885

 Free energy of the ion-electron system (eV)
  ---------------------------------------------------
  alpha Z        PSCENC =      2314.49656628
  Ewald energy   TEWEN  =    -57723.03677363
  -Hartree energ DENC   =    -30348.88277936
  -exchange      EXHF   =         0.00000000
  -V(xc)+E(xc)   XCENC  =      3229.29963469
  PAW double counting   =     92679.89207989   -95535.38516353
  entropy T*S    EENTRO =        -0.00000000
  eigenvalues    EBANDS =    -10367.99151170
  atomic energy  EATOM  =     95443.47970955
  Solvation  Ediel_sol  =         0.00000000
  ---------------------------------------------------
  free energy    TOTEN  =      -308.12823782 eV

  energy without entropy =     -308.12823782  energy(sigma->0) =     -308.12823782


--------------------------------------------------------------------------------------------------------




--------------------------------------- Iteration      1(   4)  ---------------------------------------


     EDDAV:  cpu time  346.5208: real time  349.8181
       DOS:  cpu time    0.0025: real time    0.0025
    --------------------------------------------
      LOOP:  cpu time  346.5233: real time  349.8206

 eigenvalue-minimisations  : 35008
 total energy-change (2. order) :-0.1681744E+03  (-0.1654218E+03)
 number of electron     736.0000016 magnetization     127.9999885
 augmentation part      736.0000016 magnetization     127.9999885

 Free energy of the ion-electron system (eV)
  ---------------------------------------------------
  alpha Z        PSCENC =      2314.49656628
  Ewald energy   TEWEN  =    -57723.03677363
  -Hartree energ DENC   =    -30348.88277936
  -exchange      EXHF   =         0.00000000
  -V(xc)+E(xc)   XCENC  =      3229.29963469
  PAW double counting   =     92679.89207989   -95535.38516353
  entropy T*S    EENTRO =        -0.00000000
  eigenvalues    EBANDS =    -10536.16592470
  atomic energy  EATOM  =     95443.47970955
  Solvation  Ediel_sol  =         0.00000000
  ---------------------------------------------------
  free energy    TOTEN  =      -476.30265082 eV

  energy without entropy =     -476.30265082  energy(sigma->0) =     -476.30265082


--------------------------------------------------------------------------------------------------------




--------------------------------------- Iteration      1(   5)  ---------------------------------------


     EDDAV:  cpu time  461.6098: real time  465.5513
       DOS:  cpu time    0.0027: real time    0.0029
    CHARGE:  cpu time    9.3397: real time    9.3500
    MIXING:  cpu time    0.0299: real time    0.0341
    --------------------------------------------
      LOOP:  cpu time  470.9821: real time  474.9383

 eigenvalue-minimisations  : 49704
 total energy-change (2. order) :-0.1242987E+02  (-0.1230661E+02)
 number of electron     736.0000016 magnetization     127.9999932
 augmentation part      278.4631374 magnetization      84.1344963

 Broyden mixing:
  rms(total) = 0.21064E+00    rms(broyden)= 0.21048E+00
  rms(prec ) = 0.21401E+00
  weight for this iteration     100.00

 Free energy of the ion-electron system (eV)
  ---------------------------------------------------
  alpha Z        PSCENC =      2314.49656628
  Ewald energy   TEWEN  =    -57723.03677363
  -Hartree energ DENC   =    -30348.88277936
  -exchange      EXHF   =         0.00000000
  -V(xc)+E(xc)   XCENC  =      3229.29963469
  PAW double counting   =     92679.89207989   -95535.38516353
  entropy T*S    EENTRO =        -0.00000000
  eigenvalues    EBANDS =    -10548.59579062
  atomic energy  EATOM  =     95443.47970955
  Solvation  Ediel_sol  =         0.00000000
  ---------------------------------------------------
  free energy    TOTEN  =      -488.73251674 eV

  energy without entropy =     -488.73251674  energy(sigma->0) =     -488.73251674


--------------------------------------------------------------------------------------------------------




--------------------------------------- Iteration      1(   6)  ---------------------------------------


    POTLOK:  cpu time    1.0413: real time    1.0443
    SETDIJ:  cpu time    2.2996: real time    2.3012
     EDDAV:  cpu time  400.2190: real time  403.8898
       DOS:  cpu time    0.0031: real time    0.0034
    CHARGE:  cpu time    9.2337: real time    9.2995
    MIXING:  cpu time    0.0393: real time    0.0394
    --------------------------------------------
      LOOP:  cpu time  412.8360: real time  416.5776

 eigenvalue-minimisations  : 42056
 total energy-change (2. order) :-0.4682214E+00  (-0.4823207E+00)
 number of electron     736.0000016 magnetization     127.9999951
 augmentation part      277.9603243 magnetization      84.1636622

 Broyden mixing:
  rms(total) = 0.10548E+00    rms(broyden)= 0.10532E+00
  rms(prec ) = 0.10613E+00
  weight for this iteration     100.00

 eigenvalues of (default mixing * dielectric matrix)
  average eigenvalue GAMMA=   0.6488
  0.6488

 Free energy of the ion-electron system (eV)
  ---------------------------------------------------
  alpha Z        PSCENC =      2314.49656628
  Ewald energy   TEWEN  =    -57723.03677363
  -Hartree energ DENC   =    -30347.06290183
  -exchange      EXHF   =         0.00000000
  -V(xc)+E(xc)   XCENC  =      3228.99971364
  PAW double counting   =     92519.97011826   -95373.81027548
  entropy T*S    EENTRO =        -0.00000000
  eigenvalues    EBANDS =    -10552.23689494
  atomic energy  EATOM  =     95443.47970955
  Solvation  Ediel_sol  =         0.00000000
  ---------------------------------------------------
  free energy    TOTEN  =      -489.20073815 eV

  energy without entropy =     -489.20073815  energy(sigma->0) =     -489.20073815


--------------------------------------------------------------------------------------------------------




--------------------------------------- Iteration      1(   7)  ---------------------------------------


    POTLOK:  cpu time    1.0282: real time    1.0649
    SETDIJ:  cpu time    2.2895: real time    2.2912
     EDDAV:  cpu time  435.6980: real time  439.8711
       DOS:  cpu time    0.0028: real time    0.0028
    CHARGE:  cpu time    9.1989: real time    9.3268
    MIXING:  cpu time    0.0363: real time    0.0370
    --------------------------------------------
      LOOP:  cpu time  448.2537: real time  452.5938

 eigenvalue-minimisations  : 46384
 total energy-change (2. order) :-0.1655646E-01  (-0.1740250E-01)
 number of electron     736.0000016 magnetization     127.9999959
 augmentation part      277.8792635 magnetization      84.1548790

 Broyden mixing:
  rms(total) = 0.59865E-01    rms(broyden)= 0.59823E-01
  rms(prec ) = 0.61266E-01
  weight for this iteration     100.00

 eigenvalues of (default mixing * dielectric matrix)
  average eigenvalue GAMMA=   0.5861
  0.5861  0.5861

 Free energy of the ion-electron system (eV)
  ---------------------------------------------------
  alpha Z        PSCENC =      2314.49656628
  Ewald energy   TEWEN  =    -57723.03677363
  -Hartree energ DENC   =    -30347.98891681
  -exchange      EXHF   =         0.00000000
  -V(xc)+E(xc)   XCENC  =      3229.08447475
  PAW double counting   =     92578.34269568   -95432.75767650
  entropy T*S    EENTRO =        -0.00000000
  eigenvalues    EBANDS =    -10550.83737393
  atomic energy  EATOM  =     95443.47970955
  Solvation  Ediel_sol  =         0.00000000
  ---------------------------------------------------
  free energy    TOTEN  =      -489.21729462 eV

  energy without entropy =     -489.21729462  energy(sigma->0) =     -489.21729462


--------------------------------------------------------------------------------------------------------




--------------------------------------- Iteration      1(   8)  ---------------------------------------


    POTLOK:  cpu time    1.0410: real time    1.0564
    SETDIJ:  cpu time    2.2785: real time    2.3125
     EDDAV:  cpu time  406.0062: real time  409.3163
       DOS:  cpu time    0.0028: real time    0.0028
    CHARGE:  cpu time    9.2354: real time    9.4032
    MIXING:  cpu time    0.0285: real time    0.0295
    --------------------------------------------
      LOOP:  cpu time  418.5923: real time  422.1207

 eigenvalue-minimisations  : 42544
 total energy-change (2. order) : 0.5153436E-03  (-0.3441100E-03)
 number of electron     736.0000016 magnetization     127.9999962
 augmentation part      277.8714119 magnetization      84.1568486

 Broyden mixing:
  rms(total) = 0.53348E-01    rms(broyden)= 0.53344E-01
  rms(prec ) = 0.54566E-01
  weight for this iteration     100.00

 eigenvalues of (default mixing * dielectric matrix)
  average eigenvalue GAMMA=   0.5431
  0.6070  0.6070  0.4155

 Free energy of the ion-electron system (eV)
  ---------------------------------------------------
  alpha Z        PSCENC =      2314.49656628
  Ewald energy   TEWEN  =    -57723.03677363
  -Hartree energ DENC   =    -30347.95368076
  -exchange      EXHF   =         0.00000000
  -V(xc)+E(xc)   XCENC  =      3229.11427409
  PAW double counting   =     92592.58707060   -95447.13963748
  entropy T*S    EENTRO =        -0.00000000
  eigenvalues    EBANDS =    -10550.76430792
  atomic energy  EATOM  =     95443.47970955
  Solvation  Ediel_sol  =         0.00000000
  ---------------------------------------------------
  free energy    TOTEN  =      -489.21677927 eV

  energy without entropy =     -489.21677927  energy(sigma->0) =     -489.21677927


--------------------------------------------------------------------------------------------------------




--------------------------------------- Iteration      1(   9)  ---------------------------------------


    POTLOK:  cpu time    1.0338: real time    1.0735
    SETDIJ:  cpu time    2.2580: real time    2.2971
     EDDAV:  cpu time  437.4239: real time  441.2295
       DOS:  cpu time    0.0028: real time    0.0028
    CHARGE:  cpu time    9.3009: real time    9.3265
    MIXING:  cpu time    0.0404: real time    0.0410
    --------------------------------------------
      LOOP:  cpu time  450.0599: real time  453.9705

 eigenvalue-minimisations  : 46600
 total energy-change (2. order) : 0.3361393E-03  (-0.2112845E-04)
 number of electron     736.0000016 magnetization     127.9999969
 augmentation part      277.8735359 magnetization      84.1567034

 Broyden mixing:
  rms(total) = 0.48274E-01    rms(broyden)= 0.48274E-01
  rms(prec ) = 0.49355E-01
  weight for this iteration     100.00

 eigenvalues of (default mixing * dielectric matrix)
  average eigenvalue GAMMA=   0.5797
  0.6796  0.6796  0.4797  0.4797

 Free energy of the ion-electron system (eV)
  ---------------------------------------------------
  alpha Z        PSCENC =      2314.49656628
  Ewald energy   TEWEN  =    -57723.03677363
  -Hartree energ DENC   =    -30348.01087457
  -exchange      EXHF   =         0.00000000
  -V(xc)+E(xc)   XCENC  =      3229.13204381
  PAW double counting   =     92598.85555870   -95453.48962480
  entropy T*S    EENTRO =        -0.00000000
  eigenvalues    EBANDS =    -10550.64304846
  atomic energy  EATOM  =     95443.47970955
  Solvation  Ediel_sol  =         0.00000000
  ---------------------------------------------------
  free energy    TOTEN  =      -489.21644313 eV

  energy without entropy =     -489.21644313  energy(sigma->0) =     -489.21644313


--------------------------------------------------------------------------------------------------------




--------------------------------------- Iteration      1(  10)  ---------------------------------------


    POTLOK:  cpu time    1.0404: real time    1.0477
    SETDIJ:  cpu time    2.2841: real time    2.3038
     EDDAV:  cpu time  412.4318: real time  416.2582
       DOS:  cpu time    0.0031: real time    0.0053
    CHARGE:  cpu time    9.4075: real time    9.4365
    MIXING:  cpu time    0.0377: real time    1.0651
    --------------------------------------------
      LOOP:  cpu time  425.2046: real time  430.1167

 eigenvalue-minimisations  : 43328
 total energy-change (2. order) : 0.4378443E-03  (-0.1126920E-04)
 number of electron     736.0000016 magnetization     127.9999984
 augmentation part      277.8777919 magnetization      84.1571927

 Broyden mixing:
  rms(total) = 0.40445E-01    rms(broyden)= 0.40445E-01
  rms(prec ) = 0.41279E-01
  weight for this iteration     100.00

 eigenvalues of (default mixing * dielectric matrix)
  average eigenvalue GAMMA=   0.8218
  1.2234  1.2234  0.5893  0.5893  0.4837

 Free energy of the ion-electron system (eV)
  ---------------------------------------------------
  alpha Z        PSCENC =      2314.49656628
  Ewald energy   TEWEN  =    -57723.03677363
  -Hartree energ DENC   =    -30348.16222323
  -exchange      EXHF   =         0.00000000
  -V(xc)+E(xc)   XCENC  =      3229.16369655
  PAW double counting   =     92610.52651892   -95465.31203044
  entropy T*S    EENTRO =        -0.00000000
  eigenvalues    EBANDS =    -10550.37146927
  atomic energy  EATOM  =     95443.47970955
  Solvation  Ediel_sol  =         0.00000000
  ---------------------------------------------------
  free energy    TOTEN  =      -489.21600529 eV

  energy without entropy =     -489.21600529  energy(sigma->0) =     -489.21600529


--------------------------------------------------------------------------------------------------------




--------------------------------------- Iteration      1(  11)  ---------------------------------------


    POTLOK:  cpu time    1.0415: real time    1.0454
    SETDIJ:  cpu time    2.3030: real time    2.3261
     EDDAV:  cpu time  407.7419: real time  410.9776
       DOS:  cpu time    0.0026: real time    0.0026
    CHARGE:  cpu time    9.2023: real time    9.2437
    MIXING:  cpu time    0.0369: real time    0.0369
    --------------------------------------------
      LOOP:  cpu time  420.3282: real time  423.6323

 eigenvalue-minimisations  : 42824
 total energy-change (2. order) : 0.6226646E-03  (-0.3252327E-04)
 number of electron     736.0000016 magnetization     127.9999989
 augmentation part      277.8841336 magnetization      84.1579000

 Broyden mixing:
  rms(total) = 0.22755E-01    rms(broyden)= 0.22755E-01
  rms(prec ) = 0.23098E-01
  weight for this iteration     100.00

 eigenvalues of (default mixing * dielectric matrix)
  average eigenvalue GAMMA=   0.8435
  1.3753  1.3753  0.6470  0.6470  0.5083  0.5083

 Free energy of the ion-electron system (eV)
  ---------------------------------------------------
  alpha Z        PSCENC =      2314.49656628
  Ewald energy   TEWEN  =    -57723.03677363
  -Hartree energ DENC   =    -30348.49936115
  -exchange      EXHF   =         0.00000000
  -V(xc)+E(xc)   XCENC  =      3229.23278791
  PAW double counting   =     92638.75091877   -95493.87712342
  entropy T*S    EENTRO =        -0.00000000
  eigenvalues    EBANDS =    -10549.76210692
  atomic energy  EATOM  =     95443.47970955
  Solvation  Ediel_sol  =         0.00000000
  ---------------------------------------------------
  free energy    TOTEN  =      -489.21538262 eV

  energy without entropy =     -489.21538262  energy(sigma->0) =     -489.21538262


--------------------------------------------------------------------------------------------------------




--------------------------------------- Iteration      1(  12)  ---------------------------------------


    POTLOK:  cpu time    1.0422: real time    1.0431
    SETDIJ:  cpu time    2.3036: real time    2.3052
     EDDAV:  cpu time  362.1617: real time  365.5914
       DOS:  cpu time    0.0027: real time    0.0027
    CHARGE:  cpu time    9.3444: real time    9.3727
    MIXING:  cpu time    0.0587: real time    0.0589
    --------------------------------------------
      LOOP:  cpu time  374.9132: real time  378.3740

 eigenvalue-minimisations  : 37112
 total energy-change (2. order) : 0.8303151E-04  (-0.2011911E-04)
 number of electron     736.0000016 magnetization     127.9999990
 augmentation part      277.8873177 magnetization      84.1579739

 Broyden mixing:
  rms(total) = 0.16419E-01    rms(broyden)= 0.16418E-01
  rms(prec ) = 0.16619E-01
  weight for this iteration     100.00

 eigenvalues of (default mixing * dielectric matrix)
  average eigenvalue GAMMA=   0.8169
  1.4397  1.4397  0.6944  0.6944  0.5123  0.5123  0.4258

 Free energy of the ion-electron system (eV)
  ---------------------------------------------------
  alpha Z        PSCENC =      2314.49656628
  Ewald energy   TEWEN  =    -57723.03677363
  -Hartree energ DENC   =    -30348.60460095
  -exchange      EXHF   =         0.00000000
  -V(xc)+E(xc)   XCENC  =      3229.25424533
  PAW double counting   =     92649.10678958   -95504.34043304
  entropy T*S    EENTRO =        -0.00000000
  eigenvalues    EBANDS =    -10549.57080270
  atomic energy  EATOM  =     95443.47970955
  Solvation  Ediel_sol  =         0.00000000
  ---------------------------------------------------
  free energy    TOTEN  =      -489.21529959 eV

  energy without entropy =     -489.21529959  energy(sigma->0) =     -489.21529959


--------------------------------------------------------------------------------------------------------




--------------------------------------- Iteration      1(  13)  ---------------------------------------


    POTLOK:  cpu time    1.0436: real time    1.0490
    SETDIJ:  cpu time    2.2855: real time    2.2970
     EDDAV:  cpu time  380.5218: real time  384.5880
       DOS:  cpu time    0.0025: real time    0.0026
    CHARGE:  cpu time    9.2055: real time    9.2727
    MIXING:  cpu time    0.0416: real time    0.0416
    --------------------------------------------
      LOOP:  cpu time  393.1005: real time  397.2509

 eigenvalue-minimisations  : 39504
 total energy-change (2. order) :-0.6006478E-05  (-0.3787923E-05)
 number of electron     736.0000016 magnetization     127.9999991
 augmentation part      277.8891043 magnetization      84.1579429

 Broyden mixing:
  rms(total) = 0.15754E-01    rms(broyden)= 0.15754E-01
  rms(prec ) = 0.15940E-01
  weight for this iteration     100.00

 eigenvalues of (default mixing * dielectric matrix)
  average eigenvalue GAMMA=   0.8562
  1.6042  1.6042  0.8240  0.8240  0.5383  0.5383  0.4581  0.4581

 Free energy of the ion-electron system (eV)
  ---------------------------------------------------
  alpha Z        PSCENC =      2314.49656628
  Ewald energy   TEWEN  =    -57723.03677363
  -Hartree energ DENC   =    -30348.61486072
  -exchange      EXHF   =         0.00000000
  -V(xc)+E(xc)   XCENC  =      3229.25529315
  PAW double counting   =     92650.25235926   -95505.49082224
  entropy T*S    EENTRO =        -0.00000000
  eigenvalues    EBANDS =    -10549.55677724
  atomic energy  EATOM  =     95443.47970955
  Solvation  Ediel_sol  =         0.00000000
  ---------------------------------------------------
  free energy    TOTEN  =      -489.21530560 eV

  energy without entropy =     -489.21530560  energy(sigma->0) =     -489.21530560


--------------------------------------------------------------------------------------------------------




--------------------------------------- Iteration      1(  14)  ---------------------------------------


    POTLOK:  cpu time    1.0370: real time    1.0475
    SETDIJ:  cpu time    2.2784: real time    2.3035
     EDDAV:  cpu time  252.0172: real time  254.4651
       DOS:  cpu time    0.0025: real time    0.0025
    CHARGE:  cpu time    9.2747: real time    9.3139
    MIXING:  cpu time    0.0404: real time    0.0404
    --------------------------------------------
      LOOP:  cpu time  264.6502: real time  267.1729

 eigenvalue-minimisations  : 22816
 total energy-change (2. order) : 0.2282803E-05  (-0.7583761E-07)
 number of electron     736.0000016 magnetization     128.0000002
 augmentation part      277.8892165 magnetization      84.1579334

 Broyden mixing:
  rms(total) = 0.14471E-01    rms(broyden)= 0.14471E-01
  rms(prec ) = 0.14662E-01
  weight for this iteration     100.00

 eigenvalues of (default mixing * dielectric matrix)
  average eigenvalue GAMMA=   1.0817
  2.4053  2.4053  1.0180  1.0180  0.6584  0.6584  0.5506  0.5506  0.4706

 Free energy of the ion-electron system (eV)
  ---------------------------------------------------
  alpha Z        PSCENC =      2314.49656628
  Ewald energy   TEWEN  =    -57723.03677363
  -Hartree energ DENC   =    -30348.62965444
  -exchange      EXHF   =         0.00000000
  -V(xc)+E(xc)   XCENC  =      3229.25739781
  PAW double counting   =     92652.96344825   -95508.21733248
  entropy T*S    EENTRO =        -0.00000000
  eigenvalues    EBANDS =    -10549.52866465
  atomic energy  EATOM  =     95443.47970955
  Solvation  Ediel_sol  =         0.00000000
  ---------------------------------------------------
  free energy    TOTEN  =      -489.21530332 eV

  energy without entropy =     -489.21530332  energy(sigma->0) =     -489.21530332


--------------------------------------------------------------------------------------------------------




--------------------------------------- Iteration      1(  15)  ---------------------------------------


    POTLOK:  cpu time    1.0438: real time    1.0448
    SETDIJ:  cpu time    2.2958: real time    2.2980
     EDDAV:  cpu time  384.7822: real time  388.2301
       DOS:  cpu time    0.0025: real time    0.0025
    CHARGE:  cpu time    9.3277: real time    9.3375
    MIXING:  cpu time    0.0411: real time    0.0411
    --------------------------------------------
      LOOP:  cpu time  397.4931: real time  400.9540

 eigenvalue-minimisations  : 39816
 total energy-change (2. order) : 0.6616875E-04  (-0.4016735E-05)
 number of electron     736.0000016 magnetization     128.0000004
 augmentation part      277.8905167 magnetization      84.1585535

 Broyden mixing:
  rms(total) = 0.36236E-02    rms(broyden)= 0.36218E-02
  rms(prec ) = 0.36870E-02
  weight for this iteration     100.00

 eigenvalues of (default mixing * dielectric matrix)
  average eigenvalue GAMMA=   1.0666
  2.4305  2.4305  1.0908  1.0908  0.7324  0.7324  0.5907  0.5907  0.5030  0.4748

 Free energy of the ion-electron system (eV)
  ---------------------------------------------------
  alpha Z        PSCENC =      2314.49656628
  Ewald energy   TEWEN  =    -57723.03677363
  -Hartree energ DENC   =    -30348.82070729
  -exchange      EXHF   =         0.00000000
  -V(xc)+E(xc)   XCENC  =      3229.28980010
  PAW double counting   =     92673.53245113   -95528.96716226
  entropy T*S    EENTRO =        -0.00000000
  eigenvalues    EBANDS =    -10549.18912102
  atomic energy  EATOM  =     95443.47970955
  Solvation  Ediel_sol  =         0.00000000
  ---------------------------------------------------
  free energy    TOTEN  =      -489.21523715 eV

  energy without entropy =     -489.21523715  energy(sigma->0) =     -489.21523715


--------------------------------------------------------------------------------------------------------




--------------------------------------- Iteration      1(  16)  ---------------------------------------


    POTLOK:  cpu time    1.0414: real time    1.0426
    SETDIJ:  cpu time    2.2862: real time    2.2987
     EDDAV:  cpu time  312.2094: real time  315.3390
       DOS:  cpu time    0.0026: real time    0.0026
    CHARGE:  cpu time    9.3394: real time    9.3473
    MIXING:  cpu time    0.0404: real time    0.0485
    --------------------------------------------
      LOOP:  cpu time  324.9195: real time  328.0788

 eigenvalue-minimisations  : 30584
 total energy-change (2. order) : 0.1482942E-05  (-0.4354711E-05)
 number of electron     736.0000016 magnetization     128.0000004
 augmentation part      277.8922333 magnetization      84.1581013

 Broyden mixing:
  rms(total) = 0.12495E-02    rms(broyden)= 0.12441E-02
  rms(prec ) = 0.12593E-02
  weight for this iteration     100.00

 eigenvalues of (default mixing * dielectric matrix)
  average eigenvalue GAMMA=   1.0197
  2.4156  2.4156  1.1306  1.1306  0.7562  0.7562  0.5908  0.5908  0.4893  0.4706
  0.4706

 Free energy of the ion-electron system (eV)
  ---------------------------------------------------
  alpha Z        PSCENC =      2314.49656628
  Ewald energy   TEWEN  =    -57723.03677363
  -Hartree energ DENC   =    -30348.86479298
  -exchange      EXHF   =         0.00000000
  -V(xc)+E(xc)   XCENC  =      3229.29737480
  PAW double counting   =     92677.69708851   -95533.17164100
  entropy T*S    EENTRO =        -0.00000000
  eigenvalues    EBANDS =    -10549.11276718
  atomic energy  EATOM  =     95443.47970955
  Solvation  Ediel_sol  =         0.00000000
  ---------------------------------------------------
  free energy    TOTEN  =      -489.21523567 eV

  energy without entropy =     -489.21523567  energy(sigma->0) =     -489.21523567


--------------------------------------------------------------------------------------------------------




--------------------------------------- Iteration      1(  17)  ---------------------------------------


    POTLOK:  cpu time    1.0452: real time    1.0462
    SETDIJ:  cpu time    2.2961: real time    2.3099
     EDDAV:  cpu time  293.9866: real time  296.7150
       DOS:  cpu time    0.0025: real time    0.0025
    --------------------------------------------
      LOOP:  cpu time  297.3304: real time  300.0736

 eigenvalue-minimisations  : 28320
 total energy-change (2. order) :-0.2931629E-06  (-0.2864718E-06)
 number of electron     736.0000016 magnetization     128.0000004
 augmentation part      277.8922333 magnetization      84.1581013

 Free energy of the ion-electron system (eV)
  ---------------------------------------------------
  alpha Z        PSCENC =      2314.49656628
  Ewald energy   TEWEN  =    -57723.03677363
  -Hartree energ DENC   =    -30348.86536385
  -exchange      EXHF   =         0.00000000
  -V(xc)+E(xc)   XCENC  =      3229.29788921
  PAW double counting   =     92678.35578143   -95533.83366348
  entropy T*S    EENTRO =        -0.00000000
  eigenvalues    EBANDS =    -10549.10938146
  atomic energy  EATOM  =     95443.47970955
  Solvation  Ediel_sol  =         0.00000000
  ---------------------------------------------------
  free energy    TOTEN  =      -489.21523596 eV

  energy without entropy =     -489.21523596  energy(sigma->0) =     -489.21523596


--------------------------------------------------------------------------------------------------------




 average (electrostatic) potential at core
  the test charge radii are     0.7079  0.7215  0.9698  0.9500
  (the norm of the test charge is              1.0000)
       1 -58.9502       2 -58.9508       3 -58.9476       4 -58.9481       5 -58.9483
       6 -58.9481       7 -58.9485       8 -58.9480       9 -58.9487      10 -58.9489
      11 -58.9479      12 -58.9476      13 -58.9499      14 -58.9484      15 -58.9492
      16 -58.9491      17 -69.8160      18 -69.8158      19 -69.8167      20 -69.8165
      21 -69.8170      22 -69.8166      23 -69.8162      24 -69.8159      25 -69.8110
      26 -69.8159      27 -69.8172      28 -69.8166      29 -69.8167      30 -69.8216
      31 -69.8161      32 -69.8155      33 -85.5819      34 -85.5802      35 -85.5792
      36 -85.5795      37 -85.5793      38 -85.5777      39 -85.5801      40 -85.5804
      41 -85.5803      42 -85.5802      43 -85.5795      44 -85.5796      45 -85.5795
      46 -85.5791      47 -85.5801      48 -85.5799      49 -85.6414      50 -85.6392
      51 -85.6381      52 -85.6385      53 -85.6385      54 -85.6363      55 -85.6391
      56 -85.6395      57 -78.5733      58 -78.5738      59 -78.5744      60 -78.5743
      61 -78.5750      62 -78.5743      63 -78.5739      64 -78.5738      65 -78.5724
      66 -78.5733      67 -78.5746      68 -78.5743      69 -78.5749      70 -78.5759
      71 -78.5739      72 -78.5736      73 -78.5852      74 -78.5823      75 -78.5788
      76 -78.5817      77 -78.5911      78 -78.5920      79 -78.5916      80 -78.5915
      81 -78.5926      82 -78.5919      83 -78.5912      84 -78.5905      85 -78.5820
      86 -78.5820      87 -78.5820      88 -78.5820
 
 
 
 E-fermi :   5.2039     XC(G=0): -10.4850     alpha+bet :-11.8156


 spin component 1

 k-point     1 :       0.0000    0.0000    0.0000
  band No.  band energies     occupation 
      1     -51.0557      1.00000
      2     -51.0551      1.00000
      3     -51.0547      1.00000
      4     -51.0546      1.00000
      5     -51.0542      1.00000
      6     -51.0537      1.00000
      7     -51.0536      1.00000
      8     -51.0535      1.00000
      9     -51.0529      1.00000
     10     -51.0526      1.00000
     11     -51.0525      1.00000
     12     -51.0523      1.00000
     13     -51.0519      1.00000
     14     -51.0511      1.00000
     15     -51.0510      1.00000
     16     -51.0500      1.00000
     17     -51.0450      1.00000
     18     -51.0448      1.00000
     19     -51.0444      1.00000
     20     -51.0441      1.00000
     21     -51.0440      1.00000
     22     -51.0436      1.00000
     23     -51.0433      1.00000
     24     -51.0432      1.00000
     25     -51.0423      1.00000
     26     -51.0397      1.00000
     27     -51.0395      1.00000
     28     -51.0394      1.00000
     29     -51.0394      1.00000
     30     -51.0393      1.00000
     31     -51.0391      1.00000
     32     -51.0364      1.00000
     33     -49.7025      1.00000
     34     -49.7020      1.00000
     35     -49.7019      1.00000
     36     -49.7016      1.00000
     37     -49.7016      1.00000
     38     -49.7013      1.00000
     39     -49.7011      1.00000
     40     -49.7006      1.00000
     41     -49.6969      1.00000
     42     -49.6943      1.00000
     43     -49.6941      1.00000
     44     -49.6941      1.00000
     45     -49.6940      1.00000
     46     -49.6940      1.00000
     47     -49.6937      1.00000
     48     -49.6911      1.00000
     49     -49.5990      1.00000
     50     -49.5982      1.00000
     51     -49.5977      1.00000
     52     -49.5976      1.00000
     53     -49.5974      1.00000
     54     -49.5971      1.00000
     55     -49.5968      1.00000
     56     -49.5968      1.00000
     57     -49.5966      1.00000
     58     -49.5964      1.00000
     59     -49.5960      1.00000
     60     -49.5960      1.00000
     61     -49.5958      1.00000
     62     -49.5958      1.00000
     63     -49.5954      1.00000
     64     -49.5947      1.00000
     65     -49.5676      1.00000
     66     -49.5670      1.00000
     67     -49.5664      1.00000
     68     -49.5662      1.00000
     69     -49.5661      1.00000
     70     -49.5660      1.00000
     71     -49.5655      1.00000
     72     -49.5651      1.00000
     73     -49.5648      1.00000
     74     -49.5647      1.00000
     75     -49.5642      1.00000
     76     -49.5641      1.00000
     77     -49.5641      1.00000
     78     -49.5639      1.00000
     79     -49.5635      1.00000
     80     -49.5631      1.00000
     81     -49.5553      1.00000
     82     -49.5545      1.00000
     83     -49.5543      1.00000
     84     -49.5541      1.00000
     85     -49.5541      1.00000
     86     -49.5539      1.00000
     87     -49.5538      1.00000
     88     -49.5530      1.00000
     89     -49.5427      1.00000
     90     -49.5397      1.00000
     91     -49.5395      1.00000
     92     -49.5395      1.00000
     93     -49.5394      1.00000
     94     -49.5394      1.00000
     95     -49.5391      1.00000
     96     -49.5362      1.00000
     97     -39.8672      1.00000
     98     -39.8666      1.00000
     99     -39.8664      1.00000
    100     -39.8660      1.00000
    101     -39.8657      1.00000
    102     -39.8655      1.00000
    103     -39.8655      1.00000
    104     -39.8653      1.00000
    105     -39.8653      1.00000
    106     -39.8651      1.00000
    107     -39.8650      1.00000
    108     -39.8649      1.00000
    109     -39.8646      1.00000
    110     -39.8644      1.00000
    111     -39.8643      1.00000
    112     -39.8638      1.00000
    113     -13.2251      1.00000
    114     -13.2248      1.00000
    115     -13.2104      1.00000
    116     -13.1836      1.00000
    117     -13.1015      1.00000
    118     -13.0998      1.00000
    119     -13.0982      1.00000
    120     -13.0932      1.00000
    121     -13.0859      1.00000
    122     -13.0808      1.00000
    123     -13.0793      1.00000
    124     -13.0774      1.00000
    125     -12.9882      1.00000
    126     -12.9774      1.00000
    127     -12.9419      1.00000
    128     -12.9417      1.00000
    129      -7.6453      1.00000
    130      -7.4069      1.00000
    131      -7.3267      1.00000
    132      -7.3257      1.00000
    133      -7.3104      1.00000
    134      -7.3093      1.00000
    135      -7.3081      1.00000
    136      -7.3069      1.00000
    137      -7.1695      1.00000
    138      -7.1574      1.00000
    139      -7.1243      1.00000
    140      -7.1234      1.00000
    141      -7.0366      1.00000
    142      -7.0219      1.00000
    143      -7.0023      1.00000
    144      -7.0018      1.00000
    145      -6.9412      1.00000
    146      -6.9406      1.00000
    147      -6.8876      1.00000
    148      -6.8869      1.00000
    149      -6.8654      1.00000
    150      -6.8619      1.00000
    151      -6.8345      1.00000
    152      -6.8038      1.00000
    153      -1.9356      1.00000
    154      -1.9355      1.00000
    155      -1.9105      1.00000
    156      -1.8936      1.00000
    157      -1.6666      1.00000
    158      -1.6663      1.00000
    159      -1.6586      1.00000
    160      -1.6573      1.00000
    161      -1.5997      1.00000
    162      -1.5980      1.00000
    163      -1.5864      1.00000
    164      -1.5860      1.00000
    165      -1.2982      1.00000
    166      -1.1751      1.00000
    167      -1.1743      1.00000
    168      -1.1135      1.00000
    169      -1.1129      1.00000
    170      -1.1072      1.00000
    171      -1.0494      1.00000
    172      -0.9809      1.00000
    173      -0.9646      1.00000
    174      -0.9596      1.00000
    175      -0.9578      1.00000
    176      -0.9574      1.00000
    177      -0.9470      1.00000
    178      -0.9451      1.00000
    179      -0.9229      1.00000
    180      -0.8713      1.00000
    181      -0.8712      1.00000
    182      -0.8035      1.00000
    183      -0.8027      1.00000
    184      -0.8026      1.00000
    185      -0.7753      1.00000
    186      -0.7741      1.00000
    187      -0.7739      1.00000
    188      -0.7609      1.00000
    189      -0.7169      1.00000
    190      -0.7163      1.00000
    191      -0.7067      1.00000
    192      -0.7048      1.00000
    193      -0.6992      1.00000
    194      -0.6989      1.00000
    195      -0.6088      1.00000
    196      -0.6085      1.00000
    197      -0.5616      1.00000
    198      -0.5614      1.00000
    199      -0.5495      1.00000
    200      -0.5480      1.00000
    201      -0.4081      1.00000
    202      -0.4081      1.00000
    203      -0.3573      1.00000
    204      -0.3481      1.00000
    205      -0.3297      1.00000
    206      -0.3292      1.00000
    207      -0.2985      1.00000
    208      -0.2984      1.00000
    209      -0.2814      1.00000
    210      -0.2693      1.00000
    211      -0.2628      1.00000
    212      -0.2558      1.00000
    213      -0.2551      1.00000
    214      -0.2090      1.00000
    215      -0.2089      1.00000
    216      -0.1886      1.00000
    217      -0.1867      1.00000
    218      -0.1867      1.00000
    219      -0.1759      1.00000
    220      -0.1580      1.00000
    221      -0.1255      1.00000
    222      -0.1254      1.00000
    223      -0.1093      1.00000
    224      -0.0708      1.00000
    225      -0.0703      1.00000
    226      -0.0605      1.00000
    227      -0.0434      1.00000
    228      -0.0176      1.00000
    229      -0.0173      1.00000
    230      -0.0115      1.00000
    231       0.0016      1.00000
    232       0.0018      1.00000
    233       0.0462      1.00000
    234       0.0495      1.00000
    235       0.0495      1.00000
    236       0.0913      1.00000
    237       0.0933      1.00000
    238       0.1184      1.00000
    239       0.1186      1.00000
    240       0.1577      1.00000
    241       0.1626      1.00000
    242       0.1768      1.00000
    243       0.1792      1.00000
    244       0.1820      1.00000
    245       0.1821      1.00000
    246       0.1855      1.00000
    247       0.1892      1.00000
    248       0.1933      1.00000
    249       0.1941      1.00000
    250       0.2008      1.00000
    251       0.2011      1.00000
    252       0.2388      1.00000
    253       0.2511      1.00000
    254       0.2569      1.00000
    255       0.2570      1.00000
    256       0.2767      1.00000
    257       0.3374      1.00000
    258       0.3474      1.00000
    259       0.3589      1.00000
    260       0.3590      1.00000
    261       0.3604      1.00000
    262       0.3604      1.00000
    263       0.3882      1.00000
    264       0.4017      1.00000
    265       0.4526      1.00000
    266       0.4526      1.00000
    267       0.5789      1.00000
    268       0.5789      1.00000
    269       0.5844      1.00000
    270       0.6020      1.00000
    271       0.6020      1.00000
    272       0.6065      1.00000
    273       0.6080      1.00000
    274       0.6400      1.00000
    275       0.6511      1.00000
    276       0.6513      1.00000
    277       0.6621      1.00000
    278       0.6623      1.00000
    279       0.6655      1.00000
    280       0.6732      1.00000
    281       0.6749      1.00000
    282       0.6749      1.00000
    283       0.6967      1.00000
    284       0.7229      1.00000
    285       0.7833      1.00000
    286       0.8197      1.00000
    287       0.8295      1.00000
    288       0.8321      1.00000
    289       0.8322      1.00000
    290       0.8612      1.00000
    291       0.8613      1.00000
    292       0.9094      1.00000
    293       0.9405      1.00000
    294       0.9482      1.00000
    295       0.9483      1.00000
    296       0.9831      1.00000
    297       1.0258      1.00000
    298       1.0704      1.00000
    299       1.2694      1.00000
    300       1.2981      1.00000
    301       1.2983      1.00000
    302       1.3117      1.00000
    303       1.3330      1.00000
    304       1.3333      1.00000
    305       1.3378      1.00000
    306       1.3844      1.00000
    307       1.4052      1.00000
    308       1.4283      1.00000
    309       1.4670      1.00000
    310       1.4678      1.00000
    311       1.4681      1.00000
    312       1.4815      1.00000
    313       1.5109      1.00000
    314       1.5110      1.00000
    315       1.5408      1.00000
    316       1.5613      1.00000
    317       1.5769      1.00000
    318       1.6464      1.00000
    319       1.6554      1.00000
    320       1.7561      1.00000
    321       1.7565      1.00000
    322       1.7631      1.00000
    323       1.7783      1.00000
    324       1.8029      1.00000
    325       1.8029      1.00000
    326       1.8108      1.00000
    327       1.8232      1.00000
    328       1.8366      1.00000
    329       1.8366      1.00000
    330       1.8461      1.00000
    331       1.8468      1.00000
    332       1.8784      1.00000
    333       1.8900      1.00000
    334       1.9469      1.00000
    335       1.9933      1.00000
    336       1.9936      1.00000
    337       2.0064      1.00000
    338       2.0065      1.00000
    339       2.0100      1.00000
    340       2.0187      1.00000
    341       2.0202      1.00000
    342       2.0204      1.00000
    343       2.0396      1.00000
    344       2.0468      1.00000
    345       2.0469      1.00000
    346       2.0572      1.00000
    347       2.0687      1.00000
    348       2.0690      1.00000
    349       2.0917      1.00000
    350       2.1129      1.00000
    351       2.1907      1.00000
    352       2.1908      1.00000
    353       2.2468      1.00000
    354       2.2473      1.00000
    355       2.2705      1.00000
    356       2.2731      1.00000
    357       2.2846      1.00000
    358       2.4278      1.00000
    359       2.4664      1.00000
    360       2.4665      1.00000
    361       2.4776      1.00000
    362       2.5036      1.00000
    363       2.5276      1.00000
    364       2.5544      1.00000
    365       2.5921      1.00000
    366       2.6266      1.00000
    367       2.6269      1.00000
    368       2.6561      1.00000
    369       2.7375      1.00000
    370       2.7385      1.00000
    371       2.7609      1.00000
    372       2.7619      1.00000
    373       2.8339      1.00000
    374       2.8727      1.00000
    375       2.9266      1.00000
    376       2.9344      1.00000
    377       2.9344      1.00000
    378       2.9687      1.00000
    379       3.0271      1.00000
    380       3.0280      1.00000
    381       3.0616      1.00000
    382       3.0969      1.00000
    383       3.3079      1.00000
    384       3.3105      1.00000
    385       3.3481      1.00000
    386       3.3757      1.00000
    387       3.4214      1.00000
    388       3.4219      1.00000
    389       3.4405      1.00000
    390       3.4581      1.00000
    391       3.4589      1.00000
    392       3.5316      1.00000
    393       3.7479      1.00000
    394       3.8081      1.00000
    395       3.8092      1.00000
    396       3.8152      1.00000
    397       3.8153      1.00000
    398       3.8824      1.00000
    399       3.8827      1.00000
    400       3.9324      1.00000
    401       3.9350      1.00000
    402       3.9404      1.00000
    403       3.9407      1.00000
    404       4.0392      1.00000
    405       4.0394      1.00000
    406       4.0703      1.00000
    407       4.1385      1.00000
    408       4.1491      1.00000
    409       4.1512      1.00000
    410       4.3148      1.00000
    411       4.3182      1.00000
    412       4.3379      1.00000
    413       4.3584      1.00000
    414       4.3585      1.00000
    415       4.4286      1.00000
    416       4.4444      1.00000
    417       4.4461      1.00000
    418       4.4541      1.00000
[...]
   -.798E-03 -.253E-02 -.259E+02   0.422E-03 0.353E-02 0.257E+02   0.192E-03 -.769E-03 0.251E+00   -.131E-05 0.635E-05 0.396E-04
   -.105E-03 0.165E-02 -.259E+02   0.425E-03 -.797E-03 0.257E+02   -.202E-03 -.735E-03 0.251E+00   0.921E-06 0.329E-06 0.348E-04
   -.204E-02 -.260E-02 -.259E+02   0.168E-02 0.361E-02 0.257E+02   0.196E-03 -.769E-03 0.250E+00   -.194E-04 -.148E-05 0.195E-04
   0.664E-02 0.254E-01 -.421E+02   -.557E-02 -.264E-01 0.420E+02   -.870E-03 0.142E-03 0.114E-01   0.611E-05 -.683E-05 -.269E-04
   0.671E-02 0.243E-01 -.421E+02   -.551E-02 -.253E-01 0.420E+02   -.948E-03 0.120E-03 0.102E-01   0.412E-05 0.222E-05 -.220E-04
   0.550E-02 0.408E-02 -.421E+02   -.553E-02 -.211E-02 0.420E+02   -.168E-03 -.168E-02 0.106E-01   0.419E-05 0.532E-05 -.177E-04
   0.562E-02 0.494E-02 -.421E+02   -.555E-02 -.299E-02 0.420E+02   -.231E-03 -.168E-02 0.110E-01   0.664E-05 0.156E-04 -.213E-04
   0.159E+02 0.149E+02 -.126E+03   -.163E+02 -.153E+02 0.131E+03   0.388E+00 0.382E+00 -.463E+01   0.253E-04 0.111E-03 -.132E-04
   0.159E+02 0.149E+02 -.126E+03   -.163E+02 -.153E+02 0.131E+03   0.384E+00 0.381E+00 -.463E+01   0.121E-04 0.683E-04 0.456E-05
   0.159E+02 0.149E+02 -.126E+03   -.163E+02 -.153E+02 0.131E+03   0.387E+00 0.378E+00 -.463E+01   -.809E-04 0.467E-04 -.147E-04
   0.159E+02 0.149E+02 -.126E+03   -.163E+02 -.153E+02 0.131E+03   0.387E+00 0.379E+00 -.463E+01   -.105E-04 0.102E-03 0.136E-04
   -.159E+02 -.149E+02 -.126E+03   0.163E+02 0.153E+02 0.131E+03   -.392E+00 -.378E+00 -.463E+01   0.530E-04 -.565E-04 0.157E-04
   -.159E+02 -.149E+02 -.126E+03   0.163E+02 0.152E+02 0.131E+03   -.388E+00 -.377E+00 -.463E+01   -.171E-04 -.742E-04 0.328E-04
   -.159E+02 -.149E+02 -.126E+03   0.163E+02 0.153E+02 0.131E+03   -.389E+00 -.380E+00 -.463E+01   0.355E-04 -.300E-04 -.121E-04
   -.159E+02 -.149E+02 -.126E+03   0.163E+02 0.153E+02 0.131E+03   -.389E+00 -.382E+00 -.463E+01   -.697E-04 -.138E-03 -.201E-05
   0.164E+02 -.150E+02 0.126E+03   -.168E+02 0.154E+02 -.131E+03   0.438E+00 -.394E+00 0.463E+01   -.203E-03 0.711E-04 -.113E-05
   0.159E+02 -.149E+02 0.126E+03   -.163E+02 0.152E+02 -.131E+03   0.388E+00 -.378E+00 0.463E+01   -.729E-04 -.471E-06 -.920E-05
   0.159E+02 -.150E+02 0.126E+03   -.163E+02 0.153E+02 -.131E+03   0.388E+00 -.384E+00 0.463E+01   0.877E-04 -.212E-03 -.284E-04
   0.159E+02 -.149E+02 0.126E+03   -.163E+02 0.153E+02 -.131E+03   0.390E+00 -.380E+00 0.463E+01   -.238E-04 -.534E-04 -.296E-04
   -.159E+02 0.149E+02 0.126E+03   0.163E+02 -.153E+02 -.131E+03   -.388E+00 0.381E+00 0.463E+01   0.472E-04 0.841E-04 -.250E-04
   -.154E+02 0.148E+02 0.126E+03   0.158E+02 -.151E+02 -.131E+03   -.338E+00 0.366E+00 0.462E+01   -.212E-03 0.285E-03 0.229E-04
   -.159E+02 0.149E+02 0.126E+03   0.163E+02 -.153E+02 -.131E+03   -.386E+00 0.379E+00 0.463E+01   0.711E-04 0.132E-04 -.128E-05
   -.159E+02 0.148E+02 0.126E+03   0.163E+02 -.152E+02 -.131E+03   -.388E+00 0.375E+00 0.463E+01   0.867E-04 -.223E-05 0.243E-04
   0.279E+02 0.282E+02 0.332E+02   -.283E+02 -.286E+02 -.337E+02   0.346E+00 0.356E+00 0.514E+00   -.753E-05 0.420E-04 0.437E-04
   0.280E+02 0.282E+02 0.333E+02   -.284E+02 -.286E+02 -.339E+02   0.352E+00 0.354E+00 0.518E+00   -.107E-06 0.109E-05 0.149E-04
   0.280E+02 0.281E+02 0.334E+02   -.284E+02 -.285E+02 -.339E+02   0.351E+00 0.351E+00 0.520E+00   -.340E-04 -.655E-06 0.628E-04
   0.280E+02 0.282E+02 0.333E+02   -.283E+02 -.285E+02 -.339E+02   0.350E+00 0.352E+00 0.519E+00   -.169E-04 -.475E-06 0.406E-04
   -.279E+02 -.282E+02 0.333E+02   0.283E+02 0.286E+02 -.338E+02   -.348E+00 -.353E+00 0.520E+00   0.240E-04 -.232E-04 0.658E-04
   -.280E+02 -.282E+02 0.335E+02   0.284E+02 0.286E+02 -.340E+02   -.353E+00 -.351E+00 0.523E+00   0.307E-04 -.289E-04 0.399E-04
   -.279E+02 -.282E+02 0.333E+02   0.283E+02 0.286E+02 -.338E+02   -.350E+00 -.355E+00 0.519E+00   0.217E-04 -.251E-04 0.207E-04
   -.279E+02 -.283E+02 0.333E+02   0.283E+02 0.286E+02 -.338E+02   -.348E+00 -.356E+00 0.518E+00   -.971E-05 -.529E-04 0.142E-04
   0.279E+02 -.282E+02 -.333E+02   -.283E+02 0.286E+02 0.338E+02   0.350E+00 -.353E+00 -.518E+00   -.647E-05 -.360E-04 -.411E-04
   0.279E+02 -.282E+02 -.333E+02   -.283E+02 0.286E+02 0.338E+02   0.348E+00 -.353E+00 -.520E+00   -.127E-04 -.297E-04 0.202E-05
   0.279E+02 -.282E+02 -.333E+02   -.283E+02 0.286E+02 0.338E+02   0.349E+00 -.355E+00 -.519E+00   -.101E-04 -.294E-04 -.475E-04
   0.279E+02 -.282E+02 -.333E+02   -.283E+02 0.286E+02 0.338E+02   0.349E+00 -.354E+00 -.519E+00   -.166E-04 -.160E-04 -.131E-04
   -.280E+02 0.282E+02 -.333E+02   0.283E+02 -.286E+02 0.338E+02   -.350E+00 0.354E+00 -.518E+00   0.297E-04 -.176E-04 -.988E-05
   -.280E+02 0.282E+02 -.333E+02   0.284E+02 -.286E+02 0.339E+02   -.351E+00 0.354E+00 -.519E+00   0.551E-05 0.215E-04 -.390E-04
   -.280E+02 0.282E+02 -.333E+02   0.284E+02 -.285E+02 0.339E+02   -.350E+00 0.352E+00 -.519E+00   0.259E-04 0.309E-04 -.220E-04
   -.280E+02 0.282E+02 -.333E+02   0.284E+02 -.285E+02 0.339E+02   -.350E+00 0.353E+00 -.519E+00   0.158E-04 0.191E-04 -.474E-05
   0.980E+01 0.664E-01 0.122E+00   -.992E+01 -.694E-01 -.125E+00   0.111E+00 0.390E-02 0.447E-02   -.174E-05 0.652E-04 -.143E-04
   0.991E+01 0.613E-01 -.134E-02   -.100E+02 -.621E-01 0.129E-02   0.115E+00 0.105E-02 0.525E-03   0.599E-05 0.166E-04 -.783E-05
   0.991E+01 0.205E-02 -.270E-01   -.100E+02 -.135E-02 0.276E-01   0.115E+00 -.167E-02 -.958E-03   -.458E-04 -.257E-04 -.882E-05
   0.989E+01 0.330E-01 -.130E-01   -.100E+02 -.328E-01 0.131E-01   0.114E+00 -.606E-03 0.113E-03   -.451E-04 -.994E-05 -.388E-04
   -.989E+01 0.614E-01 0.183E-02   0.100E+02 -.622E-01 -.168E-02   -.114E+00 0.106E-02 -.598E-03   0.520E-04 0.163E-04 -.300E-04
   -.999E+01 0.650E-01 -.122E+00   0.101E+02 -.679E-01 0.125E+00   -.119E+00 0.380E-02 -.447E-02   0.386E-04 0.662E-04 -.248E-05
   -.991E+01 0.327E-01 0.128E-01   0.100E+02 -.326E-01 -.127E-01   -.115E+00 -.572E-03 -.192E-03   0.404E-04 0.276E-04 0.183E-04
   -.989E+01 0.228E-02 0.275E-01   0.100E+02 -.157E-02 -.282E-01   -.114E+00 -.168E-02 0.105E-02   0.598E-06 -.283E-04 0.181E-04
   0.190E+02 0.190E+02 0.185E+03   -.179E+02 -.179E+02 -.183E+03   -.106E+01 -.108E+01 -.240E+01   0.644E-04 0.512E-04 -.154E-03
   0.190E+02 0.190E+02 0.185E+03   -.180E+02 -.179E+02 -.183E+03   -.106E+01 -.108E+01 -.241E+01   0.781E-04 0.287E-04 -.127E-03
   0.190E+02 0.189E+02 0.185E+03   -.180E+02 -.178E+02 -.183E+03   -.106E+01 -.109E+01 -.241E+01   0.682E-04 0.670E-04 -.966E-04
   0.190E+02 0.189E+02 0.185E+03   -.180E+02 -.178E+02 -.183E+03   -.106E+01 -.109E+01 -.241E+01   0.599E-04 0.786E-04 -.113E-03
   -.189E+02 -.188E+02 0.185E+03   0.179E+02 0.177E+02 -.183E+03   0.107E+01 0.109E+01 -.242E+01   -.181E-05 -.932E-04 -.186E-03
   -.189E+02 -.188E+02 0.185E+03   0.178E+02 0.178E+02 -.183E+03   0.106E+01 0.109E+01 -.241E+01   -.222E-04 -.889E-04 -.162E-03
   -.189E+02 -.189E+02 0.185E+03   0.178E+02 0.178E+02 -.183E+03   0.106E+01 0.108E+01 -.241E+01   0.239E-04 -.892E-04 -.159E-03
   -.189E+02 -.189E+02 0.185E+03   0.178E+02 0.178E+02 -.183E+03   0.106E+01 0.108E+01 -.241E+01   -.641E-04 -.109E-03 -.170E-03
   0.191E+02 -.188E+02 -.185E+03   -.180E+02 0.178E+02 0.182E+03   -.106E+01 0.109E+01 0.242E+01   -.119E-04 -.720E-04 0.188E-03
   0.189E+02 -.188E+02 -.185E+03   -.178E+02 0.178E+02 0.183E+03   -.107E+01 0.109E+01 0.241E+01   -.297E-05 -.740E-04 0.276E-03
   0.189E+02 -.190E+02 -.185E+03   -.178E+02 0.179E+02 0.183E+03   -.106E+01 0.108E+01 0.241E+01   0.257E-04 -.957E-04 0.158E-03
   0.189E+02 -.189E+02 -.185E+03   -.179E+02 0.178E+02 0.183E+03   -.106E+01 0.108E+01 0.241E+01   0.222E-04 -.926E-04 0.172E-03
   -.190E+02 0.190E+02 -.185E+03   0.180E+02 -.179E+02 0.183E+03   0.106E+01 -.108E+01 0.241E+01   -.506E-04 0.783E-04 0.122E-03
   -.189E+02 0.190E+02 -.185E+03   0.178E+02 -.179E+02 0.183E+03   0.107E+01 -.108E+01 0.239E+01   -.112E-03 0.115E-03 0.125E-03
   -.190E+02 0.189E+02 -.185E+03   0.179E+02 -.178E+02 0.183E+03   0.106E+01 -.109E+01 0.241E+01   -.438E-04 0.478E-04 0.170E-03
   -.191E+02 0.188E+02 -.185E+03   0.180E+02 -.178E+02 0.183E+03   0.106E+01 -.109E+01 0.241E+01   -.767E-04 0.673E-04 0.100E-03
   0.257E-01 -.607E+00 0.209E+03   -.200E-01 0.641E+00 -.211E+03   -.525E-02 -.207E-01 0.207E+01   -.373E-04 0.167E-03 -.287E-03
   0.193E-01 -.752E-01 0.209E+03   -.198E-01 0.734E-01 -.211E+03   0.440E-03 0.190E-02 0.206E+01   0.141E-04 -.119E-04 -.255E-03
   0.255E-01 -.602E+00 0.209E+03   -.197E-01 0.636E+00 -.211E+03   -.524E-02 -.204E-01 0.206E+01   -.470E-04 0.896E-04 -.172E-03
   0.195E-01 -.754E-01 0.209E+03   -.200E-01 0.737E-01 -.211E+03   0.470E-03 0.193E-02 0.206E+01   -.226E-05 -.691E-04 -.275E-03
   0.165E-01 0.190E+00 0.199E+03   -.241E-01 -.213E+00 -.201E+03   0.595E-02 0.182E-01 0.206E+01   -.537E-05 -.593E-05 -.242E-03
   0.137E-01 0.190E+00 0.199E+03   -.213E-01 -.213E+00 -.201E+03   0.592E-02 0.182E-01 0.207E+01   -.452E-04 0.482E-04 -.294E-03
   0.231E-01 -.131E+00 0.199E+03   -.226E-01 0.134E+00 -.201E+03   -.347E-03 -.171E-02 0.206E+01   0.167E-05 -.104E-03 -.249E-03
   0.234E-01 -.131E+00 0.199E+03   -.229E-01 0.134E+00 -.201E+03   -.323E-03 -.169E-02 0.206E+01   -.251E-04 -.409E-04 -.248E-03
   -.466E-01 -.565E-01 -.199E+03   0.511E-01 0.615E-01 0.201E+03   -.401E-02 -.403E-02 -.206E+01   0.350E-04 0.179E-04 0.240E-03
   0.541E-02 -.627E-01 -.199E+03   -.571E-02 0.610E-01 0.201E+03   0.155E-03 0.175E-02 -.206E+01   0.162E-04 -.934E-04 0.287E-03
   0.484E-02 -.635E-01 -.199E+03   -.565E-02 0.618E-01 0.201E+03   0.468E-03 0.173E-02 -.206E+01   0.112E-03 -.253E-04 0.195E-03
   -.460E-01 -.562E-01 -.199E+03   0.511E-01 0.613E-01 0.201E+03   -.440E-02 -.403E-02 -.207E+01   -.412E-04 0.472E-05 0.248E-03
   -.184E-01 -.441E-01 -.209E+03   0.199E-01 0.370E-01 0.211E+03   -.116E-02 0.625E-02 -.206E+01   -.135E-04 -.295E-04 0.222E-03
   -.255E-01 0.571E-01 -.209E+03   0.199E-01 -.692E-01 0.211E+03   0.472E-02 0.102E-01 -.206E+01   -.135E-04 0.208E-04 0.238E-03
   -.186E-01 -.965E-01 -.209E+03   0.199E-01 0.963E-01 0.211E+03   -.120E-02 0.551E-03 -.206E+01   0.401E-04 0.204E-04 0.268E-03
   -.177E-01 -.131E+00 -.209E+03   0.199E-01 0.134E+00 0.211E+03   -.195E-02 -.123E-02 -.206E+01   -.293E-04 -.937E-04 0.235E-03
 -----------------------------------------------------------------------------------------------
   -.127E+00 0.978E-01 -.683E-04   -.838E-13 0.944E-15 0.284E-12   0.127E+00 -.987E-01 -.387E-04   -.243E-03 -.240E-03 0.770E-04
 
 
 POSITION                                       TOTAL-FORCE (eV/Angst)
 -----------------------------------------------------------------------------------
      2.77841      5.21785      1.58925         0.000768      0.000428      0.000072
      8.33453      5.21785      1.58910        -0.000775      0.000607     -0.000107
      2.77841     10.77658      1.58925        -0.000761      0.000606      0.000071
      8.33453     10.77658      1.58910         0.000760      0.000427     -0.000112
      0.00058      2.44861      1.89560         0.017832     -0.040940     -0.000020
      5.55670      2.43861      1.89545        -0.000124     -0.000307      0.000022
      0.00058      7.99734      1.89560        -0.000098      0.000454      0.000015
      5.55670      7.99734      1.89545         0.000014      0.000243      0.000024
      2.78043      5.21797      8.30298         0.000126      0.000132     -0.000009
      8.33655      5.21797      8.30283        -0.000186      0.000254     -0.000407
      2.78043     10.77670      8.30298         0.000119      0.000133      0.000003
      8.33655     10.77670      8.30283        -0.000182      0.000252      0.000342
      0.00259      2.43849      8.60933         0.000208     -0.000785     -0.000275
      5.55871      2.43849      8.60919         0.000251     -0.000795      0.000316
      0.00259      7.99722      8.60933        -0.000196      0.000317      0.000124
      5.55871      7.99722      8.60919        -0.000157      0.000307     -0.000083
     -1.37640      1.05960      8.18451         0.000403      0.000530      0.000022
      4.17971      1.05960      8.18437        -0.000643      0.000459     -0.000472
     -1.37640      6.61833      8.18451         0.000398     -0.000843      0.000142
      4.17971      6.61833      8.18437         0.000273     -0.000289     -0.000020
      1.38116      3.81753      8.18442        -0.000863      0.000499      0.000158
      6.93728      3.81753      8.18427         0.000032      0.000586     -0.000013
      1.38116      9.37626      8.18442         0.000004     -0.000248     -0.000151
      6.93728      9.37626      8.18427         0.000048     -0.000768     -0.000275
      1.39985      1.03817      2.01416        -0.003653      0.009948      0.001006
      6.95597      1.03817      2.01401        -0.000144      0.000482     -0.000123
      1.39985      6.59689      2.01416        -0.000673     -0.001767     -0.000259
      6.95597      6.59689      2.01401         0.000215     -0.000289      0.000048
      4.15741      3.83897      2.01406        -0.000467      0.000414      0.000243
      9.71353      3.83897      2.01392        -0.004383      0.010330     -0.000777
      4.15741      9.39769      2.01406        -0.000100     -0.000345      0.000088
      9.71353      9.39769      2.01392        -0.000959     -0.001826      0.000426
      1.40044      3.83812      3.78391        -0.000831      0.001469     -0.001137
      6.95656      3.83812      3.78377         0.000580      0.000259     -0.000310
      1.40044      9.39685      3.78391         0.000138     -0.001124      0.000618
      6.95656      9.39685      3.78377        -0.000206     -0.000577      0.000134
      4.15774      1.03891      3.78384         0.000636      0.000481      0.000606
      9.71386      1.03891      3.78369        -0.000652      0.001721      0.001501
      4.15774      6.59764      3.78384        -0.000116     -0.000294      0.000148
      9.71386      6.59764      3.78369         0.000285     -0.000896     -0.000267
     -1.37674      3.81828      6.41474         0.000226      0.000674     -0.000176
      4.17938      3.81828      6.41460        -0.000573      0.000402     -0.000631
     -1.37674      9.37700      6.41474        -0.000047     -0.000442     -0.000093
      4.17938      9.37700      6.41460        -0.000113     -0.000144     -0.000236
      1.38057      1.05876      6.41466         0.000222      0.000420      0.000230
      6.93668      1.05876      6.41452        -0.000323      0.000156     -0.000059
      1.38057      6.61748      6.41466        -0.000020     -0.000723     -0.000193
      6.93668      6.61748      6.41452         0.000098     -0.000369     -0.000116
      1.38227      3.82822      0.00001        -0.001036      0.001004      0.001047
      6.93839      3.82822     -0.00014         0.000259      0.000311      0.000462
      1.38227      9.38694      0.00001         0.000216     -0.000985     -0.000347
      6.93839      9.38694     -0.00014        -0.000212     -0.000449      0.000092
      1.39874      1.04885     10.19857         0.000279      0.000312     -0.000480
      6.95485      1.04885     10.19843        -0.001043      0.000974     -0.001058
      1.39874      6.60758     10.19857        -0.000184     -0.000444     -0.000110
      6.95485      6.60758     10.19843         0.000221     -0.000990      0.000372
     -1.25763      1.18232      6.18371        -0.000713     -0.000496     -0.001252
      4.29848      1.18232      6.18356        -0.000078     -0.000283      0.000124
     -1.25763      6.74104      6.18371        -0.000294      0.000266      0.000296
      4.29848      6.74104      6.18356        -0.000239      0.000251      0.000139
      1.26131      3.69462      6.18369        -0.000110     -0.000503      0.001287
      6.81742      3.69462      6.18354         0.000257     -0.000337      0.000237
      1.26131      9.25335      6.18369         0.000196      0.000200     -0.000210
      6.81742      9.25335      6.18354         0.000220      0.000244      0.000173
      1.51970      0.91526      4.01489        -0.002532      0.000456     -0.004995
      7.07582      0.91526      4.01474         0.000758     -0.000171      0.000207
      1.51970      6.47399      4.01489        -0.000076      0.000967      0.000275
      7.07582      6.47399      4.01474        -0.000395      0.000186     -0.000074
      4.03864      3.96168      4.01487         0.001258     -0.000137     -0.000273
      9.59476      3.96168      4.01472        -0.002112      0.000472      0.004668
      4.03864      9.52041      4.01487         0.000104      0.000219     -0.000093
      9.59476      9.52041      4.01472         0.000377      0.001016     -0.000493
      0.00035      5.21813      1.57032         0.000443      0.013174     -0.000944
      5.55647      5.21813      1.57017         0.000005      0.000120      0.000063
      0.00035     10.77686      1.57032         0.000462      0.012934      0.001011
      5.55647     10.77686      1.57017         0.000006      0.000121      0.000101
      2.77849      2.43869      1.57537        -0.001732     -0.004914      0.000847
      8.33461      2.43869      1.57522        -0.001665     -0.004912     -0.000956
      2.77849      7.99742      1.57537         0.000242      0.000826     -0.000217
      8.33461      7.99742      1.57522         0.000227      0.000818      0.000110
      0.00252      5.21805      8.62321         0.000513      0.001035     -0.000722
      5.55864      5.21805      8.62307        -0.000128      0.000016     -0.000135
      0.00252     10.77678      8.62321        -0.000232      0.000027      0.000284
      5.55864     10.77678      8.62307         0.000605      0.001029      0.000788
      2.78066      2.43877      8.62826         0.000315     -0.000931     -0.000055
      8.33677      2.43877      8.62811        -0.000897     -0.001797     -0.000068
      2.78066      7.99750      8.62826         0.000091      0.000366     -0.000038
      8.33677      7.99750      8.62811         0.000233      0.000788     -0.000105
 -----------------------------------------------------------------------------------
    total drift:                                0.000000     -0.001160     -0.000030


--------------------------------------------------------------------------------------------------------



  FREE ENERGIE OF THE ION-ELECTRON SYSTEM (eV)
  ---------------------------------------------------
  free  energy   TOTEN  =      -489.21523596 eV

  energy  without entropy=     -489.21523596  energy(sigma->0) =     -489.21523596
 


--------------------------------------------------------------------------------------------------------


    POTLOK:  cpu time    3.2996: real time    3.3536


--------------------------------------------------------------------------------------------------------


     LOOP+:  cpu time 6930.4601: real time 6993.4516
    4ORBIT:  cpu time    0.0000: real time    0.0000

 total amount of memory used by VASP MPI-rank0  1233264. kBytes
=======================================================================

   base      :      30000. kBytes
   nonl-proj :      75226. kBytes
   fftplans  :      85054. kBytes
   grid      :      64684. kBytes
   one-center:        466. kBytes
   wavefun   :     977834. kBytes
 
  
  
 General timing and accounting informations for this job:
 ========================================================
  
                  Total CPU time used (sec):     7028.282
                            User time (sec):     6956.990
                          System time (sec):       71.293
                         Elapsed time (sec):     7105.819
  
                   Maximum memory used (kb):     1436936.
                   Average memory used (kb):           0.
  
                          Minor page faults:       334905
                          Major page faults:           18
                 Voluntary context switches:        69332
