 224 224   0   0
  0.1357572E+02  0.1537960E-08  0.1537962E-08  0.1395899E-08  0.5000000E-15
  1.000000000000000E-004
  CAR 
 unknown system                          
     17.69890943    -54.42376370  301      5.25774831      1.00000000
    -54.424  0.0000E+00  0.0000E+00  0.0000E+00  0.0000E+00
    -54.183  0.0000E+00  0.0000E+00  0.0000E+00  0.0000E+00
    -53.943  0.0000E+00  0.0000E+00  0.0000E+00  0.0000E+00
    -53.703  0.0000E+00  0.0000E+00  0.0000E+00  0.0000E+00
    -53.462  0.0000E+00  0.0000E+00  0.0000E+00  0.0000E+00
    -53.222  0.0000E+00  0.0000E+00  0.0000E+00  0.0000E+00
    -52.981  0.0000E+00  0.0000E+00  0.0000E+00  0.0000E+00
    -52.741  0.0000E+00  0.0000E+00  0.0000E+00  0.0000E+00
    -52.500  0.0000E+00  0.0000E+00  0.0000E+00  0.0000E+00
    -52.260  0.0000E+00  0.0000E+00  0.0000E+00  0.0000E+00
    -52.020  0.0000E+00  0.0000E+00  0.0000E+00  0.0000E+00
    -51.779  0.0000E+00  0.0000E+00  0.0000E+00  0.0000E+00
    -51.539  0.0000E+00  0.0000E+00  0.0000E+00  0.0000E+00
    -51.298  0.1050E-02  0.0000E+00  0.2525E-03  0.0000E+00
    -51.058  0.2635E+03  0.0000E+00  0.6336E+02  0.0000E+00
    -50.818  0.2666E+01  0.0000E+00  0.6400E+02  0.0000E+00
    -50.577  0.0000E+00  0.0000E+00  0.6400E+02  0.0000E+00
    -50.337  0.0000E+00  0.0000E+00  0.6400E+02  0.0000E+00
    -50.096  0.0000E+00  0.0000E+00  0.6400E+02  0.0000E+00
    -49.856  0.7491E-06  0.0000E+00  0.6400E+02  0.0000E+00
    -49.616  0.4270E+03  0.0000E+00  0.1667E+03  0.0000E+00
    -49.375  0.1054E+03  0.0000E+00  0.1920E+03  0.0000E+00
    -49.135  0.0000E+00  0.0000E+00  0.1920E+03  0.0000E+00
    -48.894  0.0000E+00  0.0000E+00  0.1920E+03  0.0000E+00
    -48.654  0.0000E+00  0.0000E+00  0.1920E+03  0.0000E+00
    -48.414  0.0000E+00  0.0000E+00  0.1920E+03  0.0000E+00
    -48.173  0.0000E+00  0.0000E+00  0.1920E+03  0.0000E+00
    -47.933  0.0000E+00  0.0000E+00  0.1920E+03  0.0000E+00
    -47.692  0.0000E+00  0.0000E+00  0.1920E+03  0.0000E+00
    -47.452  0.0000E+00  0.0000E+00  0.1920E+03  0.0000E+00
    -47.211  0.0000E+00  0.0000E+00  0.1920E+03  0.0000E+00
    -46.971  0.0000E+00  0.0000E+00  0.1920E+03  0.0000E+00
    -46.731  0.0000E+00  0.0000E+00  0.1920E+03  0.0000E+00
    -46.490  0.0000E+00  0.5731E+00  0.1920E+03  0.1378E+00
    -46.250  0.0000E+00  0.2656E+03  0.1920E+03  0.6400E+02
    -46.009  0.0000E+00  0.5378E+01  0.1920E+03  0.6529E+02
    -45.769  0.0000E+00  0.5271E+03  0.1920E+03  0.1920E+03
    -45.529  0.0000E+00  0.1896E-02  0.1920E+03  0.1920E+03
    -45.288  0.0000E+00  0.0000E+00  0.1920E+03  0.1920E+03
    -45.048  0.0000E+00  0.0000E+00  0.1920E+03  0.1920E+03
    -44.807  0.0000E+00  0.0000E+00  0.1920E+03  0.1920E+03
    -44.567  0.0000E+00  0.0000E+00  0.1920E+03  0.1920E+03
    -44.327  0.0000E+00  0.0000E+00  0.1920E+03  0.1920E+03
    -44.086  0.0000E+00  0.0000E+00  0.1920E+03  0.1920E+03
    -43.846  0.0000E+00  0.0000E+00  0.1920E+03  0.1920E+03
    -43.605  0.0000E+00  0.0000E+00  0.1920E+03  0.1920E+03
    -43.365  0.0000E+00  0.0000E+00  0.1920E+03  0.1920E+03
    -43.125  0.0000E+00  0.0000E+00  0.1920E+03  0.1920E+03
    -42.884  0.0000E+00  0.0000E+00  0.1920E+03  0.1920E+03
    -42.644  0.0000E+00  0.0000E+00  0.1920E+03  0.1920E+03
    -42.403  0.0000E+00  0.0000E+00  0.1920E+03  0.1920E+03
    -42.163  0.0000E+00  0.0000E+00  0.1920E+03  0.1920E+03
    -41.923  0.0000E+00  0.0000E+00  0.1920E+03  0.1920E+03
    -41.682  0.0000E+00  0.0000E+00  0.1920E+03  0.1920E+03
    -41.442  0.0000E+00  0.0000E+00  0.1920E+03  0.1920E+03
    -41.201  0.0000E+00  0.0000E+00  0.1920E+03  0.1920E+03
    -40.961  0.0000E+00  0.0000E+00  0.1920E+03  0.1920E+03
    -40.720  0.0000E+00  0.0000E+00  0.1920E+03  0.1920E+03
    -40.480  0.0000E+00  0.0000E+00  0.1920E+03  0.1920E+03
    -40.240  0.0000E+00  0.0000E+00  0.1920E+03  0.1920E+03
    -39.999  0.0000E+00  0.0000E+00  0.1920E+03  0.1920E+03
    -39.759  0.1677E-01  0.1527E-01  0.1920E+03  0.1920E+03
    -39.518  0.2650E+03  0.2649E+03  0.2557E+03  0.2557E+03
    -39.278  0.1182E+01  0.1253E+01  0.2560E+03  0.2560E+03
    -39.038  0.0000E+00  0.0000E+00  0.2560E+03  0.2560E+03
    -38.797  0.0000E+00  0.0000E+00  0.2560E+03  0.2560E+03
    -38.557  0.0000E+00  0.0000E+00  0.2560E+03  0.2560E+03
    -38.316  0.0000E+00  0.0000E+00  0.2560E+03  0.2560E+03
    -38.076  0.0000E+00  0.0000E+00  0.2560E+03  0.2560E+03
    -37.836  0.0000E+00  0.0000E+00  0.2560E+03  0.2560E+03
    -37.595  0.0000E+00  0.0000E+00  0.2560E+03  0.2560E+03
    -37.355  0.0000E+00  0.0000E+00  0.2560E+03  0.2560E+03
    -37.114  0.0000E+00  0.0000E+00  0.2560E+03  0.2560E+03
    -36.874  0.0000E+00  0.0000E+00  0.2560E+03  0.2560E+03
    -36.634  0.0000E+00  0.0000E+00  0.2560E+03  0.2560E+03
    -36.393  0.0000E+00  0.0000E+00  0.2560E+03  0.2560E+03
    -36.153  0.0000E+00  0.0000E+00  0.2560E+03  0.2560E+03
    -35.912  0.0000E+00  0.0000E+00  0.2560E+03  0.2560E+03
    -35.672  0.0000E+00  0.0000E+00  0.2560E+03  0.2560E+03
    -35.431  0.0000E+00  0.0000E+00  0.2560E+03  0.2560E+03
    -35.191  0.0000E+00  0.0000E+00  0.2560E+03  0.2560E+03
    -34.951  0.0000E+00  0.0000E+00  0.2560E+03  0.2560E+03
    -34.710  0.0000E+00  0.0000E+00  0.2560E+03  0.2560E+03
    -34.470  0.0000E+00  0.0000E+00  0.2560E+03  0.2560E+03
    -34.229  0.0000E+00  0.0000E+00  0.2560E+03  0.2560E+03
    -33.989  0.0000E+00  0.0000E+00  0.2560E+03  0.2560E+03
    -33.749  0.0000E+00  0.0000E+00  0.2560E+03  0.2560E+03
    -33.508  0.0000E+00  0.0000E+00  0.2560E+03  0.2560E+03
    -33.268  0.0000E+00  0.0000E+00  0.2560E+03  0.2560E+03
    -33.027  0.0000E+00  0.0000E+00  0.2560E+03  0.2560E+03
    -32.787  0.0000E+00  0.0000E+00  0.2560E+03  0.2560E+03
    -32.547  0.0000E+00  0.0000E+00  0.2560E+03  0.2560E+03
    -32.306  0.0000E+00  0.0000E+00  0.2560E+03  0.2560E+03
    -32.066  0.0000E+00  0.0000E+00  0.2560E+03  0.2560E+03
    -31.825  0.0000E+00  0.0000E+00  0.2560E+03  0.2560E+03
    -31.585  0.0000E+00  0.0000E+00  0.2560E+03  0.2560E+03
    -31.345  0.0000E+00  0.0000E+00  0.2560E+03  0.2560E+03
    -31.104  0.0000E+00  0.0000E+00  0.2560E+03  0.2560E+03
    -30.864  0.0000E+00  0.0000E+00  0.2560E+03  0.2560E+03
    -30.623  0.0000E+00  0.0000E+00  0.2560E+03  0.2560E+03
    -30.383  0.0000E+00  0.0000E+00  0.2560E+03  0.2560E+03
    -30.142  0.0000E+00  0.0000E+00  0.2560E+03  0.2560E+03
    -29.902  0.0000E+00  0.0000E+00  0.2560E+03  0.2560E+03
    -29.662  0.0000E+00  0.0000E+00  0.2560E+03  0.2560E+03
    -29.421  0.0000E+00  0.0000E+00  0.2560E+03  0.2560E+03
    -29.181  0.0000E+00  0.0000E+00  0.2560E+03  0.2560E+03
    -28.940  0.0000E+00  0.0000E+00  0.2560E+03  0.2560E+03
    -28.700  0.0000E+00  0.0000E+00  0.2560E+03  0.2560E+03
    -28.460  0.0000E+00  0.0000E+00  0.2560E+03  0.2560E+03
    -28.219  0.0000E+00  0.0000E+00  0.2560E+03  0.2560E+03
    -27.979  0.0000E+00  0.0000E+00  0.2560E+03  0.2560E+03
    -27.738  0.0000E+00  0.0000E+00  0.2560E+03  0.2560E+03
    -27.498  0.0000E+00  0.0000E+00  0.2560E+03  0.2560E+03
    -27.258  0.0000E+00  0.0000E+00  0.2560E+03  0.2560E+03
    -27.017  0.0000E+00  0.0000E+00  0.2560E+03  0.2560E+03
    -26.777  0.0000E+00  0.0000E+00  0.2560E+03  0.2560E+03
    -26.536  0.0000E+00  0.0000E+00  0.2560E+03  0.2560E+03
    -26.296  0.0000E+00  0.0000E+00  0.2560E+03  0.2560E+03
    -26.056  0.0000E+00  0.0000E+00  0.2560E+03  0.2560E+03
    -25.815  0.0000E+00  0.0000E+00  0.2560E+03  0.2560E+03
    -25.575  0.0000E+00  0.0000E+00  0.2560E+03  0.2560E+03
    -25.334  0.0000E+00  0.0000E+00  0.2560E+03  0.2560E+03
    -25.094  0.0000E+00  0.0000E+00  0.2560E+03  0.2560E+03
    -24.853  0.0000E+00  0.0000E+00  0.2560E+03  0.2560E+03
    -24.613  0.0000E+00  0.0000E+00  0.2560E+03  0.2560E+03
    -24.373  0.0000E+00  0.0000E+00  0.2560E+03  0.2560E+03
    -24.132  0.0000E+00  0.0000E+00  0.2560E+03  0.2560E+03
    -23.892  0.0000E+00  0.0000E+00  0.2560E+03  0.2560E+03
    -23.651  0.0000E+00  0.0000E+00  0.2560E+03  0.2560E+03
    -23.411  0.0000E+00  0.0000E+00  0.2560E+03  0.2560E+03
    -23.171  0.0000E+00  0.0000E+00  0.2560E+03  0.2560E+03
    -22.930  0.0000E+00  0.0000E+00  0.2560E+03  0.2560E+03
    -22.690  0.0000E+00  0.0000E+00  0.2560E+03  0.2560E+03
    -22.449  0.0000E+00  0.0000E+00  0.2560E+03  0.2560E+03
    -22.209  0.0000E+00  0.0000E+00  0.2560E+03  0.2560E+03
    -21.969  0.0000E+00  0.0000E+00  0.2560E+03  0.2560E+03
    -21.728  0.0000E+00  0.0000E+00  0.2560E+03  0.2560E+03
    -21.488  0.0000E+00  0.0000E+00  0.2560E+03  0.2560E+03
    -21.247  0.0000E+00  0.0000E+00  0.2560E+03  0.2560E+03
    -21.007  0.0000E+00  0.0000E+00  0.2560E+03  0.2560E+03
    -20.767  0.0000E+00  0.0000E+00  0.2560E+03  0.2560E+03
    -20.526  0.0000E+00  0.0000E+00  0.2560E+03  0.2560E+03
    -20.286  0.0000E+00  0.0000E+00  0.2560E+03  0.2560E+03
    -20.045  0.0000E+00  0.0000E+00  0.2560E+03  0.2560E+03
    -19.805  0.0000E+00  0.0000E+00  0.2560E+03  0.2560E+03
    -19.564  0.0000E+00  0.0000E+00  0.2560E+03  0.2560E+03
    -19.324  0.0000E+00  0.0000E+00  0.2560E+03  0.2560E+03
    -19.084  0.0000E+00  0.0000E+00  0.2560E+03  0.2560E+03
    -18.843  0.0000E+00  0.0000E+00  0.2560E+03  0.2560E+03
    -18.603  0.0000E+00  0.0000E+00  0.2560E+03  0.2560E+03
    -18.362  0.0000E+00  0.0000E+00  0.2560E+03  0.2560E+03
    -18.122  0.0000E+00  0.0000E+00  0.2560E+03  0.2560E+03
    -17.882  0.0000E+00  0.0000E+00  0.2560E+03  0.2560E+03
    -17.641  0.0000E+00  0.0000E+00  0.2560E+03  0.2560E+03
    -17.401  0.0000E+00  0.0000E+00  0.2560E+03  0.2560E+03
    -17.160  0.0000E+00  0.0000E+00  0.2560E+03  0.2560E+03
    -16.920  0.0000E+00  0.0000E+00  0.2560E+03  0.2560E+03
    -16.680  0.0000E+00  0.0000E+00  0.2560E+03  0.2560E+03
    -16.439  0.0000E+00  0.0000E+00  0.2560E+03  0.2560E+03
    -16.199  0.0000E+00  0.0000E+00  0.2560E+03  0.2560E+03
    -15.958  0.0000E+00  0.0000E+00  0.2560E+03  0.2560E+03
    -15.718  0.0000E+00  0.0000E+00  0.2560E+03  0.2560E+03
    -15.478  0.0000E+00  0.0000E+00  0.2560E+03  0.2560E+03
    -15.237  0.0000E+00  0.0000E+00  0.2560E+03  0.2560E+03
    -14.997  0.0000E+00  0.0000E+00  0.2560E+03  0.2560E+03
    -14.756  0.0000E+00  0.0000E+00  0.2560E+03  0.2560E+03
    -14.516  0.0000E+00  0.0000E+00  0.2560E+03  0.2560E+03
    -14.275  0.0000E+00  0.0000E+00  0.2560E+03  0.2560E+03
    -14.035  0.0000E+00  0.0000E+00  0.2560E+03  0.2560E+03
    -13.795  0.0000E+00  0.0000E+00  0.2560E+03  0.2560E+03
    -13.554  0.0000E+00  0.0000E+00  0.2560E+03  0.2560E+03
    -13.314  0.0000E+00  0.0000E+00  0.2560E+03  0.2560E+03
    -13.073  0.0000E+00  0.0000E+00  0.2560E+03  0.2560E+03
    -12.833  0.7796E-01  0.0000E+00  0.2560E+03  0.2560E+03
    -12.593  0.1320E+03  0.1526E-02  0.2878E+03  0.2560E+03
    -12.352  0.1035E+01  0.1237E+03  0.2880E+03  0.2857E+03
    -12.112  0.0000E+00  0.9425E+01  0.2880E+03  0.2880E+03
    -11.871  0.0000E+00  0.0000E+00  0.2880E+03  0.2880E+03
    -11.631  0.0000E+00  0.0000E+00  0.2880E+03  0.2880E+03
    -11.391  0.0000E+00  0.0000E+00  0.2880E+03  0.2880E+03
    -11.150  0.0000E+00  0.0000E+00  0.2880E+03  0.2880E+03
    -10.910  0.0000E+00  0.0000E+00  0.2880E+03  0.2880E+03
    -10.669  0.0000E+00  0.0000E+00  0.2880E+03  0.2880E+03
    -10.429  0.0000E+00  0.0000E+00  0.2880E+03  0.2880E+03
    -10.189  0.0000E+00  0.0000E+00  0.2880E+03  0.2880E+03
     -9.948  0.0000E+00  0.0000E+00  0.2880E+03  0.2880E+03
     -9.708  0.0000E+00  0.0000E+00  0.2880E+03  0.2880E+03
     -9.467  0.0000E+00  0.0000E+00  0.2880E+03  0.2880E+03
     -9.227  0.0000E+00  0.0000E+00  0.2880E+03  0.2880E+03
     -8.986  0.0000E+00  0.0000E+00  0.2880E+03  0.2880E+03
     -8.746  0.0000E+00  0.0000E+00  0.2880E+03  0.2880E+03
     -8.506  0.0000E+00  0.0000E+00  0.2880E+03  0.2880E+03
     -8.265  0.0000E+00  0.0000E+00  0.2880E+03  0.2880E+03
     -8.025  0.5356E-10  0.0000E+00  0.2880E+03  0.2880E+03
     -7.784  0.9407E+00  0.4258E-07  0.2882E+03  0.2880E+03
     -7.544  0.1880E+02  0.2876E+01  0.2927E+03  0.2887E+03
     -7.304  0.2819E+02  0.2237E+02  0.2995E+03  0.2941E+03
     -7.063  0.5385E+02  0.3106E+02  0.3125E+03  0.3015E+03
     -6.823  0.1469E+03  0.4889E+02  0.3478E+03  0.3133E+03
     -6.582  0.1752E+02  0.1389E+03  0.3520E+03  0.3467E+03
     -6.342  0.0000E+00  0.2206E+02  0.3520E+03  0.3520E+03
     -6.102  0.0000E+00  0.1095E-04  0.3520E+03  0.3520E+03
     -5.861  0.0000E+00  0.0000E+00  0.3520E+03  0.3520E+03
     -5.621  0.0000E+00  0.0000E+00  0.3520E+03  0.3520E+03
     -5.380  0.0000E+00  0.0000E+00  0.3520E+03  0.3520E+03
     -5.140  0.0000E+00  0.0000E+00  0.3520E+03  0.3520E+03
     -4.900  0.0000E+00  0.0000E+00  0.3520E+03  0.3520E+03
     -4.659  0.0000E+00  0.0000E+00  0.3520E+03  0.3520E+03
     -4.419  0.0000E+00  0.0000E+00  0.3520E+03  0.3520E+03
     -4.178  0.0000E+00  0.0000E+00  0.3520E+03  0.3520E+03
     -3.938  0.0000E+00  0.0000E+00  0.3520E+03  0.3520E+03
     -3.697  0.0000E+00  0.0000E+00  0.3520E+03  0.3520E+03
     -3.457  0.0000E+00  0.0000E+00  0.3520E+03  0.3520E+03
     -3.217  0.0000E+00  0.0000E+00  0.3520E+03  0.3520E+03
     -2.976  0.0000E+00  0.0000E+00  0.3520E+03  0.3520E+03
     -2.736  0.0000E+00  0.0000E+00  0.3520E+03  0.3520E+03
     -2.495  0.0000E+00  0.0000E+00  0.3520E+03  0.3520E+03
     -2.255  0.0000E+00  0.0000E+00  0.3520E+03  0.3520E+03
     -2.015  0.0000E+00  0.0000E+00  0.3520E+03  0.3520E+03
     -1.774  0.5640E-12  0.0000E+00  0.3520E+03  0.3520E+03
     -1.534  0.1282E+01  0.0000E+00  0.3523E+03  0.3520E+03
     -1.293  0.1003E+03  0.0000E+00  0.3764E+03  0.3520E+03
     -1.053  0.3157E+02  0.0000E+00  0.3840E+03  0.3520E+03
     -0.813  0.1255E+02  0.0000E+00  0.3870E+03  0.3520E+03
     -0.572  0.8970E+02  0.8559E-05  0.4086E+03  0.3520E+03
     -0.332  0.2242E+03  0.4116E+01  0.4625E+03  0.3530E+03
     -0.091  0.2015E+03  0.2464E+02  0.5109E+03  0.3589E+03
      0.149  0.1766E+03  0.4113E+02  0.5534E+03  0.3688E+03
      0.389  0.1516E+03  0.4244E+02  0.5899E+03  0.3790E+03
      0.630  0.1195E+03  0.7203E+02  0.6186E+03  0.3963E+03
      0.870  0.5429E+02  0.6033E+02  0.6316E+03  0.4108E+03
      1.111  0.6988E+02  0.6547E+02  0.6484E+03  0.4266E+03
      1.351  0.7330E+02  0.6776E+02  0.6661E+03  0.4429E+03
      1.592  0.6803E+02  0.7759E+02  0.6824E+03  0.4615E+03
      1.832  0.1109E+03  0.1111E+03  0.7091E+03  0.4882E+03
      2.072  0.2135E+03  0.6180E+02  0.7604E+03  0.5031E+03
      2.313  0.1397E+03  0.3795E+02  0.7940E+03  0.5122E+03
      2.553  0.8443E+02  0.7759E+02  0.8143E+03  0.5309E+03
      2.794  0.6861E+02  0.1040E+03  0.8308E+03  0.5559E+03
      3.034  0.3523E+02  0.7075E+02  0.8393E+03  0.5729E+03
      3.274  0.4051E+02  0.1314E+03  0.8490E+03  0.6045E+03
      3.515  0.5190E+02  0.1169E+03  0.8615E+03  0.6326E+03
      3.755  0.6737E+02  0.2512E+02  0.8777E+03  0.6386E+03
      3.996  0.7996E+02  0.4412E+02  0.8969E+03  0.6492E+03
      4.236  0.8002E+02  0.1787E+03  0.9161E+03  0.6922E+03
      4.476  0.7566E+02  0.4752E+02  0.9343E+03  0.7036E+03
      4.717  0.2868E+02  0.1640E+01  0.9412E+03  0.7040E+03
      4.957  0.6455E+02  0.0000E+00  0.9567E+03  0.7040E+03
      5.198  0.1359E+02  0.0000E+00  0.9600E+03  0.7040E+03
      5.438  0.0000E+00  0.0000E+00  0.9600E+03  0.7040E+03
      5.678  0.0000E+00  0.0000E+00  0.9600E+03  0.7040E+03
      5.919  0.0000E+00  0.0000E+00  0.9600E+03  0.7040E+03
      6.159  0.0000E+00  0.9982E-07  0.9600E+03  0.7040E+03
      6.400  0.0000E+00  0.1037E+01  0.9600E+03  0.7042E+03
      6.640  0.0000E+00  0.1016E+02  0.9600E+03  0.7067E+03
      6.881  0.0000E+00  0.2666E+02  0.9600E+03  0.7131E+03
      7.121  0.2886E-16  0.6601E+02  0.9600E+03  0.7290E+03
      7.361  0.6149E-01  0.1115E+03  0.9600E+03  0.7558E+03
      7.602  0.1498E+01  0.1393E+03  0.9604E+03  0.7893E+03
      7.842  0.5186E+01  0.1182E+03  0.9616E+03  0.8177E+03
      8.083  0.7088E+01  0.1788E+03  0.9633E+03  0.8607E+03
      8.323  0.9292E+01  0.1454E+03  0.9656E+03  0.8956E+03
      8.563  0.1253E+02  0.6220E+02  0.9686E+03  0.9106E+03
      8.804  0.1457E+02  0.8249E+02  0.9721E+03  0.9304E+03
      9.044  0.2711E+02  0.7284E+02  0.9786E+03  0.9479E+03
      9.285  0.3349E+02  0.5732E+02  0.9866E+03  0.9617E+03
      9.525  0.3554E+02  0.2305E+02  0.9952E+03  0.9672E+03
      9.765  0.5307E+02  0.3405E+02  0.1008E+04  0.9754E+03
     10.006  0.5117E+02  0.2268E+02  0.1020E+04  0.9809E+03
     10.246  0.3375E+02  0.3888E+02  0.1028E+04  0.9902E+03
     10.487  0.2162E+02  0.4328E+02  0.1034E+04  0.1001E+04
     10.727  0.4556E+02  0.6125E+02  0.1045E+04  0.1015E+04
     10.967  0.3307E+02  0.4337E+02  0.1052E+04  0.1026E+04
     11.208  0.4373E+02  0.4017E+02  0.1063E+04  0.1035E+04
     11.448  0.7799E+02  0.3455E+02  0.1082E+04  0.1044E+04
     11.689  0.4274E+02  0.4376E+02  0.1092E+04  0.1054E+04
     11.929  0.6452E+02  0.5207E+02  0.1108E+04  0.1067E+04
     12.170  0.6675E+02  0.5736E+02  0.1124E+04  0.1081E+04
     12.410  0.6923E+02  0.5322E+02  0.1140E+04  0.1093E+04
     12.650  0.6097E+02  0.6702E+02  0.1155E+04  0.1109E+04
     12.891  0.5275E+02  0.7972E+02  0.1168E+04  0.1129E+04
     13.131  0.5842E+02  0.6450E+02  0.1182E+04  0.1144E+04
     13.372  0.4848E+02  0.6637E+02  0.1193E+04  0.1160E+04
     13.612  0.4013E+02  0.6455E+02  0.1203E+04  0.1176E+04
     13.852  0.1873E+02  0.5727E+02  0.1207E+04  0.1189E+04
     14.093  0.2531E+01  0.5297E+02  0.1208E+04  0.1202E+04
     14.333  0.0000E+00  0.2142E+02  0.1208E+04  0.1207E+04
     14.574  0.0000E+00  0.3048E+01  0.1208E+04  0.1208E+04
     14.814  0.0000E+00  0.3927E-05  0.1208E+04  0.1208E+04
     15.054  0.0000E+00  0.0000E+00  0.1208E+04  0.1208E+04
     15.295  0.0000E+00  0.0000E+00  0.1208E+04  0.1208E+04
     15.535  0.0000E+00  0.0000E+00  0.1208E+04  0.1208E+04
     15.776  0.0000E+00  0.0000E+00  0.1208E+04  0.1208E+04
     16.016  0.0000E+00  0.0000E+00  0.1208E+04  0.1208E+04
     16.256  0.0000E+00  0.0000E+00  0.1208E+04  0.1208E+04
     16.497  0.0000E+00  0.0000E+00  0.1208E+04  0.1208E+04
     16.737  0.0000E+00  0.0000E+00  0.1208E+04  0.1208E+04
     16.978  0.0000E+00  0.0000E+00  0.1208E+04  0.1208E+04
     17.218  0.0000E+00  0.0000E+00  0.1208E+04  0.1208E+04
     17.459  0.0000E+00  0.0000E+00  0.1208E+04  0.1208E+04
     17.699  0.0000E+00  0.0000E+00  0.1208E+04  0.1208E+04
