  224  224    1    2
  0.1357572E+02  0.1537960E-08  0.1537962E-08  0.1395899E-08  0.5000000E-15
  1.000000000000000E-004
  CAR 
 unknown system                          
   1664      8   1208
 
  0.0000000E+00  0.0000000E+00  0.0000000E+00  0.1250000E+00
    1      -51.145456    -46.394246   1.000000   1.000000
    2      -51.145362    -46.394066   1.000000   1.000000
    3      -51.142002    -46.391320   1.000000   1.000000
    4      -51.141848    -46.390967   1.000000   1.000000
    5      -51.141685    -46.390900   1.000000   1.000000
    6      -51.141601    -46.390809   1.000000   1.000000
    7      -51.141535    -46.390628   1.000000   1.000000
    8      -51.141364    -46.390545   1.000000   1.000000
    9      -51.141284    -46.390530   1.000000   1.000000
   10      -51.141196    -46.390373   1.000000   1.000000
   11      -51.141146    -46.390282   1.000000   1.000000
   12      -51.141099    -46.390203   1.000000   1.000000
   13      -51.141031    -46.390160   1.000000   1.000000
   14      -51.141011    -46.390062   1.000000   1.000000
   15      -51.140976    -46.390037   1.000000   1.000000
   16      -51.140911    -46.390009   1.000000   1.000000
   17      -51.140888    -46.389977   1.000000   1.000000
   18      -51.140844    -46.389951   1.000000   1.000000
   19      -51.140798    -46.389877   1.000000   1.000000
   20      -51.140770    -46.389800   1.000000   1.000000
   21      -51.140690    -46.389712   1.000000   1.000000
   22      -51.140678    -46.389674   1.000000   1.000000
   23      -51.140624    -46.389597   1.000000   1.000000
   24      -51.140555    -46.389590   1.000000   1.000000
   25      -51.140533    -46.389557   1.000000   1.000000
   26      -51.140505    -46.389534   1.000000   1.000000
   27      -51.140495    -46.389445   1.000000   1.000000
   28      -51.140461    -46.389431   1.000000   1.000000
   29      -51.140417    -46.389359   1.000000   1.000000
   30      -51.140410    -46.389350   1.000000   1.000000
   31      -51.140380    -46.389270   1.000000   1.000000
   32      -51.140375    -46.389187   1.000000   1.000000
   33      -51.140338    -46.389165   1.000000   1.000000
   34      -51.140296    -46.389148   1.000000   1.000000
   35      -51.140241    -46.389104   1.000000   1.000000
   36      -51.140209    -46.389078   1.000000   1.000000
   37      -51.140188    -46.389042   1.000000   1.000000
   38      -51.140160    -46.388955   1.000000   1.000000
   39      -51.140137    -46.388927   1.000000   1.000000
   40      -51.140123    -46.388868   1.000000   1.000000
   41      -51.140082    -46.388860   1.000000   1.000000
   42      -51.140041    -46.388845   1.000000   1.000000
   43      -51.139946    -46.388730   1.000000   1.000000
   44      -51.139923    -46.388668   1.000000   1.000000
   45      -51.139909    -46.388639   1.000000   1.000000
   46      -51.139891    -46.388603   1.000000   1.000000
   47      -51.139831    -46.388558   1.000000   1.000000
   48      -51.139802    -46.388499   1.000000   1.000000
   49      -51.139775    -46.388479   1.000000   1.000000
   50      -51.139688    -46.388426   1.000000   1.000000
   51      -51.139639    -46.388360   1.000000   1.000000
   52      -51.139616    -46.388303   1.000000   1.000000
   53      -51.139570    -46.388255   1.000000   1.000000
   54      -51.139527    -46.388162   1.000000   1.000000
   55      -51.139500    -46.388151   1.000000   1.000000
   56      -51.139402    -46.388128   1.000000   1.000000
   57      -51.139365    -46.388061   1.000000   1.000000
   58      -51.139185    -46.387938   1.000000   1.000000
   59      -51.139145    -46.387752   1.000000   1.000000
   60      -51.139077    -46.387681   1.000000   1.000000
   61      -51.138973    -46.387609   1.000000   1.000000
   62      -51.138775    -46.387328   1.000000   1.000000
   63      -51.135222    -46.384306   1.000000   1.000000
   64      -51.135171    -46.384233   1.000000   1.000000
   65      -49.652041    -45.933109   1.000000   1.000000
   66      -49.651512    -45.932815   1.000000   1.000000
   67      -49.650155    -45.931970   1.000000   1.000000
   68      -49.649799    -45.931421   1.000000   1.000000
   69      -49.648140    -45.929442   1.000000   1.000000
   70      -49.648135    -45.929390   1.000000   1.000000
   71      -49.647916    -45.929345   1.000000   1.000000
   72      -49.647756    -45.929247   1.000000   1.000000
   73      -49.647679    -45.929053   1.000000   1.000000
   74      -49.647605    -45.928985   1.000000   1.000000
   75      -49.647588    -45.928901   1.000000   1.000000
   76      -49.647491    -45.928831   1.000000   1.000000
   77      -49.647470    -45.928790   1.000000   1.000000
   78      -49.647384    -45.928779   1.000000   1.000000
   79      -49.647362    -45.928744   1.000000   1.000000
   80      -49.647316    -45.928719   1.000000   1.000000
   81      -49.647234    -45.928654   1.000000   1.000000
   82      -49.647215    -45.928590   1.000000   1.000000
   83      -49.647173    -45.928584   1.000000   1.000000
   84      -49.647162    -45.928556   1.000000   1.000000
   85      -49.647156    -45.928514   1.000000   1.000000
   86      -49.647121    -45.928467   1.000000   1.000000
   87      -49.647103    -45.928443   1.000000   1.000000
   88      -49.647062    -45.928430   1.000000   1.000000
   89      -49.647041    -45.928403   1.000000   1.000000
   90      -49.647020    -45.928379   1.000000   1.000000
   91      -49.646991    -45.928342   1.000000   1.000000
   92      -49.646884    -45.928331   1.000000   1.000000
   93      -49.646872    -45.928284   1.000000   1.000000
   94      -49.646825    -45.928270   1.000000   1.000000
   95      -49.646806    -45.928235   1.000000   1.000000
   96      -49.646793    -45.928204   1.000000   1.000000
   97      -49.646770    -45.928166   1.000000   1.000000
   98      -49.646689    -45.928109   1.000000   1.000000
   99      -49.646685    -45.928088   1.000000   1.000000
  100      -49.646651    -45.928055   1.000000   1.000000
  101      -49.646612    -45.928009   1.000000   1.000000
  102      -49.646517    -45.927918   1.000000   1.000000
  103      -49.646454    -45.927894   1.000000   1.000000
  104      -49.646438    -45.927883   1.000000   1.000000
  105      -49.646423    -45.927861   1.000000   1.000000
  106      -49.646393    -45.927847   1.000000   1.000000
  107      -49.646349    -45.927801   1.000000   1.000000
  108      -49.646332    -45.927752   1.000000   1.000000
  109      -49.646313    -45.927717   1.000000   1.000000
  110      -49.646275    -45.927669   1.000000   1.000000
  111      -49.646152    -45.927615   1.000000   1.000000
  112      -49.646137    -45.927583   1.000000   1.000000
  113      -49.646130    -45.927548   1.000000   1.000000
  114      -49.646115    -45.927509   1.000000   1.000000
  115      -49.646103    -45.927464   1.000000   1.000000
  116      -49.646020    -45.927452   1.000000   1.000000
  117      -49.645948    -45.927441   1.000000   1.000000
  118      -49.645938    -45.927405   1.000000   1.000000
  119      -49.645847    -45.927384   1.000000   1.000000
  120      -49.645837    -45.927368   1.000000   1.000000
  121      -49.645775    -45.927335   1.000000   1.000000
  122      -49.645716    -45.927311   1.000000   1.000000
  123      -49.645712    -45.927274   1.000000   1.000000
  124      -49.645686    -45.927254   1.000000   1.000000
  125      -49.645671    -45.927241   1.000000   1.000000
  126      -49.645670    -45.927209   1.000000   1.000000
  127      -49.645628    -45.927181   1.000000   1.000000
  128      -49.645606    -45.927170   1.000000   1.000000
  129      -49.645550    -45.927149   1.000000   1.000000
  130      -49.645497    -45.927124   1.000000   1.000000
  131      -49.645495    -45.927120   1.000000   1.000000
  132      -49.645466    -45.927055   1.000000   1.000000
  133      -49.645403    -45.927032   1.000000   1.000000
  134      -49.645394    -45.926978   1.000000   1.000000
  135      -49.645349    -45.926976   1.000000   1.000000
  136      -49.645343    -45.926969   1.000000   1.000000
  137      -49.645319    -45.926950   1.000000   1.000000
  138      -49.645274    -45.926918   1.000000   1.000000
  139      -49.645267    -45.926896   1.000000   1.000000
  140      -49.645253    -45.926885   1.000000   1.000000
  141      -49.645201    -45.926847   1.000000   1.000000
  142      -49.645193    -45.926820   1.000000   1.000000
  143      -49.645175    -45.926781   1.000000   1.000000
  144      -49.645129    -45.926753   1.000000   1.000000
  145      -49.645113    -45.926735   1.000000   1.000000
  146      -49.645095    -45.926702   1.000000   1.000000
  147      -49.645079    -45.926680   1.000000   1.000000
  148      -49.645015    -45.926638   1.000000   1.000000
  149      -49.645000    -45.926615   1.000000   1.000000
  150      -49.644967    -45.926605   1.000000   1.000000
  151      -49.644963    -45.926602   1.000000   1.000000
  152      -49.644862    -45.926542   1.000000   1.000000
  153      -49.644820    -45.926533   1.000000   1.000000
  154      -49.644815    -45.926510   1.000000   1.000000
  155      -49.644759    -45.926489   1.000000   1.000000
  156      -49.644750    -45.926472   1.000000   1.000000
  157      -49.644691    -45.926447   1.000000   1.000000
  158      -49.644682    -45.926417   1.000000   1.000000
  159      -49.644617    -45.926415   1.000000   1.000000
  160      -49.644606    -45.926332   1.000000   1.000000
  161      -49.644558    -45.926322   1.000000   1.000000
  162      -49.644554    -45.926295   1.000000   1.000000
  163      -49.644491    -45.926291   1.000000   1.000000
  164      -49.644476    -45.926247   1.000000   1.000000
  165      -49.644462    -45.926212   1.000000   1.000000
  166      -49.644430    -45.926197   1.000000   1.000000
  167      -49.644362    -45.926186   1.000000   1.000000
  168      -49.644350    -45.926142   1.000000   1.000000
  169      -49.644255    -45.926108   1.000000   1.000000
  170      -49.644215    -45.926084   1.000000   1.000000
  171      -49.644174    -45.926070   1.000000   1.000000
  172      -49.644133    -45.925952   1.000000   1.000000
  173      -49.644128    -45.925937   1.000000   1.000000
  174      -49.644120    -45.925922   1.000000   1.000000
  175      -49.644090    -45.925905   1.000000   1.000000
  176      -49.644084    -45.925854   1.000000   1.000000
  177      -49.643952    -45.925758   1.000000   1.000000
  178      -49.643930    -45.925755   1.000000   1.000000
  179      -49.643896    -45.925718   1.000000   1.000000
  180      -49.643743    -45.925702   1.000000   1.000000
  181      -49.643733    -45.925668   1.000000   1.000000
  182      -49.643686    -45.925644   1.000000   1.000000
  183      -49.643489    -45.925581   1.000000   1.000000
  184      -49.643467    -45.925488   1.000000   1.000000
  185      -49.643411    -45.925418   1.000000   1.000000
  186      -49.643363    -45.925411   1.000000   1.000000
  187      -49.643225    -45.925173   1.000000   1.000000
  188      -49.643104    -45.924954   1.000000   1.000000
  189      -49.642138    -45.922935   1.000000   1.000000
  190      -49.641378    -45.922550   1.000000   1.000000
  191      -49.639163    -45.921566   1.000000   1.000000
  192      -49.638598    -45.921196   1.000000   1.000000
  193      -39.641165    -39.640248   1.000000   1.000000
  194      -39.641073    -39.640155   1.000000   1.000000
  195      -39.634080    -39.633209   1.000000   1.000000
  196      -39.633617    -39.632744   1.000000   1.000000
  197      -39.633481    -39.632608   1.000000   1.000000
  198      -39.633437    -39.632564   1.000000   1.000000
  199      -39.633420    -39.632547   1.000000   1.000000
  200      -39.633405    -39.632532   1.000000   1.000000
  201      -39.633191    -39.632318   1.000000   1.000000
  202      -39.632881    -39.632008   1.000000   1.000000
  203      -39.628076    -39.627239   1.000000   1.000000
  204      -39.627892    -39.627054   1.000000   1.000000
  205      -39.627868    -39.627029   1.000000   1.000000
  206      -39.627790    -39.626952   1.000000   1.000000
  207      -39.627719    -39.626880   1.000000   1.000000
  208      -39.627628    -39.626789   1.000000   1.000000
  209      -39.627612    -39.626773   1.000000   1.000000
  210      -39.627422    -39.626582   1.000000   1.000000
  211      -39.617034    -39.616264   1.000000   1.000000
  212      -39.616241    -39.615466   1.000000   1.000000
  213      -39.616100    -39.615325   1.000000   1.000000
  214      -39.616005    -39.615228   1.000000   1.000000
  215      -39.615960    -39.615183   1.000000   1.000000
  216      -39.615868    -39.615097   1.000000   1.000000
  217      -39.615743    -39.614966   1.000000   1.000000
  218      -39.615631    -39.614851   1.000000   1.000000
  219      -39.615556    -39.614777   1.000000   1.000000
  220      -39.615340    -39.614573   1.000000   1.000000
  221      -39.615283    -39.614515   1.000000   1.000000
  222      -39.615252    -39.614481   1.000000   1.000000
  223      -39.615223    -39.614455   1.000000   1.000000
  224      -39.615160    -39.614393   1.000000   1.000000
  225      -39.615144    -39.614377   1.000000   1.000000
  226      -39.615021    -39.614255   1.000000   1.000000
  227      -39.615004    -39.614235   1.000000   1.000000
  228      -39.614990    -39.614221   1.000000   1.000000
  229      -39.614946    -39.614177   1.000000   1.000000
  230      -39.614929    -39.614160   1.000000   1.000000
  231      -39.614894    -39.614125   1.000000   1.000000
  232      -39.614796    -39.614030   1.000000   1.000000
  233      -39.614723    -39.613953   1.000000   1.000000
  234      -39.614653    -39.613887   1.000000   1.000000
  235      -39.614193    -39.613433   1.000000   1.000000
  236      -39.614019    -39.613257   1.000000   1.000000
  237      -39.613762    -39.613000   1.000000   1.000000
  238      -39.613486    -39.612720   1.000000   1.000000
  239      -39.604184    -39.603465   1.000000   1.000000
  240      -39.603969    -39.603249   1.000000   1.000000
  241      -39.603952    -39.603234   1.000000   1.000000
  242      -39.603849    -39.603130   1.000000   1.000000
  243      -39.603797    -39.603077   1.000000   1.000000
  244      -39.603709    -39.602990   1.000000   1.000000
  245      -39.603696    -39.602976   1.000000   1.000000
  246      -39.603504    -39.602783   1.000000   1.000000
  247      -39.600038    -39.599332   1.000000   1.000000
  248      -39.599758    -39.599053   1.000000   1.000000
  249      -39.599558    -39.598852   1.000000   1.000000
  250      -39.599532    -39.598826   1.000000   1.000000
  251      -39.599511    -39.598804   1.000000   1.000000
  252      -39.599464    -39.598757   1.000000   1.000000
  253      -39.599345    -39.598638   1.000000   1.000000
  254      -39.598867    -39.598159   1.000000   1.000000
  255      -39.593271    -39.592588   1.000000   1.000000
  256      -39.593145    -39.592462   1.000000   1.000000
  257      -12.747250    -12.467785   1.000000   1.000000
  258      -12.747198    -12.467728   1.000000   1.000000
  259      -12.720362    -12.440672   1.000000   1.000000
  260      -12.719492    -12.439736   1.000000   1.000000
  261      -12.719389    -12.439644   1.000000   1.000000
  262      -12.719349    -12.439596   1.000000   1.000000
  263      -12.719331    -12.439579   1.000000   1.000000
  264      -12.719311    -12.439561   1.000000   1.000000
  265      -12.719157    -12.439409   1.000000   1.000000
  266      -12.718372    -12.438569   1.000000   1.000000
  267      -12.697296    -12.417163   1.000000   1.000000
  268      -12.697245    -12.417106   1.000000   1.000000
  269      -12.694915    -12.415299   1.000000   1.000000
  270      -12.694765    -12.415157   1.000000   1.000000
  271      -12.694753    -12.415146   1.000000   1.000000
  272      -12.694748    -12.415141   1.000000   1.000000
  273      -12.692514    -12.413355   1.000000   1.000000
  274      -12.692301    -12.413219   1.000000   1.000000
  275      -12.691254    -12.411221   1.000000   1.000000
  276      -12.691227    -12.411198   1.000000   1.000000
  277      -12.691103    -12.411103   1.000000   1.000000
  278      -12.690937    -12.410951   1.000000   1.000000
  279      -12.673224    -12.393246   1.000000   1.000000
  280      -12.672674    -12.392655   1.000000   1.000000
  281      -12.672585    -12.392571   1.000000   1.000000
  282      -12.672188    -12.392165   1.000000   1.000000
  283      -12.668095    -12.389212   1.000000   1.000000
  284      -12.667606    -12.388712   1.000000   1.000000
  285      -12.667517    -12.388626   1.000000   1.000000
  286      -12.667029    -12.388088   1.000000   1.000000
  287      -12.654489    -12.374532   1.000000   1.000000
  288      -12.643722    -12.365993   1.000000   1.000000
  289       -7.800026     -7.599027   1.000000   1.000000
  290       -7.748234     -7.551512   1.000000   1.000000
  291       -7.505559     -7.319316   1.000000   1.000000
  292       -7.505385     -7.319131   1.000000   1.000000
  293       -7.505310     -7.319056   1.000000   1.000000
  294       -7.505159     -7.318893   1.000000   1.000000
  295       -7.501139     -7.309003   1.000000   1.000000
  296       -7.500975     -7.308836   1.000000   1.000000
  297       -7.500903     -7.308763   1.000000   1.000000
  298       -7.500762     -7.308609   1.000000   1.000000
  299       -7.315279     -7.117836   1.000000   1.000000
  300       -7.315028     -7.117565   1.000000   1.000000
  301       -7.297083     -7.093821   1.000000   1.000000
  302       -7.296829     -7.093546   1.000000   1.000000
  303       -7.296794     -7.093510   1.000000   1.000000
  304       -7.296551     -7.093245   1.000000   1.000000
  305       -7.269378     -7.062091   1.000000   1.000000
  306       -7.269092     -7.061782   1.000000   1.000000
  307       -7.088643     -6.894022   1.000000   1.000000
  308       -7.084803     -6.893849   1.000000   1.000000
  309       -7.084660     -6.893846   1.000000   1.000000
  310       -7.084654     -6.893652   1.000000   1.000000
  311       -7.084463     -6.796734   1.000000   1.000000
  312       -7.046571     -6.783804   1.000000   1.000000
  313       -7.000365     -6.768118   1.000000   1.000000
  314       -7.000146     -6.768001   1.000000   1.000000
  315       -6.999905     -6.767973   1.000000   1.000000
  316       -6.999769     -6.767742   1.000000   1.000000
  317       -6.999757     -6.766676   1.000000   1.000000
  318       -6.999657     -6.766430   1.000000   1.000000
  319       -6.999404     -6.766202   1.000000   1.000000
  320       -6.999201     -6.766081   1.000000   1.000000
  321       -6.994478     -6.766061   1.000000   1.000000
  322       -6.994192     -6.765943   1.000000   1.000000
  323       -6.994113     -6.765669   1.000000   1.000000
  324       -6.993823     -6.765409   1.000000   1.000000
  325       -6.955923     -6.745221   1.000000   1.000000
  326       -6.955771     -6.744903   1.000000   1.000000
  327       -6.955770     -6.744824   1.000000   1.000000
  328       -6.955580     -6.744492   1.000000   1.000000
  329       -6.948341     -6.697482   1.000000   1.000000
  330       -6.948281     -6.697428   1.000000   1.000000
  331       -6.928912     -6.689401   1.000000   1.000000
  332       -6.928666     -6.689126   1.000000   1.000000
  333       -6.928591     -6.689046   1.000000   1.000000
  334       -6.928284     -6.688711   1.000000   1.000000
  335       -6.911321     -6.639864   1.000000   1.000000
  336       -6.911298     -6.639467   1.000000   1.000000
  337       -6.885744     -6.639317   1.000000   1.000000
  338       -6.885643     -6.639092   1.000000   1.000000
  339       -6.885639     -6.639023   1.000000   1.000000
  340       -6.885590     -6.638958   1.000000   1.000000
  341       -6.877378     -6.638822   1.000000   1.000000
  342       -6.877173     -6.638603   1.000000   1.000000
  343       -6.876927     -6.638347   1.000000   1.000000
  344       -6.876812     -6.638304   1.000000   1.000000
  345       -6.876794     -6.638110   1.000000   1.000000
  346       -6.876667     -6.637797   1.000000   1.000000
  347       -6.876429     -6.628056   1.000000   1.000000
  348       -6.876188     -6.628038   1.000000   1.000000
  349       -6.832629     -6.586669   1.000000   1.000000
  350       -6.832555     -6.586590   1.000000   1.000000
  351       -6.794267     -6.499089   1.000000   1.000000
  352       -6.794249     -6.499070   1.000000   1.000000
  353       -1.525524     -0.414688   1.000000   1.000000
  354       -1.468190     -0.414523   1.000000   1.000000
  355       -1.467724     -0.414452   1.000000   1.000000
  356       -1.467609     -0.414394   1.000000   1.000000
  357       -1.467253      0.025897   1.000000   1.000000
  358       -1.460343      0.026318   1.000000   1.000000
  359       -1.460328      0.026442   1.000000   1.000000
  360       -1.460182      0.026695   1.000000   1.000000
  361       -1.460121      0.037749   1.000000   1.000000
  362       -1.421390      0.037789   1.000000   1.000000
  363       -1.421336      0.037936   1.000000   1.000000
  364       -1.382803      0.038042   1.000000   1.000000
  365       -1.382786      0.038063   1.000000   1.000000
  366       -1.382771      0.038235   1.000000   1.000000
  367       -1.382745      0.038271   1.000000   1.000000
  368       -1.333354      0.038354   1.000000   1.000000
  369       -1.332719      0.102892   1.000000   1.000000
  370       -1.332571      0.102913   1.000000   1.000000
  371       -1.332515      0.207417   1.000000   1.000000
  372       -1.332473      0.207541   1.000000   1.000000
  373       -1.332432      0.207544   1.000000   1.000000
  374       -1.332291      0.207687   1.000000   1.000000
  375       -1.331656      0.304166   1.000000   1.000000
  376       -1.292963      0.392186   1.000000   1.000000
  377       -1.292528      0.392546   1.000000   1.000000
  378       -1.292388      0.392704   1.000000   1.000000
  379       -1.291991      0.393109   1.000000   1.000000
  380       -1.256792      0.490795   1.000000   1.000000
  381       -1.256780      0.490996   1.000000   1.000000
  382       -1.232176      0.497482   1.000000   1.000000
  383       -1.232150      0.497682   1.000000   1.000000
  384       -1.220371      0.497737   1.000000   1.000000
  385       -0.822826      0.498048   1.000000   1.000000
  386       -0.822729      0.510668   1.000000   1.000000
  387       -0.822648      0.510703   1.000000   1.000000
  388       -0.822586      0.531105   1.000000   1.000000
  389       -0.722710      0.531198   1.000000   1.000000
  390       -0.722595      0.531232   1.000000   1.000000
  391       -0.699171      0.531462   1.000000   1.000000
  392       -0.699140      0.574102   1.000000   1.000000
  393       -0.698976      0.574224   1.000000   1.000000
  394       -0.698726      0.574265   1.000000   1.000000
  395       -0.688474      0.574365   1.000000   1.000000
  396       -0.688421      0.574403   1.000000   1.000000
  397       -0.688196      0.574453   1.000000   1.000000
  398       -0.688154      0.574556   1.000000   1.000000
  399       -0.666792      0.574704   1.000000   1.000000
  400       -0.666627      0.638616   1.000000   1.000000
  401       -0.666433      0.666303   1.000000   1.000000
  402       -0.666374      0.666337   1.000000   1.000000
  403       -0.652102      0.733083   1.000000   1.000000
  404       -0.651876      0.733102   1.000000   1.000000
  405       -0.651731      0.931364   1.000000   1.000000
  406       -0.651640      0.932551   1.000000   1.000000
  407       -0.589430      0.935489   1.000000   1.000000
  408       -0.589394      0.935755   1.000000   1.000000
  409       -0.576634      0.948610   1.000000   1.000000
  410       -0.576537      0.948907   1.000000   1.000000
  411       -0.576525      0.948963   1.000000   1.000000
  412       -0.576472      0.949073   1.000000   1.000000
  413       -0.553420      0.985990   1.000000   1.000000
  414       -0.553377      0.986194   1.000000   1.000000
  415       -0.553195      0.986248   1.000000   1.000000
  416       -0.552886      0.986404   1.000000   1.000000
  417       -0.497630      0.992781   1.000000   1.000000
  418       -0.496878      0.992975   1.000000   1.000000
  419       -0.472916      1.008782   1.000000   1.000000
  420       -0.472689      1.008933   1.000000   1.000000
  421       -0.461621      1.008948   1.000000   1.000000
  422       -0.461539      1.009126   1.000000   1.000000
  423       -0.461255      1.018467   1.000000   1.000000
  424       -0.461117      1.049097   1.000000   1.000000
  425       -0.459818      1.049148   1.000000   1.000000
  426       -0.459725      1.051574   1.000000   1.000000
  427       -0.459454      1.051681   1.000000   1.000000
  428       -0.459271      1.051789   1.000000   1.000000
  429       -0.410028      1.051858   1.000000   1.000000
  430       -0.409993      1.078702   1.000000   1.000000
  431       -0.407592      1.078735   1.000000   1.000000
  432       -0.407553      1.078815   1.000000   1.000000
  433       -0.407488      1.078973   1.000000   1.000000
  434       -0.407406      1.079790   1.000000   1.000000
  435       -0.407384      1.079884   1.000000   1.000000
  436       -0.407346      1.079912   1.000000   1.000000
  437       -0.383301      1.079949   1.000000   1.000000
  438       -0.383272      1.192812   1.000000   1.000000
  439       -0.378167      1.192914   1.000000   1.000000
  440       -0.368995      1.376460   1.000000   1.000000
  441       -0.368887      1.390363   1.000000   1.000000
  442       -0.368776      1.390925   1.000000   1.000000
  443       -0.368744      1.391104   1.000000   1.000000
  444       -0.368678      1.391245   1.000000   1.000000
  445       -0.368621      1.391554   1.000000   1.000000
  446       -0.368498      1.437312   1.000000   1.000000
  447       -0.368384      1.450204   1.000000   1.000000
  448       -0.353561      1.526148   1.000000   1.000000
  449       -0.353520      1.526393   1.000000   1.000000
  450       -0.349055      1.526401   1.000000   1.000000
  451       -0.341790      1.526589   1.000000   1.000000
  452       -0.335836      1.528749   1.000000   1.000000
  453       -0.335799      1.528928   1.000000   1.000000
  454       -0.335393      1.529045   1.000000   1.000000
  455       -0.335351      1.529172   1.000000   1.000000
  456       -0.334174      1.558298   1.000000   1.000000
  457       -0.334149      1.558323   1.000000   1.000000
  458       -0.334126      1.558359   1.000000   1.000000
  459       -0.334010      1.558364   1.000000   1.000000
  460       -0.324484      1.566467   1.000000   1.000000
  461       -0.324050      1.566780   1.000000   1.000000
  462       -0.323849      1.566933   1.000000   1.000000
  463       -0.323839      1.567117   1.000000   1.000000
  464       -0.321834      1.568069   1.000000   1.000000
  465       -0.321384      1.568289   1.000000   1.000000
  466       -0.321193      1.568521   1.000000   1.000000
  467       -0.321182      1.568695   1.000000   1.000000
  468       -0.303824      1.586366   1.000000   1.000000
  469       -0.295900      1.586865   1.000000   1.000000
  470       -0.288227      1.695608   1.000000   1.000000
  471       -0.287925      1.695832   1.000000   1.000000
  472       -0.287775      1.741001   1.000000   1.000000
  473       -0.287609      1.741058   1.000000   1.000000
  474       -0.280404      1.741371   1.000000   1.000000
  475       -0.280369      1.741430   1.000000   1.000000
  476       -0.275108      1.746856   1.000000   1.000000
  477       -0.275071      1.746873   1.000000   1.000000
  478       -0.274870      1.746898   1.000000   1.000000
  479       -0.274705      1.746898   1.000000   1.000000
  480       -0.241797      1.779032   1.000000   1.000000
  481       -0.241677      1.780580   1.000000   1.000000
  482       -0.241613      1.780683   1.000000   1.000000
  483       -0.241566      1.836751   1.000000   1.000000
  484       -0.241399      1.836900   1.000000   1.000000
  485       -0.241341      1.837388   1.000000   1.000000
  486       -0.241208      1.837610   1.000000   1.000000
  487       -0.241061      1.837744   1.000000   1.000000
  488       -0.207399      1.837767   1.000000   1.000000
  489       -0.207393      1.838492   1.000000   1.000000
  490       -0.199701      1.838567   1.000000   1.000000
  491       -0.199582      1.866212   1.000000   1.000000
  492       -0.199551      1.866415   1.000000   1.000000
  493       -0.199415      1.913133   1.000000   1.000000
  494       -0.194071      1.913164   1.000000   1.000000
  495       -0.193933      1.913392   1.000000   1.000000
  496       -0.164010      1.913506   1.000000   1.000000
  497       -0.163962      1.913589   1.000000   1.000000
  498       -0.163899      1.913769   1.000000   1.000000
  499       -0.163553      1.913851   1.000000   1.000000
  500       -0.156661      1.913940   1.000000   1.000000
  501       -0.156648      1.926684   1.000000   1.000000
  502       -0.156327      1.926960   1.000000   1.000000
  503       -0.155959      1.927098   1.000000   1.000000
  504       -0.139062      1.927377   1.000000   1.000000
  505       -0.139001      2.133169   1.000000   1.000000
  506       -0.138847      2.133329   1.000000   1.000000
  507       -0.138812      2.191257   1.000000   1.000000
  508       -0.090982      2.193190   1.000000   1.000000
  509       -0.090941      2.300625   1.000000   1.000000
  510       -0.082587      2.300672   1.000000   1.000000
  511       -0.082459      2.300772   1.000000   1.000000
  512       -0.082442      2.301271   1.000000   1.000000